<LesHouchesEvents version="3.0">
<header>
<!--
#*********************************************************************
#                                                                    *
#                        MadGraph5_aMC@NLO                           *
#                                                                    *
#                           Going Beyond                             *
#                                                                    *
#                   http://madgraph.hep.uiuc.edu                     *
#                   http://madgraph.phys.ucl.ac.be                   *
#                   http://amcatnlo.cern.ch                          *
#                                                                    *
#                     The MadGraph5_aMC@NLO team                     *
#                                                                    *
#....................................................................*
#                                                                    *
# This file contains all the information necessary to reproduce      *
# the events generated:                                              *
#                                                                    *
# 1. software version                                                *
# 2. proc_card          : code generation info including model       *
# 3. param_card         : model primary parameters in the LH format  *
# 4. run_card           : running parameters (collider and cuts)     *
# 5. pythia_card        : present only if pythia has been run        *
# 6. pgs_card           : present only if pgs has been run           *
# 7. delphes_cards      : present only if delphes has been run       *
#                                                                    *
#                                                                    *
#*********************************************************************
-->
<MGVersion>
#5.2.2.3
</MGVersion>
<MG5ProcCard>
#************************************************************
#*                     MadGraph5_aMC@NLO                    *
#*                                                          *
#*                *                       *                 *
#*                  *        * *        *                   *
#*                    * * * * 5 * * * *                     *
#*                  *        * *        *                   *
#*                *                       *                 *
#*                                                          *
#*                                                          *
#*         VERSION 2.2.3                 2015-02-10         *
#*                                                          *
#*    The MadGraph5_aMC@NLO Development Team - Find us at   *
#*    https://server06.fynu.ucl.ac.be/projects/madgraph     *
#*                                                          *
#************************************************************
#*                                                          *
#*               Command File for MadGraph5_aMC@NLO         *
#*                                                          *
#*     run as ./bin/mg5_aMC  filename                       *
#*                                                          *
#************************************************************
set group_subprocesses Auto
set ignore_six_quark_processes False
set loop_optimized_output True
set gauge unitary
set complex_mass_scheme False
import model sm
define p = g u c d s u~ c~ d~ s~
define j = g u c d s u~ c~ d~ s~
define l+ = e+ mu+
define l- = e- mu-
define vl = ve vm vt
define vl~ = ve~ vm~ vt~
import model Zprime_UFO
generate p p > zph, zph > j j
add process p p > zph, zph > b b~
output Dijet_signal
</MG5ProcCard>
<MGProcCard>
#*********************************************************************
#                        MadGraph/MadEvent                           *
#                   http://madgraph.hep.uiuc.edu                     *
#                                                                    *
#                          proc_card.dat                             *
#*********************************************************************
#                                                                    *
#            This Files is generated by MADGRAPH 5                   *
#                                                                    *
# WARNING: This Files is generated for MADEVENT (compatibility issue)*
#          This files is NOT a valid MG4 proc_card.dat               *
#          Running this in MG4 will NEVER reproduce the result of MG5*
#                                                                    *
#*********************************************************************
#*********************************************************************
# Process(es) requested : mg2 input                                  *
#*********************************************************************
# Begin PROCESS # This is TAG. Do not modify this line
p p > zph , zph > j j           #Process
# Be carefull the coupling are here in MG5 convention
          
end_coup           # End the couplings input

done               # this tells MG there are no more procs
# End PROCESS  # This is TAG. Do not modify this line
#*********************************************************************
# Model information                                                  *
#*********************************************************************
# Begin MODEL  # This is TAG. Do not modify this line
Zprime_UFO
# End   MODEL  # This is TAG. Do not modify this line
#*********************************************************************
# Start multiparticle definitions                                    *
#*********************************************************************
# Begin MULTIPARTICLES # This is TAG. Do not modify this line

# End  MULTIPARTICLES # This is TAG. Do not modify this line
</MGProcCard>
<MGRunCard>
#*********************************************************************
#                       MadGraph5_aMC@NLO                            *
#                                                                    *
#                     run_card.dat MadEvent                          *
#                                                                    *
#  This file is used to set the parameters of the run.               *
#                                                                    *
#  Some notation/conventions:                                        *
#                                                                    *
#   Lines starting with a '# ' are info or comments                  *
#                                                                    *
#   mind the format:   value    = variable     ! comment             *
#*********************************************************************
#
#*******************                                                 
# Running parameters
#*******************                                                 
#                                                                    
#*********************************************************************
# Tag name for the run (one word)                                    *
#*********************************************************************
  tag_1     = run_tag ! name of the run 
#*********************************************************************
# Run to generate the grid pack                                      *
#*********************************************************************
  .false.     = gridpack  !True = setting up the grid pack
#*********************************************************************
# Number of events and rnd seed                                      *
# Warning: Do not generate more than 1M events in a single run       *
# If you want to run Pythia, avoid more than 50k events in a run.    *
#*********************************************************************
  2000 = nevents ! Number of unweighted events requested 
 1434 = iseed   ! rnd seed (0=assigned automatically=default))
#*********************************************************************
# Collider type and energy                                           *
# lpp: 0=No PDF, 1=proton, -1=antiproton, 2=photon from proton,      *
#                                         3=photon from electron     *
#*********************************************************************
        1     = lpp1    ! beam 1 type 
        1     = lpp2    ! beam 2 type
     4000     = ebeam1  ! beam 1 total energy in GeV
     4000     = ebeam2  ! beam 2 total energy in GeV
#*********************************************************************
# Beam polarization from -100 (left-handed) to 100 (right-handed)    *
#*********************************************************************
        0     = polbeam1 ! beam polarization for beam 1
        0     = polbeam2 ! beam polarization for beam 2
#*********************************************************************
# PDF CHOICE: this automatically fixes also alpha_s and its evol.    *
#*********************************************************************
 'nn23lo1'    = pdlabel     ! PDF set                                     
 230000    = lhaid     ! if pdlabel=lhapdf, this is the lhapdf number
#*********************************************************************
# Renormalization and factorization scales                           *
#*********************************************************************
 F        = fixed_ren_scale  ! if .true. use fixed ren scale
 F        = fixed_fac_scale  ! if .true. use fixed fac scale
 91.1880  = scale            ! fixed ren scale
 91.1880  = dsqrt_q2fact1    ! fixed fact scale for pdf1
 91.1880  = dsqrt_q2fact2    ! fixed fact scale for pdf2
 1        = scalefact        ! scale factor for event-by-event scales
#*********************************************************************
# Matching - Warning! ickkw > 1 is still beta
#*********************************************************************
 0        = ickkw            ! 0 no matching, 1 MLM, 2 CKKW matching
 1        = highestmult      ! for ickkw=2, highest mult group
 1        = ktscheme         ! for ickkw=1, 1 Durham kT, 2 Pythia pTE
 1        = alpsfact         ! scale factor for QCD emission vx
 F        = chcluster        ! cluster only according to channel diag
 T        = pdfwgt           ! for ickkw=1, perform pdf reweighting
 5        = asrwgtflavor     ! highest quark flavor for a_s reweight
 T        = clusinfo         ! include clustering tag in output
 3.0      = lhe_version       ! Change the way clustering information pass to shower.        
#*********************************************************************
#**********************************************************
#
#**********************************************************
# Automatic ptj and mjj cuts if xqcut > 0
# (turn off for VBF and single top processes)
#**********************************************************
   T  = auto_ptj_mjj  ! Automatic setting of ptj and mjj
#**********************************************************
#                                                                    
#**********************************
# BW cutoff (M+/-bwcutoff*Gamma)
#**********************************
  15  = bwcutoff      ! (M+/-bwcutoff*Gamma)
#**********************************************************
# Apply pt/E/eta/dr/mij cuts on decay products or not
# (note that etmiss/ptll/ptheavy/ht/sorted cuts always apply)
#**********************************************************
   T  = cut_decays    ! Cut decay products 
#*************************************************************
# Number of helicities to sum per event (0 = all helicities)
# 0 gives more stable result, but longer run time (needed for
# long decay chains e.g.).
# Use >=2 if most helicities contribute, e.g. pure QCD.
#*************************************************************
   0  = nhel          ! Number of helicities used per event
#*******************                                                 
# Standard Cuts
#*******************                                                 
#                                                                    
#*********************************************************************
# Minimum and maximum pt's (for max, -1 means no cut)                *
#*********************************************************************
 20  = ptj       ! minimum pt for the jets 
  0  = ptb       ! minimum pt for the b 
 10  = pta       ! minimum pt for the photons 
 10  = ptl       ! minimum pt for the charged leptons 
  0  = misset    ! minimum missing Et (sum of neutrino's momenta)
  0  = ptheavy   ! minimum pt for one heavy final state
 1.0 = ptonium   ! minimum pt for the quarkonium states
 -1  = ptjmax    ! maximum pt for the jets
 -1  = ptbmax    ! maximum pt for the b
 -1  = ptamax    ! maximum pt for the photons
 -1  = ptlmax    ! maximum pt for the charged leptons
 -1  = missetmax ! maximum missing Et (sum of neutrino's momenta)
#*********************************************************************
# Minimum and maximum E's (in the center of mass frame)              *
#*********************************************************************
  0  = ej     ! minimum E for the jets 
  0  = eb     ! minimum E for the b 
  0  = ea     ! minimum E for the photons 
  0  = el     ! minimum E for the charged leptons 
 -1   = ejmax ! maximum E for the jets
 -1   = ebmax ! maximum E for the b
 -1   = eamax ! maximum E for the photons
 -1   = elmax ! maximum E for the charged leptons
#*********************************************************************
# Maximum and minimum absolute rapidity (for max, -1 means no cut)   *
#*********************************************************************
   5  = etaj    ! max rap for the jets 
  -1  = etab    ! max rap for the b
 2.5  = etaa    ! max rap for the photons 
 2.5  = etal    ! max rap for the charged leptons 
 0.6  = etaonium ! max rap for the quarkonium states
   0  = etajmin ! min rap for the jets
   0  = etabmin ! min rap for the b
   0  = etaamin ! min rap for the photons
   0  = etalmin ! main rap for the charged leptons
#*********************************************************************
# Minimum and maximum DeltaR distance                                *
#*********************************************************************
 0.4 = drjj    ! min distance between jets 
 0   = drbb    ! min distance between b's 
 0.4 = drll    ! min distance between leptons 
 0.4 = draa    ! min distance between gammas 
 0   = drbj    ! min distance between b and jet 
 0.4 = draj    ! min distance between gamma and jet 
 0.4 = drjl    ! min distance between jet and lepton 
 0   = drab    ! min distance between gamma and b 
 0   = drbl    ! min distance between b and lepton 
 0.4 = dral    ! min distance between gamma and lepton 
 -1  = drjjmax ! max distance between jets
 -1  = drbbmax ! max distance between b's
 -1  = drllmax ! max distance between leptons
 -1  = draamax ! max distance between gammas
 -1  = drbjmax ! max distance between b and jet
 -1  = drajmax ! max distance between gamma and jet
 -1  = drjlmax ! max distance between jet and lepton
 -1  = drabmax ! max distance between gamma and b
 -1  = drblmax ! max distance between b and lepton
 -1  = dralmax ! maxdistance between gamma and lepton
#*********************************************************************
# Minimum and maximum invariant mass for pairs                       *
# WARNING: for four lepton final state mmll cut require to have      *
#          different lepton masses for each flavor!                  *           
#*********************************************************************
 0   = mmjj    ! min invariant mass of a jet pair 
 0   = mmbb    ! min invariant mass of a b pair 
 0   = mmaa    ! min invariant mass of gamma gamma pair
 0   = mmll    ! min invariant mass of l+l- (same flavour) lepton pair
 -1  = mmjjmax ! max invariant mass of a jet pair
 -1  = mmbbmax ! max invariant mass of a b pair
 -1  = mmaamax ! max invariant mass of gamma gamma pair
 -1  = mmllmax ! max invariant mass of l+l- (same flavour) lepton pair
#*********************************************************************
# Minimum and maximum invariant mass for all letpons                 *
#*********************************************************************
 0   = mmnl    ! min invariant mass for all letpons (l+- and vl) 
 -1  = mmnlmax ! max invariant mass for all letpons (l+- and vl) 
#*********************************************************************
# Minimum and maximum pt for 4-momenta sum of leptons                *
#*********************************************************************
 0   = ptllmin  ! Minimum pt for 4-momenta sum of leptons(l and vl)
 -1  = ptllmax  ! Maximum pt for 4-momenta sum of leptons(l and vl)
#*********************************************************************
# Inclusive cuts                                                     *
#*********************************************************************
 0  = xptj ! minimum pt for at least one jet  
 0  = xptb ! minimum pt for at least one b 
 0  = xpta ! minimum pt for at least one photon 
 0  = xptl ! minimum pt for at least one charged lepton 
#*********************************************************************
# Control the pt's of the jets sorted by pt                          *
#*********************************************************************
 0   = ptj1min ! minimum pt for the leading jet in pt
 0   = ptj2min ! minimum pt for the second jet in pt
 0   = ptj3min ! minimum pt for the third jet in pt
 0   = ptj4min ! minimum pt for the fourth jet in pt
 -1  = ptj1max ! maximum pt for the leading jet in pt 
 -1  = ptj2max ! maximum pt for the second jet in pt
 -1  = ptj3max ! maximum pt for the third jet in pt
 -1  = ptj4max ! maximum pt for the fourth jet in pt
 0   = cutuse  ! reject event if fails any (0) / all (1) jet pt cuts
#*********************************************************************
# Control the pt's of leptons sorted by pt                           *
#*********************************************************************
 0   = ptl1min ! minimum pt for the leading lepton in pt
 0   = ptl2min ! minimum pt for the second lepton in pt
 0   = ptl3min ! minimum pt for the third lepton in pt
 0   = ptl4min ! minimum pt for the fourth lepton in pt
 -1  = ptl1max ! maximum pt for the leading lepton in pt 
 -1  = ptl2max ! maximum pt for the second lepton in pt
 -1  = ptl3max ! maximum pt for the third lepton in pt
 -1  = ptl4max ! maximum pt for the fourth lepton in pt
#*********************************************************************
# Control the Ht(k)=Sum of k leading jets                            *
#*********************************************************************
 0   = htjmin ! minimum jet HT=Sum(jet pt)
 -1  = htjmax ! maximum jet HT=Sum(jet pt)
 0   = ihtmin  !inclusive Ht for all partons (including b)
 -1  = ihtmax  !inclusive Ht for all partons (including b)
 0   = ht2min ! minimum Ht for the two leading jets
 0   = ht3min ! minimum Ht for the three leading jets
 0   = ht4min ! minimum Ht for the four leading jets
 -1  = ht2max ! maximum Ht for the two leading jets
 -1  = ht3max ! maximum Ht for the three leading jets
 -1  = ht4max ! maximum Ht for the four leading jets
#***********************************************************************
# Photon-isolation cuts, according to hep-ph/9801442                   *
# When ptgmin=0, all the other parameters are ignored                  *
# When ptgmin>0, pta and draj are not going to be used                 *
#***********************************************************************
   0 = ptgmin ! Min photon transverse momentum
 0.4 = R0gamma ! Radius of isolation code
 1.0 = xn ! n parameter of eq.(3.4) in hep-ph/9801442
 1.0 = epsgamma ! epsilon_gamma parameter of eq.(3.4) in hep-ph/9801442
 .true. = isoEM ! isolate photons from EM energy (photons and leptons)
#*********************************************************************
# WBF cuts                                                           *
#*********************************************************************
 0   = xetamin ! minimum rapidity for two jets in the WBF case  
 0   = deltaeta ! minimum rapidity for two jets in the WBF case 
#*********************************************************************
# KT DURHAM CUT                                                      *
#*********************************************************************
 -1    =  ktdurham        
 0.4  =  dparameter 
#*********************************************************************
# maximal pdg code for quark to be considered as a light jet         *
# (otherwise b cuts are applied)                                     *
#*********************************************************************
 4 = maxjetflavor    ! Maximum jet pdg code
#*********************************************************************
# Jet measure cuts                                                   *
#*********************************************************************
 0   = xqcut   ! minimum kt jet measure between partons
#*********************************************************************
#
#*********************************************************************
# Store info for systematics studies                                 *
# WARNING: If use_syst is T, matched Pythia output is                *
#          meaningful ONLY if plotted taking matchscale              *
#          reweighting into account!                                 *
#*********************************************************************
   F  = use_syst      ! Enable systematics studies
#
#**************************************
# Parameter of the systematics study
#  will be used by SysCalc (if installed)
#**************************************                                  
#
0.5 1 2 = sys_scalefact  # factorization/renormalization scale factor
0.5 1 2 = sys_alpsfact  # \alpha_s emission scale factors
30 50 = sys_matchscale # variation of merging scale
# PDF sets and number of members (0 or none for all members).
CT10nlo.LHgrid = sys_pdf # matching scales
# MSTW2008nlo68cl.LHgrid 1  = sys_pdf
</MGRunCard>
<slha>
######################################################################
## PARAM_CARD AUTOMATICALY GENERATED BY MG5 FOLLOWING UFO MODEL   ####
######################################################################
##                                                                  ##
##  Width set on Auto will be computed following the information    ##
##        present in the decay.py files of the model.               ##
##        See  arXiv:1402.1178 for more details.                    ##
##                                                                  ##
######################################################################

###################################
## INFORMATION FOR CKMBLOCK
###################################
Block ckmblock 
    1 2.277360e-01 # cabi 

###################################
## INFORMATION FOR FRBLOCK
###################################
Block frblock 
    1 6.000000e-01 # gz 

###################################
## INFORMATION FOR MASS
###################################
Block mass 
    1 5.040000e-03 # MD 
    2 2.550000e-03 # MU 
    3 1.010000e-01 # MS 
    4 1.270000e+00 # MC 
    5 4.700000e+00 # MB 
    6 1.720000e+02 # MT 
   11 5.110000e-04 # Me 
   13 1.056600e-01 # MM 
   15 1.777000e+00 # MTA 
   23 9.118760e+01 # MZ 
   25 1.200000e+02 # MH 
  10030 3.700000e+03 # MZph 
  10031 3.000000e+02 # MZpl 
## Dependent parameters, given by model restrictions.
## Those values should be edited following the 
## analytical expression. MG5 ignores those values 
## but they are important for interfacing the output of MG5
## to external program such as Pythia.
  12 0.000000 # ve : 0.0 
  14 0.000000 # vm : 0.0 
  16 0.000000 # vt : 0.0 
  21 0.000000 # g : 0.0 
  22 0.000000 # a : 0.0 
  24 79.824360 # w+ : cmath.sqrt(MZ__exp__2/2. + cmath.sqrt(MZ__exp__4/4. - (aEW*cmath.pi*MZ__exp__2)/(Gf*sqrt__2))) 

###################################
## INFORMATION FOR SMINPUTS
###################################
Block sminputs 
    1 1.279000e+02 # aEWM1 
    2 1.166370e-05 # Gf 
    3 1.184000e-01 # aS 

###################################
## INFORMATION FOR YUKAWA
###################################
Block yukawa 
    1 5.040000e-03 # ymdo 
    2 2.550000e-03 # ymup 
    3 1.010000e-01 # yms 
    4 1.270000e+00 # ymc 
    5 4.700000e+00 # ymb 
    6 1.720000e+02 # ymt 
   11 5.110000e-04 # yme 
   13 1.056600e-01 # ymm 
   15 1.777000e+00 # ymtau 

###################################
## INFORMATION FOR DECAY
###################################
DECAY   6 1.508336e+00 # WT 
DECAY  23 2.495200e+00 # WZ 
DECAY  24 2.085000e+00 # WW 
DECAY  25 5.753088e-03 # WH 
## Dependent parameters, given by model restrictions.
## Those values should be edited following the 
## analytical expression. MG5 ignores those values 
## but they are important for interfacing the output of MG5
## to external program such as Pythia.
DECAY  1 0.000000 # d : 0.0 
DECAY  2 0.000000 # u : 0.0 
DECAY  3 0.000000 # s : 0.0 
DECAY  4 0.000000 # c : 0.0 
DECAY  5 0.000000 # b : 0.0 
DECAY  11 0.000000 # e- : 0.0 
DECAY  12 0.000000 # ve : 0.0 
DECAY  13 0.000000 # mu- : 0.0 
DECAY  14 0.000000 # vm : 0.0 
DECAY  15 0.000000 # ta- : 0.0 
DECAY  16 0.000000 # vt : 0.0 
DECAY  21 0.000000 # g : 0.0 
DECAY  22 0.000000 # a : 0.0 
DECAY  10030 0.308725 # zph : (gz__exp__2*MZph*(5 + cmath.sqrt(1 - (4*MT__exp__2)/MZph__exp__2)))/(144.*cmath.pi) 
DECAY  10031 0.132629 # zpl : (5*gz__exp__2*MZpl)/(144.*cmath.pi) 
#===========================================================
# QUANTUM NUMBERS OF NEW STATE(S) (NON SM PDG CODE)
#===========================================================

Block QNUMBERS 10030  # zph 
        1 0  # 3 times electric charge
        2 3  # number of spin states (2S+1)
        3 1  # colour rep (1: singlet, 3: triplet, 8: octet)
        4 0  # Particle/Antiparticle distinction (0=own anti)
Block QNUMBERS 10031  # zpl 
        1 0  # 3 times electric charge
        2 3  # number of spin states (2S+1)
        3 1  # colour rep (1: singlet, 3: triplet, 8: octet)
        4 0  # Particle/Antiparticle distinction (0=own anti)
</slha>
## END BANNER##
<MGGenerationInfo>
#  Number of Events        :         3880
#  Integrated weight (pb)  :  0.41416E-04
#  Max wgt                 :  0.16863E-07
#  Average wgt             :  0.10674E-07
</MGGenerationInfo>
</header>
<init>
     2212     2212  0.40000000000E+04  0.40000000000E+04 0 0  247000  247000 2   1
  0.41452326585E-04  0.81971835699E-07  0.16862840000E-07   0
</init>
<event>
 5   0  0.1558258E-07  0.3698085E+04  0.7818609E-02  0.8068386E-01
        2   -1    0    0  501    0  0.00000000000E+00  0.00000000000E+00  0.12170788016E+04  0.12170788016E+04  0.25500000920E-02 0. -1.
       -2   -1    0    0    0  501  0.00000000000E+00  0.00000000000E+00 -0.28091502873E+04  0.28091502873E+04  0.25500000920E-02 0.  1.
    10030    2    1    2    0    0  0.00000000000E+00  0.00000000000E+00 -0.15920714857E+04  0.40262290889E+04  0.36980845124E+04 0.  0.
        1    1    3    3  502    0  0.13704539573E+04 -0.98699780607E+03 -0.16155915653E+04  0.23371873747E+04  0.50400001928E-02 0.  1.
       -1    1    3    3    0  502 -0.13704539573E+04  0.98699780607E+03  0.23520079639E+02  0.16890417143E+04  0.50400001928E-02 0. -1.
</event>
<event>
 5   0  0.1558258E-07  0.3701096E+04  0.7818609E-02  0.8067719E-01
        2   -1    0    0  501    0  0.00000000000E+00  0.00000000000E+00  0.17284863155E+04  0.17284863155E+04  0.25500000920E-02 0.  1.
       -2   -1    0    0    0  501  0.00000000000E+00  0.00000000000E+00 -0.19812294345E+04  0.19812294345E+04  0.25500000920E-02 0. -1.
    10030    2    1    2    0    0  0.00000000000E+00  0.00000000000E+00 -0.25274311902E+03  0.37097157500E+04  0.37010960352E+04 0.  0.
        1    1    3    3  502    0 -0.11940177248E+04 -0.59212996233E+03 -0.14131963443E+04  0.19425293117E+04  0.50400001928E-02 0. -1.
       -1    1    3    3    0  502  0.11940177248E+04  0.59212996233E+03  0.11604532253E+04  0.17671864382E+04  0.50400001928E-02 0.  1.
</event>
<event>
 5   0  0.1587026E-07  0.3698115E+04  0.7818609E-02  0.8068380E-01
       -2   -1    0    0    0  501  0.00000000000E+00  0.00000000000E+00  0.20124519232E+04  0.20124519232E+04  0.25500000920E-02 0.  1.
        2   -1    0    0  501    0  0.00000000000E+00  0.00000000000E+00 -0.16989289821E+04  0.16989289821E+04  0.25500000920E-02 0. -1.
    10030    2    1    2    0    0  0.00000000000E+00  0.00000000000E+00  0.31352294111E+03  0.37113809053E+04  0.36981145993E+04 0.  0.
        3    1    3    3  502    0  0.16055392217E+04 -0.84966655379E+03 -0.18990995813E+03  0.18264050064E+04  0.10100000352E+00 0. -1.
       -3    1    3    3    0  502 -0.16055392217E+04  0.84966655379E+03  0.50343289923E+03  0.18849758989E+04  0.10100000352E+00 0.  1.
</event>
<event>
 5   0  0.1558258E-07  0.3700659E+04  0.7818609E-02  0.8067816E-01
       -2   -1    0    0    0  501  0.00000000000E+00  0.00000000000E+00  0.16428290383E+04  0.16428290383E+04  0.25500000920E-02 0. -1.
        2   -1    0    0  501    0  0.00000000000E+00  0.00000000000E+00 -0.20840386729E+04  0.20840386729E+04  0.25500000920E-02 0.  1.
    10030    2    1    2    0    0  0.00000000000E+00  0.00000000000E+00 -0.44120963456E+03  0.37268677112E+04  0.37006589947E+04 0.  0.
        1    1    3    3  502    0  0.17561936214E+04  0.48470539680E+03  0.10504870311E+03  0.18248809791E+04  0.50400001928E-02 0. -1.
       -1    1    3    3    0  502 -0.17561936214E+04 -0.48470539680E+03 -0.54625833766E+03  0.19019867321E+04  0.50400001928E-02 0.  1.
</event>
<event>
 5   0  0.1587026E-07  0.3708850E+04  0.7818609E-02  0.8066003E-01
       -2   -1    0    0    0  501  0.00000000000E+00  0.00000000000E+00  0.12120811165E+04  0.12120811165E+04  0.25500000920E-02 0. -1.
        2   -1    0    0  501    0  0.00000000000E+00  0.00000000000E+00 -0.28371805583E+04  0.28371805583E+04  0.25500000920E-02 0.  1.
    10030    2    1    2    0    0  0.00000000000E+00  0.00000000000E+00 -0.16250994418E+04  0.40492616747E+04  0.37088504843E+04 0.  0.
        3    1    3    3  502    0  0.15611888070E+04 -0.98545501324E+03 -0.10030992330E+04  0.21011045085E+04  0.10100000352E+00 0.  1.
       -3    1    3    3    0  502 -0.15611888070E+04  0.98545501324E+03 -0.62200020877E+03  0.19481571662E+04  0.10100000352E+00 0. -1.
</event>
<event>
 5   0  0.5177000E-08  0.3702995E+04  0.7818609E-02  0.8067298E-01
        1   -1    0    0  501    0  0.00000000000E+00  0.00000000000E+00  0.25134753561E+04  0.25134753561E+04  0.50400001928E-02 0. -1.
       -1   -1    0    0    0  501  0.00000000000E+00  0.00000000000E+00 -0.13638657038E+04  0.13638657039E+04  0.50400001928E-02 0.  1.
    10030    2    1    2    0    0  0.00000000000E+00  0.00000000000E+00  0.11496096523E+04  0.38773410600E+04  0.37029949153E+04 0.  0.
        1    1    3    3  502    0 -0.15874647868E+04  0.79548393785E+03  0.25506828689E+02  0.17758067865E+04  0.50400001928E-02 0. -1.
       -1    1    3    3    0  502  0.15874647868E+04 -0.79548393785E+03  0.11241028236E+04  0.21015342735E+04  0.50400001928E-02 0.  1.
</event>
<event>
 5   0  0.5177000E-08  0.3693491E+04  0.7818609E-02  0.8069406E-01
        1   -1    0    0  501    0  0.00000000000E+00  0.00000000000E+00  0.14815172791E+04  0.14815172792E+04  0.50400001928E-02 0. -1.
       -1   -1    0    0    0  501  0.00000000000E+00  0.00000000000E+00 -0.23020110073E+04  0.23020110073E+04  0.50400001928E-02 0.  1.
    10030    2    1    2    0    0  0.00000000000E+00  0.00000000000E+00 -0.82049372814E+03  0.37835282865E+04  0.36934910771E+04 0.  0.
        3    1    3    3  502    0  0.17615282786E+03 -0.18007166124E+04 -0.78920960437E+03  0.19739457811E+04  0.10100000352E+00 0.  1.
       -3    1    3    3    0  502 -0.17615282786E+03  0.18007166124E+04 -0.31284123779E+02  0.18095825053E+04  0.10100000352E+00 0. -1.
</event>
<event>
 5   0  0.1558258E-07  0.3693321E+04  0.7818609E-02  0.8069443E-01
       -2   -1    0    0    0  501  0.00000000000E+00  0.00000000000E+00  0.11520530086E+04  0.11520530086E+04  0.25500000920E-02 0.  1.
        2   -1    0    0  501    0  0.00000000000E+00  0.00000000000E+00 -0.29600683962E+04  0.29600683962E+04  0.25500000920E-02 0. -1.
    10030    2    1    2    0    0  0.00000000000E+00  0.00000000000E+00 -0.18080153875E+04  0.41121214048E+04  0.36933213787E+04 0.  0.
        1    1    3    3  502    0 -0.11144001034E+04  0.10287353457E+04 -0.20770259767E+04  0.25718127673E+04  0.50400001928E-02 0. -1.
       -1    1    3    3    0  502  0.11144001034E+04 -0.10287353457E+04  0.26901058916E+03  0.15403086376E+04  0.50400001928E-02 0.  1.
</event>
<event>
 5   0  0.5177000E-08  0.3703502E+04  0.7818609E-02  0.8067186E-01
        1   -1    0    0  501    0  0.00000000000E+00  0.00000000000E+00  0.20228642587E+04  0.20228642587E+04  0.50400001928E-02 0. -1.
       -1   -1    0    0    0  501  0.00000000000E+00  0.00000000000E+00 -0.16951124691E+04  0.16951124691E+04  0.50400001928E-02 0.  1.
    10030    2    1    2    0    0  0.00000000000E+00  0.00000000000E+00  0.32775178958E+03  0.37179767278E+04  0.37035023576E+04 0.  0.
        2    1    3    3  502    0 -0.48150750129E+03 -0.11315871483E+04  0.15537155844E+04  0.19815072710E+04  0.25500000920E-02 0. -1.
       -2    1    3    3    0  502  0.48150750129E+03  0.11315871483E+04 -0.12259637948E+04  0.17364694567E+04  0.25500000920E-02 0.  1.
</event>
<event>
 5   0  0.1558258E-07  0.3709246E+04  0.7818609E-02  0.8065916E-01
       -2   -1    0    0    0  501  0.00000000000E+00  0.00000000000E+00  0.17102985525E+04  0.17102985525E+04  0.25500000920E-02 0. -1.
        2   -1    0    0  501    0  0.00000000000E+00  0.00000000000E+00 -0.20111261621E+04  0.20111261621E+04  0.25500000920E-02 0.  1.
    10030    2    1    2    0    0  0.00000000000E+00  0.00000000000E+00 -0.30082760955E+03  0.37214247146E+04  0.37092458338E+04 0.  0.
        1    1    3    3  502    0 -0.43873034958E+03  0.73806248073E+03 -0.17997108752E+04  0.19940360527E+04  0.50400001928E-02 0.  1.
       -1    1    3    3    0  502  0.43873034958E+03 -0.73806248073E+03  0.14988832657E+04  0.17273886619E+04  0.50400001928E-02 0. -1.
</event>
<event>
 5   0  0.5177000E-08  0.3688408E+04  0.7818609E-02  0.8070536E-01
       -4   -1    0    0    0  501  0.00000000000E+00  0.00000000000E+00  0.14015951939E+04  0.14015957693E+04  0.12699999809E+01 0. -1.
        4   -1    0    0  501    0  0.00000000000E+00  0.00000000000E+00 -0.24265827490E+04  0.24265830814E+04  0.12699999809E+01 0.  1.
    10030    2    1    2    0    0  0.00000000000E+00  0.00000000000E+00 -0.10249875551E+04  0.38281788507E+04  0.36884080339E+04 0.  0.
        3    1    3    3  502    0 -0.16374452749E+04  0.58832206663E+03  0.12201438923E+03  0.17442010790E+04  0.10100000352E+00 0. -1.
       -3    1    3    3    0  502  0.16374452749E+04 -0.58832206663E+03 -0.11470019443E+04  0.20839777717E+04  0.10100000352E+00 0.  1.
</event>
<event>
 5   0  0.1686284E-07  0.3706554E+04  0.7818609E-02  0.8066511E-01
       -2   -1    0    0    0  501  0.00000000000E+00  0.00000000000E+00  0.15398701606E+04  0.15398701606E+04  0.25500000920E-02 0. -1.
        2   -1    0    0  501    0  0.00000000000E+00  0.00000000000E+00 -0.22304710486E+04  0.22304710486E+04  0.25500000920E-02 0.  1.
    10030    2    1    2    0    0  0.00000000000E+00  0.00000000000E+00 -0.69060088801E+03  0.37703412093E+04  0.37065540935E+04 0.  0.
        5    1    3    3  502    0  0.18487253938E+04  0.12912898610E+03 -0.35791733402E+03  0.18874815985E+04  0.46999998093E+01 0.  1.
       -5    1    3    3    0  502 -0.18487253938E+04 -0.12912898610E+03 -0.33268355399E+03  0.18828596108E+04  0.46999998093E+01 0. -1.
</event>
<event>
 5   0  0.5181371E-08  0.3639311E+04  0.7818609E-02  0.8081546E-01
        1   -1    0    0  501    0  0.00000000000E+00  0.00000000000E+00  0.18647624972E+04  0.18647624972E+04  0.50400001928E-02 0. -1.
       -1   -1    0    0    0  501  0.00000000000E+00  0.00000000000E+00 -0.17756399333E+04  0.17756399333E+04  0.50400001928E-02 0.  1.
    10030    2    1    2    0    0  0.00000000000E+00  0.00000000000E+00  0.89122563845E+02  0.36404024305E+04  0.36393113393E+04 0.  0.
        5    1    3    3  502    0 -0.66728280108E+03 -0.10747494360E+04  0.13529182424E+04  0.18522317748E+04  0.46999998093E+01 0. -1.
       -5    1    3    3    0  502  0.66728280108E+03  0.10747494360E+04 -0.12637956786E+04  0.17881706557E+04  0.46999998093E+01 0.  1.
</event>
<event>
 5   0  0.5177000E-08  0.3695693E+04  0.7818609E-02  0.8068917E-01
       -1   -1    0    0    0  501  0.00000000000E+00  0.00000000000E+00  0.27993539392E+04  0.27993539392E+04  0.50400001928E-02 0.  1.
        1   -1    0    0  501    0  0.00000000000E+00  0.00000000000E+00 -0.12197590337E+04  0.12197590338E+04  0.50400001928E-02 0. -1.
    10030    2    1    2    0    0  0.00000000000E+00  0.00000000000E+00  0.15795949055E+04  0.40191129730E+04  0.36956933077E+04 0.  0.
        1    1    3    3  502    0 -0.15938755528E+04  0.17960835642E+03  0.17876095475E+04  0.24017173718E+04  0.50400001928E-02 0.  1.
       -1    1    3    3    0  502  0.15938755528E+04 -0.17960835642E+03 -0.20801464197E+03  0.16173956012E+04  0.50400001928E-02 0. -1.
</event>
<event>
 5   0  0.5177000E-08  0.3697720E+04  0.7818609E-02  0.8068467E-01
       -1   -1    0    0    0  501  0.00000000000E+00  0.00000000000E+00  0.19785098419E+04  0.19785098420E+04  0.50400001928E-02 0.  1.
        1   -1    0    0  501    0  0.00000000000E+00  0.00000000000E+00 -0.17277059336E+04  0.17277059336E+04  0.50400001928E-02 0. -1.
    10030    2    1    2    0    0  0.00000000000E+00  0.00000000000E+00  0.25080390831E+03  0.37062157756E+04  0.36977199427E+04 0.  0.
        3    1    3    3  502    0 -0.15850323566E+04  0.22767144657E+03  0.10517121988E+04  0.19157923735E+04  0.10100000352E+00 0.  1.
       -3    1    3    3    0  502  0.15850323566E+04 -0.22767144657E+03 -0.80090829045E+03  0.17904234021E+04  0.10100000352E+00 0. -1.
</event>
<event>
 5   0  0.5177000E-08  0.3683412E+04  0.7818609E-02  0.8071648E-01
       -1   -1    0    0    0  501  0.00000000000E+00  0.00000000000E+00  0.21975484084E+04  0.21975484084E+04  0.50400001928E-02 0. -1.
        1   -1    0    0  501    0  0.00000000000E+00  0.00000000000E+00 -0.15434840157E+04  0.15434840157E+04  0.50400001928E-02 0.  1.
    10030    2    1    2    0    0  0.00000000000E+00  0.00000000000E+00  0.65406439277E+03  0.37410324241E+04  0.36834119195E+04 0.  0.
        3    1    3    3  502    0  0.67247228772E+03  0.12827428102E+03 -0.14094526990E+04  0.15669174164E+04  0.10100000352E+00 0.  1.
       -3    1    3    3    0  502 -0.67247228772E+03 -0.12827428102E+03  0.20635170917E+04  0.21741150078E+04  0.10100000352E+00 0. -1.
</event>
<event>
 5   0  0.1558258E-07  0.3728053E+04  0.7818609E-02  0.8061773E-01
       -2   -1    0    0    0  501  0.00000000000E+00  0.00000000000E+00  0.13160970991E+04  0.13160970991E+04  0.25500000920E-02 0.  1.
        2   -1    0    0  501    0  0.00000000000E+00  0.00000000000E+00 -0.26400753794E+04  0.26400753794E+04  0.25500000920E-02 0. -1.
    10030    2    1    2    0    0  0.00000000000E+00  0.00000000000E+00 -0.13239782803E+04  0.39561724786E+04  0.37280534054E+04 0.  0.
        1    1    3    3  502    0 -0.22768976890E+03  0.14926317919E+04 -0.18219445378E+04  0.23662785542E+04  0.50400001928E-02 0. -1.
       -1    1    3    3    0  502  0.22768976890E+03 -0.14926317919E+04  0.49796625750E+03  0.15898939244E+04  0.50400001928E-02 0.  1.
</event>
<event>
 5   0  0.5177000E-08  0.3550965E+04  0.7818609E-02  0.8101817E-01
        1   -1    0    0  501    0  0.00000000000E+00  0.00000000000E+00  0.24526611097E+04  0.24526611097E+04  0.50400001928E-02 0.  1.
       -1   -1    0    0    0  501  0.00000000000E+00  0.00000000000E+00 -0.12852723761E+04  0.12852723761E+04  0.50400001928E-02 0. -1.
    10030    2    1    2    0    0  0.00000000000E+00  0.00000000000E+00  0.11673887336E+04  0.37379334858E+04  0.35509646983E+04 0.  0.
        4    1    3    3  502    0 -0.12870435983E+04  0.68313899952E+03 -0.48420420617E+03  0.15354528461E+04  0.12699999809E+01 0. -1.
       -4    1    3    3    0  502  0.12870435983E+04 -0.68313899952E+03  0.16515929397E+04  0.22024806397E+04  0.12699999809E+01 0.  1.
</event>
<event>
 5   0  0.5177000E-08  0.3705505E+04  0.7818609E-02  0.8066743E-01
       -1   -1    0    0    0  501  0.00000000000E+00  0.00000000000E+00  0.18421715155E+04  0.18421715155E+04  0.50400001928E-02 0. -1.
        1   -1    0    0  501    0  0.00000000000E+00  0.00000000000E+00 -0.18633937658E+04  0.18633937658E+04  0.50400001928E-02 0.  1.
    10030    2    1    2    0    0  0.00000000000E+00  0.00000000000E+00 -0.21222250250E+02  0.37055652813E+04  0.37055045096E+04 0.  0.
        1    1    3    3  502    0 -0.15313323092E+04 -0.80528064208E+02  0.10292268298E+04  0.18468273546E+04  0.50400001928E-02 0. -1.
       -1    1    3    3    0  502  0.15313323092E+04  0.80528064208E+02 -0.10504490801E+04  0.18587379267E+04  0.50400001928E-02 0.  1.
</event>
<event>
 5   0  0.1658770E-07  0.3671041E+04  0.7818609E-02  0.8074410E-01
        2   -1    0    0  501    0  0.00000000000E+00  0.00000000000E+00  0.26456203779E+04  0.26456203779E+04  0.25500000920E-02 0. -1.
       -2   -1    0    0    0  501  0.00000000000E+00  0.00000000000E+00 -0.12734767522E+04  0.12734767522E+04  0.25500000920E-02 0.  1.
    10030    2    1    2    0    0  0.00000000000E+00  0.00000000000E+00  0.13721436257E+04  0.39190971300E+04  0.36710412944E+04 0.  0.
        2    1    3    3  502    0  0.29376449241E+02  0.66589928684E+03  0.25118526575E+04  0.25987859875E+04  0.25500000920E-02 0. -1.
       -2    1    3    3    0  502 -0.29376449241E+02 -0.66589928684E+03 -0.11397090318E+04  0.13203111425E+04  0.25500000920E-02 0.  1.
</event>
<event>
 5   0  0.5177000E-08  0.3704038E+04  0.7818609E-02  0.8067067E-01
       -1   -1    0    0    0  501  0.00000000000E+00  0.00000000000E+00  0.14621020607E+04  0.14621020607E+04  0.50400001928E-02 0.  1.
        1   -1    0    0  501    0  0.00000000000E+00  0.00000000000E+00 -0.23459203515E+04  0.23459203515E+04  0.50400001928E-02 0. -1.
    10030    2    1    2    0    0  0.00000000000E+00  0.00000000000E+00 -0.88381829088E+03  0.38080224122E+04  0.37040383260E+04 0.  0.
        3    1    3    3  502    0  0.40969574596E+02  0.89948050424E+03  0.12219285101E+04  0.15178448463E+04  0.10100000352E+00 0.  1.
       -3    1    3    3    0  502 -0.40969574596E+02 -0.89948050424E+03 -0.21057468009E+04  0.22901775659E+04  0.10100000352E+00 0. -1.
</event>
<event>
 5   0  0.1587026E-07  0.3708363E+04  0.7818609E-02  0.8066111E-01
       -2   -1    0    0    0  501  0.00000000000E+00  0.00000000000E+00  0.14361856245E+04  0.14361856245E+04  0.25500000920E-02 0.  1.
        2   -1    0    0  501    0  0.00000000000E+00  0.00000000000E+00 -0.23938338482E+04  0.23938338482E+04  0.25500000920E-02 0. -1.
    10030    2    1    2    0    0  0.00000000000E+00  0.00000000000E+00 -0.95764822366E+03  0.38300194727E+04  0.37083633912E+04 0.  0.
        3    1    3    3  502    0 -0.13083647685E+04 -0.11809373470E+04  0.11587691941E+03  0.17663122192E+04  0.10100000352E+00 0.  1.
       -3    1    3    3    0  502  0.13083647685E+04  0.11809373470E+04 -0.10735251431E+04  0.20637072535E+04  0.10100000352E+00 0. -1.
</event>
<event>
 5   0  0.5177000E-08  0.3702910E+04  0.7818609E-02  0.8067317E-01
       -1   -1    0    0    0  501  0.00000000000E+00  0.00000000000E+00  0.31836940945E+04  0.31836940945E+04  0.50400001928E-02 0. -1.
        1   -1    0    0  501    0  0.00000000000E+00  0.00000000000E+00 -0.10767009332E+04  0.10767009332E+04  0.50400001928E-02 0.  1.
    10030    2    1    2    0    0  0.00000000000E+00  0.00000000000E+00  0.21069931613E+04  0.42603950278E+04  0.37029104244E+04 0.  0.
        1    1    3    3  502    0  0.10368661298E+04 -0.63349508354E+03  0.26607657165E+04  0.29250780486E+04  0.50400001928E-02 0. -1.
       -1    1    3    3    0  502 -0.10368661298E+04  0.63349508354E+03 -0.55377255525E+03  0.13353169792E+04  0.50400001928E-02 0.  1.
</event>
<event>
 5   0  0.1658770E-07  0.3699379E+04  0.7818609E-02  0.8068099E-01
       -2   -1    0    0    0  501  0.00000000000E+00  0.00000000000E+00  0.19303243496E+04  0.19303243496E+04  0.25500000920E-02 0.  1.
        2   -1    0    0  501    0  0.00000000000E+00  0.00000000000E+00 -0.17724228353E+04  0.17724228353E+04  0.25500000920E-02 0. -1.
    10030    2    1    2    0    0  0.00000000000E+00  0.00000000000E+00  0.15790151433E+03  0.37027471849E+04  0.36993788434E+04 0.  0.
        2    1    3    3  502    0  0.12046169691E+04 -0.11087066090E+04  0.94055890576E+03  0.18881163741E+04  0.25500000920E-02 0.  1.
       -2    1    3    3    0  502 -0.12046169691E+04  0.11087066090E+04 -0.78265739144E+03  0.18146308108E+04  0.25500000920E-02 0. -1.
</event>
<event>
 5   0  0.5177000E-08  0.3712239E+04  0.7818609E-02  0.8065255E-01
        1   -1    0    0  501    0  0.00000000000E+00  0.00000000000E+00  0.20322598164E+04  0.20322598164E+04  0.50400001928E-02 0. -1.
       -1   -1    0    0    0  501  0.00000000000E+00  0.00000000000E+00 -0.16952453287E+04  0.16952453287E+04  0.50400001928E-02 0.  1.
    10030    2    1    2    0    0  0.00000000000E+00  0.00000000000E+00  0.33701448767E+03  0.37275051451E+04  0.37122386563E+04 0.  0.
        2    1    3    3  502    0  0.12449425530E+04 -0.13731199867E+04  0.68910105152E+02  0.18547477081E+04  0.25500000920E-02 0. -1.
       -2    1    3    3    0  502 -0.12449425530E+04  0.13731199867E+04  0.26810438252E+03  0.18727574370E+04  0.25500000920E-02 0.  1.
</event>
<event>
 5   0  0.1587026E-07  0.3712092E+04  0.7818609E-02  0.8065287E-01
        2   -1    0    0  501    0  0.00000000000E+00  0.00000000000E+00  0.23519778641E+04  0.23519778641E+04  0.25500000920E-02 0. -1.
       -2   -1    0    0    0  501  0.00000000000E+00  0.00000000000E+00 -0.14646850635E+04  0.14646850635E+04  0.25500000920E-02 0.  1.
    10030    2    1    2    0    0  0.00000000000E+00  0.00000000000E+00  0.88729280062E+03  0.38166629276E+04  0.37120920501E+04 0.  0.
        3    1    3    3  502    0 -0.62317577812E+03  0.17351888022E+04  0.66339266203E+03  0.19594177870E+04  0.10100000352E+00 0.  1.
       -3    1    3    3    0  502  0.62317577812E+03 -0.17351888022E+04  0.22390013858E+03  0.18572451406E+04  0.10100000352E+00 0. -1.
</event>
<event>
 5   0  0.1686284E-07  0.3688329E+04  0.7818609E-02  0.8070553E-01
        2   -1    0    0  501    0  0.00000000000E+00  0.00000000000E+00  0.23443593902E+04  0.23443593902E+04  0.25500000920E-02 0. -1.
       -2   -1    0    0    0  501  0.00000000000E+00  0.00000000000E+00 -0.14506913609E+04  0.14506913609E+04  0.25500000920E-02 0.  1.
    10030    2    1    2    0    0  0.00000000000E+00  0.00000000000E+00  0.89366802930E+03  0.37950507512E+04  0.36883285723E+04 0.  0.
        5    1    3    3  502    0 -0.58747182096E+03  0.31407807069E+03 -0.13225609356E+04  0.14808638335E+04  0.46999998093E+01 0.  1.
       -5    1    3    3    0  502  0.58747182096E+03 -0.31407807069E+03  0.22162289649E+04  0.23141869177E+04  0.46999998093E+01 0. -1.
</event>
<event>
 5   0  0.5177000E-08  0.3724231E+04  0.7818609E-02  0.8062613E-01
        1   -1    0    0  501    0  0.00000000000E+00  0.00000000000E+00  0.23863490461E+04  0.23863490461E+04  0.50400001928E-02 0. -1.
       -1   -1    0    0    0  501  0.00000000000E+00  0.00000000000E+00 -0.14530455268E+04  0.14530455268E+04  0.50400001928E-02 0.  1.
    10030    2    1    2    0    0  0.00000000000E+00  0.00000000000E+00  0.93330351931E+03  0.38393945729E+04  0.37242308236E+04 0.  0.
        2    1    3    3  502    0 -0.15255670751E+04  0.66427838328E+02 -0.63199774450E+03  0.16526308443E+04  0.25500000920E-02 0.  1.
       -2    1    3    3    0  502  0.15255670751E+04 -0.66427838328E+02  0.15653012638E+04  0.21867637286E+04  0.25500000920E-02 0. -1.
</event>
<event>
 5   0  0.1587026E-07  0.3699954E+04  0.7818609E-02  0.8067972E-01
        2   -1    0    0  501    0  0.00000000000E+00  0.00000000000E+00  0.19755476807E+04  0.19755476807E+04  0.25500000920E-02 0. -1.
       -2   -1    0    0    0  501  0.00000000000E+00  0.00000000000E+00 -0.17323881820E+04  0.17323881820E+04  0.25500000920E-02 0.  1.
    10030    2    1    2    0    0  0.00000000000E+00  0.00000000000E+00  0.24315949867E+03  0.37079358626E+04  0.36999542997E+04 0.  0.
        3    1    3    3  502    0  0.58991000517E+03 -0.63175362985E+03 -0.15175858358E+04  0.17464745181E+04  0.10100000352E+00 0.  1.
       -3    1    3    3    0  502 -0.58991000517E+03  0.63175362985E+03  0.17607453345E+04  0.19614613446E+04  0.10100000352E+00 0. -1.
</event>
<event>
 5   0  0.1558258E-07  0.3702025E+04  0.7818609E-02  0.8067513E-01
       -2   -1    0    0    0  501  0.00000000000E+00  0.00000000000E+00  0.14478528898E+04  0.14478528898E+04  0.25500000920E-02 0. -1.
        2   -1    0    0  501    0  0.00000000000E+00  0.00000000000E+00 -0.23664332942E+04  0.23664332943E+04  0.25500000920E-02 0.  1.
    10030    2    1    2    0    0  0.00000000000E+00  0.00000000000E+00 -0.91858040444E+03  0.38142861841E+04  0.37020250046E+04 0.  0.
        1    1    3    3  502    0  0.14863400345E+04  0.67822684669E+03 -0.13557604940E+04  0.21230367097E+04  0.50400001928E-02 0. -1.
       -1    1    3    3    0  502 -0.14863400345E+04 -0.67822684669E+03  0.43718008957E+03  0.16912494743E+04  0.50400001928E-02 0.  1.
</event>
<event>
 5   0  0.5181371E-08  0.3710621E+04  0.7818609E-02  0.8065612E-01
        1   -1    0    0  501    0  0.00000000000E+00  0.00000000000E+00  0.22206000950E+04  0.22206000950E+04  0.50400001928E-02 0.  1.
       -1   -1    0    0    0  501  0.00000000000E+00  0.00000000000E+00 -0.15501109437E+04  0.15501109438E+04  0.50400001928E-02 0. -1.
    10030    2    1    2    0    0  0.00000000000E+00  0.00000000000E+00  0.67048915129E+03  0.37707110388E+04  0.37106207077E+04 0.  0.
        5    1    3    3  502    0  0.84325113469E+03  0.53093348203E+03 -0.12550884118E+04  0.16025703884E+04  0.46999998093E+01 0. -1.
       -5    1    3    3    0  502 -0.84325113469E+03 -0.53093348203E+03  0.19255775631E+04  0.21681406504E+04  0.46999998093E+01 0.  1.
</event>
<event>
 5   0  0.1587026E-07  0.3704892E+04  0.7818609E-02  0.8066879E-01
        2   -1    0    0  501    0  0.00000000000E+00  0.00000000000E+00  0.19184812440E+04  0.19184812440E+04  0.25500000920E-02 0. -1.
       -2   -1    0    0    0  501  0.00000000000E+00  0.00000000000E+00 -0.17886837330E+04  0.17886837330E+04  0.25500000920E-02 0.  1.
    10030    2    1    2    0    0  0.00000000000E+00  0.00000000000E+00  0.12979751100E+03  0.37071649770E+04  0.37048920056E+04 0.  0.
        3    1    3    3  502    0  0.92135942642E+03 -0.75197823534E+03  0.14860453303E+04  0.19033405352E+04  0.10100000352E+00 0. -1.
       -3    1    3    3    0  502 -0.92135942642E+03  0.75197823534E+03 -0.13562478193E+04  0.18038244418E+04  0.10100000352E+00 0.  1.
</event>
<event>
 5   0  0.5177000E-08  0.3551660E+04  0.7818609E-02  0.8101655E-01
       -1   -1    0    0    0  501  0.00000000000E+00  0.00000000000E+00  0.17591940342E+04  0.17591940342E+04  0.50400001928E-02 0. -1.
        1   -1    0    0  501    0  0.00000000000E+00  0.00000000000E+00 -0.17926235091E+04  0.17926235091E+04  0.50400001928E-02 0.  1.
    10030    2    1    2    0    0  0.00000000000E+00  0.00000000000E+00 -0.33429474900E+02  0.35518175434E+04  0.35516602219E+04 0.  0.
        4    1    3    3  502    0 -0.17684779312E+04 -0.16076934507E+03 -0.22229082029E+01  0.17757723755E+04  0.12699999809E+01 0.  1.
       -4    1    3    3    0  502  0.17684779312E+04  0.16076934507E+03 -0.31206566697E+02  0.17760451678E+04  0.12699999809E+01 0. -1.
</event>
<event>
 5   0  0.5177000E-08  0.3728505E+04  0.7818609E-02  0.8061674E-01
       -1   -1    0    0    0  501  0.00000000000E+00  0.00000000000E+00  0.11820529127E+04  0.11820529127E+04  0.50400001928E-02 0.  1.
        1   -1    0    0  501    0  0.00000000000E+00  0.00000000000E+00 -0.29401706673E+04  0.29401706673E+04  0.50400001928E-02 0. -1.
    10030    2    1    2    0    0  0.00000000000E+00  0.00000000000E+00 -0.17581177547E+04  0.41222235800E+04  0.37285049556E+04 0.  0.
        1    1    3    3  502    0  0.13234646344E+04  0.13042620557E+04 -0.71219374318E+03  0.19899442395E+04  0.50400001928E-02 0.  1.
       -1    1    3    3    0  502 -0.13234646344E+04 -0.13042620557E+04 -0.10459240115E+04  0.21322793406E+04  0.50400001928E-02 0. -1.
</event>
<event>
 5   0  0.5177000E-08  0.3707082E+04  0.7818609E-02  0.8066394E-01
        1   -1    0    0  501    0  0.00000000000E+00  0.00000000000E+00  0.12967577051E+04  0.12967577051E+04  0.50400001928E-02 0. -1.
       -1   -1    0    0    0  501  0.00000000000E+00  0.00000000000E+00 -0.26493882233E+04  0.26493882233E+04  0.50400001928E-02 0.  1.
    10030    2    1    2    0    0  0.00000000000E+00  0.00000000000E+00 -0.13526305182E+04  0.39461459284E+04  0.37070821908E+04 0.  0.
        3    1    3    3  502    0  0.57125524079E+03 -0.15559310390E+04 -0.15594946768E+04  0.22758026288E+04  0.10100000352E+00 0.  1.
       -3    1    3    3    0  502 -0.57125524079E+03  0.15559310390E+04  0.20686415856E+03  0.16703432996E+04  0.10100000352E+00 0. -1.
</event>
<event>
 5   0  0.1666189E-07  0.3709013E+04  0.7818609E-02  0.8065967E-01
        2   -1    0    0  501    0  0.00000000000E+00  0.00000000000E+00  0.20053809171E+04  0.20053809171E+04  0.25500000920E-02 0. -1.
       -2   -1    0    0    0  501  0.00000000000E+00  0.00000000000E+00 -0.17149828475E+04  0.17149828475E+04  0.25500000920E-02 0.  1.
    10030    2    1    2    0    0  0.00000000000E+00  0.00000000000E+00  0.29039806962E+03  0.37203637646E+04  0.37090127395E+04 0.  0.
        4    1    3    3  502    0 -0.64928521289E+03  0.11359443233E+04  0.14634705442E+04  0.19630813636E+04  0.12699999809E+01 0. -1.
       -4    1    3    3    0  502  0.64928521289E+03 -0.11359443233E+04 -0.11730724746E+04  0.17572824010E+04  0.12699999809E+01 0.  1.
</event>
<event>
 5   0  0.1666189E-07  0.3542235E+04  0.7818609E-02  0.8103853E-01
        2   -1    0    0  501    0  0.00000000000E+00  0.00000000000E+00  0.22934774902E+04  0.22934774902E+04  0.25500000920E-02 0. -1.
       -2   -1    0    0    0  501  0.00000000000E+00  0.00000000000E+00 -0.13677295167E+04  0.13677295167E+04  0.25500000920E-02 0.  1.
    10030    2    1    2    0    0  0.00000000000E+00  0.00000000000E+00  0.92574797351E+03  0.36612070069E+04  0.35422348083E+04 0.  0.
        4    1    3    3  502    0  0.87597478157E+03  0.14009609222E+04  0.11221305318E+04  0.19972986424E+04  0.12699999809E+01 0.  1.
       -4    1    3    3    0  502 -0.87597478157E+03 -0.14009609222E+04 -0.19638255831E+03  0.16639083645E+04  0.12699999809E+01 0. -1.
</event>
<event>
 5   0  0.5177000E-08  0.3691620E+04  0.7818609E-02  0.8069822E-01
        1   -1    0    0  501    0  0.00000000000E+00  0.00000000000E+00  0.11011094580E+04  0.11011094580E+04  0.50400001928E-02 0.  1.
       -1   -1    0    0    0  501  0.00000000000E+00  0.00000000000E+00 -0.30941644991E+04  0.30941644991E+04  0.50400001928E-02 0. -1.
    10030    2    1    2    0    0  0.00000000000E+00  0.00000000000E+00 -0.19930550411E+04  0.41952739571E+04  0.36916195874E+04 0.  0.
        2    1    3    3  502    0 -0.20561728347E+03  0.92502506700E+03  0.80358333113E+03  0.12424556378E+04  0.25500000920E-02 0.  1.
       -2    1    3    3    0  502  0.20561728347E+03 -0.92502506700E+03 -0.27966383722E+04  0.29528183193E+04  0.25500000920E-02 0. -1.
</event>
<event>
 5   0  0.5181371E-08  0.3686434E+04  0.7818609E-02  0.8070975E-01
       -1   -1    0    0    0  501  0.00000000000E+00  0.00000000000E+00  0.15175975912E+04  0.15175975912E+04  0.50400001928E-02 0.  1.
        1   -1    0    0  501    0  0.00000000000E+00  0.00000000000E+00 -0.22387026732E+04  0.22387026732E+04  0.50400001928E-02 0. -1.
    10030    2    1    2    0    0  0.00000000000E+00  0.00000000000E+00 -0.72110508208E+03  0.37563002644E+04  0.36864344748E+04 0.  0.
        5    1    3    3  502    0  0.14967390330E+04  0.92726494569E+03  0.19510783456E+03  0.17714788087E+04  0.46999998093E+01 0. -1.
       -5    1    3    3    0  502 -0.14967390330E+04 -0.92726494569E+03 -0.91621291664E+03  0.19848214557E+04  0.46999998093E+01 0.  1.
</event>
<event>
 5   0  0.5181371E-08  0.3746208E+04  0.7818609E-02  0.8057798E-01
        1   -1    0    0  501    0  0.00000000000E+00  0.00000000000E+00  0.19777530213E+04  0.19777530213E+04  0.50400001928E-02 0. -1.
       -1   -1    0    0    0  501  0.00000000000E+00  0.00000000000E+00 -0.17739922284E+04  0.17739922284E+04  0.50400001928E-02 0.  1.
    10030    2    1    2    0    0  0.00000000000E+00  0.00000000000E+00  0.20376079294E+03  0.37517452497E+04  0.37462079438E+04 0.  0.
        5    1    3    3  502    0  0.14329207131E+04 -0.13572035005E+03  0.13023241870E+04  0.19410698497E+04  0.46999998093E+01 0. -1.
       -5    1    3    3    0  502 -0.14329207131E+04  0.13572035005E+03 -0.10985633941E+04  0.18106754000E+04  0.46999998093E+01 0.  1.
</event>
<event>
 5   0  0.1658770E-07  0.3702976E+04  0.7818609E-02  0.8067303E-01
        2   -1    0    0  501    0  0.00000000000E+00  0.00000000000E+00  0.22199603247E+04  0.22199603247E+04  0.25500000920E-02 0. -1.
       -2   -1    0    0    0  501  0.00000000000E+00  0.00000000000E+00 -0.15441750427E+04  0.15441750427E+04  0.25500000920E-02 0.  1.
    10030    2    1    2    0    0  0.00000000000E+00  0.00000000000E+00  0.67578528201E+03  0.37641353675E+04  0.37029757381E+04 0.  0.
        2    1    3    3  502    0 -0.13409425569E+04 -0.84564890597E+03 -0.63433407283E+03  0.17075212236E+04  0.25500000920E-02 0.  1.
       -2    1    3    3    0  502  0.13409425569E+04  0.84564890597E+03  0.13101193548E+04  0.20566141439E+04  0.25500000920E-02 0. -1.
</event>
<event>
 5   0  0.1587026E-07  0.3708165E+04  0.7818609E-02  0.8066155E-01
       -2   -1    0    0    0  501  0.00000000000E+00  0.00000000000E+00  0.35372197766E+04  0.35372197766E+04  0.25500000920E-02 0. -1.
        2   -1    0    0  501    0  0.00000000000E+00  0.00000000000E+00 -0.97184266736E+03  0.97184266736E+03  0.25500000920E-02 0.  1.
    10030    2    1    2    0    0  0.00000000000E+00  0.00000000000E+00  0.25653771092E+04  0.45090624440E+04  0.37081645609E+04 0.  0.
        3    1    3    3  502    0 -0.11226674014E+04  0.12128047896E+04  0.26072539657E+03  0.16730975149E+04  0.10100000352E+00 0.  1.
       -3    1    3    3    0  502  0.11226674014E+04 -0.12128047896E+04  0.23046517127E+04  0.28359649290E+04  0.10100000352E+00 0. -1.
</event>
<event>
 5   0  0.1558258E-07  0.3692809E+04  0.7818609E-02  0.8069557E-01
       -2   -1    0    0    0  501  0.00000000000E+00  0.00000000000E+00  0.15766653435E+04  0.15766653435E+04  0.25500000920E-02 0. -1.
        2   -1    0    0  501    0  0.00000000000E+00  0.00000000000E+00 -0.21622906845E+04  0.21622906845E+04  0.25500000920E-02 0.  1.
    10030    2    1    2    0    0  0.00000000000E+00  0.00000000000E+00 -0.58562534097E+03  0.37389560280E+04  0.36928085706E+04 0.  0.
        1    1    3    3  502    0  0.12518157914E+04  0.98843306926E+03  0.64895397238E+03  0.17219709539E+04  0.50400001928E-02 0. -1.
       -1    1    3    3    0  502 -0.12518157914E+04 -0.98843306926E+03 -0.12345793133E+04  0.20169850740E+04  0.50400001928E-02 0.  1.
</event>
<event>
 5   0  0.1658770E-07  0.3706092E+04  0.7818609E-02  0.8066613E-01
        2   -1    0    0  501    0  0.00000000000E+00  0.00000000000E+00  0.26103079460E+04  0.26103079460E+04  0.25500000920E-02 0. -1.
       -2   -1    0    0    0  501  0.00000000000E+00  0.00000000000E+00 -0.13154692842E+04  0.13154692842E+04  0.25500000920E-02 0.  1.
    10030    2    1    2    0    0  0.00000000000E+00  0.00000000000E+00  0.12948386619E+04  0.39257772302E+04  0.37060922413E+04 0.  0.
        2    1    3    3  502    0  0.22674836690E+02  0.67554185871E+03  0.24750658562E+04  0.25657010628E+04  0.25500000920E-02 0. -1.
       -2    1    3    3    0  502 -0.22674836690E+02 -0.67554185871E+03 -0.11802271943E+04  0.13600761674E+04  0.25500000920E-02 0.  1.
</event>
<event>
 5   0  0.1587026E-07  0.3790657E+04  0.7818609E-02  0.8048163E-01
        2   -1    0    0  501    0  0.00000000000E+00  0.00000000000E+00  0.28692960161E+04  0.28692960161E+04  0.25500000920E-02 0.  1.
       -2   -1    0    0    0  501  0.00000000000E+00  0.00000000000E+00 -0.12519691252E+04  0.12519691252E+04  0.25500000920E-02 0. -1.
    10030    2    1    2    0    0  0.00000000000E+00  0.00000000000E+00  0.16173268909E+04  0.41212651413E+04  0.37906569474E+04 0.  0.
        3    1    3    3  502    0 -0.13866107925E+04 -0.12880605298E+04  0.91996700080E+03  0.21043119329E+04  0.10100000352E+00 0.  1.
       -3    1    3    3    0  502  0.13866107925E+04  0.12880605298E+04  0.69735989008E+03  0.20169532084E+04  0.10100000352E+00 0. -1.
</event>
<event>
 5   0  0.5181371E-08  0.3696225E+04  0.7818609E-02  0.8068799E-01
       -1   -1    0    0    0  501  0.00000000000E+00  0.00000000000E+00  0.26758918651E+04  0.26758918651E+04  0.50400001928E-02 0. -1.
        1   -1    0    0  501    0  0.00000000000E+00  0.00000000000E+00 -0.12764041001E+04  0.12764041002E+04  0.50400001928E-02 0.  1.
    10030    2    1    2    0    0  0.00000000000E+00  0.00000000000E+00  0.13994877649E+04  0.39522959652E+04  0.36962247486E+04 0.  0.
        5    1    3    3  502    0  0.46318575877E+03  0.92062637932E+03 -0.94061647697E+03  0.13953047782E+04  0.46999998093E+01 0.  1.
       -5    1    3    3    0  502 -0.46318575877E+03 -0.92062637932E+03  0.23401042419E+04  0.25569911870E+04  0.46999998093E+01 0. -1.
</event>
<event>
 5   0  0.1686284E-07  0.3720224E+04  0.7818609E-02  0.8063495E-01
        2   -1    0    0  501    0  0.00000000000E+00  0.00000000000E+00  0.12615425354E+04  0.12615425354E+04  0.25500000920E-02 0.  1.
       -2   -1    0    0    0  501  0.00000000000E+00  0.00000000000E+00 -0.27426874353E+04  0.27426874353E+04  0.25500000920E-02 0. -1.
    10030    2    1    2    0    0  0.00000000000E+00  0.00000000000E+00 -0.14811448998E+04  0.40042299707E+04  0.37202241121E+04 0.  0.
        5    1    3    3  502    0  0.27673922437E+03  0.12735375696E+04  0.68796865146E+03  0.14737046837E+04  0.46999998093E+01 0.  1.
       -5    1    3    3    0  502 -0.27673922437E+03 -0.12735375696E+04 -0.21691135513E+04  0.25305252870E+04  0.46999998093E+01 0. -1.
</event>
<event>
 5   0  0.5181371E-08  0.3714515E+04  0.7818609E-02  0.8064753E-01
        1   -1    0    0  501    0  0.00000000000E+00  0.00000000000E+00  0.24596525091E+04  0.24596525091E+04  0.50400001928E-02 0.  1.
       -1   -1    0    0    0  501  0.00000000000E+00  0.00000000000E+00 -0.14023958001E+04  0.14023958001E+04  0.50400001928E-02 0. -1.
    10030    2    1    2    0    0  0.00000000000E+00  0.00000000000E+00  0.10572567090E+04  0.38620483092E+04  0.37145154992E+04 0.  0.
        5    1    3    3  502    0 -0.32707536845E+03  0.15159670864E+03  0.24229203238E+04  0.24495968738E+04  0.46999998093E+01 0.  1.
       -5    1    3    3    0  502  0.32707536845E+03 -0.15159670864E+03 -0.13656636147E+04  0.14124514354E+04  0.46999998093E+01 0. -1.
</event>
<event>
 5   0  0.5177000E-08  0.3693864E+04  0.7818609E-02  0.8069323E-01
        1   -1    0    0  501    0  0.00000000000E+00  0.00000000000E+00  0.14176845854E+04  0.14176845854E+04  0.50400001928E-02 0.  1.
       -1   -1    0    0    0  501  0.00000000000E+00  0.00000000000E+00 -0.24061475864E+04  0.24061475864E+04  0.50400001928E-02 0. -1.
    10030    2    1    2    0    0  0.00000000000E+00  0.00000000000E+00 -0.98846300097E+03  0.38238321718E+04  0.36938642875E+04 0.  0.
        3    1    3    3  502    0 -0.99468503016E+03  0.62085844915E+03  0.98296481113E+03  0.15300599182E+04  0.10100000352E+00 0.  1.
       -3    1    3    3    0  502  0.99468503016E+03 -0.62085844915E+03 -0.19714278121E+04  0.22937722537E+04  0.10100000352E+00 0. -1.
</event>
<event>
 5   0  0.1587026E-07  0.3699887E+04  0.7818609E-02  0.8067987E-01
        2   -1    0    0  501    0  0.00000000000E+00  0.00000000000E+00  0.17720489924E+04  0.17720489924E+04  0.25500000920E-02 0. -1.
       -2   -1    0    0    0  501  0.00000000000E+00  0.00000000000E+00 -0.19312618887E+04  0.19312618887E+04  0.25500000920E-02 0.  1.
    10030    2    1    2    0    0  0.00000000000E+00  0.00000000000E+00 -0.15921289631E+03  0.37033108810E+04  0.36998868544E+04 0.  0.
        3    1    3    3  502    0  0.94733649168E+03  0.11681855082E+04  0.99851006967E+03  0.18053050101E+04  0.10100000352E+00 0. -1.
       -3    1    3    3    0  502 -0.94733649168E+03 -0.11681855082E+04 -0.11577229660E+04  0.18980058710E+04  0.10100000352E+00 0.  1.
</event>
<event>
 5   0  0.5177000E-08  0.3709629E+04  0.7818609E-02  0.8065831E-01
       -1   -1    0    0    0  501  0.00000000000E+00  0.00000000000E+00  0.18080378263E+04  0.18080378263E+04  0.50400001928E-02 0.  1.
        1   -1    0    0  501    0  0.00000000000E+00  0.00000000000E+00 -0.19028014349E+04  0.19028014349E+04  0.50400001928E-02 0. -1.
    10030    2    1    2    0    0  0.00000000000E+00  0.00000000000E+00 -0.94763608600E+02  0.37108392613E+04  0.37096290760E+04 0.  0.
        1    1    3    3  502    0 -0.83537023498E+03  0.16541881064E+04  0.31099188132E+02  0.18534154635E+04  0.50400001928E-02 0. -1.
       -1    1    3    3    0  502  0.83537023498E+03 -0.16541881064E+04 -0.12586279673E+03  0.18574237978E+04  0.50400001928E-02 0.  1.
</event>
<event>
 5   0  0.5177000E-08  0.3706173E+04  0.7818609E-02  0.8066595E-01
       -1   -1    0    0    0  501  0.00000000000E+00  0.00000000000E+00  0.14688725946E+04  0.14688725946E+04  0.50400001928E-02 0.  1.
        1   -1    0    0  501    0  0.00000000000E+00  0.00000000000E+00 -0.23377996145E+04  0.23377996145E+04  0.50400001928E-02 0. -1.
    10030    2    1    2    0    0  0.00000000000E+00  0.00000000000E+00 -0.86892701989E+03  0.38066722091E+04  0.37061731128E+04 0.  0.
        3    1    3    3  502    0  0.27961204956E+03  0.60737897632E+03 -0.22095748133E+04  0.23085304817E+04  0.10100000352E+00 0. -1.
       -3    1    3    3    0  502 -0.27961204956E+03 -0.60737897632E+03  0.13406477934E+04  0.14981417274E+04  0.10100000352E+00 0.  1.
</event>
<event>
 5   0  0.5177000E-08  0.3701517E+04  0.7818609E-02  0.8067626E-01
       -1   -1    0    0    0  501  0.00000000000E+00  0.00000000000E+00  0.15099491327E+04  0.15099491327E+04  0.50400001928E-02 0.  1.
        1   -1    0    0  501    0  0.00000000000E+00  0.00000000000E+00 -0.22684920062E+04  0.22684920062E+04  0.50400001928E-02 0. -1.
    10030    2    1    2    0    0  0.00000000000E+00  0.00000000000E+00 -0.75854287351E+03  0.37784411389E+04  0.37015172766E+04 0.  0.
        4    1    3    3  502    0  0.28010822140E+02 -0.74282513420E+03 -0.21094082494E+04  0.22365550656E+04  0.12699999809E+01 0. -1.
       -4    1    3    3    0  502 -0.28010822140E+02  0.74282513420E+03  0.13508653759E+04  0.15418860732E+04  0.12699999809E+01 0.  1.
</event>
<event>
 5   0  0.5181371E-08  0.3687832E+04  0.7818609E-02  0.8070664E-01
        1   -1    0    0  501    0  0.00000000000E+00  0.00000000000E+00  0.16607762473E+04  0.16607762473E+04  0.50400001928E-02 0.  1.
       -1   -1    0    0    0  501  0.00000000000E+00  0.00000000000E+00 -0.20472516871E+04  0.20472516871E+04  0.50400001928E-02 0. -1.
    10030    2    1    2    0    0  0.00000000000E+00  0.00000000000E+00 -0.38647543981E+03  0.37080279344E+04  0.36878324116E+04 0.  0.
        5    1    3    3  502    0  0.10525418737E+04  0.12637537890E+04 -0.10315220656E+04  0.19413855612E+04  0.46999998093E+01 0. -1.
       -5    1    3    3    0  502 -0.10525418737E+04 -0.12637537890E+04  0.64504662579E+03  0.17666423732E+04  0.46999998093E+01 0.  1.
</event>
<event>
 5   0  0.1666189E-07  0.3670060E+04  0.7818609E-02  0.8074629E-01
        2   -1    0    0  501    0  0.00000000000E+00  0.00000000000E+00  0.26149436739E+04  0.26149436739E+04  0.25500000920E-02 0.  1.
       -2   -1    0    0    0  501  0.00000000000E+00  0.00000000000E+00 -0.12877275088E+04  0.12877275088E+04  0.25500000920E-02 0. -1.
    10030    2    1    2    0    0  0.00000000000E+00  0.00000000000E+00  0.13272161651E+04  0.39026711827E+04  0.36700598920E+04 0.  0.
        4    1    3    3  502    0  0.48027462641E+03  0.35083898066E+03 -0.11823859234E+04  0.13235519604E+04  0.12699999809E+01 0. -1.
       -4    1    3    3    0  502 -0.48027462641E+03 -0.35083898066E+03  0.25096020885E+04  0.25791192223E+04  0.12699999809E+01 0.  1.
</event>
<event>
 5   0  0.1558258E-07  0.3693489E+04  0.7818609E-02  0.8069406E-01
        2   -1    0    0  501    0  0.00000000000E+00  0.00000000000E+00  0.22653483321E+04  0.22653483321E+04  0.25500000920E-02 0.  1.
       -2   -1    0    0    0  501  0.00000000000E+00  0.00000000000E+00 -0.15054926091E+04  0.15054926091E+04  0.25500000920E-02 0. -1.
    10030    2    1    2    0    0  0.00000000000E+00  0.00000000000E+00  0.75985572297E+03  0.37708409412E+04  0.36934889582E+04 0.  0.
        1    1    3    3  502    0  0.12098679638E+04 -0.34483470542E+03  0.17601933254E+04  0.21635554088E+04  0.50400001928E-02 0.  1.
       -1    1    3    3    0  502 -0.12098679638E+04  0.34483470542E+03 -0.10003376025E+04  0.16072855324E+04  0.50400001928E-02 0. -1.
</event>
<event>
 5   0  0.5177000E-08  0.3669487E+04  0.7818609E-02  0.8074758E-01
       -1   -1    0    0    0  501  0.00000000000E+00  0.00000000000E+00  0.31692059127E+04  0.31692059127E+04  0.50400001928E-02 0.  1.
        1   -1    0    0  501    0  0.00000000000E+00  0.00000000000E+00 -0.10621854312E+04  0.10621854312E+04  0.50400001928E-02 0. -1.
    10030    2    1    2    0    0  0.00000000000E+00  0.00000000000E+00  0.21070204815E+04  0.42313913439E+04  0.36694873478E+04 0.  0.
        4    1    3    3  502    0 -0.74206121878E+03  0.78387027161E+03  0.27643333668E+04  0.29675997087E+04  0.12699999809E+01 0.  1.
       -4    1    3    3    0  502  0.74206121878E+03 -0.78387027161E+03 -0.65731288532E+03  0.12637916352E+04  0.12699999809E+01 0. -1.
</event>
<event>
 5   0  0.1658770E-07  0.3696487E+04  0.7818609E-02  0.8068741E-01
       -2   -1    0    0    0  501  0.00000000000E+00  0.00000000000E+00  0.12680670072E+04  0.12680670072E+04  0.25500000920E-02 0. -1.
        2   -1    0    0  501    0  0.00000000000E+00  0.00000000000E+00 -0.26938676771E+04  0.26938676771E+04  0.25500000920E-02 0.  1.
    10030    2    1    2    0    0  0.00000000000E+00  0.00000000000E+00 -0.14258006699E+04  0.39619346844E+04  0.36964873722E+04 0.  0.
        2    1    3    3  502    0  0.14255783689E+04 -0.11750511943E+04 -0.65433465267E+03  0.19598910258E+04  0.25500000920E-02 0. -1.
       -2    1    3    3    0  502 -0.14255783689E+04  0.11750511943E+04 -0.77146601720E+03  0.20020436586E+04  0.25500000920E-02 0.  1.
</event>
<event>
 5   0  0.5181371E-08  0.3668368E+04  0.7818609E-02  0.8075008E-01
       -1   -1    0    0    0  501  0.00000000000E+00  0.00000000000E+00  0.14328292651E+04  0.14328292651E+04  0.50400001928E-02 0. -1.
        1   -1    0    0  501    0  0.00000000000E+00  0.00000000000E+00 -0.23479636766E+04  0.23479636766E+04  0.50400001928E-02 0.  1.
    10030    2    1    2    0    0  0.00000000000E+00  0.00000000000E+00 -0.91513441148E+03  0.37807929416E+04  0.36683680672E+04 0.  0.
        5    1    3    3  502    0  0.17493977128E+04  0.34196504638E+03 -0.12026520681E+02  0.17825541163E+04  0.46999998093E+01 0. -1.
       -5    1    3    3    0  502 -0.17493977128E+04 -0.34196504638E+03 -0.90310789080E+03  0.19982388253E+04  0.46999998093E+01 0.  1.
</event>
<event>
 5   0  0.1658770E-07  0.3704111E+04  0.7818609E-02  0.8067052E-01
       -2   -1    0    0    0  501  0.00000000000E+00  0.00000000000E+00  0.11306514935E+04  0.11306514935E+04  0.25500000920E-02 0.  1.
        2   -1    0    0  501    0  0.00000000000E+00  0.00000000000E+00 -0.30337453045E+04  0.30337453045E+04  0.25500000920E-02 0. -1.
    10030    2    1    2    0    0  0.00000000000E+00  0.00000000000E+00 -0.19030938110E+04  0.41643967981E+04  0.37041105056E+04 0.  0.
        2    1    3    3  502    0 -0.55474571602E+03 -0.81574077808E+03 -0.27137859174E+04  0.28875265941E+04  0.25500000920E-02 0. -1.
       -2    1    3    3    0  502  0.55474571602E+03  0.81574077808E+03  0.81069210632E+03  0.12768702039E+04  0.25500000920E-02 0.  1.
</event>
<event>
 5   0  0.5177000E-08  0.3684184E+04  0.7818609E-02  0.8071476E-01
        1   -1    0    0  501    0  0.00000000000E+00  0.00000000000E+00  0.13045896710E+04  0.13045896710E+04  0.50400001928E-02 0. -1.
       -1   -1    0    0    0  501  0.00000000000E+00  0.00000000000E+00 -0.26010502633E+04  0.26010502633E+04  0.50400001928E-02 0.  1.
    10030    2    1    2    0    0  0.00000000000E+00  0.00000000000E+00 -0.12964605923E+04  0.39056399343E+04  0.36841842013E+04 0.  0.
        4    1    3    3  502    0 -0.11404928058E+04 -0.13667101465E+04 -0.11507282099E+04  0.21196220159E+04  0.12699999809E+01 0.  1.
       -4    1    3    3    0  502  0.11404928058E+04  0.13667101465E+04 -0.14573238244E+03  0.17860179184E+04  0.12699999809E+01 0. -1.
</event>
<event>
 5   0  0.5177000E-08  0.3646247E+04  0.7818609E-02  0.8079980E-01
       -1   -1    0    0    0  501  0.00000000000E+00  0.00000000000E+00  0.19344366797E+04  0.19344366797E+04  0.50400001928E-02 0. -1.
        1   -1    0    0  501    0  0.00000000000E+00  0.00000000000E+00 -0.17182152870E+04  0.17182152870E+04  0.50400001928E-02 0.  1.
    10030    2    1    2    0    0  0.00000000000E+00  0.00000000000E+00  0.21622139271E+03  0.36526519667E+04  0.36462466591E+04 0.  0.
        4    1    3    3  502    0  0.34491038377E+03  0.83161553913E+03 -0.14799910466E+04  0.17323171444E+04  0.12699999809E+01 0.  1.
       -4    1    3    3    0  502 -0.34491038377E+03 -0.83161553913E+03  0.16962124393E+04  0.19203348223E+04  0.12699999809E+01 0. -1.
</event>
<event>
 5   0  0.5177000E-08  0.3700591E+04  0.7818609E-02  0.8067831E-01
       -1   -1    0    0    0  501  0.00000000000E+00  0.00000000000E+00  0.16560789917E+04  0.16560789917E+04  0.50400001928E-02 0.  1.
        1   -1    0    0  501    0  0.00000000000E+00  0.00000000000E+00 -0.20672885950E+04  0.20672885950E+04  0.50400001928E-02 0. -1.
    10030    2    1    2    0    0  0.00000000000E+00  0.00000000000E+00 -0.41120960324E+03  0.37233675867E+04  0.37005908782E+04 0.  0.
        2    1    3    3  502    0 -0.38004014832E+03  0.17895320588E+04 -0.48432551945E+03  0.18924657758E+04  0.25500000920E-02 0.  1.
       -2    1    3    3    0  502  0.38004014832E+03 -0.17895320588E+04  0.73115916210E+02  0.18309018109E+04  0.25500000920E-02 0. -1.
</event>
<event>
 5   0  0.1658770E-07  0.3704501E+04  0.7818609E-02  0.8066965E-01
        2   -1    0    0  501    0  0.00000000000E+00  0.00000000000E+00  0.15796984391E+04  0.15796984391E+04  0.25500000920E-02 0. -1.
       -2   -1    0    0    0  501  0.00000000000E+00  0.00000000000E+00 -0.21718267513E+04  0.21718267513E+04  0.25500000920E-02 0.  1.
    10030    2    1    2    0    0  0.00000000000E+00  0.00000000000E+00 -0.59212831222E+03  0.37515251904E+04  0.37045006838E+04 0.  0.
        2    1    3    3  502    0 -0.88604821709E+03  0.14131908250E+03  0.13449308399E+04  0.16167533795E+04  0.25500000920E-02 0. -1.
       -2    1    3    3    0  502  0.88604821709E+03 -0.14131908250E+03 -0.19370591521E+04  0.21347718109E+04  0.25500000920E-02 0.  1.
</event>
<event>
 5   0  0.5177000E-08  0.3688289E+04  0.7818609E-02  0.8070562E-01
        3   -1    0    0  501    0  0.00000000000E+00  0.00000000000E+00  0.15449762618E+04  0.15449762651E+04  0.10100000352E+00 0.  1.
       -3   -1    0    0    0  501  0.00000000000E+00  0.00000000000E+00 -0.22012430554E+04  0.22012430577E+04  0.10100000352E+00 0. -1.
    10030    2    1    2    0    0  0.00000000000E+00  0.00000000000E+00 -0.65626679357E+03  0.37462193229E+04  0.36882886425E+04 0.  0.
        3    1    3    3  502    0  0.74393644454E+03 -0.14972811677E+04 -0.11185437204E+04  0.20115746054E+04  0.10100000352E+00 0. -1.
       -3    1    3    3    0  502 -0.74393644454E+03  0.14972811677E+04  0.46227692680E+03  0.17346447175E+04  0.10100000352E+00 0.  1.
</event>
<event>
 5   0  0.1686284E-07  0.3713398E+04  0.7818609E-02  0.8064999E-01
       -2   -1    0    0    0  501  0.00000000000E+00  0.00000000000E+00  0.13490940784E+04  0.13490940784E+04  0.25500000920E-02 0.  1.
        2   -1    0    0  501    0  0.00000000000E+00  0.00000000000E+00 -0.25552934375E+04  0.25552934375E+04  0.25500000920E-02 0. -1.
    10030    2    1    2    0    0  0.00000000000E+00  0.00000000000E+00 -0.12061993591E+04  0.39043875160E+04  0.37133980370E+04 0.  0.
        5    1    3    3  502    0 -0.14039530483E+04  0.44676889747E+03  0.58488999769E+03  0.15851829576E+04  0.46999998093E+01 0. -1.
       -5    1    3    3    0  502  0.14039530483E+04 -0.44676889747E+03 -0.17910893568E+04  0.23192045584E+04  0.46999998093E+01 0.  1.
</event>
<event>
 5   0  0.1686284E-07  0.3700861E+04  0.7818609E-02  0.8067771E-01
       -2   -1    0    0    0  501  0.00000000000E+00  0.00000000000E+00  0.15548360069E+04  0.15548360069E+04  0.25500000920E-02 0.  1.
        2   -1    0    0  501    0  0.00000000000E+00  0.00000000000E+00 -0.22022214843E+04  0.22022214843E+04  0.25500000920E-02 0. -1.
    10030    2    1    2    0    0  0.00000000000E+00  0.00000000000E+00 -0.64738547736E+03  0.37570574912E+04  0.37008611209E+04 0.  0.
        5    1    3    3  502    0  0.47520816017E+03 -0.16183678505E+04  0.44887138525E+03  0.17454068023E+04  0.46999998093E+01 0.  1.
       -5    1    3    3    0  502 -0.47520816017E+03  0.16183678505E+04 -0.10962568626E+04  0.20116506889E+04  0.46999998093E+01 0. -1.
</event>
<event>
 5   0  0.1666189E-07  0.3695293E+04  0.7818609E-02  0.8069006E-01
        2   -1    0    0  501    0  0.00000000000E+00  0.00000000000E+00  0.20140136743E+04  0.20140136743E+04  0.25500000920E-02 0.  1.
       -2   -1    0    0    0  501  0.00000000000E+00  0.00000000000E+00 -0.16950221051E+04  0.16950221051E+04  0.25500000920E-02 0. -1.
    10030    2    1    2    0    0  0.00000000000E+00  0.00000000000E+00  0.31899156922E+03  0.37090357793E+04  0.36952930589E+04 0.  0.
        4    1    3    3  502    0 -0.82348647214E+03 -0.10629059691E+04  0.14314485448E+04  0.19639107969E+04  0.12699999809E+01 0.  1.
       -4    1    3    3    0  502  0.82348647214E+03  0.10629059691E+04 -0.11124569755E+04  0.17451249824E+04  0.12699999809E+01 0. -1.
</event>
<event>
 5   0  0.5177000E-08  0.3685969E+04  0.7818609E-02  0.8071078E-01
       -1   -1    0    0    0  501  0.00000000000E+00  0.00000000000E+00  0.21875121847E+04  0.21875121847E+04  0.50400001928E-02 0.  1.
        1   -1    0    0  501    0  0.00000000000E+00  0.00000000000E+00 -0.15527189946E+04  0.15527189946E+04  0.50400001928E-02 0. -1.
    10030    2    1    2    0    0  0.00000000000E+00  0.00000000000E+00  0.63479319007E+03  0.37402311793E+04  0.36859689201E+04 0.  0.
        4    1    3    3  502    0 -0.50422871941E+03 -0.77543547488E+03  0.19349283399E+04  0.21446435766E+04  0.12699999809E+01 0.  1.
       -4    1    3    3    0  502  0.50422871941E+03  0.77543547488E+03 -0.13001351498E+04  0.15955876027E+04  0.12699999809E+01 0. -1.
</event>
<event>
 5   0  0.5177000E-08  0.3699569E+04  0.7818609E-02  0.8068057E-01
       -1   -1    0    0    0  501  0.00000000000E+00  0.00000000000E+00  0.16178377540E+04  0.16178377540E+04  0.50400001928E-02 0.  1.
        1   -1    0    0  501    0  0.00000000000E+00  0.00000000000E+00 -0.21149845500E+04  0.21149845500E+04  0.50400001928E-02 0. -1.
    10030    2    1    2    0    0  0.00000000000E+00  0.00000000000E+00 -0.49714679602E+03  0.37328223040E+04  0.36995685447E+04 0.  0.
        2    1    3    3  502    0 -0.22348171899E+03  0.16941855653E+04 -0.96310048282E+03  0.19615736918E+04  0.25500000920E-02 0. -1.
       -2    1    3    3    0  502  0.22348171899E+03 -0.16941855653E+04  0.46595368680E+03  0.17712486123E+04  0.25500000920E-02 0.  1.
</event>
<event>
 5   0  0.1658770E-07  0.3690245E+04  0.7818609E-02  0.8070127E-01
        2   -1    0    0  501    0  0.00000000000E+00  0.00000000000E+00  0.10466535225E+04  0.10466535225E+04  0.25500000920E-02 0. -1.
       -2   -1    0    0    0  501  0.00000000000E+00  0.00000000000E+00 -0.32527263582E+04  0.32527263582E+04  0.25500000920E-02 0.  1.
    10030    2    1    2    0    0  0.00000000000E+00  0.00000000000E+00 -0.22060728357E+04  0.42993798806E+04  0.36902452495E+04 0.  0.
        2    1    3    3  502    0  0.17014707684E+04  0.89997797383E+02 -0.27807814915E+03  0.17263921444E+04  0.25500000920E-02 0. -1.
       -2    1    3    3    0  502 -0.17014707684E+04 -0.89997797383E+02 -0.19279946866E+04  0.25729877362E+04  0.25500000920E-02 0.  1.
</event>
<event>
 5   0  0.5177000E-08  0.3672760E+04  0.7818609E-02  0.8074025E-01
       -1   -1    0    0    0  501  0.00000000000E+00  0.00000000000E+00  0.13375315486E+04  0.13375315487E+04  0.50400001928E-02 0.  1.
        1   -1    0    0  501    0  0.00000000000E+00  0.00000000000E+00 -0.25212806499E+04  0.25212806499E+04  0.50400001928E-02 0. -1.
    10030    2    1    2    0    0  0.00000000000E+00  0.00000000000E+00 -0.11837491013E+04  0.38588121986E+04  0.36727604944E+04 0.  0.
        2    1    3    3  502    0  0.94294788067E+03  0.12773647879E+04 -0.15613760633E+04  0.22268153758E+04  0.25500000920E-02 0. -1.
       -2    1    3    3    0  502 -0.94294788067E+03 -0.12773647879E+04  0.37762696203E+03  0.16319968227E+04  0.25500000920E-02 0.  1.
</event>
<event>
 5   0  0.1587026E-07  0.3689782E+04  0.7818609E-02  0.8070230E-01
        2   -1    0    0  501    0  0.00000000000E+00  0.00000000000E+00  0.25545266175E+04  0.25545266175E+04  0.25500000920E-02 0.  1.
       -2   -1    0    0    0  501  0.00000000000E+00  0.00000000000E+00 -0.13323885996E+04  0.13323885996E+04  0.25500000920E-02 0. -1.
    10030    2    1    2    0    0  0.00000000000E+00  0.00000000000E+00  0.12221380179E+04  0.38869152171E+04  0.36897816426E+04 0.  0.
        3    1    3    3  502    0 -0.60901187267E+03 -0.50970847156E+03  0.23652458818E+04  0.24950122802E+04  0.10100000352E+00 0.  1.
       -3    1    3    3    0  502  0.60901187267E+03  0.50970847156E+03 -0.11431078639E+04  0.13919029369E+04  0.10100000352E+00 0. -1.
</event>
<event>
 5   0  0.1686284E-07  0.3696852E+04  0.7818609E-02  0.8068660E-01
        2   -1    0    0  501    0  0.00000000000E+00  0.00000000000E+00  0.30949882326E+04  0.30949882326E+04  0.25500000920E-02 0. -1.
       -2   -1    0    0    0  501  0.00000000000E+00  0.00000000000E+00 -0.11039389251E+04  0.11039389251E+04  0.25500000920E-02 0.  1.
    10030    2    1    2    0    0  0.00000000000E+00  0.00000000000E+00  0.19910493076E+04  0.41989271577E+04  0.36968516241E+04 0.  0.
        5    1    3    3  502    0 -0.57654674752E+03  0.91748376563E+03  0.26963901023E+04  0.29059807787E+04  0.46999998093E+01 0. -1.
       -5    1    3    3    0  502  0.57654674752E+03 -0.91748376563E+03 -0.70534079474E+03  0.12929463790E+04  0.46999998093E+01 0.  1.
</event>
<event>
 5   0  0.5181371E-08  0.3703232E+04  0.7818609E-02  0.8067246E-01
       -1   -1    0    0    0  501  0.00000000000E+00  0.00000000000E+00  0.10938219615E+04  0.10938219615E+04  0.50400001928E-02 0. -1.
        1   -1    0    0  501    0  0.00000000000E+00  0.00000000000E+00 -0.31344064565E+04  0.31344064565E+04  0.50400001928E-02 0.  1.
    10030    2    1    2    0    0  0.00000000000E+00  0.00000000000E+00 -0.20405844950E+04  0.42282284180E+04  0.37032324358E+04 0.  0.
        5    1    3    3  502    0 -0.26208458693E+03 -0.22630250773E+03 -0.30971030561E+04  0.31164034697E+04  0.46999998093E+01 0.  1.
       -5    1    3    3    0  502  0.26208458693E+03  0.22630250773E+03  0.10565185611E+04  0.11118249483E+04  0.46999998093E+01 0. -1.
</event>
<event>
 5   0  0.5177000E-08  0.3694063E+04  0.7818609E-02  0.8069279E-01
        1   -1    0    0  501    0  0.00000000000E+00  0.00000000000E+00  0.16792155061E+04  0.16792155061E+04  0.50400001928E-02 0.  1.
       -1   -1    0    0    0  501  0.00000000000E+00  0.00000000000E+00 -0.20316188669E+04  0.20316188669E+04  0.50400001928E-02 0. -1.
    10030    2    1    2    0    0  0.00000000000E+00  0.00000000000E+00 -0.35240336078E+03  0.37108343731E+04  0.36940632934E+04 0.  0.
        3    1    3    3  502    0 -0.80706929378E+03 -0.14470492923E+04  0.64372292310E+03  0.17775521684E+04  0.10100000352E+00 0.  1.
       -3    1    3    3    0  502  0.80706929378E+03  0.14470492923E+04 -0.99612628388E+03  0.19332822047E+04  0.10100000352E+00 0. -1.
</event>
<event>
 5   0  0.1587026E-07  0.3701378E+04  0.7818609E-02  0.8067656E-01
       -2   -1    0    0    0  501  0.00000000000E+00  0.00000000000E+00  0.16522494147E+04  0.16522494147E+04  0.25500000920E-02 0. -1.
        2   -1    0    0  501    0  0.00000000000E+00  0.00000000000E+00 -0.20729620343E+04  0.20729620343E+04  0.25500000920E-02 0.  1.
    10030    2    1    2    0    0  0.00000000000E+00  0.00000000000E+00 -0.42071261956E+03  0.37252114490E+04  0.37013782880E+04 0.  0.
        3    1    3    3  502    0 -0.33313087433E+03 -0.50248265012E+03  0.15506488897E+04  0.16637238299E+04  0.10100000352E+00 0. -1.
       -3    1    3    3    0  502  0.33313087433E+03  0.50248265012E+03 -0.19713615092E+04  0.20614876190E+04  0.10100000352E+00 0.  1.
</event>
<event>
 5   0  0.1558258E-07  0.3686442E+04  0.7818609E-02  0.8070973E-01
        2   -1    0    0  501    0  0.00000000000E+00  0.00000000000E+00  0.21106513957E+04  0.21106513957E+04  0.25500000920E-02 0.  1.
       -2   -1    0    0    0  501  0.00000000000E+00  0.00000000000E+00 -0.16096751094E+04  0.16096751094E+04  0.25500000920E-02 0. -1.
    10030    2    1    2    0    0  0.00000000000E+00  0.00000000000E+00  0.50097628631E+03  0.37203265051E+04  0.36864416536E+04 0.  0.
        1    1    3    3  502    0 -0.65635404149E+03 -0.59728867404E+03  0.18808587735E+04  0.20797076992E+04  0.50400001928E-02 0.  1.
       -1    1    3    3    0  502  0.65635404149E+03  0.59728867404E+03 -0.13798824872E+04  0.16406188060E+04  0.50400001928E-02 0. -1.
</event>
<event>
 5   0  0.1558258E-07  0.3697583E+04  0.7818609E-02  0.8068498E-01
        2   -1    0    0  501    0  0.00000000000E+00  0.00000000000E+00  0.27788480995E+04  0.27788480995E+04  0.25500000920E-02 0. -1.
       -2   -1    0    0    0  501  0.00000000000E+00  0.00000000000E+00 -0.12300166327E+04  0.12300166327E+04  0.25500000920E-02 0.  1.
    10030    2    1    2    0    0  0.00000000000E+00  0.00000000000E+00  0.15488314668E+04  0.40088647321E+04  0.36975826601E+04 0.  0.
        1    1    3    3  502    0  0.13027059636E+04 -0.24351815597E+03 -0.62316826992E+03  0.14644734933E+04  0.50400001928E-02 0.  1.
       -1    1    3    3    0  502 -0.13027059636E+04  0.24351815597E+03  0.21719997367E+04  0.25443912388E+04  0.50400001928E-02 0. -1.
</event>
<event>
 5   0  0.1658770E-07  0.3712473E+04  0.7818609E-02  0.8065203E-01
       -2   -1    0    0    0  501  0.00000000000E+00  0.00000000000E+00  0.22917650621E+04  0.22917650621E+04  0.25500000920E-02 0. -1.
        2   -1    0    0  501    0  0.00000000000E+00  0.00000000000E+00 -0.15034757170E+04  0.15034757170E+04  0.25500000920E-02 0.  1.
    10030    2    1    2    0    0  0.00000000000E+00  0.00000000000E+00  0.78828934508E+03  0.37952407791E+04  0.37124725561E+04 0.  0.
        2    1    3    3  502    0 -0.48193573538E+03 -0.62846485368E+02 -0.14372759484E+04  0.15172257201E+04  0.25500000920E-02 0.  1.
       -2    1    3    3    0  502  0.48193573538E+03  0.62846485368E+02  0.22255652935E+04  0.22780150591E+04  0.25500000920E-02 0. -1.
</event>
<event>
 5   0  0.5177000E-08  0.3688902E+04  0.7818609E-02  0.8070426E-01
       -1   -1    0    0    0  501  0.00000000000E+00  0.00000000000E+00  0.16748340195E+04  0.16748340195E+04  0.50400001928E-02 0. -1.
        1   -1    0    0  501    0  0.00000000000E+00  0.00000000000E+00 -0.20312454385E+04  0.20312454385E+04  0.50400001928E-02 0.  1.
    10030    2    1    2    0    0  0.00000000000E+00  0.00000000000E+00 -0.35641141899E+03  0.37060794580E+04  0.36889017131E+04 0.  0.
        1    1    3    3  502    0  0.46517633248E+03 -0.16933407139E+04 -0.74493103662E+03  0.19075413608E+04  0.50400001928E-02 0.  1.
       -1    1    3    3    0  502 -0.46517633248E+03  0.16933407139E+04  0.38851961762E+03  0.17985380972E+04  0.50400001928E-02 0. -1.
</event>
<event>
 5   0  0.1558258E-07  0.3685609E+04  0.7818609E-02  0.8071158E-01
        2   -1    0    0  501    0  0.00000000000E+00  0.00000000000E+00  0.27991717649E+04  0.27991717649E+04  0.25500000920E-02 0.  1.
       -2   -1    0    0    0  501  0.00000000000E+00  0.00000000000E+00 -0.12131906488E+04  0.12131906488E+04  0.25500000920E-02 0. -1.
    10030    2    1    2    0    0  0.00000000000E+00  0.00000000000E+00  0.15859811161E+04  0.40123624137E+04  0.36856093171E+04 0.  0.
        1    1    3    3  502    0 -0.72299428715E+03  0.51840996078E+03 -0.96391999217E+03  0.13117207698E+04  0.50400001928E-02 0. -1.
       -1    1    3    3    0  502  0.72299428715E+03 -0.51840996078E+03  0.25499011083E+04  0.27006416439E+04  0.50400001928E-02 0.  1.
</event>
<event>
 5   0  0.1666189E-07  0.3707043E+04  0.7818609E-02  0.8066403E-01
        2   -1    0    0  501    0  0.00000000000E+00  0.00000000000E+00  0.12038000070E+04  0.12038000070E+04  0.25500000920E-02 0. -1.
       -2   -1    0    0    0  501  0.00000000000E+00  0.00000000000E+00 -0.28539145075E+04  0.28539145075E+04  0.25500000920E-02 0.  1.
    10030    2    1    2    0    0  0.00000000000E+00  0.00000000000E+00 -0.16501145006E+04  0.40577145145E+04  0.37070431905E+04 0.  0.
        4    1    3    3  502    0 -0.96289131344E+03  0.11393061307E+04  0.37917868101E+03  0.15391413925E+04  0.12699999809E+01 0. -1.
       -4    1    3    3    0  502  0.96289131344E+03 -0.11393061307E+04 -0.20292931816E+04  0.25185731220E+04  0.12699999809E+01 0.  1.
</event>
<event>
 5   0  0.1587026E-07  0.3676945E+04  0.7818609E-02  0.8073090E-01
       -2   -1    0    0    0  501  0.00000000000E+00  0.00000000000E+00  0.11876104211E+04  0.11876104211E+04  0.25500000920E-02 0.  1.
        2   -1    0    0  501    0  0.00000000000E+00  0.00000000000E+00 -0.28460358284E+04  0.28460358284E+04  0.25500000920E-02 0. -1.
    10030    2    1    2    0    0  0.00000000000E+00  0.00000000000E+00 -0.16584254073E+04  0.40336462495E+04  0.36769453673E+04 0.  0.
        3    1    3    3  502    0  0.12992805645E+04 -0.11208015031E+04 -0.15532857530E+04  0.23145242784E+04  0.10100000352E+00 0. -1.
       -3    1    3    3    0  502 -0.12992805645E+04  0.11208015031E+04 -0.10513965425E+03  0.17191219711E+04  0.10100000352E+00 0.  1.
</event>
<event>
 5   0  0.5181371E-08  0.3621423E+04  0.7818609E-02  0.8085602E-01
        1   -1    0    0  501    0  0.00000000000E+00  0.00000000000E+00  0.19733559092E+04  0.19733559092E+04  0.50400001928E-02 0. -1.
       -1   -1    0    0    0  501  0.00000000000E+00  0.00000000000E+00 -0.16614724622E+04  0.16614724622E+04  0.50400001928E-02 0.  1.
    10030    2    1    2    0    0  0.00000000000E+00  0.00000000000E+00  0.31188344696E+03  0.36348283714E+04  0.36214232016E+04 0.  0.
        5    1    3    3  502    0  0.27421348982E+03 -0.17874338619E+04  0.24870440353E+03  0.18253736108E+04  0.46999998093E+01 0. -1.
       -5    1    3    3    0  502 -0.27421348982E+03  0.17874338619E+04  0.63179043432E+02  0.18094547605E+04  0.46999998093E+01 0.  1.
</event>
<event>
 5   0  0.5177000E-08  0.3690585E+04  0.7818609E-02  0.8070051E-01
       -1   -1    0    0    0  501  0.00000000000E+00  0.00000000000E+00  0.21228481765E+04  0.21228481765E+04  0.50400001928E-02 0. -1.
        1   -1    0    0  501    0  0.00000000000E+00  0.00000000000E+00 -0.16040264653E+04  0.16040264653E+04  0.50400001928E-02 0.  1.
    10030    2    1    2    0    0  0.00000000000E+00  0.00000000000E+00  0.51882171118E+03  0.37268746418E+04  0.36905851335E+04 0.  0.
        2    1    3    3  502    0  0.13338755735E+04  0.12381190838E+04 -0.48450352826E+02  0.18205796736E+04  0.25500000920E-02 0.  1.
       -2    1    3    3    0  502 -0.13338755735E+04 -0.12381190838E+04  0.56727206400E+03  0.19062949682E+04  0.25500000920E-02 0. -1.
</event>
<event>
 5   0  0.1558258E-07  0.3707852E+04  0.7818609E-02  0.8066224E-01
       -2   -1    0    0    0  501  0.00000000000E+00  0.00000000000E+00  0.19640957197E+04  0.19640957197E+04  0.25500000920E-02 0.  1.
        2   -1    0    0  501    0  0.00000000000E+00  0.00000000000E+00 -0.17499362311E+04  0.17499362311E+04  0.25500000920E-02 0. -1.
    10030    2    1    2    0    0  0.00000000000E+00  0.00000000000E+00  0.21415948854E+03  0.37140319508E+04  0.37078523494E+04 0.  0.
        1    1    3    3  502    0 -0.15503536916E+03  0.14288190322E+04 -0.10659751451E+04  0.17893749754E+04  0.50400001928E-02 0. -1.
       -1    1    3    3    0  502  0.15503536916E+03 -0.14288190322E+04  0.12801346337E+04  0.19246569754E+04  0.50400001928E-02 0.  1.
</event>
<event>
 5   0  0.1666189E-07  0.3701938E+04  0.7818609E-02  0.8067532E-01
       -2   -1    0    0    0  501  0.00000000000E+00  0.00000000000E+00  0.13579983179E+04  0.13579983179E+04  0.25500000920E-02 0. -1.
        2   -1    0    0  501    0  0.00000000000E+00  0.00000000000E+00 -0.25228942424E+04  0.25228942424E+04  0.25500000920E-02 0.  1.
    10030    2    1    2    0    0  0.00000000000E+00  0.00000000000E+00 -0.11648959245E+04  0.38808925603E+04  0.37019379451E+04 0.  0.
        4    1    3    3  502    0  0.15242381903E+04  0.10099598279E+04 -0.28085430918E+03  0.18499193687E+04  0.12699999809E+01 0.  1.
       -4    1    3    3    0  502 -0.15242381903E+04 -0.10099598279E+04 -0.88404161531E+03  0.20309731916E+04  0.12699999809E+01 0. -1.
</event>
<event>
 5   0  0.1587026E-07  0.3703282E+04  0.7818609E-02  0.8067235E-01
        2   -1    0    0  501    0  0.00000000000E+00  0.00000000000E+00  0.26489484108E+04  0.26489484108E+04  0.25500000920E-02 0.  1.
       -2   -1    0    0    0  501  0.00000000000E+00  0.00000000000E+00 -0.12943152306E+04  0.12943152307E+04  0.25500000920E-02 0. -1.
    10030    2    1    2    0    0  0.00000000000E+00  0.00000000000E+00  0.13546331801E+04  0.39432636414E+04  0.37032819354E+04 0.  0.
        3    1    3    3  502    0 -0.12199206704E+04  0.25846417571E+02 -0.80566683278E+03  0.14621810883E+04  0.10100000352E+00 0. -1.
       -3    1    3    3    0  502  0.12199206704E+04 -0.25846417571E+02  0.21603000129E+04  0.24810825531E+04  0.10100000352E+00 0.  1.
</event>
<event>
 5   0  0.5177000E-08  0.3673701E+04  0.7818609E-02  0.8073815E-01
       -1   -1    0    0    0  501  0.00000000000E+00  0.00000000000E+00  0.11565890989E+04  0.11565890990E+04  0.50400001928E-02 0.  1.
        1   -1    0    0  501    0  0.00000000000E+00  0.00000000000E+00 -0.29172156487E+04  0.29172156487E+04  0.50400001928E-02 0. -1.
    10030    2    1    2    0    0  0.00000000000E+00  0.00000000000E+00 -0.17606265497E+04  0.40738047477E+04  0.36737010322E+04 0.  0.
        1    1    3    3  502    0  0.35469899367E+03 -0.51581785678E+03 -0.27952765143E+04  0.28645157058E+04  0.50400001928E-02 0. -1.
       -1    1    3    3    0  502 -0.35469899367E+03  0.51581785678E+03  0.10346499646E+04  0.12092890418E+04  0.50400001928E-02 0.  1.
</event>
<event>
 5   0  0.1658770E-07  0.3640390E+04  0.7818609E-02  0.8081302E-01
        2   -1    0    0  501    0  0.00000000000E+00  0.00000000000E+00  0.21368845136E+04  0.21368845136E+04  0.25500000920E-02 0. -1.
       -2   -1    0    0    0  501  0.00000000000E+00  0.00000000000E+00 -0.15504391495E+04  0.15504391495E+04  0.25500000920E-02 0.  1.
    10030    2    1    2    0    0  0.00000000000E+00  0.00000000000E+00  0.58644536408E+03  0.36873236631E+04  0.36403897637E+04 0.  0.
        2    1    3    3  502    0  0.78499499758E+03 -0.12067590368E+04  0.14214162534E+04  0.20230938397E+04  0.25500000920E-02 0. -1.
       -2    1    3    3    0  502 -0.78499499758E+03  0.12067590368E+04 -0.83497088930E+03  0.16642298234E+04  0.25500000920E-02 0.  1.
</event>
<event>
 5   0  0.5177000E-08  0.3689737E+04  0.7818609E-02  0.8070240E-01
       -1   -1    0    0    0  501  0.00000000000E+00  0.00000000000E+00  0.13410604661E+04  0.13410604661E+04  0.50400001928E-02 0. -1.
        1   -1    0    0  501    0  0.00000000000E+00  0.00000000000E+00 -0.25379470682E+04  0.25379470682E+04  0.50400001928E-02 0.  1.
    10030    2    1    2    0    0  0.00000000000E+00  0.00000000000E+00 -0.11968866021E+04  0.38790075344E+04  0.36897373773E+04 0.  0.
        1    1    3    3  502    0  0.16460215922E+04  0.59895679513E+03  0.10405402888E+02  0.17516405444E+04  0.50400001928E-02 0.  1.
       -1    1    3    3    0  502 -0.16460215922E+04 -0.59895679513E+03 -0.12072920050E+04  0.21273669899E+04  0.50400001928E-02 0. -1.
</event>
<event>
 5   0  0.5177000E-08  0.3737400E+04  0.7818609E-02  0.8059724E-01
        1   -1    0    0  501    0  0.00000000000E+00  0.00000000000E+00  0.19750180445E+04  0.19750180445E+04  0.50400001928E-02 0. -1.
       -1   -1    0    0    0  501  0.00000000000E+00  0.00000000000E+00 -0.17681052850E+04  0.17681052850E+04  0.50400001928E-02 0.  1.
    10030    2    1    2    0    0  0.00000000000E+00  0.00000000000E+00  0.20691275953E+03  0.37431233296E+04  0.37374000816E+04 0.  0.
        2    1    3    3  502    0 -0.10687456175E+04  0.52074276475E+03  0.15474164739E+04  0.19513810406E+04  0.25500000920E-02 0. -1.
       -2    1    3    3    0  502  0.10687456175E+04 -0.52074276475E+03 -0.13405037143E+04  0.17917422890E+04  0.25500000920E-02 0.  1.
</event>
<event>
 5   0  0.1686284E-07  0.3686307E+04  0.7818609E-02  0.8071003E-01
       -2   -1    0    0    0  501  0.00000000000E+00  0.00000000000E+00  0.18325757824E+04  0.18325757824E+04  0.25500000920E-02 0.  1.
        2   -1    0    0  501    0  0.00000000000E+00  0.00000000000E+00 -0.18537921661E+04  0.18537921661E+04  0.25500000920E-02 0. -1.
    10030    2    1    2    0    0  0.00000000000E+00  0.00000000000E+00 -0.21216383673E+02  0.36863679485E+04  0.36863068940E+04 0.  0.
        5    1    3    3  502    0 -0.18013575673E+04 -0.38692886300E+03  0.40279866556E+02  0.18428910950E+04  0.46999998093E+01 0. -1.
       -5    1    3    3    0  502  0.18013575673E+04  0.38692886300E+03 -0.61496250229E+02  0.18434768535E+04  0.46999998093E+01 0.  1.
</event>
<event>
 5   0  0.5177000E-08  0.3683670E+04  0.7818609E-02  0.8071590E-01
        1   -1    0    0  501    0  0.00000000000E+00  0.00000000000E+00  0.13802826538E+04  0.13802826538E+04  0.50400001928E-02 0. -1.
       -1   -1    0    0    0  501  0.00000000000E+00  0.00000000000E+00 -0.24577259060E+04  0.24577259060E+04  0.50400001928E-02 0.  1.
    10030    2    1    2    0    0  0.00000000000E+00  0.00000000000E+00 -0.10774432522E+04  0.38380085598E+04  0.36836701458E+04 0.  0.
        1    1    3    3  502    0  0.49484998789E+03  0.10644041425E+04 -0.20175282942E+04  0.23341493326E+04  0.50400001928E-02 0.  1.
       -1    1    3    3    0  502 -0.49484998789E+03 -0.10644041425E+04  0.94008504196E+03  0.15038592272E+04  0.50400001928E-02 0. -1.
</event>
<event>
 5   0  0.1666189E-07  0.3711445E+04  0.7818609E-02  0.8065430E-01
        2   -1    0    0  501    0  0.00000000000E+00  0.00000000000E+00  0.23197785635E+04  0.23197785635E+04  0.25500000920E-02 0.  1.
       -2   -1    0    0    0  501  0.00000000000E+00  0.00000000000E+00 -0.14844974561E+04  0.14844974561E+04  0.25500000920E-02 0. -1.
    10030    2    1    2    0    0  0.00000000000E+00  0.00000000000E+00  0.83528110746E+03  0.38042760196E+04  0.37114446654E+04 0.  0.
        4    1    3    3  502    0 -0.84461932877E+03 -0.38658835277E+03 -0.12290508262E+04  0.15405842759E+04  0.12699999809E+01 0. -1.
       -4    1    3    3    0  502  0.84461932877E+03  0.38658835277E+03  0.20643319336E+04  0.22636917436E+04  0.12699999809E+01 0.  1.
</event>
<event>
 5   0  0.5177000E-08  0.3697790E+04  0.7818609E-02  0.8068452E-01
        3   -1    0    0  501    0  0.00000000000E+00  0.00000000000E+00  0.32737742368E+04  0.32737742383E+04  0.10100000352E+00 0.  1.
       -3   -1    0    0    0  501  0.00000000000E+00  0.00000000000E+00 -0.10441812119E+04  0.10441812168E+04  0.10100000352E+00 0. -1.
    10030    2    1    2    0    0  0.00000000000E+00  0.00000000000E+00  0.22295930249E+04  0.43179554552E+04  0.36977904560E+04 0.  0.
        5    1    3    3  502    0 -0.11335423984E+03  0.11189690174E+04 -0.59877928750E+03  0.12741662257E+04  0.46999998093E+01 0. -1.
       -5    1    3    3    0  502  0.11335423984E+03 -0.11189690174E+04  0.28283723124E+04  0.30437892294E+04  0.46999998093E+01 0.  1.
</event>
<event>
 5   0  0.1587026E-07  0.3685432E+04  0.7818609E-02  0.8071198E-01
        2   -1    0    0  501    0  0.00000000000E+00  0.00000000000E+00  0.25058112876E+04  0.25058112876E+04  0.25500000920E-02 0. -1.
       -2   -1    0    0    0  501  0.00000000000E+00  0.00000000000E+00 -0.13550911576E+04  0.13550911576E+04  0.25500000920E-02 0.  1.
    10030    2    1    2    0    0  0.00000000000E+00  0.00000000000E+00  0.11507201300E+04  0.38609024452E+04  0.36854322506E+04 0.  0.
        3    1    3    3  502    0 -0.99963111826E+03  0.56826610860E+02  0.21959824165E+04  0.24134685455E+04  0.10100000352E+00 0. -1.
       -3    1    3    3    0  502  0.99963111826E+03 -0.56826610860E+02 -0.10452622865E+04  0.14474338997E+04  0.10100000352E+00 0.  1.
</event>
<event>
 5   0  0.1587026E-07  0.3647443E+04  0.7818609E-02  0.8079710E-01
        2   -1    0    0  501    0  0.00000000000E+00  0.00000000000E+00  0.16651786550E+04  0.16651786550E+04  0.25500000920E-02 0.  1.
       -2   -1    0    0    0  501  0.00000000000E+00  0.00000000000E+00 -0.19973588494E+04  0.19973588494E+04  0.25500000920E-02 0. -1.
    10030    2    1    2    0    0  0.00000000000E+00  0.00000000000E+00 -0.33218019438E+03  0.36625375044E+04  0.36474425684E+04 0.  0.
        3    1    3    3  502    0  0.14551629930E+04 -0.10719121005E+04  0.78772374227E+02  0.18090605255E+04  0.10100000352E+00 0.  1.
       -3    1    3    3    0  502 -0.14551629930E+04  0.10719121005E+04 -0.41095256861E+03  0.18534769789E+04  0.10100000352E+00 0. -1.
</event>
<event>
 5   0  0.5177000E-08  0.3701835E+04  0.7818609E-02  0.8067555E-01
       -1   -1    0    0    0  501  0.00000000000E+00  0.00000000000E+00  0.13664123656E+04  0.13664123656E+04  0.50400001928E-02 0.  1.
        1   -1    0    0  501    0  0.00000000000E+00  0.00000000000E+00 -0.25072191935E+04  0.25072191935E+04  0.50400001928E-02 0. -1.
    10030    2    1    2    0    0  0.00000000000E+00  0.00000000000E+00 -0.11408068279E+04  0.38736315591E+04  0.37018348473E+04 0.  0.
        3    1    3    3  502    0  0.40238995468E+03 -0.55140775877E+03 -0.23706905532E+04  0.24670107218E+04  0.10100000352E+00 0. -1.
       -3    1    3    3    0  502 -0.40238995468E+03  0.55140775877E+03  0.12298837253E+04  0.14066208373E+04  0.10100000352E+00 0.  1.
</event>
<event>
 5   0  0.1658770E-07  0.3682646E+04  0.7818609E-02  0.8071819E-01
        2   -1    0    0  501    0  0.00000000000E+00  0.00000000000E+00  0.20652423772E+04  0.20652423772E+04  0.25500000920E-02 0. -1.
       -2   -1    0    0    0  501  0.00000000000E+00  0.00000000000E+00 -0.16416813945E+04  0.16416813945E+04  0.25500000920E-02 0.  1.
    10030    2    1    2    0    0  0.00000000000E+00  0.00000000000E+00  0.42356098262E+03  0.37069237717E+04  0.36826457803E+04 0.  0.
        2    1    3    3  502    0  0.13212857683E+04 -0.95278398682E+03  0.10758547833E+04  0.19521928495E+04  0.25500000920E-02 0. -1.
       -2    1    3    3    0  502 -0.13212857683E+04  0.95278398682E+03 -0.65229380066E+03  0.17547309222E+04  0.25500000920E-02 0.  1.
</event>
<event>
 5   0  0.1666189E-07  0.3696808E+04  0.7818609E-02  0.8068670E-01
       -2   -1    0    0    0  501  0.00000000000E+00  0.00000000000E+00  0.14326778699E+04  0.14326778699E+04  0.25500000920E-02 0. -1.
        2   -1    0    0  501    0  0.00000000000E+00  0.00000000000E+00 -0.23847629889E+04  0.23847629889E+04  0.25500000920E-02 0.  1.
    10030    2    1    2    0    0  0.00000000000E+00  0.00000000000E+00 -0.95208511893E+03  0.38174408588E+04  0.36968078983E+04 0.  0.
        4    1    3    3  502    0 -0.16351898114E+04  0.85752679706E+03 -0.38722651497E+03  0.18865693503E+04  0.12699999809E+01 0. -1.
       -4    1    3    3    0  502  0.16351898114E+04 -0.85752679706E+03 -0.56485860396E+03  0.19308715085E+04  0.12699999809E+01 0.  1.
</event>
<event>
 5   0  0.1666189E-07  0.3720061E+04  0.7818609E-02  0.8063531E-01
        2   -1    0    0  501    0  0.00000000000E+00  0.00000000000E+00  0.12649148559E+04  0.12649148559E+04  0.25500000920E-02 0. -1.
       -2   -1    0    0    0  501  0.00000000000E+00  0.00000000000E+00 -0.27351349535E+04  0.27351349535E+04  0.25500000920E-02 0.  1.
    10030    2    1    2    0    0  0.00000000000E+00  0.00000000000E+00 -0.14702200976E+04  0.40000498093E+04  0.37200606637E+04 0.  0.
        4    1    3    3  502    0 -0.26349393741E+03  0.24094968207E+03 -0.26979394907E+04  0.27214637445E+04  0.12699999809E+01 0.  1.
       -4    1    3    3    0  502  0.26349393741E+03 -0.24094968207E+03  0.12277193930E+04  0.12785860649E+04  0.12699999809E+01 0. -1.
</event>
<event>
 5   0  0.5177000E-08  0.3629245E+04  0.7818609E-02  0.8083825E-01
        1   -1    0    0  501    0  0.00000000000E+00  0.00000000000E+00  0.14529645103E+04  0.14529645103E+04  0.50400001928E-02 0.  1.
       -1   -1    0    0    0  501  0.00000000000E+00  0.00000000000E+00 -0.22663012383E+04  0.22663012383E+04  0.50400001928E-02 0. -1.
    10030    2    1    2    0    0  0.00000000000E+00  0.00000000000E+00 -0.81333672800E+03  0.37192657486E+04  0.36292452487E+04 0.  0.
        4    1    3    3  502    0 -0.29332913807E+02  0.21168971363E+03  0.14400221669E+04  0.14557947687E+04  0.12699999809E+01 0.  1.
       -4    1    3    3    0  502  0.29332913807E+02 -0.21168971363E+03 -0.22533588948E+04  0.22634709798E+04  0.12699999809E+01 0. -1.
</event>
<event>
 5   0  0.5181371E-08  0.3652347E+04  0.7818609E-02  0.8078605E-01
       -1   -1    0    0    0  501  0.00000000000E+00  0.00000000000E+00  0.16403194253E+04  0.16403194254E+04  0.50400001928E-02 0. -1.
        1   -1    0    0  501    0  0.00000000000E+00  0.00000000000E+00 -0.20330852199E+04  0.20330852199E+04  0.50400001928E-02 0.  1.
    10030    2    1    2    0    0  0.00000000000E+00  0.00000000000E+00 -0.39276579455E+03  0.36734046453E+04  0.36523467413E+04 0.  0.
        5    1    3    3  502    0  0.73724741039E+03 -0.31442924382E+03 -0.18467236544E+04  0.20131591689E+04  0.46999998093E+01 0.  1.
       -5    1    3    3    0  502 -0.73724741039E+03  0.31442924382E+03  0.14539578599E+04  0.16602454764E+04  0.46999998093E+01 0. -1.
</event>
<event>
 5   0  0.5177000E-08  0.3682778E+04  0.7818609E-02  0.8071789E-01
        1   -1    0    0  501    0  0.00000000000E+00  0.00000000000E+00  0.15530404785E+04  0.15530404785E+04  0.50400001928E-02 0. -1.
       -1   -1    0    0    0  501  0.00000000000E+00  0.00000000000E+00 -0.21832741202E+04  0.21832741202E+04  0.50400001928E-02 0.  1.
    10030    2    1    2    0    0  0.00000000000E+00  0.00000000000E+00 -0.63023364165E+03  0.37363145987E+04  0.36827778018E+04 0.  0.
        1    1    3    3  502    0 -0.42746796942E+02 -0.17529470602E+04  0.25525010872E+03  0.17719490124E+04  0.50400001928E-02 0.  1.
       -1    1    3    3    0  502  0.42746796942E+02  0.17529470602E+04 -0.88548375037E+03  0.19643655863E+04  0.50400001928E-02 0. -1.
</event>
<event>
 5   0  0.5177000E-08  0.3815908E+04  0.7818609E-02  0.8042750E-01
        1   -1    0    0  501    0  0.00000000000E+00  0.00000000000E+00  0.16931869567E+04  0.16931869567E+04  0.50400001928E-02 0. -1.
       -1   -1    0    0    0  501  0.00000000000E+00  0.00000000000E+00 -0.21499623705E+04  0.21499623705E+04  0.50400001928E-02 0.  1.
    10030    2    1    2    0    0  0.00000000000E+00  0.00000000000E+00 -0.45677541382E+03  0.38431493272E+04  0.38159078831E+04 0.  0.
        4    1    3    3  502    0 -0.10092231276E+04  0.14796398412E+04 -0.89066961418E+03  0.20002898179E+04  0.12699999809E+01 0. -1.
       -4    1    3    3    0  502  0.10092231276E+04 -0.14796398412E+04  0.43389420036E+03  0.18428595093E+04  0.12699999809E+01 0.  1.
</event>
<event>
 5   0  0.5177000E-08  0.3692889E+04  0.7818609E-02  0.8069540E-01
        1   -1    0    0  501    0  0.00000000000E+00  0.00000000000E+00  0.25317784712E+04  0.25317784712E+04  0.50400001928E-02 0. -1.
       -1   -1    0    0    0  501  0.00000000000E+00  0.00000000000E+00 -0.13466251286E+04  0.13466251286E+04  0.50400001928E-02 0.  1.
    10030    2    1    2    0    0  0.00000000000E+00  0.00000000000E+00  0.11851533426E+04  0.38784035999E+04  0.36928885764E+04 0.  0.
        1    1    3    3  502    0 -0.10689795073E+04  0.14894194635E+04  0.82331560251E+03  0.20097104534E+04  0.50400001928E-02 0. -1.
       -1    1    3    3    0  502  0.10689795073E+04 -0.14894194635E+04  0.36183774013E+03  0.18686931464E+04  0.50400001928E-02 0.  1.
</event>
<event>
 5   0  0.1658770E-07  0.3696426E+04  0.7818609E-02  0.8068754E-01
       -2   -1    0    0    0  501  0.00000000000E+00  0.00000000000E+00  0.19175716138E+04  0.19175716138E+04  0.25500000920E-02 0. -1.
        2   -1    0    0  501    0  0.00000000000E+00  0.00000000000E+00 -0.17813628998E+04  0.17813628998E+04  0.25500000920E-02 0.  1.
    10030    2    1    2    0    0  0.00000000000E+00  0.00000000000E+00  0.13620871399E+03  0.36989345137E+04  0.36964258038E+04 0.  0.
        2    1    3    3  502    0  0.91964580346E+03 -0.14941983526E+04  0.64945803314E+03  0.18708748909E+04  0.25500000920E-02 0. -1.
       -2    1    3    3    0  502 -0.91964580346E+03  0.14941983526E+04 -0.51324931915E+03  0.18280596227E+04  0.25500000920E-02 0.  1.
</event>
<event>
 5   0  0.5177000E-08  0.3685785E+04  0.7818609E-02  0.8071119E-01
       -1   -1    0    0    0  501  0.00000000000E+00  0.00000000000E+00  0.23448330103E+04  0.23448330103E+04  0.50400001928E-02 0. -1.
        1   -1    0    0  501    0  0.00000000000E+00  0.00000000000E+00 -0.14483983036E+04  0.14483983036E+04  0.50400001928E-02 0.  1.
    10030    2    1    2    0    0  0.00000000000E+00  0.00000000000E+00  0.89643470667E+03  0.37932313139E+04  0.36857846678E+04 0.  0.
        4    1    3    3  502    0  0.68186613279E+03  0.64190365269E+03 -0.11852731867E+04  0.15105812995E+04  0.12699999809E+01 0.  1.
       -4    1    3    3    0  502 -0.68186613279E+03 -0.64190365269E+03  0.20817078933E+04  0.22826500144E+04  0.12699999809E+01 0. -1.
</event>
<event>
 5   0  0.1658770E-07  0.3706456E+04  0.7818609E-02  0.8066533E-01
       -2   -1    0    0    0  501  0.00000000000E+00  0.00000000000E+00  0.27796359148E+04  0.27796359148E+04  0.25500000920E-02 0.  1.
        2   -1    0    0  501    0  0.00000000000E+00  0.00000000000E+00 -0.12355771622E+04  0.12355771622E+04  0.25500000920E-02 0. -1.
    10030    2    1    2    0    0  0.00000000000E+00  0.00000000000E+00  0.15440587526E+04  0.40152130770E+04  0.37064563429E+04 0.  0.
        2    1    3    3  502    0  0.12022337069E+04 -0.16428023075E+03 -0.74540655229E+03  0.14240733157E+04  0.25500000920E-02 0. -1.
       -2    1    3    3    0  502 -0.12022337069E+04  0.16428023075E+03  0.22894653049E+04  0.25911397613E+04  0.25500000920E-02 0.  1.
</event>
<event>
 5   0  0.5177000E-08  0.3674941E+04  0.7818609E-02  0.8073538E-01
        1   -1    0    0  501    0  0.00000000000E+00  0.00000000000E+00  0.16087424734E+04  0.16087424734E+04  0.50400001928E-02 0. -1.
       -1   -1    0    0    0  501  0.00000000000E+00  0.00000000000E+00 -0.20987185657E+04  0.20987185657E+04  0.50400001928E-02 0.  1.
    10030    2    1    2    0    0  0.00000000000E+00  0.00000000000E+00 -0.48997609226E+03  0.37074610391E+04  0.36749409227E+04 0.  0.
        1    1    3    3  502    0  0.16044765050E+04  0.76668106148E+03  0.22187371775E+03  0.17920303155E+04  0.50400001928E-02 0.  1.
       -1    1    3    3    0  502 -0.16044765050E+04 -0.76668106148E+03 -0.71184981001E+03  0.19154307236E+04  0.50400001928E-02 0. -1.
</event>
<event>
 5   0  0.5177000E-08  0.3701305E+04  0.7818609E-02  0.8067673E-01
        1   -1    0    0  501    0  0.00000000000E+00  0.00000000000E+00  0.13493715709E+04  0.13493715710E+04  0.50400001928E-02 0. -1.
       -1   -1    0    0    0  501  0.00000000000E+00  0.00000000000E+00 -0.25381558574E+04  0.25381558574E+04  0.50400001928E-02 0.  1.
    10030    2    1    2    0    0  0.00000000000E+00  0.00000000000E+00 -0.11887842864E+04  0.38875274283E+04  0.37013053679E+04 0.  0.
        3    1    3    3  502    0 -0.86127887907E+03  0.56858278203E+03  0.10190696756E+04  0.14503760552E+04  0.10100000352E+00 0. -1.
       -3    1    3    3    0  502  0.86127887907E+03 -0.56858278203E+03 -0.22078539621E+04  0.24371513731E+04  0.10100000352E+00 0.  1.
</event>
<event>
 5   0  0.1658770E-07  0.3702409E+04  0.7818609E-02  0.8067428E-01
       -2   -1    0    0    0  501  0.00000000000E+00  0.00000000000E+00  0.17138392830E+04  0.17138392830E+04  0.25500000920E-02 0.  1.
        2   -1    0    0  501    0  0.00000000000E+00  0.00000000000E+00 -0.19995795539E+04  0.19995795539E+04  0.25500000920E-02 0. -1.
    10030    2    1    2    0    0  0.00000000000E+00  0.00000000000E+00 -0.28574027091E+03  0.37134188369E+04  0.37024089396E+04 0.  0.
        2    1    3    3  502    0 -0.41966225146E+03 -0.10008255999E+04  0.13613195055E+04  0.17409649861E+04  0.25500000920E-02 0.  1.
       -2    1    3    3    0  502  0.41966225146E+03  0.10008255999E+04 -0.16470597764E+04  0.19724538509E+04  0.25500000920E-02 0. -1.
</event>
<event>
 5   0  0.1558258E-07  0.3701301E+04  0.7818609E-02  0.8067674E-01
       -2   -1    0    0    0  501  0.00000000000E+00  0.00000000000E+00  0.18970297744E+04  0.18970297744E+04  0.25500000920E-02 0.  1.
        2   -1    0    0  501    0  0.00000000000E+00  0.00000000000E+00 -0.18054051213E+04  0.18054051213E+04  0.25500000920E-02 0. -1.
    10030    2    1    2    0    0  0.00000000000E+00  0.00000000000E+00  0.91624653120E+02  0.37024348957E+04  0.37013009983E+04 0.  0.
        1    1    3    3  502    0 -0.11266538723E+04  0.69829262720E+03 -0.12460730551E+04  0.18192469870E+04  0.50400001928E-02 0. -1.
       -1    1    3    3    0  502  0.11266538723E+04 -0.69829262720E+03  0.13376977082E+04  0.18831879087E+04  0.50400001928E-02 0.  1.
</event>
<event>
 5   0  0.1686284E-07  0.3688014E+04  0.7818609E-02  0.8070623E-01
       -2   -1    0    0    0  501  0.00000000000E+00  0.00000000000E+00  0.18914057928E+04  0.18914057928E+04  0.25500000920E-02 0. -1.
        2   -1    0    0  501    0  0.00000000000E+00  0.00000000000E+00 -0.17977963104E+04  0.17977963104E+04  0.25500000920E-02 0.  1.
    10030    2    1    2    0    0  0.00000000000E+00  0.00000000000E+00  0.93609482450E+02  0.36892021032E+04  0.36880142927E+04 0.  0.
        5    1    3    3  502    0 -0.72518361324E+03  0.60798403408E+02  0.17416799666E+04  0.18876066632E+04  0.46999998093E+01 0. -1.
       -5    1    3    3    0  502  0.72518361324E+03 -0.60798403408E+02 -0.16480704841E+04  0.18015954400E+04  0.46999998093E+01 0.  1.
</event>
<event>
 5   0  0.5177000E-08  0.3702222E+04  0.7818609E-02  0.8067470E-01
        1   -1    0    0  501    0  0.00000000000E+00  0.00000000000E+00  0.17341322308E+04  0.17341322308E+04  0.50400001928E-02 0.  1.
       -1   -1    0    0    0  501  0.00000000000E+00  0.00000000000E+00 -0.19759803998E+04  0.19759803998E+04  0.50400001928E-02 0. -1.
    10030    2    1    2    0    0  0.00000000000E+00  0.00000000000E+00 -0.24184816893E+03  0.37101126306E+04  0.37022216567E+04 0.  0.
        4    1    3    3  502    0  0.10913943134E+04 -0.14000906830E+04  0.40480270779E+03  0.18207861800E+04  0.12699999809E+01 0.  1.
       -4    1    3    3    0  502 -0.10913943134E+04  0.14000906830E+04 -0.64665087672E+03  0.18893264507E+04  0.12699999809E+01 0. -1.
</event>
<event>
 5   0  0.5177000E-08  0.3717847E+04  0.7818609E-02  0.8064018E-01
       -1   -1    0    0    0  501  0.00000000000E+00  0.00000000000E+00  0.21093207470E+04  0.21093207470E+04  0.50400001928E-02 0.  1.
        1   -1    0    0  501    0  0.00000000000E+00  0.00000000000E+00 -0.16382511225E+04  0.16382511225E+04  0.50400001928E-02 0. -1.
    10030    2    1    2    0    0  0.00000000000E+00  0.00000000000E+00  0.47106962453E+03  0.37475718695E+04  0.37178472704E+04 0.  0.
        1    1    3    3  502    0  0.52858876300E+03  0.17678804315E+04  0.83671047123E+01  0.18452309636E+04  0.50400001928E-02 0. -1.
       -1    1    3    3    0  502 -0.52858876300E+03 -0.17678804315E+04  0.46270251981E+03  0.19023409059E+04  0.50400001928E-02 0.  1.
</event>
<event>
 5   0  0.5181371E-08  0.3698323E+04  0.7818609E-02  0.8068334E-01
        1   -1    0    0  501    0  0.00000000000E+00  0.00000000000E+00  0.21380780808E+04  0.21380780808E+04  0.50400001928E-02 0.  1.
       -1   -1    0    0    0  501  0.00000000000E+00  0.00000000000E+00 -0.15992861647E+04  0.15992861647E+04  0.50400001928E-02 0. -1.
    10030    2    1    2    0    0  0.00000000000E+00  0.00000000000E+00  0.53879191609E+03  0.37373642455E+04  0.36983232383E+04 0.  0.
        5    1    3    3  502    0 -0.19238720351E+03 -0.18318287016E+04  0.10406146930E+03  0.18448469062E+04  0.46999998093E+01 0. -1.
       -5    1    3    3    0  502  0.19238720351E+03  0.18318287016E+04  0.43473044679E+03  0.18925173393E+04  0.46999998093E+01 0.  1.
</event>
<event>
 5   0  0.1587026E-07  0.3718488E+04  0.7818609E-02  0.8063877E-01
       -2   -1    0    0    0  501  0.00000000000E+00  0.00000000000E+00  0.21514827225E+04  0.21514827225E+04  0.25500000920E-02 0. -1.
        2   -1    0    0  501    0  0.00000000000E+00  0.00000000000E+00 -0.16067003289E+04  0.16067003289E+04  0.25500000920E-02 0.  1.
    10030    2    1    2    0    0  0.00000000000E+00  0.00000000000E+00  0.54478239360E+03  0.37581830515E+04  0.37184878636E+04 0.  0.
        3    1    3    3  502    0 -0.18333166268E+04  0.17195515747E+03  0.12410755297E+02  0.18414050253E+04  0.10100000352E+00 0.  1.
       -3    1    3    3    0  502  0.18333166268E+04 -0.17195515747E+03  0.53237163830E+03  0.19167780262E+04  0.10100000352E+00 0. -1.
</event>
<event>
 5   0  0.1658770E-07  0.3718560E+04  0.7818609E-02  0.8063861E-01
       -2   -1    0    0    0  501  0.00000000000E+00  0.00000000000E+00  0.10786338640E+04  0.10786338641E+04  0.25500000920E-02 0. -1.
        2   -1    0    0  501    0  0.00000000000E+00  0.00000000000E+00 -0.32049076374E+04  0.32049076374E+04  0.25500000920E-02 0.  1.
    10030    2    1    2    0    0  0.00000000000E+00  0.00000000000E+00 -0.21262737733E+04  0.42835415014E+04  0.37185598873E+04 0.  0.
        2    1    3    3  502    0 -0.15802720464E+03 -0.73925417054E+03  0.89361233481E+03  0.11704752586E+04  0.25500000920E-02 0. -1.
       -2    1    3    3    0  502  0.15802720464E+03  0.73925417054E+03 -0.30198861082E+04  0.31130662428E+04  0.25500000920E-02 0.  1.
</event>
<event>
 5   0  0.5177000E-08  0.3741947E+04  0.7818609E-02  0.8058729E-01
       -1   -1    0    0    0  501  0.00000000000E+00  0.00000000000E+00  0.18055141385E+04  0.18055141385E+04  0.50400001928E-02 0. -1.
        1   -1    0    0  501    0  0.00000000000E+00  0.00000000000E+00 -0.19388063178E+04  0.19388063178E+04  0.50400001928E-02 0.  1.
    10030    2    1    2    0    0  0.00000000000E+00  0.00000000000E+00 -0.13329217924E+03  0.37443204563E+04  0.37419472036E+04 0.  0.
        2    1    3    3  502    0  0.85787429386E+03  0.26965078315E+03  0.15750901846E+04  0.18137168849E+04  0.25500000920E-02 0. -1.
       -2    1    3    3    0  502 -0.85787429386E+03 -0.26965078315E+03 -0.17083823638E+04  0.19306035714E+04  0.25500000920E-02 0.  1.
</event>
<event>
 5   0  0.5177000E-08  0.3698264E+04  0.7818609E-02  0.8068347E-01
        1   -1    0    0  501    0  0.00000000000E+00  0.00000000000E+00  0.27739855941E+04  0.27739855941E+04  0.50400001928E-02 0.  1.
       -1   -1    0    0    0  501  0.00000000000E+00  0.00000000000E+00 -0.12326267709E+04  0.12326267709E+04  0.50400001928E-02 0. -1.
    10030    2    1    2    0    0  0.00000000000E+00  0.00000000000E+00  0.15413588233E+04  0.40066123650E+04  0.36982638658E+04 0.  0.
        2    1    3    3  502    0 -0.53076068394E+03  0.14369195079E+04 -0.35146251143E+03  0.15716139706E+04  0.25500000920E-02 0.  1.
       -2    1    3    3    0  502  0.53076068394E+03 -0.14369195079E+04  0.18928213347E+04  0.24349983944E+04  0.25500000920E-02 0. -1.
</event>
<event>
 5   0  0.1558258E-07  0.3691952E+04  0.7818609E-02  0.8069748E-01
        2   -1    0    0  501    0  0.00000000000E+00  0.00000000000E+00  0.26260668720E+04  0.26260668720E+04  0.25500000920E-02 0. -1.
       -2   -1    0    0    0  501  0.00000000000E+00  0.00000000000E+00 -0.12976162691E+04  0.12976162691E+04  0.25500000920E-02 0.  1.
    10030    2    1    2    0    0  0.00000000000E+00  0.00000000000E+00  0.13284506029E+04  0.39236831411E+04  0.36919518399E+04 0.  0.
        1    1    3    3  502    0  0.14025592381E+04 -0.49152398194E+03 -0.49942350699E+03  0.15678622645E+04  0.50400001928E-02 0.  1.
       -1    1    3    3    0  502 -0.14025592381E+04  0.49152398194E+03  0.18278741099E+04  0.23558208766E+04  0.50400001928E-02 0. -1.
</event>
<event>
 5   0  0.5177000E-08  0.3743709E+04  0.7818609E-02  0.8058344E-01
       -1   -1    0    0    0  501  0.00000000000E+00  0.00000000000E+00  0.16288985445E+04  0.16288985445E+04  0.50400001928E-02 0. -1.
        1   -1    0    0  501    0  0.00000000000E+00  0.00000000000E+00 -0.21510479148E+04  0.21510479148E+04  0.50400001928E-02 0.  1.
    10030    2    1    2    0    0  0.00000000000E+00  0.00000000000E+00 -0.52214937024E+03  0.37799464593E+04  0.37437087588E+04 0.  0.
        3    1    3    3  502    0 -0.53789615860E+03  0.52496234593E+03 -0.19919969079E+04  0.21290771319E+04  0.10100000352E+00 0.  1.
       -3    1    3    3    0  502  0.53789615860E+03 -0.52496234593E+03  0.14698475377E+04  0.16508693274E+04  0.10100000352E+00 0. -1.
</event>
<event>
 5   0  0.1558258E-07  0.3690312E+04  0.7818609E-02  0.8070112E-01
        2   -1    0    0  501    0  0.00000000000E+00  0.00000000000E+00  0.20300596118E+04  0.20300596118E+04  0.25500000920E-02 0. -1.
       -2   -1    0    0    0  501  0.00000000000E+00  0.00000000000E+00 -0.16770940433E+04  0.16770940433E+04  0.25500000920E-02 0.  1.
    10030    2    1    2    0    0  0.00000000000E+00  0.00000000000E+00  0.35296556854E+03  0.37071536552E+04  0.36903121183E+04 0.  0.
        1    1    3    3  502    0 -0.95076721408E+03  0.96970727026E+03 -0.10783417142E+04  0.17341024589E+04  0.50400001928E-02 0.  1.
       -1    1    3    3    0  502  0.95076721408E+03 -0.96970727026E+03  0.14313072827E+04  0.19730511962E+04  0.50400001928E-02 0. -1.
</event>
<event>
 5   0  0.5177000E-08  0.3697171E+04  0.7818609E-02  0.8068589E-01
        1   -1    0    0  501    0  0.00000000000E+00  0.00000000000E+00  0.10062730494E+04  0.10062730494E+04  0.50400001928E-02 0.  1.
       -1   -1    0    0    0  501  0.00000000000E+00  0.00000000000E+00 -0.33959661242E+04  0.33959661242E+04  0.50400001928E-02 0. -1.
    10030    2    1    2    0    0  0.00000000000E+00  0.00000000000E+00 -0.23896930748E+04  0.44022391736E+04  0.36971714526E+04 0.  0.
        2    1    3    3  502    0  0.63621346788E+03  0.95651710599E+03  0.52965252120E+03  0.12649997407E+04  0.25500000920E-02 0.  1.
       -2    1    3    3    0  502 -0.63621346788E+03 -0.95651710599E+03 -0.29193455960E+04  0.31372394329E+04  0.25500000920E-02 0. -1.
</event>
<event>
 5   0  0.5177000E-08  0.3741397E+04  0.7818609E-02  0.8058849E-01
        1   -1    0    0  501    0  0.00000000000E+00  0.00000000000E+00  0.25587382267E+04  0.25587382267E+04  0.50400001928E-02 0. -1.
       -1   -1    0    0    0  501  0.00000000000E+00  0.00000000000E+00 -0.13676712625E+04  0.13676712625E+04  0.50400001928E-02 0.  1.
    10030    2    1    2    0    0  0.00000000000E+00  0.00000000000E+00  0.11910669642E+04  0.39264094892E+04  0.37413969268E+04 0.  0.
        4    1    3    3  502    0  0.78218831387E+03 -0.16660868007E+04  0.24455972884E+03  0.18567376927E+04  0.12699999809E+01 0.  1.
       -4    1    3    3    0  502 -0.78218831387E+03  0.16660868007E+04  0.94650723539E+03  0.20696717965E+04  0.12699999809E+01 0. -1.
</event>
<event>
 5   0  0.1666189E-07  0.3698512E+04  0.7818609E-02  0.8068292E-01
        2   -1    0    0  501    0  0.00000000000E+00  0.00000000000E+00  0.20354273845E+04  0.20354273845E+04  0.25500000920E-02 0.  1.
       -2   -1    0    0    0  501  0.00000000000E+00  0.00000000000E+00 -0.16801130379E+04  0.16801130379E+04  0.25500000920E-02 0. -1.
    10030    2    1    2    0    0  0.00000000000E+00  0.00000000000E+00  0.35531434653E+03  0.37155404224E+04  0.36985121800E+04 0.  0.
        4    1    3    3  502    0  0.31874404421E+03 -0.58233353934E+03 -0.15562779301E+04  0.16919552965E+04  0.12699999809E+01 0. -1.
       -4    1    3    3    0  502 -0.31874404421E+03  0.58233353934E+03  0.19115922766E+04  0.20235851259E+04  0.12699999809E+01 0.  1.
</event>
<event>
 5   0  0.1658770E-07  0.3703495E+04  0.7818609E-02  0.8067188E-01
       -2   -1    0    0    0  501  0.00000000000E+00  0.00000000000E+00  0.14403111259E+04  0.14403111259E+04  0.25500000920E-02 0. -1.
        2   -1    0    0  501    0  0.00000000000E+00  0.00000000000E+00 -0.23807141860E+04  0.23807141860E+04  0.25500000920E-02 0.  1.
    10030    2    1    2    0    0  0.00000000000E+00  0.00000000000E+00 -0.94040306004E+03  0.38210253119E+04  0.37034951760E+04 0.  0.
        2    1    3    3  502    0  0.94418658053E+03  0.56201472973E+03  0.10676097649E+04  0.15320376841E+04  0.25500000920E-02 0. -1.
       -2    1    3    3    0  502 -0.94418658053E+03 -0.56201472973E+03 -0.20080128249E+04  0.22889876278E+04  0.25500000920E-02 0.  1.
</event>
<event>
 5   0  0.5181371E-08  0.3696177E+04  0.7818609E-02  0.8068810E-01
       -1   -1    0    0    0  501  0.00000000000E+00  0.00000000000E+00  0.10526034527E+04  0.10526034527E+04  0.50400001928E-02 0.  1.
        1   -1    0    0  501    0  0.00000000000E+00  0.00000000000E+00 -0.32447460389E+04  0.32447460389E+04  0.50400001928E-02 0. -1.
    10030    2    1    2    0    0  0.00000000000E+00  0.00000000000E+00 -0.21921425862E+04  0.42973494916E+04  0.36961768808E+04 0.  0.
        5    1    3    3  502    0  0.63082804405E+02 -0.84922167957E+02  0.10490733632E+04  0.10544042044E+04  0.46999998093E+01 0.  1.
       -5    1    3    3    0  502 -0.63082804405E+02  0.84922167957E+02 -0.32412159494E+04  0.32429452872E+04  0.46999998093E+01 0. -1.
</event>
<event>
 5   0  0.1686284E-07  0.3603156E+04  0.7818609E-02  0.8089769E-01
        2   -1    0    0  501    0  0.00000000000E+00  0.00000000000E+00  0.24870414617E+04  0.24870414617E+04  0.25500000920E-02 0. -1.
       -2   -1    0    0    0  501  0.00000000000E+00  0.00000000000E+00 -0.13050375100E+04  0.13050375100E+04  0.25500000920E-02 0.  1.
    10030    2    1    2    0    0  0.00000000000E+00  0.00000000000E+00  0.11820039518E+04  0.37920789717E+04  0.36031555039E+04 0.  0.
        5    1    3    3  502    0 -0.49749216523E+03  0.74136724429E+03 -0.10558237973E+04  0.13827182744E+04  0.46999998093E+01 0.  1.
       -5    1    3    3    0  502  0.49749216523E+03 -0.74136724429E+03  0.22378277491E+04  0.24093606973E+04  0.46999998093E+01 0. -1.
</event>
<event>
 5   0  0.1658770E-07  0.3685849E+04  0.7818609E-02  0.8071105E-01
       -2   -1    0    0    0  501  0.00000000000E+00  0.00000000000E+00  0.32379128185E+04  0.32379128185E+04  0.25500000920E-02 0.  1.
        2   -1    0    0  501    0  0.00000000000E+00  0.00000000000E+00 -0.10489383442E+04  0.10489383442E+04  0.25500000920E-02 0. -1.
    10030    2    1    2    0    0  0.00000000000E+00  0.00000000000E+00  0.21889744743E+04  0.42868511627E+04  0.36858491074E+04 0.  0.
        2    1    3    3  502    0  0.14460368415E+04  0.11399134068E+04  0.10048051740E+04  0.20976316549E+04  0.25500000920E-02 0. -1.
       -2    1    3    3    0  502 -0.14460368415E+04 -0.11399134068E+04  0.11841693003E+04  0.21892195078E+04  0.25500000920E-02 0.  1.
</event>
<event>
 5   0  0.1686284E-07  0.3720371E+04  0.7818609E-02  0.8063462E-01
       -2   -1    0    0    0  501  0.00000000000E+00  0.00000000000E+00  0.19203987035E+04  0.19203987035E+04  0.25500000920E-02 0.  1.
        2   -1    0    0  501    0  0.00000000000E+00  0.00000000000E+00 -0.18018600431E+04  0.18018600431E+04  0.25500000920E-02 0. -1.
    10030    2    1    2    0    0  0.00000000000E+00  0.00000000000E+00  0.11853866048E+03  0.37222587466E+04  0.37203707829E+04 0.  0.
        5    1    3    3  502    0  0.10511555782E+04 -0.12031917648E+04 -0.89393085079E+03  0.18307738606E+04  0.46999998093E+01 0. -1.
       -5    1    3    3    0  502 -0.10511555782E+04  0.12031917648E+04  0.10124695113E+04  0.18914848860E+04  0.46999998093E+01 0.  1.
</event>
<event>
 5   0  0.5177000E-08  0.3657423E+04  0.7818609E-02  0.8077464E-01
        1   -1    0    0  501    0  0.00000000000E+00  0.00000000000E+00  0.29620172415E+04  0.29620172415E+04  0.50400001928E-02 0.  1.
       -1   -1    0    0    0  501  0.00000000000E+00  0.00000000000E+00 -0.11290227562E+04  0.11290227562E+04  0.50400001928E-02 0. -1.
    10030    2    1    2    0    0  0.00000000000E+00  0.00000000000E+00  0.18329944852E+04  0.40910399977E+04  0.36574225186E+04 0.  0.
        3    1    3    3  502    0 -0.16649122331E+04 -0.23021963037E+03  0.11047453419E+03  0.16843807334E+04  0.10100000352E+00 0. -1.
       -3    1    3    3    0  502  0.16649122331E+04  0.23021963037E+03  0.17225199511E+04  0.24066592643E+04  0.10100000352E+00 0.  1.
</event>
<event>
 5   0  0.1558258E-07  0.3671973E+04  0.7818609E-02  0.8074201E-01
       -2   -1    0    0    0  501  0.00000000000E+00  0.00000000000E+00  0.17641572740E+04  0.17641572740E+04  0.25500000920E-02 0.  1.
        2   -1    0    0  501    0  0.00000000000E+00  0.00000000000E+00 -0.19107407545E+04  0.19107407545E+04  0.25500000920E-02 0. -1.
    10030    2    1    2    0    0  0.00000000000E+00  0.00000000000E+00 -0.14658348055E+03  0.36748980285E+04  0.36719734208E+04 0.  0.
        1    1    3    3  502    0 -0.49122459899E+03 -0.20112656650E+03 -0.18322733729E+04  0.19076108658E+04  0.50400001928E-02 0. -1.
       -1    1    3    3    0  502  0.49122459899E+03  0.20112656650E+03  0.16856898923E+04  0.17672871627E+04  0.50400001928E-02 0.  1.
</event>
<event>
 5   0  0.5177000E-08  0.3677951E+04  0.7818609E-02  0.8072866E-01
        1   -1    0    0  501    0  0.00000000000E+00  0.00000000000E+00  0.16226226879E+04  0.16226226879E+04  0.50400001928E-02 0.  1.
       -1   -1    0    0    0  501  0.00000000000E+00  0.00000000000E+00 -0.20841754392E+04  0.20841754392E+04  0.50400001928E-02 0. -1.
    10030    2    1    2    0    0  0.00000000000E+00  0.00000000000E+00 -0.46155275133E+03  0.37067981271E+04  0.36779507083E+04 0.  0.
        3    1    3    3  502    0  0.14694047648E+04 -0.10419281374E+04 -0.60390406859E+03  0.18998591370E+04  0.10100000352E+00 0. -1.
       -3    1    3    3    0  502 -0.14694047648E+04  0.10419281374E+04  0.14235131726E+03  0.18069389901E+04  0.10100000352E+00 0.  1.
</event>
<event>
 5   0  0.1658770E-07  0.3690410E+04  0.7818609E-02  0.8070090E-01
        2   -1    0    0  501    0  0.00000000000E+00  0.00000000000E+00  0.25266839612E+04  0.25266839612E+04  0.25500000920E-02 0. -1.
       -2   -1    0    0    0  501  0.00000000000E+00  0.00000000000E+00 -0.13475298884E+04  0.13475298884E+04  0.25500000920E-02 0.  1.
    10030    2    1    2    0    0  0.00000000000E+00  0.00000000000E+00  0.11791540728E+04  0.38742138495E+04  0.36904103599E+04 0.  0.
        2    1    3    3  502    0 -0.16199295744E+04  0.79695886093E+03  0.18917984122E+03  0.18152422054E+04  0.25500000920E-02 0.  1.
       -2    1    3    3    0  502  0.16199295744E+04 -0.79695886093E+03  0.98997423159E+03  0.20589716441E+04  0.25500000920E-02 0. -1.
</event>
<event>
 5   0  0.1587026E-07  0.3692556E+04  0.7818609E-02  0.8069614E-01
        2   -1    0    0  501    0  0.00000000000E+00  0.00000000000E+00  0.29600158013E+04  0.29600158013E+04  0.25500000920E-02 0. -1.
       -2   -1    0    0    0  501  0.00000000000E+00  0.00000000000E+00 -0.11515960330E+04  0.11515960330E+04  0.25500000920E-02 0.  1.
    10030    2    1    2    0    0  0.00000000000E+00  0.00000000000E+00  0.18084197683E+04  0.41116118344E+04  0.36925560007E+04 0.  0.
        3    1    3    3  502    0  0.92897160165E+03 -0.22545070060E+02  0.26806472211E+04  0.28371404708E+04  0.10100000352E+00 0. -1.
       -3    1    3    3    0  502 -0.92897160165E+03  0.22545070060E+02 -0.87222745283E+03  0.12744713636E+04  0.10100000352E+00 0.  1.
</event>
<event>
 5   0  0.1558258E-07  0.3699427E+04  0.7818609E-02  0.8068089E-01
        2   -1    0    0  501    0  0.00000000000E+00  0.00000000000E+00  0.23219074157E+04  0.23219074157E+04  0.25500000920E-02 0. -1.
       -2   -1    0    0    0  501  0.00000000000E+00  0.00000000000E+00 -0.14735470311E+04  0.14735470311E+04  0.25500000920E-02 0.  1.
    10030    2    1    2    0    0  0.00000000000E+00  0.00000000000E+00  0.84836038458E+03  0.37954544468E+04  0.36994268631E+04 0.  0.
        1    1    3    3  502    0  0.11176339771E+04 -0.11143183124E+04 -0.56555172298E+03  0.16765022397E+04  0.50400001928E-02 0.  1.
       -1    1    3    3    0  502 -0.11176339771E+04  0.11143183124E+04  0.14139121076E+04  0.21189522071E+04  0.50400001928E-02 0. -1.
</event>
<event>
 5   0  0.1686284E-07  0.3701567E+04  0.7818609E-02  0.8067615E-01
       -2   -1    0    0    0  501  0.00000000000E+00  0.00000000000E+00  0.12149140975E+04  0.12149140975E+04  0.25500000920E-02 0. -1.
        2   -1    0    0  501    0  0.00000000000E+00  0.00000000000E+00 -0.28194587664E+04  0.28194587664E+04  0.25500000920E-02 0.  1.
    10030    2    1    2    0    0  0.00000000000E+00  0.00000000000E+00 -0.16045446689E+04  0.40343728638E+04  0.37015673450E+04 0.  0.
        5    1    3    3  502    0  0.16381409321E+04  0.14164008128E+03 -0.17282531144E+04  0.23854661061E+04  0.46999998093E+01 0.  1.
       -5    1    3    3    0  502 -0.16381409321E+04 -0.14164008128E+03  0.12370844550E+03  0.16489067577E+04  0.46999998093E+01 0. -1.
</event>
<event>
 5   0  0.5177000E-08  0.3707075E+04  0.7818609E-02  0.8066396E-01
       -1   -1    0    0    0  501  0.00000000000E+00  0.00000000000E+00  0.20249905105E+04  0.20249905105E+04  0.50400001928E-02 0. -1.
        1   -1    0    0  501    0  0.00000000000E+00  0.00000000000E+00 -0.16966008305E+04  0.16966008305E+04  0.50400001928E-02 0.  1.
    10030    2    1    2    0    0  0.00000000000E+00  0.00000000000E+00  0.32838968002E+03  0.37215913410E+04  0.37070746320E+04 0.  0.
        4    1    3    3  502    0 -0.12223814512E+04 -0.61262083878E+03 -0.10921361831E+04  0.17499382160E+04  0.12699999809E+01 0.  1.
       -4    1    3    3    0  502  0.12223814512E+04  0.61262083878E+03  0.14205258632E+04  0.19716531250E+04  0.12699999809E+01 0. -1.
</event>
<event>
 5   0  0.5181371E-08  0.3493819E+04  0.7818609E-02  0.8115256E-01
       -1   -1    0    0    0  501  0.00000000000E+00  0.00000000000E+00  0.22592730238E+04  0.22592730238E+04  0.50400001928E-02 0. -1.
        1   -1    0    0  501    0  0.00000000000E+00  0.00000000000E+00 -0.13507409038E+04  0.13507409038E+04  0.50400001928E-02 0.  1.
    10030    2    1    2    0    0  0.00000000000E+00  0.00000000000E+00  0.90853211998E+03  0.36100139276E+04  0.34938188196E+04 0.  0.
        5    1    3    3  502    0  0.16572962368E+04  0.27317093676E+03 -0.41715993781E+02  0.16801831720E+04  0.46999998093E+01 0.  1.
       -5    1    3    3    0  502 -0.16572962368E+04 -0.27317093676E+03  0.95024811376E+03  0.19298307555E+04  0.46999998093E+01 0. -1.
</event>
<event>
 5   0  0.1666189E-07  0.3699551E+04  0.7818609E-02  0.8068061E-01
       -2   -1    0    0    0  501  0.00000000000E+00  0.00000000000E+00  0.21181476508E+04  0.21181476508E+04  0.25500000920E-02 0. -1.
        2   -1    0    0  501    0  0.00000000000E+00  0.00000000000E+00 -0.16154067331E+04  0.16154067331E+04  0.25500000920E-02 0.  1.
    10030    2    1    2    0    0  0.00000000000E+00  0.00000000000E+00  0.50274091767E+03  0.37335543839E+04  0.36995513116E+04 0.  0.
        4    1    3    3  502    0 -0.12648895033E+04 -0.10648134831E+04 -0.58564706729E+03  0.17540687870E+04  0.12699999809E+01 0.  1.
       -4    1    3    3    0  502  0.12648895033E+04  0.10648134831E+04  0.10883879850E+04  0.19794855968E+04  0.12699999809E+01 0. -1.
</event>
<event>
 5   0  0.5177000E-08  0.3700031E+04  0.7818609E-02  0.8067955E-01
        1   -1    0    0  501    0  0.00000000000E+00  0.00000000000E+00  0.15565193378E+04  0.15565193378E+04  0.50400001928E-02 0. -1.
       -1   -1    0    0    0  501  0.00000000000E+00  0.00000000000E+00 -0.21988532204E+04  0.21988532204E+04  0.50400001928E-02 0.  1.
    10030    2    1    2    0    0  0.00000000000E+00  0.00000000000E+00 -0.64233388261E+03  0.37553725582E+04  0.37000311126E+04 0.  0.
        4    1    3    3  502    0 -0.45117502699E+03 -0.26899675295E+03 -0.21215753364E+04  0.21856353033E+04  0.12699999809E+01 0.  1.
       -4    1    3    3    0  502  0.45117502699E+03  0.26899675295E+03  0.14792414538E+04  0.15697372549E+04  0.12699999809E+01 0. -1.
</event>
<event>
 5   0  0.5177000E-08  0.3696348E+04  0.7818609E-02  0.8068772E-01
       -1   -1    0    0    0  501  0.00000000000E+00  0.00000000000E+00  0.14629588409E+04  0.14629588409E+04  0.50400001928E-02 0. -1.
        1   -1    0    0  501    0  0.00000000000E+00  0.00000000000E+00 -0.23348207530E+04  0.23348207530E+04  0.50400001928E-02 0.  1.
    10030    2    1    2    0    0  0.00000000000E+00  0.00000000000E+00 -0.87186191208E+03  0.37977795939E+04  0.36963477448E+04 0.  0.
        3    1    3    3  502    0 -0.56749167502E+03  0.10028701009E+04 -0.19205571839E+04  0.22397176491E+04  0.10100000352E+00 0.  1.
       -3    1    3    3    0  502  0.56749167502E+03 -0.10028701009E+04  0.10486952719E+04  0.15580619448E+04  0.10100000352E+00 0. -1.
</event>
<event>
 5   0  0.1558258E-07  0.3656245E+04  0.7818609E-02  0.8077728E-01
       -2   -1    0    0    0  501  0.00000000000E+00  0.00000000000E+00  0.22997722657E+04  0.22997722657E+04  0.25500000920E-02 0.  1.
        2   -1    0    0  501    0  0.00000000000E+00  0.00000000000E+00 -0.14532014882E+04  0.14532014882E+04  0.25500000920E-02 0. -1.
    10030    2    1    2    0    0  0.00000000000E+00  0.00000000000E+00  0.84657077753E+03  0.37529737539E+04  0.36562453304E+04 0.  0.
        1    1    3    3  502    0 -0.15612537078E+04  0.90201877378E+03  0.11384437789E+03  0.18066852385E+04  0.50400001928E-02 0. -1.
       -1    1    3    3    0  502  0.15612537078E+04 -0.90201877378E+03  0.73272639965E+03  0.19462885154E+04  0.50400001928E-02 0.  1.
</event>
<event>
 5   0  0.5181371E-08  0.3694401E+04  0.7818609E-02  0.8069204E-01
        1   -1    0    0  501    0  0.00000000000E+00  0.00000000000E+00  0.23232664153E+04  0.23232664153E+04  0.50400001928E-02 0. -1.
       -1   -1    0    0    0  501  0.00000000000E+00  0.00000000000E+00 -0.14686867061E+04  0.14686867061E+04  0.50400001928E-02 0.  1.
    10030    2    1    2    0    0  0.00000000000E+00  0.00000000000E+00  0.85457970920E+03  0.37919531214E+04  0.36944014394E+04 0.  0.
        5    1    3    3  502    0 -0.18450090716E+04 -0.86719489215E+02  0.45135385533E+03  0.19013997835E+04  0.46999998093E+01 0. -1.
       -5    1    3    3    0  502  0.18450090716E+04  0.86719489215E+02  0.40322585387E+03  0.18905533379E+04  0.46999998093E+01 0.  1.
</event>
<event>
 5   0  0.1666189E-07  0.3693322E+04  0.7818609E-02  0.8069443E-01
       -2   -1    0    0    0  501  0.00000000000E+00  0.00000000000E+00  0.31442423735E+04  0.31442423735E+04  0.25500000920E-02 0. -1.
        2   -1    0    0  501    0  0.00000000000E+00  0.00000000000E+00 -0.10845715832E+04  0.10845715832E+04  0.25500000920E-02 0.  1.
    10030    2    1    2    0    0  0.00000000000E+00  0.00000000000E+00  0.20596707904E+04  0.42288139567E+04  0.36933215018E+04 0.  0.
        4    1    3    3  502    0  0.26276230957E+03  0.17920140330E+04  0.14423431364E+04  0.23153215029E+04  0.12699999809E+01 0. -1.
       -4    1    3    3    0  502 -0.26276230957E+03 -0.17920140330E+04  0.61732765393E+03  0.19134924538E+04  0.12699999809E+01 0.  1.
</event>
<event>
 5   0  0.1558258E-07  0.3706949E+04  0.7818609E-02  0.8066424E-01
        2   -1    0    0  501    0  0.00000000000E+00  0.00000000000E+00  0.23631610168E+04  0.23631610168E+04  0.25500000920E-02 0. -1.
       -2   -1    0    0    0  501  0.00000000000E+00  0.00000000000E+00 -0.14537170328E+04  0.14537170328E+04  0.25500000920E-02 0.  1.
    10030    2    1    2    0    0  0.00000000000E+00  0.00000000000E+00  0.90944398405E+03  0.38168780496E+04  0.37069488377E+04 0.  0.
        1    1    3    3  502    0 -0.59283614669E+03  0.12167276871E+04  0.17585621131E+04  0.22191037982E+04  0.50400001928E-02 0. -1.
       -1    1    3    3    0  502  0.59283614669E+03 -0.12167276871E+04 -0.84911812908E+03  0.15977742514E+04  0.50400001928E-02 0.  1.
</event>
<event>
 5   0  0.1587026E-07  0.3703534E+04  0.7818609E-02  0.8067179E-01
        2   -1    0    0  501    0  0.00000000000E+00  0.00000000000E+00  0.16617878731E+04  0.16617878731E+04  0.25500000920E-02 0.  1.
       -2   -1    0    0    0  501  0.00000000000E+00  0.00000000000E+00 -0.20634649381E+04  0.20634649381E+04  0.25500000920E-02 0. -1.
    10030    2    1    2    0    0  0.00000000000E+00  0.00000000000E+00 -0.40167706493E+03  0.37252528112E+04  0.37035339938E+04 0.  0.
        3    1    3    3  502    0 -0.33307639278E+03 -0.17897982931E+04 -0.54153295017E+03  0.18993619349E+04  0.10100000352E+00 0.  1.
       -3    1    3    3    0  502  0.33307639278E+03  0.17897982931E+04  0.13985588523E+03  0.18258908763E+04  0.10100000352E+00 0. -1.
</event>
<event>
 5   0  0.1658770E-07  0.3699426E+04  0.7818609E-02  0.8068089E-01
       -2   -1    0    0    0  501  0.00000000000E+00  0.00000000000E+00  0.15229673169E+04  0.15229673169E+04  0.25500000920E-02 0.  1.
        2   -1    0    0  501    0  0.00000000000E+00  0.00000000000E+00 -0.22465600094E+04  0.22465600094E+04  0.25500000920E-02 0. -1.
    10030    2    1    2    0    0  0.00000000000E+00  0.00000000000E+00 -0.72359269249E+03  0.37695273263E+04  0.36994256147E+04 0.  0.
        2    1    3    3  502    0  0.15766353340E+04  0.72053034873E+03 -0.10193894306E+04  0.20109942245E+04  0.25500000920E-02 0. -1.
       -2    1    3    3    0  502 -0.15766353340E+04 -0.72053034873E+03  0.29579673808E+03  0.17585331018E+04  0.25500000920E-02 0.  1.
</event>
<event>
 5   0  0.1558258E-07  0.3695519E+04  0.7818609E-02  0.8068956E-01
       -2   -1    0    0    0  501  0.00000000000E+00  0.00000000000E+00  0.23561057111E+04  0.23561057111E+04  0.25500000920E-02 0.  1.
        2   -1    0    0  501    0  0.00000000000E+00  0.00000000000E+00 -0.14490927680E+04  0.14490927680E+04  0.25500000920E-02 0. -1.
    10030    2    1    2    0    0  0.00000000000E+00  0.00000000000E+00  0.90701294309E+03  0.38051984792E+04  0.36955193122E+04 0.  0.
        1    1    3    3  502    0  0.84657933896E+03  0.31323484030E+03  0.21136233113E+04  0.22983072346E+04  0.50400001928E-02 0.  1.
       -1    1    3    3    0  502 -0.84657933896E+03 -0.31323484030E+03 -0.12066103682E+04  0.15068912446E+04  0.50400001928E-02 0. -1.
</event>
<event>
 5   0  0.1587026E-07  0.3611436E+04  0.7818609E-02  0.8087877E-01
        2   -1    0    0  501    0  0.00000000000E+00  0.00000000000E+00  0.20072523841E+04  0.20072523841E+04  0.25500000920E-02 0.  1.
       -2   -1    0    0    0  501  0.00000000000E+00  0.00000000000E+00 -0.16244182237E+04  0.16244182237E+04  0.25500000920E-02 0. -1.
    10030    2    1    2    0    0  0.00000000000E+00  0.00000000000E+00  0.38283416042E+03  0.36316706078E+04  0.36114359207E+04 0.  0.
        3    1    3    3  502    0  0.11157480274E+03 -0.74969215424E+03 -0.14567075809E+04  0.16420975152E+04  0.10100000352E+00 0. -1.
       -3    1    3    3    0  502 -0.11157480274E+03  0.74969215424E+03  0.18395417413E+04  0.19895730927E+04  0.10100000352E+00 0.  1.
</event>
<event>
 5   0  0.1658770E-07  0.3696039E+04  0.7818609E-02  0.8068840E-01
       -2   -1    0    0    0  501  0.00000000000E+00  0.00000000000E+00  0.14479036566E+04  0.14479036566E+04  0.25500000920E-02 0. -1.
        2   -1    0    0  501    0  0.00000000000E+00  0.00000000000E+00 -0.23587042959E+04  0.23587042959E+04  0.25500000920E-02 0.  1.
    10030    2    1    2    0    0  0.00000000000E+00  0.00000000000E+00 -0.91080063931E+03  0.38066079525E+04  0.36960392719E+04 0.  0.
        2    1    3    3  502    0  0.47861354137E+03  0.15700819519E+04 -0.13298878873E+04  0.21125411358E+04  0.25500000920E-02 0.  1.
       -2    1    3    3    0  502 -0.47861354137E+03 -0.15700819519E+04  0.41908724801E+03  0.16940668166E+04  0.25500000920E-02 0. -1.
</event>
<event>
 5   0  0.5177000E-08  0.3690718E+04  0.7818609E-02  0.8070022E-01
       -1   -1    0    0    0  501  0.00000000000E+00  0.00000000000E+00  0.15809302879E+04  0.15809302879E+04  0.50400001928E-02 0.  1.
        1   -1    0    0  501    0  0.00000000000E+00  0.00000000000E+00 -0.21540159988E+04  0.21540159988E+04  0.50400001928E-02 0. -1.
    10030    2    1    2    0    0  0.00000000000E+00  0.00000000000E+00 -0.57308571083E+03  0.37349462867E+04  0.36907176175E+04 0.  0.
        3    1    3    3  502    0  0.63013856240E+02  0.10987666074E+04  0.12124542464E+04  0.16374688130E+04  0.10100000352E+00 0.  1.
       -3    1    3    3    0  502 -0.63013856240E+02 -0.10987666074E+04 -0.17855399572E+04  0.20974774737E+04  0.10100000352E+00 0. -1.
</event>
<event>
 5   0  0.5177000E-08  0.3728981E+04  0.7818609E-02  0.8061570E-01
        1   -1    0    0  501    0  0.00000000000E+00  0.00000000000E+00  0.20397524363E+04  0.20397524363E+04  0.50400001928E-02 0. -1.
       -1   -1    0    0    0  501  0.00000000000E+00  0.00000000000E+00 -0.17042873039E+04  0.17042873039E+04  0.50400001928E-02 0.  1.
    10030    2    1    2    0    0  0.00000000000E+00  0.00000000000E+00  0.33546513243E+03  0.37440397402E+04  0.37289806544E+04 0.  0.
        1    1    3    3  502    0 -0.14905476440E+04 -0.40033958151E+03  0.12180546858E+04  0.19661284997E+04  0.50400001928E-02 0. -1.
       -1    1    3    3    0  502  0.14905476440E+04  0.40033958151E+03 -0.88258955335E+03  0.17779112406E+04  0.50400001928E-02 0.  1.
</event>
<event>
 5   0  0.1658770E-07  0.3676355E+04  0.7818609E-02  0.8073222E-01
       -2   -1    0    0    0  501  0.00000000000E+00  0.00000000000E+00  0.16284177981E+04  0.16284177981E+04  0.25500000920E-02 0. -1.
        2   -1    0    0  501    0  0.00000000000E+00  0.00000000000E+00 -0.20749568526E+04  0.20749568526E+04  0.25500000920E-02 0.  1.
    10030    2    1    2    0    0  0.00000000000E+00  0.00000000000E+00 -0.44653905443E+03  0.37033746507E+04  0.36763550803E+04 0.  0.
        2    1    3    3  502    0 -0.17384495069E+04 -0.56790299097E+03 -0.37042839834E+02  0.18292328084E+04  0.25500000920E-02 0. -1.
       -2    1    3    3    0  502  0.17384495069E+04  0.56790299097E+03 -0.40949621460E+03  0.18741418423E+04  0.25500000920E-02 0.  1.
</event>
<event>
 5   0  0.1686284E-07  0.3688031E+04  0.7818609E-02  0.8070620E-01
        2   -1    0    0  501    0  0.00000000000E+00  0.00000000000E+00  0.21884270642E+04  0.21884270642E+04  0.25500000920E-02 0. -1.
       -2   -1    0    0    0  501  0.00000000000E+00  0.00000000000E+00 -0.15538065605E+04  0.15538065605E+04  0.25500000920E-02 0.  1.
    10030    2    1    2    0    0  0.00000000000E+00  0.00000000000E+00  0.63462050370E+03  0.37422336247E+04  0.36880305473E+04 0.  0.
        5    1    3    3  502    0  0.13295095330E+04  0.12238391778E+04  0.69012312381E+03  0.19343396670E+04  0.46999998093E+01 0. -1.
       -5    1    3    3    0  502 -0.13295095330E+04 -0.12238391778E+04 -0.55502620110E+02  0.18078939577E+04  0.46999998093E+01 0.  1.
</event>
<event>
 5   0  0.1686284E-07  0.3694201E+04  0.7818609E-02  0.8069248E-01
        2   -1    0    0  501    0  0.00000000000E+00  0.00000000000E+00  0.20340972975E+04  0.20340972975E+04  0.25500000920E-02 0.  1.
       -2   -1    0    0    0  501  0.00000000000E+00  0.00000000000E+00 -0.16772945835E+04  0.16772945835E+04  0.25500000920E-02 0. -1.
    10030    2    1    2    0    0  0.00000000000E+00  0.00000000000E+00  0.35680271405E+03  0.37113918810E+04  0.36942010662E+04 0.  0.
        5    1    3    3  502    0  0.16157552017E+03  0.38255918755E+03  0.19865822545E+04  0.20295293357E+04  0.46999998093E+01 0.  1.
       -5    1    3    3    0  502 -0.16157552017E+03 -0.38255918755E+03 -0.16297795405E+04  0.16818625453E+04  0.46999998093E+01 0. -1.
</event>
<event>
 5   0  0.5177000E-08  0.3654370E+04  0.7818609E-02  0.8078150E-01
       -1   -1    0    0    0  501  0.00000000000E+00  0.00000000000E+00  0.14665030274E+04  0.14665030274E+04  0.50400001928E-02 0. -1.
        1   -1    0    0  501    0  0.00000000000E+00  0.00000000000E+00 -0.22765759560E+04  0.22765759560E+04  0.50400001928E-02 0.  1.
    10030    2    1    2    0    0  0.00000000000E+00  0.00000000000E+00 -0.81007292854E+03  0.37430789834E+04  0.36543702777E+04 0.  0.
        4    1    3    3  502    0  0.74339058367E+03 -0.11411018489E+04 -0.16527446987E+04  0.21415670994E+04  0.12699999809E+01 0.  1.
       -4    1    3    3    0  502 -0.74339058367E+03  0.11411018489E+04  0.84267177011E+03  0.16015118840E+04  0.12699999809E+01 0. -1.
</event>
<event>
 5   0  0.5181371E-08  0.3605964E+04  0.7818609E-02  0.8089127E-01
        1   -1    0    0  501    0  0.00000000000E+00  0.00000000000E+00  0.25777713218E+04  0.25777713218E+04  0.50400001928E-02 0. -1.
       -1   -1    0    0    0  501  0.00000000000E+00  0.00000000000E+00 -0.12610680119E+04  0.12610680119E+04  0.50400001928E-02 0.  1.
    10030    2    1    2    0    0  0.00000000000E+00  0.00000000000E+00  0.13167033099E+04  0.38388393337E+04  0.36059644790E+04 0.  0.
        5    1    3    3  502    0 -0.12792662212E+04  0.83217735537E+03  0.16803941708E+04  0.22699753027E+04  0.46999998093E+01 0. -1.
       -5    1    3    3    0  502  0.12792662212E+04 -0.83217735537E+03 -0.36369086096E+03  0.15688640310E+04  0.46999998093E+01 0.  1.
</event>
<event>
 5   0  0.1558258E-07  0.3722031E+04  0.7818609E-02  0.8063097E-01
        2   -1    0    0  501    0  0.00000000000E+00  0.00000000000E+00  0.20747245635E+04  0.20747245635E+04  0.25500000920E-02 0.  1.
       -2   -1    0    0    0  501  0.00000000000E+00  0.00000000000E+00 -0.16693198076E+04  0.16693198076E+04  0.25500000920E-02 0. -1.
    10030    2    1    2    0    0  0.00000000000E+00  0.00000000000E+00  0.40540475591E+03  0.37440443710E+04  0.37220310633E+04 0.  0.
        1    1    3    3  502    0 -0.16091506003E+04 -0.44186825815E+03  0.10314473464E+04  0.19617586091E+04  0.50400001928E-02 0.  1.
       -1    1    3    3    0  502  0.16091506003E+04  0.44186825815E+03 -0.62604259049E+03  0.17822857619E+04  0.50400001928E-02 0. -1.
</event>
<event>
 5   0  0.1666189E-07  0.3703705E+04  0.7818609E-02  0.8067141E-01
       -2   -1    0    0    0  501  0.00000000000E+00  0.00000000000E+00  0.22340481660E+04  0.22340481660E+04  0.25500000920E-02 0. -1.
        2   -1    0    0  501    0  0.00000000000E+00  0.00000000000E+00 -0.15350422614E+04  0.15350422614E+04  0.25500000920E-02 0.  1.
    10030    2    1    2    0    0  0.00000000000E+00  0.00000000000E+00  0.69900590452E+03  0.37690904274E+04  0.37037053602E+04 0.  0.
        4    1    3    3  502    0 -0.14016958890E+04  0.33442231382E+03 -0.83411526570E+03  0.16650343956E+04  0.12699999809E+01 0.  1.
       -4    1    3    3    0  502  0.14016958890E+04 -0.33442231382E+03  0.15331211702E+04  0.21040560318E+04  0.12699999809E+01 0. -1.
</event>
<event>
 5   0  0.1658770E-07  0.3636213E+04  0.7818609E-02  0.8082247E-01
       -2   -1    0    0    0  501  0.00000000000E+00  0.00000000000E+00  0.20224013353E+04  0.20224013353E+04  0.25500000920E-02 0.  1.
        2   -1    0    0  501    0  0.00000000000E+00  0.00000000000E+00 -0.16344485863E+04  0.16344485863E+04  0.25500000920E-02 0. -1.
    10030    2    1    2    0    0  0.00000000000E+00  0.00000000000E+00  0.38795274891E+03  0.36568499216E+04  0.36362128669E+04 0.  0.
        2    1    3    3  502    0  0.16668500194E+04 -0.19048419407E+03  0.89855073140E+03  0.19031727805E+04  0.25500000920E-02 0.  1.
       -2    1    3    3    0  502 -0.16668500194E+04  0.19048419407E+03 -0.51059798249E+03  0.17536771411E+04  0.25500000920E-02 0. -1.
</event>
<event>
 5   0  0.1658770E-07  0.3707825E+04  0.7818609E-02  0.8066230E-01
       -2   -1    0    0    0  501  0.00000000000E+00  0.00000000000E+00  0.16020847911E+04  0.16020847911E+04  0.25500000920E-02 0. -1.
        2   -1    0    0  501    0  0.00000000000E+00  0.00000000000E+00 -0.21453243349E+04  0.21453243349E+04  0.25500000920E-02 0.  1.
    10030    2    1    2    0    0  0.00000000000E+00  0.00000000000E+00 -0.54323954378E+03  0.37474091260E+04  0.37078249630E+04 0.  0.
        2    1    3    3  502    0 -0.13636018172E+04 -0.39455947949E+03  0.93354681846E+03  0.16989987525E+04  0.25500000920E-02 0. -1.
       -2    1    3    3    0  502  0.13636018172E+04  0.39455947949E+03 -0.14767863622E+04  0.20484103735E+04  0.25500000920E-02 0.  1.
</event>
<event>
 5   0  0.5177000E-08  0.3707389E+04  0.7818609E-02  0.8066326E-01
       -1   -1    0    0    0  501  0.00000000000E+00  0.00000000000E+00  0.23686894582E+04  0.23686894582E+04  0.50400001928E-02 0. -1.
        1   -1    0    0  501    0  0.00000000000E+00  0.00000000000E+00 -0.14506684590E+04  0.14506684590E+04  0.50400001928E-02 0.  1.
    10030    2    1    2    0    0  0.00000000000E+00  0.00000000000E+00  0.91802099920E+03  0.38193579173E+04  0.37073888851E+04 0.  0.
        2    1    3    3  502    0  0.66140478925E+03  0.11426683010E+03 -0.13210842068E+04  0.14818153343E+04  0.25500000920E-02 0.  1.
       -2    1    3    3    0  502 -0.66140478925E+03 -0.11426683010E+03  0.22391052060E+04  0.23375425829E+04  0.25500000920E-02 0. -1.
</event>
<event>
 5   0  0.5177000E-08  0.3706706E+04  0.7818609E-02  0.8066477E-01
       -1   -1    0    0    0  501  0.00000000000E+00  0.00000000000E+00  0.14175085454E+04  0.14175085454E+04  0.50400001928E-02 0. -1.
        1   -1    0    0  501    0  0.00000000000E+00  0.00000000000E+00 -0.24232081047E+04  0.24232081047E+04  0.50400001928E-02 0.  1.
    10030    2    1    2    0    0  0.00000000000E+00  0.00000000000E+00 -0.10056995593E+04  0.38407166501E+04  0.37067064603E+04 0.  0.
        3    1    3    3  502    0  0.69199447820E+01  0.11313780276E+04  0.10181634945E+04  0.15220778689E+04  0.10100000352E+00 0. -1.
       -3    1    3    3    0  502 -0.69199447820E+01 -0.11313780276E+04 -0.20238630538E+04  0.23186387812E+04  0.10100000352E+00 0.  1.
</event>
<event>
 5   0  0.1686284E-07  0.3724246E+04  0.7818609E-02  0.8062610E-01
        2   -1    0    0  501    0  0.00000000000E+00  0.00000000000E+00  0.28854440721E+04  0.28854440721E+04  0.25500000920E-02 0.  1.
       -2   -1    0    0    0  501  0.00000000000E+00  0.00000000000E+00 -0.12017221665E+04  0.12017221665E+04  0.25500000920E-02 0. -1.
    10030    2    1    2    0    0  0.00000000000E+00  0.00000000000E+00  0.16837219057E+04  0.40871662386E+04  0.37242460185E+04 0.  0.
        5    1    3    3  502    0 -0.14429266690E+03 -0.49194041076E+03 -0.11227408203E+04  0.12342587982E+04  0.46999998093E+01 0. -1.
       -5    1    3    3    0  502  0.14429266690E+03  0.49194041076E+03  0.28064627259E+04  0.28529074404E+04  0.46999998093E+01 0.  1.
</event>
<event>
 5   0  0.1558258E-07  0.3693099E+04  0.7818609E-02  0.8069493E-01
        2   -1    0    0  501    0  0.00000000000E+00  0.00000000000E+00  0.26062885255E+04  0.26062885255E+04  0.25500000920E-02 0. -1.
       -2   -1    0    0    0  501  0.00000000000E+00  0.00000000000E+00 -0.13082763991E+04  0.13082763991E+04  0.25500000920E-02 0.  1.
    10030    2    1    2    0    0  0.00000000000E+00  0.00000000000E+00  0.12980121264E+04  0.39145649246E+04  0.36930993851E+04 0.  0.
        1    1    3    3  502    0 -0.33583732270E+03  0.16969794056E+04  0.13336661994E+04  0.21843056887E+04  0.50400001928E-02 0. -1.
       -1    1    3    3    0  502  0.33583732270E+03 -0.16969794056E+04 -0.35654072908E+02  0.17302592359E+04  0.50400001928E-02 0.  1.
</event>
<event>
 5   0  0.5177000E-08  0.3688554E+04  0.7818609E-02  0.8070503E-01
        1   -1    0    0  501    0  0.00000000000E+00  0.00000000000E+00  0.26098749614E+04  0.26098749614E+04  0.50400001928E-02 0. -1.
       -1   -1    0    0    0  501  0.00000000000E+00  0.00000000000E+00 -0.13032643078E+04  0.13032643078E+04  0.50400001928E-02 0.  1.
    10030    2    1    2    0    0  0.00000000000E+00  0.00000000000E+00  0.13066106536E+04  0.39131392691E+04  0.36885535837E+04 0.  0.
        4    1    3    3  502    0 -0.84825809465E+02 -0.82574037482E+03  0.24004911038E+04  0.25399609716E+04  0.12699999809E+01 0. -1.
       -4    1    3    3    0  502  0.84825809465E+02  0.82574037482E+03 -0.10938804502E+04  0.13731782976E+04  0.12699999809E+01 0.  1.
</event>
<event>
 5   0  0.5177000E-08  0.3701691E+04  0.7818609E-02  0.8067587E-01
        1   -1    0    0  501    0  0.00000000000E+00  0.00000000000E+00  0.17348667819E+04  0.17348667819E+04  0.50400001928E-02 0.  1.
       -1   -1    0    0    0  501  0.00000000000E+00  0.00000000000E+00 -0.19745772753E+04  0.19745772753E+04  0.50400001928E-02 0. -1.
    10030    2    1    2    0    0  0.00000000000E+00  0.00000000000E+00 -0.23971049336E+03  0.37094440572E+04  0.37016907074E+04 0.  0.
        3    1    3    3  502    0  0.48944614851E+03  0.93070249862E+03 -0.16461553894E+04  0.19533541025E+04  0.10100000352E+00 0. -1.
       -3    1    3    3    0  502 -0.48944614851E+03 -0.93070249862E+03  0.14064448961E+04  0.17560899547E+04  0.10100000352E+00 0.  1.
</event>
<event>
 5   0  0.1686284E-07  0.3701152E+04  0.7818609E-02  0.8067707E-01
       -2   -1    0    0    0  501  0.00000000000E+00  0.00000000000E+00  0.19385799455E+04  0.19385799455E+04  0.25500000920E-02 0. -1.
        2   -1    0    0  501    0  0.00000000000E+00  0.00000000000E+00 -0.17665668101E+04  0.17665668101E+04  0.25500000920E-02 0.  1.
    10030    2    1    2    0    0  0.00000000000E+00  0.00000000000E+00  0.17201313546E+03  0.37051467556E+04  0.37011517075E+04 0.  0.
        5    1    3    3  502    0  0.65011726547E+03  0.57930524860E+03  0.17206689656E+04  0.19284633285E+04  0.46999998093E+01 0. -1.
       -5    1    3    3    0  502 -0.65011726547E+03 -0.57930524860E+03 -0.15486558302E+04  0.17766834271E+04  0.46999998093E+01 0.  1.
</event>
<event>
 5   0  0.1686284E-07  0.3686119E+04  0.7818609E-02  0.8071045E-01
       -2   -1    0    0    0  501  0.00000000000E+00  0.00000000000E+00  0.15612472776E+04  0.15612472776E+04  0.25500000920E-02 0.  1.
        2   -1    0    0  501    0  0.00000000000E+00  0.00000000000E+00 -0.21757398174E+04  0.21757398174E+04  0.25500000920E-02 0. -1.
    10030    2    1    2    0    0  0.00000000000E+00  0.00000000000E+00 -0.61449253981E+03  0.37369870950E+04  0.36861187537E+04 0.  0.
        5    1    3    3  502    0 -0.17837671821E+04 -0.10997528194E+03 -0.76393570699E+03  0.19435894055E+04  0.46999998093E+01 0. -1.
       -5    1    3    3    0  502  0.17837671821E+04  0.10997528194E+03  0.14944316718E+03  0.17933976895E+04  0.46999998093E+01 0.  1.
</event>
<event>
 5   0  0.1658770E-07  0.3695019E+04  0.7818609E-02  0.8069067E-01
       -2   -1    0    0    0  501  0.00000000000E+00  0.00000000000E+00  0.17534968934E+04  0.17534968934E+04  0.25500000920E-02 0. -1.
        2   -1    0    0  501    0  0.00000000000E+00  0.00000000000E+00 -0.19465624246E+04  0.19465624246E+04  0.25500000920E-02 0.  1.
    10030    2    1    2    0    0  0.00000000000E+00  0.00000000000E+00 -0.19306553122E+03  0.37000593180E+04  0.36950188981E+04 0.  0.
        2    1    3    3  502    0  0.96886787128E+03  0.25362842045E+03  0.14580858526E+04  0.17689111569E+04  0.25500000920E-02 0. -1.
       -2    1    3    3    0  502 -0.96886787128E+03 -0.25362842045E+03 -0.16511513838E+04  0.19311481610E+04  0.25500000920E-02 0.  1.
</event>
<event>
 5   0  0.1666189E-07  0.3690705E+04  0.7818609E-02  0.8070025E-01
       -2   -1    0    0    0  501  0.00000000000E+00  0.00000000000E+00  0.31171997054E+04  0.31171997054E+04  0.25500000920E-02 0. -1.
        2   -1    0    0  501    0  0.00000000000E+00  0.00000000000E+00 -0.10924312577E+04  0.10924312577E+04  0.25500000920E-02 0.  1.
    10030    2    1    2    0    0  0.00000000000E+00  0.00000000000E+00  0.20247684477E+04  0.42096309631E+04  0.36907052955E+04 0.  0.
        4    1    3    3  502    0  0.11598464985E+04  0.25145518249E+02 -0.62447049271E+03  0.13175132661E+04  0.12699999809E+01 0.  1.
       -4    1    3    3    0  502 -0.11598464985E+04 -0.25145518249E+02  0.26492389404E+04  0.28921176970E+04  0.12699999809E+01 0. -1.
</event>
<event>
 5   0  0.5177000E-08  0.3704784E+04  0.7818609E-02  0.8066902E-01
       -1   -1    0    0    0  501  0.00000000000E+00  0.00000000000E+00  0.12571859499E+04  0.12571859499E+04  0.50400001928E-02 0.  1.
        1   -1    0    0  501    0  0.00000000000E+00  0.00000000000E+00 -0.27293943142E+04  0.27293943142E+04  0.50400001928E-02 0. -1.
    10030    2    1    2    0    0  0.00000000000E+00  0.00000000000E+00 -0.14722083644E+04  0.39865802641E+04  0.37047840334E+04 0.  0.
        1    1    3    3  502    0 -0.16841699499E+04 -0.62682674385E+03 -0.25245495700E+03  0.18146828076E+04  0.50400001928E-02 0.  1.
       -1    1    3    3    0  502  0.16841699499E+04  0.62682674385E+03 -0.12197534074E+04  0.21718974565E+04  0.50400001928E-02 0. -1.
</event>
<event>
 5   0  0.5177000E-08  0.3701407E+04  0.7818609E-02  0.8067650E-01
        1   -1    0    0  501    0  0.00000000000E+00  0.00000000000E+00  0.25598006875E+04  0.25598006875E+04  0.50400001928E-02 0.  1.
       -1   -1    0    0    0  501  0.00000000000E+00  0.00000000000E+00 -0.13380354704E+04  0.13380354704E+04  0.50400001928E-02 0. -1.
    10030    2    1    2    0    0  0.00000000000E+00  0.00000000000E+00  0.12217652171E+04  0.38978361580E+04  0.37014073632E+04 0.  0.
        1    1    3    3  502    0  0.11598752626E+04  0.12517404651E+04 -0.14332287033E+03  0.17125146019E+04  0.50400001928E-02 0. -1.
       -1    1    3    3    0  502 -0.11598752626E+04 -0.12517404651E+04  0.13650880874E+04  0.21853215560E+04  0.50400001928E-02 0.  1.
</event>
<event>
 5   0  0.5181371E-08  0.3665801E+04  0.7818609E-02  0.8075583E-01
        1   -1    0    0  501    0  0.00000000000E+00  0.00000000000E+00  0.17037666766E+04  0.17037666766E+04  0.50400001928E-02 0. -1.
       -1   -1    0    0    0  501  0.00000000000E+00  0.00000000000E+00 -0.19718213744E+04  0.19718213744E+04  0.50400001928E-02 0.  1.
    10030    2    1    2    0    0  0.00000000000E+00  0.00000000000E+00 -0.26805469784E+03  0.36755880510E+04  0.36658006219E+04 0.  0.
        5    1    3    3  502    0 -0.15112965502E+04  0.25682145301E+03 -0.11414621440E+04  0.19112646174E+04  0.46999998093E+01 0.  1.
       -5    1    3    3    0  502  0.15112965502E+04 -0.25682145301E+03  0.87340744620E+03  0.17643234336E+04  0.46999998093E+01 0. -1.
</event>
<event>
 5   0  0.1558258E-07  0.3693287E+04  0.7818609E-02  0.8069451E-01
       -2   -1    0    0    0  501  0.00000000000E+00  0.00000000000E+00  0.15534112945E+04  0.15534112945E+04  0.25500000920E-02 0. -1.
        2   -1    0    0  501    0  0.00000000000E+00  0.00000000000E+00 -0.21952284336E+04  0.21952284336E+04  0.25500000920E-02 0.  1.
    10030    2    1    2    0    0  0.00000000000E+00  0.00000000000E+00 -0.64181713909E+03  0.37486397281E+04  0.36932872310E+04 0.  0.
        1    1    3    3  502    0 -0.83768722816E+03 -0.14396620913E+04  0.48837807493E+03  0.17357591923E+04  0.50400001928E-02 0. -1.
       -1    1    3    3    0  502  0.83768722816E+03  0.14396620913E+04 -0.11301952140E+04  0.20128805358E+04  0.50400001928E-02 0.  1.
</event>
<event>
 5   0  0.1666189E-07  0.3705555E+04  0.7818609E-02  0.8066732E-01
        2   -1    0    0  501    0  0.00000000000E+00  0.00000000000E+00  0.25992808761E+04  0.25992808761E+04  0.25500000920E-02 0. -1.
       -2   -1    0    0    0  501  0.00000000000E+00  0.00000000000E+00 -0.13206669533E+04  0.13206669533E+04  0.25500000920E-02 0.  1.
    10030    2    1    2    0    0  0.00000000000E+00  0.00000000000E+00  0.12786139228E+04  0.39199478293E+04  0.37055549410E+04 0.  0.
        4    1    3    3  502    0 -0.66268799653E+03 -0.15214907883E+04 -0.23218575308E+03  0.16757092339E+04  0.12699999809E+01 0.  1.
       -4    1    3    3    0  502  0.66268799653E+03  0.15214907883E+04  0.15107996759E+04  0.22442385955E+04  0.12699999809E+01 0. -1.
</event>
<event>
 5   0  0.5177000E-08  0.3688834E+04  0.7818609E-02  0.8070441E-01
        1   -1    0    0  501    0  0.00000000000E+00  0.00000000000E+00  0.30731549836E+04  0.30731549836E+04  0.50400001928E-02 0.  1.
       -1   -1    0    0    0  501  0.00000000000E+00  0.00000000000E+00 -0.11069647357E+04  0.11069647357E+04  0.50400001928E-02 0. -1.
    10030    2    1    2    0    0  0.00000000000E+00  0.00000000000E+00  0.19661902478E+04  0.41801197193E+04  0.36888340674E+04 0.  0.
        4    1    3    3  502    0  0.10014442778E+04  0.93868224566E+03 -0.41300032791E+03  0.14333826717E+04  0.12699999809E+01 0. -1.
       -4    1    3    3    0  502 -0.10014442778E+04 -0.93868224566E+03  0.23791905758E+04  0.27467370476E+04  0.12699999809E+01 0.  1.
</event>
<event>
 5   0  0.5181371E-08  0.3696651E+04  0.7818609E-02  0.8068704E-01
        1   -1    0    0  501    0  0.00000000000E+00  0.00000000000E+00  0.14273522883E+04  0.14273522883E+04  0.50400001928E-02 0.  1.
       -1   -1    0    0    0  501  0.00000000000E+00  0.00000000000E+00 -0.23934581911E+04  0.23934581911E+04  0.50400001928E-02 0. -1.
    10030    2    1    2    0    0  0.00000000000E+00  0.00000000000E+00 -0.96610590282E+03  0.38208104795E+04  0.36966514719E+04 0.  0.
        5    1    3    3  502    0  0.54221026122E+03  0.12833838137E+02 -0.23093542578E+04  0.23721922040E+04  0.46999998093E+01 0. -1.
       -5    1    3    3    0  502 -0.54221026122E+03 -0.12833838137E+02  0.13432483550E+04  0.14486182754E+04  0.46999998093E+01 0.  1.
</event>
<event>
 5   0  0.1558258E-07  0.3718302E+04  0.7818609E-02  0.8063918E-01
       -2   -1    0    0    0  501  0.00000000000E+00  0.00000000000E+00  0.18384763784E+04  0.18384763784E+04  0.25500000920E-02 0. -1.
        2   -1    0    0  501    0  0.00000000000E+00  0.00000000000E+00 -0.18800576273E+04  0.18800576273E+04  0.25500000920E-02 0.  1.
    10030    2    1    2    0    0  0.00000000000E+00  0.00000000000E+00 -0.41581248972E+02  0.37185340057E+04  0.37183015143E+04 0.  0.
        1    1    3    3  502    0 -0.59225538241E+03  0.54286751782E+03  0.16559089573E+04  0.18405178768E+04  0.50400001928E-02 0. -1.
       -1    1    3    3    0  502  0.59225538241E+03 -0.54286751782E+03 -0.16974902063E+04  0.18780161289E+04  0.50400001928E-02 0.  1.
</event>
<event>
 5   0  0.5177000E-08  0.3690101E+04  0.7818609E-02  0.8070159E-01
       -1   -1    0    0    0  501  0.00000000000E+00  0.00000000000E+00  0.17633585959E+04  0.17633585959E+04  0.50400001928E-02 0. -1.
        1   -1    0    0  501    0  0.00000000000E+00  0.00000000000E+00 -0.19305272999E+04  0.19305272999E+04  0.50400001928E-02 0.  1.
    10030    2    1    2    0    0  0.00000000000E+00  0.00000000000E+00 -0.16716870393E+03  0.36938858958E+04  0.36901013042E+04 0.  0.
        3    1    3    3  502    0  0.79381356984E+03  0.47457357276E+02  0.15830014460E+04  0.17715207514E+04  0.10100000352E+00 0. -1.
       -3    1    3    3    0  502 -0.79381356984E+03 -0.47457357276E+02 -0.17501701499E+04  0.19223651444E+04  0.10100000352E+00 0.  1.
</event>
<event>
 5   0  0.1658770E-07  0.3693293E+04  0.7818609E-02  0.8069450E-01
       -2   -1    0    0    0  501  0.00000000000E+00  0.00000000000E+00  0.17240820653E+04  0.17240820653E+04  0.25500000920E-02 0. -1.
        2   -1    0    0  501    0  0.00000000000E+00  0.00000000000E+00 -0.19779236021E+04  0.19779236021E+04  0.25500000920E-02 0.  1.
    10030    2    1    2    0    0  0.00000000000E+00  0.00000000000E+00 -0.25384153679E+03  0.37020056674E+04  0.36932926280E+04 0.  0.
        2    1    3    3  502    0 -0.17231425982E+04 -0.45221158756E+03 -0.61426411375E+03  0.18844193098E+04  0.25500000920E-02 0.  1.
       -2    1    3    3    0  502  0.17231425982E+04  0.45221158756E+03  0.36042257695E+03  0.18175863577E+04  0.25500000920E-02 0. -1.
</event>
<event>
 5   0  0.1658770E-07  0.3700501E+04  0.7818609E-02  0.8067851E-01
        2   -1    0    0  501    0  0.00000000000E+00  0.00000000000E+00  0.17500743840E+04  0.17500743840E+04  0.25500000920E-02 0.  1.
       -2   -1    0    0    0  501  0.00000000000E+00  0.00000000000E+00 -0.19561603402E+04  0.19561603402E+04  0.25500000920E-02 0. -1.
    10030    2    1    2    0    0  0.00000000000E+00  0.00000000000E+00 -0.20608595617E+03  0.37062347242E+04  0.37005005621E+04 0.  0.
        2    1    3    3  502    0 -0.14257897196E+04  0.61753331983E+03 -0.11091903070E+04  0.19090643946E+04  0.25500000920E-02 0. -1.
       -2    1    3    3    0  502  0.14257897196E+04 -0.61753331983E+03  0.90310435078E+03  0.17971703297E+04  0.25500000920E-02 0.  1.
</event>
<event>
 5   0  0.1666189E-07  0.3709062E+04  0.7818609E-02  0.8065957E-01
        2   -1    0    0  501    0  0.00000000000E+00  0.00000000000E+00  0.21951631280E+04  0.21951631280E+04  0.25500000920E-02 0. -1.
       -2   -1    0    0    0  501  0.00000000000E+00  0.00000000000E+00 -0.15667561605E+04  0.15667561605E+04  0.25500000920E-02 0.  1.
    10030    2    1    2    0    0  0.00000000000E+00  0.00000000000E+00  0.62840696745E+03  0.37619192885E+04  0.37090620670E+04 0.  0.
        4    1    3    3  502    0 -0.14651845668E+04 -0.90971660840E+03 -0.37737400470E+03  0.17654356048E+04  0.12699999809E+01 0. -1.
       -4    1    3    3    0  502  0.14651845668E+04  0.90971660840E+03  0.10057809722E+04  0.19964836837E+04  0.12699999809E+01 0.  1.
</event>
<event>
 5   0  0.1587026E-07  0.3628004E+04  0.7818609E-02  0.8084107E-01
       -2   -1    0    0    0  501  0.00000000000E+00  0.00000000000E+00  0.14101115141E+04  0.14101115141E+04  0.25500000920E-02 0.  1.
        2   -1    0    0  501    0  0.00000000000E+00  0.00000000000E+00 -0.23335761339E+04  0.23335761339E+04  0.25500000920E-02 0. -1.
    10030    2    1    2    0    0  0.00000000000E+00  0.00000000000E+00 -0.92346461976E+03  0.37436876480E+04  0.36280036249E+04 0.  0.
        3    1    3    3  502    0  0.74596157645E+03  0.15723977065E+04  0.66155348750E+02  0.17416284797E+04  0.10100000352E+00 0.  1.
       -3    1    3    3    0  502 -0.74596157645E+03 -0.15723977065E+04 -0.98961996851E+03  0.20020591683E+04  0.10100000352E+00 0. -1.
</event>
<event>
 5   0  0.1558258E-07  0.3676000E+04  0.7818609E-02  0.8073301E-01
        2   -1    0    0  501    0  0.00000000000E+00  0.00000000000E+00  0.19466642272E+04  0.19466642272E+04  0.25500000920E-02 0. -1.
       -2   -1    0    0    0  501  0.00000000000E+00  0.00000000000E+00 -0.17354019137E+04  0.17354019137E+04  0.25500000920E-02 0.  1.
    10030    2    1    2    0    0  0.00000000000E+00  0.00000000000E+00  0.21126231356E+03  0.36820661409E+04  0.36760004490E+04 0.  0.
        1    1    3    3  502    0 -0.64823574101E+03 -0.11593567683E+04  0.13781317433E+04  0.19140440941E+04  0.50400001928E-02 0. -1.
       -1    1    3    3    0  502  0.64823574101E+03  0.11593567683E+04 -0.11668694297E+04  0.17680220469E+04  0.50400001928E-02 0.  1.
</event>
<event>
 5   0  0.1686284E-07  0.3700054E+04  0.7818609E-02  0.8067950E-01
       -2   -1    0    0    0  501  0.00000000000E+00  0.00000000000E+00  0.20259542364E+04  0.20259542364E+04  0.25500000920E-02 0.  1.
        2   -1    0    0  501    0  0.00000000000E+00  0.00000000000E+00 -0.16893765394E+04  0.16893765394E+04  0.25500000920E-02 0. -1.
    10030    2    1    2    0    0  0.00000000000E+00  0.00000000000E+00  0.33657769695E+03  0.37153307758E+04  0.37000538142E+04 0.  0.
        5    1    3    3  502    0 -0.16413873817E+04  0.62626711084E+03  0.75052292893E+03  0.19104108950E+04  0.46999998093E+01 0.  1.
       -5    1    3    3    0  502  0.16413873817E+04 -0.62626711084E+03 -0.41394523198E+03  0.18049198808E+04  0.46999998093E+01 0. -1.
</event>
<event>
 5   0  0.5177000E-08  0.3698381E+04  0.7818609E-02  0.8068321E-01
        1   -1    0    0  501    0  0.00000000000E+00  0.00000000000E+00  0.10719649522E+04  0.10719649522E+04  0.50400001928E-02 0. -1.
       -1   -1    0    0    0  501  0.00000000000E+00  0.00000000000E+00 -0.31899413748E+04  0.31899413748E+04  0.50400001928E-02 0.  1.
    10030    2    1    2    0    0  0.00000000000E+00  0.00000000000E+00 -0.21179764225E+04  0.42619063270E+04  0.36983809179E+04 0.  0.
        4    1    3    3  502    0 -0.15983954426E+04  0.61412883473E+03 -0.18635721161E+04  0.25307953021E+04  0.12699999809E+01 0. -1.
       -4    1    3    3    0  502  0.15983954426E+04 -0.61412883473E+03 -0.25440430647E+03  0.17311110249E+04  0.12699999809E+01 0.  1.
</event>
<event>
 5   0  0.5181371E-08  0.3770703E+04  0.7818609E-02  0.8052471E-01
        1   -1    0    0  501    0  0.00000000000E+00  0.00000000000E+00  0.14804780586E+04  0.14804780586E+04  0.50400001928E-02 0. -1.
       -1   -1    0    0    0  501  0.00000000000E+00  0.00000000000E+00 -0.24009471847E+04  0.24009471847E+04  0.50400001928E-02 0.  1.
    10030    2    1    2    0    0  0.00000000000E+00  0.00000000000E+00 -0.92046912618E+03  0.38814252433E+04  0.37707026543E+04 0.  0.
        5    1    3    3  502    0  0.15268240375E+04 -0.72678579041E+03 -0.13184539158E+04  0.21442369376E+04  0.46999998093E+01 0.  1.
       -5    1    3    3    0  502 -0.15268240375E+04  0.72678579041E+03  0.39798478958E+03  0.17371883057E+04  0.46999998093E+01 0. -1.
</event>
<event>
 5   0  0.1666189E-07  0.3702861E+04  0.7818609E-02  0.8067328E-01
       -2   -1    0    0    0  501  0.00000000000E+00  0.00000000000E+00  0.30276089712E+04  0.30276089712E+04  0.25500000920E-02 0. -1.
        2   -1    0    0  501    0  0.00000000000E+00  0.00000000000E+00 -0.11321786066E+04  0.11321786066E+04  0.25500000920E-02 0.  1.
    10030    2    1    2    0    0  0.00000000000E+00  0.00000000000E+00  0.18954303646E+04  0.41597875778E+04  0.37028605733E+04 0.  0.
        4    1    3    3  502    0  0.88099835859E+03  0.11401202424E+04 -0.35840645708E+03  0.14847521936E+04  0.12699999809E+01 0.  1.
       -4    1    3    3    0  502 -0.88099835859E+03 -0.11401202424E+04  0.22538368217E+04  0.26750353842E+04  0.12699999809E+01 0. -1.
</event>
<event>
 5   0  0.1658770E-07  0.3703038E+04  0.7818609E-02  0.8067289E-01
       -2   -1    0    0    0  501  0.00000000000E+00  0.00000000000E+00  0.27837260138E+04  0.27837260138E+04  0.25500000920E-02 0. -1.
        2   -1    0    0  501    0  0.00000000000E+00  0.00000000000E+00 -0.12314873866E+04  0.12314873866E+04  0.25500000920E-02 0.  1.
    10030    2    1    2    0    0  0.00000000000E+00  0.00000000000E+00  0.15522386272E+04  0.40152134004E+04  0.37030384680E+04 0.  0.
        2    1    3    3  502    0 -0.11437837938E+04  0.79687223379E+03 -0.54516297084E+03  0.14968130774E+04  0.25500000920E-02 0.  1.
       -2    1    3    3    0  502  0.11437837938E+04 -0.79687223379E+03  0.20974015980E+04  0.25184003230E+04  0.25500000920E-02 0. -1.
</event>
<event>
 5   0  0.5181371E-08  0.3797987E+04  0.7818609E-02  0.8046587E-01
       -1   -1    0    0    0  501  0.00000000000E+00  0.00000000000E+00  0.20940338008E+04  0.20940338008E+04  0.50400001928E-02 0.  1.
        1   -1    0    0  501    0  0.00000000000E+00  0.00000000000E+00 -0.17221196188E+04  0.17221196188E+04  0.50400001928E-02 0. -1.
    10030    2    1    2    0    0  0.00000000000E+00  0.00000000000E+00  0.37191418202E+03  0.38161534196E+04  0.37979871989E+04 0.  0.
        5    1    3    3  502    0 -0.53226095560E+02  0.31226098756E+03 -0.16953808148E+04  0.17247255256E+04  0.46999998093E+01 0. -1.
       -5    1    3    3    0  502  0.53226095560E+02 -0.31226098756E+03  0.20672949968E+04  0.20914278939E+04  0.46999998093E+01 0.  1.
</event>
<event>
 5   0  0.5177000E-08  0.3697321E+04  0.7818609E-02  0.8068556E-01
       -1   -1    0    0    0  501  0.00000000000E+00  0.00000000000E+00  0.12828415211E+04  0.12828415212E+04  0.50400001928E-02 0. -1.
        1   -1    0    0  501    0  0.00000000000E+00  0.00000000000E+00 -0.26640436160E+04  0.26640436161E+04  0.50400001928E-02 0.  1.
    10030    2    1    2    0    0  0.00000000000E+00  0.00000000000E+00 -0.13812020949E+04  0.39468851372E+04  0.36973210652E+04 0.  0.
        4    1    3    3  502    0 -0.10184311898E+04  0.15380572735E+04 -0.82012469333E+03  0.20187690285E+04  0.12699999809E+01 0.  1.
       -4    1    3    3    0  502  0.10184311898E+04 -0.15380572735E+04 -0.56107740157E+03  0.19281161087E+04  0.12699999809E+01 0. -1.
</event>
<event>
 5   0  0.1686284E-07  0.3745063E+04  0.7818609E-02  0.8058048E-01
        2   -1    0    0  501    0  0.00000000000E+00  0.00000000000E+00  0.14066032378E+04  0.14066032378E+04  0.25500000920E-02 0.  1.
       -2   -1    0    0    0  501  0.00000000000E+00  0.00000000000E+00 -0.24927953025E+04  0.24927953025E+04  0.25500000920E-02 0. -1.
    10030    2    1    2    0    0  0.00000000000E+00  0.00000000000E+00 -0.10861920647E+04  0.38993985403E+04  0.37450628532E+04 0.  0.
        5    1    3    3  502    0  0.15249445523E+04  0.63451468111E+03  0.37546586359E+03  0.16938304144E+04  0.46999998093E+01 0.  1.
       -5    1    3    3    0  502 -0.15249445523E+04 -0.63451468111E+03 -0.14616579283E+04  0.22055681258E+04  0.46999998093E+01 0. -1.
</event>
<event>
 5   0  0.5177000E-08  0.3645033E+04  0.7818609E-02  0.8080254E-01
       -1   -1    0    0    0  501  0.00000000000E+00  0.00000000000E+00  0.32836680118E+04  0.32836680118E+04  0.50400001928E-02 0.  1.
        1   -1    0    0  501    0  0.00000000000E+00  0.00000000000E+00 -0.10115412230E+04  0.10115412230E+04  0.50400001928E-02 0. -1.
    10030    2    1    2    0    0  0.00000000000E+00  0.00000000000E+00  0.22721267889E+04  0.42952092348E+04  0.36450325412E+04 0.  0.
        2    1    3    3  502    0 -0.28659337750E+03  0.81156568768E+03  0.30291013709E+04  0.31490045641E+04  0.25500000920E-02 0.  1.
       -2    1    3    3    0  502  0.28659337750E+03 -0.81156568768E+03 -0.75697458201E+03  0.11462046708E+04  0.25500000920E-02 0. -1.
</event>
<event>
 5   0  0.5177000E-08  0.3795079E+04  0.7818609E-02  0.8047212E-01
        1   -1    0    0  501    0  0.00000000000E+00  0.00000000000E+00  0.16808337288E+04  0.16808337288E+04  0.50400001928E-02 0.  1.
       -1   -1    0    0    0  501  0.00000000000E+00  0.00000000000E+00 -0.21421847954E+04  0.21421847955E+04  0.50400001928E-02 0. -1.
    10030    2    1    2    0    0  0.00000000000E+00  0.00000000000E+00 -0.46135106668E+03  0.38230185242E+04  0.37950791599E+04 0.  0.
        3    1    3    3  502    0  0.51813188619E+03  0.13396156561E+04 -0.14798148456E+04  0.20622518626E+04  0.10100000352E+00 0. -1.
       -3    1    3    3    0  502 -0.51813188619E+03 -0.13396156561E+04  0.10184637789E+04  0.17607666616E+04  0.10100000352E+00 0.  1.
</event>
<event>
 5   0  0.5177000E-08  0.3763039E+04  0.7818609E-02  0.8054133E-01
       -1   -1    0    0    0  501  0.00000000000E+00  0.00000000000E+00  0.27034329380E+04  0.27034329380E+04  0.50400001928E-02 0. -1.
        1   -1    0    0  501    0  0.00000000000E+00  0.00000000000E+00 -0.13094888572E+04  0.13094888572E+04  0.50400001928E-02 0.  1.
    10030    2    1    2    0    0  0.00000000000E+00  0.00000000000E+00  0.13939440808E+04  0.40129217952E+04  0.37630388297E+04 0.  0.
        1    1    3    3  502    0  0.61668324133E+03  0.10462188321E+04 -0.83555307830E+03  0.14741170277E+04  0.50400001928E-02 0.  1.
       -1    1    3    3    0  502 -0.61668324133E+03 -0.10462188321E+04  0.22294971591E+04  0.25388047675E+04  0.50400001928E-02 0. -1.
</event>
<event>
 5   0  0.1558258E-07  0.3629245E+04  0.7818609E-02  0.8083825E-01
       -2   -1    0    0    0  501  0.00000000000E+00  0.00000000000E+00  0.14386318575E+04  0.14386318575E+04  0.25500000920E-02 0. -1.
        2   -1    0    0  501    0  0.00000000000E+00  0.00000000000E+00 -0.22888796361E+04  0.22888796361E+04  0.25500000920E-02 0.  1.
    10030    2    1    2    0    0  0.00000000000E+00  0.00000000000E+00 -0.85024777859E+03  0.37275114935E+04  0.36292451901E+04 0.  0.
        1    1    3    3  502    0  0.10631990306E+04 -0.46395384652E+03  0.10080835573E+04  0.15368402028E+04  0.50400001928E-02 0. -1.
       -1    1    3    3    0  502 -0.10631990306E+04  0.46395384652E+03 -0.18583313358E+04  0.21906712908E+04  0.50400001928E-02 0.  1.
</event>
<event>
 5   0  0.1587026E-07  0.3690197E+04  0.7818609E-02  0.8070138E-01
       -2   -1    0    0    0  501  0.00000000000E+00  0.00000000000E+00  0.17584766112E+04  0.17584766112E+04  0.25500000920E-02 0.  1.
        2   -1    0    0  501    0  0.00000000000E+00  0.00000000000E+00 -0.19359874514E+04  0.19359874514E+04  0.25500000920E-02 0. -1.
    10030    2    1    2    0    0  0.00000000000E+00  0.00000000000E+00 -0.17751084022E+03  0.36944640626E+04  0.36901970966E+04 0.  0.
        3    1    3    3  502    0 -0.10989056058E+04  0.14773394691E+04 -0.20832217745E+03  0.18529769500E+04  0.10100000352E+00 0.  1.
       -3    1    3    3    0  502  0.10989056058E+04 -0.14773394691E+04  0.30811337229E+02  0.18414871127E+04  0.10100000352E+00 0. -1.
</event>
<event>
 5   0  0.1686284E-07  0.3745272E+04  0.7818609E-02  0.8058002E-01
       -2   -1    0    0    0  501  0.00000000000E+00  0.00000000000E+00  0.25460594107E+04  0.25460594107E+04  0.25500000920E-02 0. -1.
        2   -1    0    0  501    0  0.00000000000E+00  0.00000000000E+00 -0.13773304497E+04  0.13773304497E+04  0.25500000920E-02 0.  1.
    10030    2    1    2    0    0  0.00000000000E+00  0.00000000000E+00  0.11687289610E+04  0.39233898604E+04  0.37452717675E+04 0.  0.
        5    1    3    3  502    0  0.90573585551E+03 -0.16361262338E+04  0.48238713011E+03  0.19313171480E+04  0.46999998093E+01 0. -1.
       -5    1    3    3    0  502 -0.90573585551E+03  0.16361262338E+04  0.68634183094E+03  0.19920727125E+04  0.46999998093E+01 0.  1.
</event>
<event>
 5   0  0.1666189E-07  0.3703621E+04  0.7818609E-02  0.8067160E-01
        2   -1    0    0  501    0  0.00000000000E+00  0.00000000000E+00  0.22918959855E+04  0.22918959855E+04  0.25500000920E-02 0.  1.
       -2   -1    0    0    0  501  0.00000000000E+00  0.00000000000E+00 -0.14962294776E+04  0.14962294776E+04  0.25500000920E-02 0. -1.
    10030    2    1    2    0    0  0.00000000000E+00  0.00000000000E+00  0.79566650790E+03  0.37881254631E+04  0.37036211108E+04 0.  0.
        4    1    3    3  502    0 -0.11743458644E+04 -0.56248782855E+03 -0.94891765498E+03  0.16111881005E+04  0.12699999809E+01 0. -1.
       -4    1    3    3    0  502  0.11743458644E+04  0.56248782855E+03  0.17445841629E+04  0.21769373626E+04  0.12699999809E+01 0.  1.
</event>
<event>
 5   0  0.1558258E-07  0.3703204E+04  0.7818609E-02  0.8067252E-01
        2   -1    0    0  501    0  0.00000000000E+00  0.00000000000E+00  0.13942454601E+04  0.13942454601E+04  0.25500000920E-02 0.  1.
       -2   -1    0    0    0  501  0.00000000000E+00  0.00000000000E+00 -0.24589855425E+04  0.24589855425E+04  0.25500000920E-02 0. -1.
    10030    2    1    2    0    0  0.00000000000E+00  0.00000000000E+00 -0.10647400824E+04  0.38532310026E+04  0.37032037099E+04 0.  0.
        1    1    3    3  502    0 -0.30438854301E+02  0.58280601218E+03 -0.23607853190E+04  0.24318504670E+04  0.50400001928E-02 0. -1.
       -1    1    3    3    0  502  0.30438854301E+02 -0.58280601218E+03  0.12960452366E+04  0.14213805356E+04  0.50400001928E-02 0.  1.
</event>
<event>
 5   0  0.5177000E-08  0.3701930E+04  0.7818609E-02  0.8067534E-01
       -1   -1    0    0    0  501  0.00000000000E+00  0.00000000000E+00  0.15949731288E+04  0.15949731288E+04  0.50400001928E-02 0.  1.
        1   -1    0    0  501    0  0.00000000000E+00  0.00000000000E+00 -0.21480435472E+04  0.21480435472E+04  0.50400001928E-02 0. -1.
    10030    2    1    2    0    0  0.00000000000E+00  0.00000000000E+00 -0.55307041834E+03  0.37430166760E+04  0.37019301654E+04 0.  0.
        2    1    3    3  502    0  0.97832893730E+03  0.15269213492E+04 -0.65139984921E+03  0.19268985650E+04  0.25500000920E-02 0.  1.
       -2    1    3    3    0  502 -0.97832893730E+03 -0.15269213492E+04  0.98329430876E+02  0.18161181110E+04  0.25500000920E-02 0. -1.
</event>
<event>
 5   0  0.5177000E-08  0.3675142E+04  0.7818609E-02  0.8073493E-01
        1   -1    0    0  501    0  0.00000000000E+00  0.00000000000E+00  0.15089594289E+04  0.15089594289E+04  0.50400001928E-02 0. -1.
       -1   -1    0    0    0  501  0.00000000000E+00  0.00000000000E+00 -0.22377453918E+04  0.22377453918E+04  0.50400001928E-02 0.  1.
    10030    2    1    2    0    0  0.00000000000E+00  0.00000000000E+00 -0.72878596292E+03  0.37467048207E+04  0.36751419066E+04 0.  0.
        3    1    3    3  502    0 -0.46902331680E+03  0.51784002574E+03  0.13682675961E+04  0.15363259383E+04  0.10100000352E+00 0. -1.
       -3    1    3    3    0  502  0.46902331680E+03 -0.51784002574E+03 -0.20970535590E+04  0.22103788824E+04  0.10100000352E+00 0.  1.
</event>
<event>
 5   0  0.1587026E-07  0.3698734E+04  0.7818609E-02  0.8068242E-01
        2   -1    0    0  501    0  0.00000000000E+00  0.00000000000E+00  0.24034348513E+04  0.24034348513E+04  0.25500000920E-02 0. -1.
       -2   -1    0    0    0  501  0.00000000000E+00  0.00000000000E+00 -0.14230296107E+04  0.14230296107E+04  0.25500000920E-02 0.  1.
    10030    2    1    2    0    0  0.00000000000E+00  0.00000000000E+00  0.98040524060E+03  0.38264644620E+04  0.36987343569E+04 0.  0.
        3    1    3    3  502    0  0.14592541598E+04 -0.11156736971E+04  0.26829953544E+03  0.18563768886E+04  0.10100000352E+00 0.  1.
       -3    1    3    3    0  502 -0.14592541598E+04  0.11156736971E+04  0.71210570517E+03  0.19700875734E+04  0.10100000352E+00 0. -1.
</event>
<event>
 5   0  0.1587026E-07  0.3689757E+04  0.7818609E-02  0.8070236E-01
       -2   -1    0    0    0  501  0.00000000000E+00  0.00000000000E+00  0.22144253011E+04  0.22144253011E+04  0.25500000920E-02 0. -1.
        2   -1    0    0  501    0  0.00000000000E+00  0.00000000000E+00 -0.15370025668E+04  0.15370025668E+04  0.25500000920E-02 0.  1.
    10030    2    1    2    0    0  0.00000000000E+00  0.00000000000E+00  0.67742273426E+03  0.37514278679E+04  0.36897573751E+04 0.  0.
        3    1    3    3  502    0 -0.75491506077E+03 -0.14052523460E+04  0.12809954109E+04  0.20458690471E+04  0.10100000352E+00 0. -1.
       -3    1    3    3    0  502  0.75491506077E+03  0.14052523460E+04 -0.60357267667E+03  0.17055588208E+04  0.10100000352E+00 0.  1.
</event>
<event>
 5   0  0.5177000E-08  0.3672647E+04  0.7818609E-02  0.8074051E-01
        1   -1    0    0  501    0  0.00000000000E+00  0.00000000000E+00  0.30234257997E+04  0.30234257997E+04  0.50400001928E-02 0. -1.
       -1   -1    0    0    0  501  0.00000000000E+00  0.00000000000E+00 -0.11153190881E+04  0.11153190881E+04  0.50400001928E-02 0.  1.
    10030    2    1    2    0    0  0.00000000000E+00  0.00000000000E+00  0.19081067116E+04  0.41387448878E+04  0.36726472773E+04 0.  0.
        4    1    3    3  502    0 -0.12846584942E+04  0.58606117189E+03  0.22770423574E+04  0.26793168260E+04  0.12699999809E+01 0. -1.
       -4    1    3    3    0  502  0.12846584942E+04 -0.58606117189E+03 -0.36893564580E+03  0.14594280618E+04  0.12699999809E+01 0.  1.
</event>
<event>
 5   0  0.5177000E-08  0.3625853E+04  0.7818609E-02  0.8084595E-01
        1   -1    0    0  501    0  0.00000000000E+00  0.00000000000E+00  0.17889396553E+04  0.17889396553E+04  0.50400001928E-02 0. -1.
       -1   -1    0    0    0  501  0.00000000000E+00  0.00000000000E+00 -0.18372352054E+04  0.18372352054E+04  0.50400001928E-02 0.  1.
    10030    2    1    2    0    0  0.00000000000E+00  0.00000000000E+00 -0.48295550068E+02  0.36261748607E+04  0.36258532321E+04 0.  0.
        1    1    3    3  502    0 -0.61084842170E+03 -0.13103291804E+04 -0.11181390260E+04  0.18276578555E+04  0.50400001928E-02 0.  1.
       -1    1    3    3    0  502  0.61084842170E+03  0.13103291804E+04  0.10698434759E+04  0.17985170053E+04  0.50400001928E-02 0. -1.
</event>
<event>
 5   0  0.1686284E-07  0.3701911E+04  0.7818609E-02  0.8067538E-01
        2   -1    0    0  501    0  0.00000000000E+00  0.00000000000E+00  0.21315395802E+04  0.21315395802E+04  0.25500000920E-02 0. -1.
       -2   -1    0    0    0  501  0.00000000000E+00  0.00000000000E+00 -0.16073060300E+04  0.16073060300E+04  0.25500000920E-02 0.  1.
    10030    2    1    2    0    0  0.00000000000E+00  0.00000000000E+00  0.52423355018E+03  0.37388456102E+04  0.37019110850E+04 0.  0.
        5    1    3    3  502    0 -0.76484953717E+03 -0.16745740929E+04  0.68313967648E+02  0.18422491947E+04  0.46999998093E+01 0.  1.
       -5    1    3    3    0  502  0.76484953717E+03  0.16745740929E+04  0.45591958253E+03  0.18965964154E+04  0.46999998093E+01 0. -1.
</event>
<event>
 5   0  0.5177000E-08  0.3708870E+04  0.7818609E-02  0.8065999E-01
       -1   -1    0    0    0  501  0.00000000000E+00  0.00000000000E+00  0.19120406507E+04  0.19120406507E+04  0.50400001928E-02 0.  1.
        1   -1    0    0  501    0  0.00000000000E+00  0.00000000000E+00 -0.17985646242E+04  0.17985646242E+04  0.50400001928E-02 0. -1.
    10030    2    1    2    0    0  0.00000000000E+00  0.00000000000E+00  0.11347602642E+03  0.37106052749E+04  0.37088697332E+04 0.  0.
        4    1    3    3  502    0  0.18350777944E+04 -0.23594327330E+02 -0.20958170069E+03  0.18471581703E+04  0.12699999809E+01 0.  1.
       -4    1    3    3    0  502 -0.18350777944E+04  0.23594327330E+02  0.32305772711E+03  0.18634471046E+04  0.12699999809E+01 0. -1.
</event>
<event>
 5   0  0.5177000E-08  0.3700794E+04  0.7818609E-02  0.8067786E-01
        1   -1    0    0  501    0  0.00000000000E+00  0.00000000000E+00  0.10395037840E+04  0.10395037840E+04  0.50400001928E-02 0.  1.
       -1   -1    0    0    0  501  0.00000000000E+00  0.00000000000E+00 -0.32938503443E+04  0.32938503443E+04  0.50400001928E-02 0. -1.
    10030    2    1    2    0    0  0.00000000000E+00  0.00000000000E+00 -0.22543465603E+04  0.43333541283E+04  0.37007944535E+04 0.  0.
        1    1    3    3  502    0 -0.90113697354E+02 -0.25609153299E+03  0.10160573009E+04  0.10517013790E+04  0.50400001928E-02 0.  1.
       -1    1    3    3    0  502  0.90113697354E+02  0.25609153299E+03 -0.32704038612E+04  0.32816527493E+04  0.50400001928E-02 0. -1.
</event>
<event>
 5   0  0.1666189E-07  0.3854579E+04  0.7818609E-02  0.8034543E-01
       -2   -1    0    0    0  501  0.00000000000E+00  0.00000000000E+00  0.14803624939E+04  0.14803624939E+04  0.25500000920E-02 0. -1.
        2   -1    0    0  501    0  0.00000000000E+00  0.00000000000E+00 -0.25091452389E+04  0.25091452389E+04  0.25500000920E-02 0.  1.
    10030    2    1    2    0    0  0.00000000000E+00  0.00000000000E+00 -0.10287827449E+04  0.39895077328E+04  0.38545788374E+04 0.  0.
        4    1    3    3  502    0 -0.14600974547E+04  0.54371632072E+03  0.65974891174E+03  0.16919758433E+04  0.12699999809E+01 0. -1.
       -4    1    3    3    0  502  0.14600974547E+04 -0.54371632072E+03 -0.16885316567E+04  0.22975318895E+04  0.12699999809E+01 0.  1.
</event>
<event>
 5   0  0.5177000E-08  0.3688828E+04  0.7818609E-02  0.8070442E-01
       -1   -1    0    0    0  501  0.00000000000E+00  0.00000000000E+00  0.22037997666E+04  0.22037997666E+04  0.50400001928E-02 0. -1.
        1   -1    0    0  501    0  0.00000000000E+00  0.00000000000E+00 -0.15436352854E+04  0.15436352854E+04  0.50400001928E-02 0.  1.
    10030    2    1    2    0    0  0.00000000000E+00  0.00000000000E+00  0.66016448123E+03  0.37474350520E+04  0.36888280424E+04 0.  0.
        3    1    3    3  502    0  0.16176483506E+04  0.84551006533E+03  0.59922464790E+03  0.19211308247E+04  0.10100000352E+00 0. -1.
       -3    1    3    3    0  502 -0.16176483506E+04 -0.84551006533E+03  0.60939833329E+02  0.18263042272E+04  0.10100000352E+00 0.  1.
</event>
<event>
 5   0  0.5177000E-08  0.3679585E+04  0.7818609E-02  0.8072501E-01
        1   -1    0    0  501    0  0.00000000000E+00  0.00000000000E+00  0.25356799953E+04  0.25356799953E+04  0.50400001928E-02 0.  1.
       -1   -1    0    0    0  501  0.00000000000E+00  0.00000000000E+00 -0.13348831584E+04  0.13348831584E+04  0.50400001928E-02 0. -1.
    10030    2    1    2    0    0  0.00000000000E+00  0.00000000000E+00  0.12007968369E+04  0.38705631537E+04  0.36795850423E+04 0.  0.
        3    1    3    3  502    0 -0.18358618172E+04 -0.33099399840E+01  0.72678848391E+03  0.19744926128E+04  0.10100000352E+00 0. -1.
       -3    1    3    3    0  502  0.18358618172E+04  0.33099399840E+01  0.47400835295E+03  0.18960705410E+04  0.10100000352E+00 0.  1.
</event>
<event>
 5   0  0.5177000E-08  0.3697055E+04  0.7818609E-02  0.8068615E-01
       -1   -1    0    0    0  501  0.00000000000E+00  0.00000000000E+00  0.16879240180E+04  0.16879240180E+04  0.50400001928E-02 0. -1.
        1   -1    0    0  501    0  0.00000000000E+00  0.00000000000E+00 -0.20244119019E+04  0.20244119019E+04  0.50400001928E-02 0.  1.
    10030    2    1    2    0    0  0.00000000000E+00  0.00000000000E+00 -0.33648788396E+03  0.37123359199E+04  0.36970547583E+04 0.  0.
        1    1    3    3  502    0  0.17278045637E+04 -0.61091078632E+02  0.48868702284E+03  0.17966234265E+04  0.50400001928E-02 0. -1.
       -1    1    3    3    0  502 -0.17278045637E+04  0.61091078632E+02 -0.82517490680E+03  0.19157124934E+04  0.50400001928E-02 0.  1.
</event>
<event>
 5   0  0.5181371E-08  0.3750472E+04  0.7818609E-02  0.8056868E-01
        1   -1    0    0  501    0  0.00000000000E+00  0.00000000000E+00  0.16212937424E+04  0.16212937424E+04  0.50400001928E-02 0. -1.
       -1   -1    0    0    0  501  0.00000000000E+00  0.00000000000E+00 -0.21689532483E+04  0.21689532483E+04  0.50400001928E-02 0.  1.
    10030    2    1    2    0    0  0.00000000000E+00  0.00000000000E+00 -0.54765950592E+03  0.37902469908E+04  0.37504721458E+04 0.  0.
        5    1    3    3  502    0  0.54875871066E+02 -0.78583267537E+03  0.14459650741E+04  0.16466272925E+04  0.46999998093E+01 0. -1.
       -5    1    3    3    0  502 -0.54875871066E+02  0.78583267537E+03 -0.19936245800E+04  0.21436196983E+04  0.46999998093E+01 0.  1.
</event>
<event>
 5   0  0.5181371E-08  0.3706461E+04  0.7818609E-02  0.8066532E-01
       -1   -1    0    0    0  501  0.00000000000E+00  0.00000000000E+00  0.18223917626E+04  0.18223917626E+04  0.50400001928E-02 0. -1.
        1   -1    0    0  501    0  0.00000000000E+00  0.00000000000E+00 -0.18845908532E+04  0.18845908532E+04  0.50400001928E-02 0.  1.
    10030    2    1    2    0    0  0.00000000000E+00  0.00000000000E+00 -0.62199090601E+02  0.37069826159E+04  0.37064607630E+04 0.  0.
        5    1    3    3  502    0 -0.15498887259E+04  0.23827376313E+03  0.95671927531E+03  0.18369167947E+04  0.46999998093E+01 0. -1.
       -5    1    3    3    0  502  0.15498887259E+04 -0.23827376313E+03 -0.10189183659E+04  0.18700658211E+04  0.46999998093E+01 0.  1.
</event>
<event>
 5   0  0.5177000E-08  0.3737478E+04  0.7818609E-02  0.8059707E-01
        1   -1    0    0  501    0  0.00000000000E+00  0.00000000000E+00  0.22627953944E+04  0.22627953944E+04  0.50400001928E-02 0.  1.
       -1   -1    0    0    0  501  0.00000000000E+00  0.00000000000E+00 -0.15433058343E+04  0.15433058344E+04  0.50400001928E-02 0. -1.
    10030    2    1    2    0    0  0.00000000000E+00  0.00000000000E+00  0.71948956000E+03  0.38061012287E+04  0.37374779379E+04 0.  0.
        2    1    3    3  502    0  0.16572505021E+04 -0.79923656251E+02  0.12353683232E+04  0.20685748503E+04  0.25500000920E-02 0.  1.
       -2    1    3    3    0  502 -0.16572505021E+04  0.79923656251E+02 -0.51587876318E+03  0.17375263784E+04  0.25500000920E-02 0. -1.
</event>
<event>
 5   0  0.5177000E-08  0.3491534E+04  0.7818609E-02  0.8115799E-01
        1   -1    0    0  501    0  0.00000000000E+00  0.00000000000E+00  0.13254421504E+04  0.13254421504E+04  0.50400001928E-02 0. -1.
       -1   -1    0    0    0  501  0.00000000000E+00  0.00000000000E+00 -0.22993861221E+04  0.22993861221E+04  0.50400001928E-02 0.  1.
    10030    2    1    2    0    0  0.00000000000E+00  0.00000000000E+00 -0.97394397168E+03  0.36248282726E+04  0.34915344973E+04 0.  0.
        2    1    3    3  502    0  0.61897647073E+03 -0.10952692598E+04 -0.17435327302E+04  0.21500355820E+04  0.25500000920E-02 0.  1.
       -2    1    3    3    0  502 -0.61897647073E+03  0.10952692598E+04  0.76958875850E+03  0.14747926905E+04  0.25500000920E-02 0. -1.
</event>
<event>
 5   0  0.5177000E-08  0.3716277E+04  0.7818609E-02  0.8064364E-01
       -1   -1    0    0    0  501  0.00000000000E+00  0.00000000000E+00  0.13500262296E+04  0.13500262296E+04  0.50400001928E-02 0. -1.
        1   -1    0    0  501    0  0.00000000000E+00  0.00000000000E+00 -0.25574903314E+04  0.25574903314E+04  0.50400001928E-02 0.  1.
    10030    2    1    2    0    0  0.00000000000E+00  0.00000000000E+00 -0.12074641019E+04  0.39075165610E+04  0.37162771852E+04 0.  0.
        2    1    3    3  502    0 -0.16110610185E+04  0.47640406453E+03  0.23097125074E+03  0.16958260986E+04  0.25500000920E-02 0. -1.
       -2    1    3    3    0  502  0.16110610185E+04 -0.47640406453E+03 -0.14384353526E+04  0.22116904624E+04  0.25500000920E-02 0.  1.
</event>
<event>
 5   0  0.1587026E-07  0.3681041E+04  0.7818609E-02  0.8072176E-01
       -2   -1    0    0    0  501  0.00000000000E+00  0.00000000000E+00  0.22650053833E+04  0.22650053833E+04  0.25500000920E-02 0.  1.
        2   -1    0    0  501    0  0.00000000000E+00  0.00000000000E+00 -0.14955887441E+04  0.14955887441E+04  0.25500000920E-02 0. -1.
    10030    2    1    2    0    0  0.00000000000E+00  0.00000000000E+00  0.76941663926E+03  0.37605941274E+04  0.36810414594E+04 0.  0.
        3    1    3    3  502    0  0.15601165007E+03  0.17483777601E+04  0.95016091148E+03  0.19959885258E+04  0.10100000352E+00 0. -1.
       -3    1    3    3    0  502 -0.15601165007E+03 -0.17483777601E+04 -0.18074427222E+03  0.17646056016E+04  0.10100000352E+00 0.  1.
</event>
<event>
 5   0  0.5177000E-08  0.3699282E+04  0.7818609E-02  0.8068121E-01
       -1   -1    0    0    0  501  0.00000000000E+00  0.00000000000E+00  0.18350237108E+04  0.18350237108E+04  0.50400001928E-02 0. -1.
        1   -1    0    0  501    0  0.00000000000E+00  0.00000000000E+00 -0.18643748122E+04  0.18643748122E+04  0.50400001928E-02 0.  1.
    10030    2    1    2    0    0  0.00000000000E+00  0.00000000000E+00 -0.29351101410E+02  0.36993985230E+04  0.36992820851E+04 0.  0.
        1    1    3    3  502    0 -0.73122031017E+03  0.72792926323E+03  0.15204974645E+04  0.18375191683E+04  0.50400001928E-02 0. -1.
       -1    1    3    3    0  502  0.73122031017E+03 -0.72792926323E+03 -0.15498485659E+04  0.18618793547E+04  0.50400001928E-02 0.  1.
</event>
<event>
 5   0  0.1587026E-07  0.3695603E+04  0.7818609E-02  0.8068937E-01
        2   -1    0    0  501    0  0.00000000000E+00  0.00000000000E+00  0.16636151059E+04  0.16636151059E+04  0.25500000920E-02 0.  1.
       -2   -1    0    0    0  501  0.00000000000E+00  0.00000000000E+00 -0.20523803894E+04  0.20523803894E+04  0.25500000920E-02 0. -1.
    10030    2    1    2    0    0  0.00000000000E+00  0.00000000000E+00 -0.38876528352E+03  0.37159954953E+04  0.36956033439E+04 0.  0.
        3    1    3    3  502    0 -0.15678469937E+04 -0.95916709962E+03 -0.30029935018E+01  0.18379757204E+04  0.10100000352E+00 0. -1.
       -3    1    3    3    0  502  0.15678469937E+04  0.95916709962E+03 -0.38576229002E+03  0.18780197750E+04  0.10100000352E+00 0.  1.
</event>
<event>
 5   0  0.5177000E-08  0.3693703E+04  0.7818609E-02  0.8069359E-01
        1   -1    0    0  501    0  0.00000000000E+00  0.00000000000E+00  0.29515821472E+04  0.29515821472E+04  0.50400001928E-02 0.  1.
       -1   -1    0    0    0  501  0.00000000000E+00  0.00000000000E+00 -0.11556042275E+04  0.11556042276E+04  0.50400001928E-02 0. -1.
    10030    2    1    2    0    0  0.00000000000E+00  0.00000000000E+00  0.17959779196E+04  0.41071863747E+04  0.36937031864E+04 0.  0.
        4    1    3    3  502    0 -0.15058004830E+04  0.10342937957E+04  0.11997753028E+04  0.21855573981E+04  0.12699999809E+01 0.  1.
       -4    1    3    3    0  502  0.15058004830E+04 -0.10342937957E+04  0.59620261681E+03  0.19216289766E+04  0.12699999809E+01 0. -1.
</event>
<event>
 5   0  0.1666189E-07  0.3690624E+04  0.7818609E-02  0.8070043E-01
        2   -1    0    0  501    0  0.00000000000E+00  0.00000000000E+00  0.25177639215E+04  0.25177639215E+04  0.25500000920E-02 0. -1.
       -2   -1    0    0    0  501  0.00000000000E+00  0.00000000000E+00 -0.13524605124E+04  0.13524605124E+04  0.25500000920E-02 0.  1.
    10030    2    1    2    0    0  0.00000000000E+00  0.00000000000E+00  0.11653034091E+04  0.38702244338E+04  0.36906239490E+04 0.  0.
        4    1    3    3  502    0 -0.18202125420E+03  0.18315870470E+04  0.44459469231E+03  0.18935440056E+04  0.12699999809E+01 0.  1.
       -4    1    3    3    0  502  0.18202125420E+03 -0.18315870470E+04  0.72070871681E+03  0.19766804282E+04  0.12699999809E+01 0. -1.
</event>
<event>
 5   0  0.1558258E-07  0.3490616E+04  0.7818609E-02  0.8116017E-01
       -2   -1    0    0    0  501  0.00000000000E+00  0.00000000000E+00  0.11055438087E+04  0.11055438087E+04  0.25500000920E-02 0.  1.
        2   -1    0    0  501    0  0.00000000000E+00  0.00000000000E+00 -0.27552953244E+04  0.27552953244E+04  0.25500000920E-02 0. -1.
    10030    2    1    2    0    0  0.00000000000E+00  0.00000000000E+00 -0.16497515157E+04  0.38608391332E+04  0.34906158122E+04 0.  0.
        1    1    3    3  502    0  0.11059803548E+04  0.61498902548E+03 -0.21543129857E+04  0.24984932433E+04  0.50400001928E-02 0. -1.
       -1    1    3    3    0  502 -0.11059803548E+04 -0.61498902548E+03  0.50456146995E+03  0.13623458898E+04  0.50400001928E-02 0.  1.
</event>
<event>
 5   0  0.5177000E-08  0.3710704E+04  0.7818609E-02  0.8065594E-01
       -1   -1    0    0    0  501  0.00000000000E+00  0.00000000000E+00  0.19245188144E+04  0.19245188144E+04  0.50400001928E-02 0. -1.
        1   -1    0    0  501    0  0.00000000000E+00  0.00000000000E+00 -0.17886711586E+04  0.17886711587E+04  0.50400001928E-02 0.  1.
    10030    2    1    2    0    0  0.00000000000E+00  0.00000000000E+00  0.13584765571E+03  0.37131899730E+04  0.37107041367E+04 0.  0.
        3    1    3    3  502    0  0.11372377304E+04  0.48322401371E+03 -0.13170250844E+04  0.18059264066E+04  0.10100000352E+00 0.  1.
       -3    1    3    3    0  502 -0.11372377304E+04 -0.48322401371E+03  0.14528727401E+04  0.19072635665E+04  0.10100000352E+00 0. -1.
</event>
<event>
 5   0  0.1587026E-07  0.3702972E+04  0.7818609E-02  0.8067303E-01
        2   -1    0    0  501    0  0.00000000000E+00  0.00000000000E+00  0.17728444516E+04  0.17728444516E+04  0.25500000920E-02 0. -1.
       -2   -1    0    0    0  501  0.00000000000E+00  0.00000000000E+00 -0.19336163942E+04  0.19336163942E+04  0.25500000920E-02 0.  1.
    10030    2    1    2    0    0  0.00000000000E+00  0.00000000000E+00 -0.16077194264E+03  0.37064608458E+04  0.37029723715E+04 0.  0.
        3    1    3    3  502    0  0.17356851639E+04  0.47916712477E+03 -0.51183376424E+03  0.18719449602E+04  0.10100000352E+00 0.  1.
       -3    1    3    3    0  502 -0.17356851639E+04 -0.47916712477E+03  0.35106182160E+03  0.18345158856E+04  0.10100000352E+00 0. -1.
</event>
<event>
 5   0  0.5177000E-08  0.3705799E+04  0.7818609E-02  0.8066678E-01
        1   -1    0    0  501    0  0.00000000000E+00  0.00000000000E+00  0.23509086804E+04  0.23509086804E+04  0.50400001928E-02 0. -1.
       -1   -1    0    0    0  501  0.00000000000E+00  0.00000000000E+00 -0.14603867445E+04  0.14603867445E+04  0.50400001928E-02 0.  1.
    10030    2    1    2    0    0  0.00000000000E+00  0.00000000000E+00  0.89052193591E+03  0.38112954248E+04  0.37057986315E+04 0.  0.
        4    1    3    3  502    0 -0.45309010545E+03 -0.12796715954E+04  0.17422664947E+04  0.22086973960E+04  0.12699999809E+01 0. -1.
       -4    1    3    3    0  502  0.45309010545E+03  0.12796715954E+04 -0.85174455876E+03  0.16025980288E+04  0.12699999809E+01 0.  1.
</event>
<event>
 5   0  0.1658770E-07  0.3776094E+04  0.7818609E-02  0.8051305E-01
        2   -1    0    0  501    0  0.00000000000E+00  0.00000000000E+00  0.10540573137E+04  0.10540573137E+04  0.25500000920E-02 0. -1.
       -2   -1    0    0    0  501  0.00000000000E+00  0.00000000000E+00 -0.33819049155E+04  0.33819049155E+04  0.25500000920E-02 0.  1.
    10030    2    1    2    0    0  0.00000000000E+00  0.00000000000E+00 -0.23278476018E+04  0.44359622292E+04  0.37760940722E+04 0.  0.
        2    1    3    3  502    0 -0.14801716687E+03  0.18657214290E+04 -0.87165894172E+03  0.20646100947E+04  0.25500000920E-02 0. -1.
       -2    1    3    3    0  502  0.14801716687E+03 -0.18657214290E+04 -0.14561886600E+04  0.23713521345E+04  0.25500000920E-02 0.  1.
</event>
<event>
 5   0  0.5177000E-08  0.3705208E+04  0.7818609E-02  0.8066809E-01
       -1   -1    0    0    0  501  0.00000000000E+00  0.00000000000E+00  0.17835872593E+04  0.17835872593E+04  0.50400001928E-02 0. -1.
        1   -1    0    0  501    0  0.00000000000E+00  0.00000000000E+00 -0.19242918101E+04  0.19242918101E+04  0.50400001928E-02 0.  1.
    10030    2    1    2    0    0  0.00000000000E+00  0.00000000000E+00 -0.14070455080E+03  0.37078790695E+04  0.37052084183E+04 0.  0.
        4    1    3    3  502    0  0.41480410653E+03  0.14247850624E+04 -0.11802350089E+04  0.18960567528E+04  0.12699999809E+01 0.  1.
       -4    1    3    3    0  502 -0.41480410653E+03 -0.14247850624E+04  0.10395304581E+04  0.18118223166E+04  0.12699999809E+01 0. -1.
</event>
<event>
 5   0  0.5177000E-08  0.3691869E+04  0.7818609E-02  0.8069766E-01
        1   -1    0    0  501    0  0.00000000000E+00  0.00000000000E+00  0.16356643305E+04  0.16356643305E+04  0.50400001928E-02 0.  1.
       -1   -1    0    0    0  501  0.00000000000E+00  0.00000000000E+00 -0.20832356998E+04  0.20832356998E+04  0.50400001928E-02 0. -1.
    10030    2    1    2    0    0  0.00000000000E+00  0.00000000000E+00 -0.44757136925E+03  0.37189000303E+04  0.36918690801E+04 0.  0.
        4    1    3    3  502    0  0.10486846182E+04  0.13065790446E+04  0.55686234284E+03  0.17654986576E+04  0.12699999809E+01 0.  1.
       -4    1    3    3    0  502 -0.10486846182E+04 -0.13065790446E+04 -0.10044337121E+04  0.19534013727E+04  0.12699999809E+01 0. -1.
</event>
<event>
 5   0  0.5177000E-08  0.3680103E+04  0.7818609E-02  0.8072386E-01
        1   -1    0    0  501    0  0.00000000000E+00  0.00000000000E+00  0.17432817079E+04  0.17432817079E+04  0.50400001928E-02 0.  1.
       -1   -1    0    0    0  501  0.00000000000E+00  0.00000000000E+00 -0.19421930590E+04  0.19421930590E+04  0.50400001928E-02 0. -1.
    10030    2    1    2    0    0  0.00000000000E+00  0.00000000000E+00 -0.19891135115E+03  0.36854747669E+04  0.36801030599E+04 0.  0.
        2    1    3    3  502    0 -0.13250432398E+04 -0.12662857582E+04  0.63786624653E+02  0.18339269184E+04  0.25500000920E-02 0. -1.
       -2    1    3    3    0  502  0.13250432398E+04  0.12662857582E+04 -0.26269797580E+03  0.18515478485E+04  0.25500000920E-02 0.  1.
</event>
<event>
 5   0  0.1658770E-07  0.3719142E+04  0.7818609E-02  0.8063733E-01
        2   -1    0    0  501    0  0.00000000000E+00  0.00000000000E+00  0.22043764311E+04  0.22043764311E+04  0.25500000920E-02 0.  1.
       -2   -1    0    0    0  501  0.00000000000E+00  0.00000000000E+00 -0.15686997206E+04  0.15686997206E+04  0.25500000920E-02 0. -1.
    10030    2    1    2    0    0  0.00000000000E+00  0.00000000000E+00  0.63567671050E+03  0.37730761516E+04  0.37191422083E+04 0.  0.
        2    1    3    3  502    0  0.16177173616E+04 -0.91274820418E+03  0.22774771806E+03  0.18713598717E+04  0.25500000920E-02 0.  1.
       -2    1    3    3    0  502 -0.16177173616E+04  0.91274820418E+03  0.40792899244E+03  0.19017162799E+04  0.25500000920E-02 0. -1.
</event>
<event>
 5   0  0.1558258E-07  0.3689672E+04  0.7818609E-02  0.8070255E-01
       -2   -1    0    0    0  501  0.00000000000E+00  0.00000000000E+00  0.13181344759E+04  0.13181344759E+04  0.25500000920E-02 0. -1.
        2   -1    0    0  501    0  0.00000000000E+00  0.00000000000E+00 -0.25819973492E+04  0.25819973492E+04  0.25500000920E-02 0.  1.
    10030    2    1    2    0    0  0.00000000000E+00  0.00000000000E+00 -0.12638628733E+04  0.39001318251E+04  0.36896719219E+04 0.  0.
        1    1    3    3  502    0 -0.14843093689E+04  0.58656673119E+03 -0.16100135453E+04  0.22670197284E+04  0.50400001928E-02 0.  1.
       -1    1    3    3    0  502  0.14843093689E+04 -0.58656673119E+03  0.34615067201E+03  0.16331120968E+04  0.50400001928E-02 0. -1.
</event>
<event>
 5   0  0.1686284E-07  0.3676494E+04  0.7818609E-02  0.8073191E-01
        2   -1    0    0  501    0  0.00000000000E+00  0.00000000000E+00  0.10116677990E+04  0.10116677990E+04  0.25500000920E-02 0.  1.
       -2   -1    0    0    0  501  0.00000000000E+00  0.00000000000E+00 -0.33401798380E+04  0.33401798380E+04  0.25500000920E-02 0. -1.
    10030    2    1    2    0    0  0.00000000000E+00  0.00000000000E+00 -0.23285120390E+04  0.43518476369E+04  0.36764941914E+04 0.  0.
        5    1    3    3  502    0  0.10534468571E+03 -0.12417742762E+04  0.43527875077E+03  0.13200721711E+04  0.46999998093E+01 0.  1.
       -5    1    3    3    0  502 -0.10534468571E+03  0.12417742762E+04 -0.27637907898E+04  0.30317754659E+04  0.46999998093E+01 0. -1.
</event>
<event>
 5   0  0.1558258E-07  0.3602658E+04  0.7818609E-02  0.8089883E-01
        2   -1    0    0  501    0  0.00000000000E+00  0.00000000000E+00  0.19817830730E+04  0.19817830730E+04  0.25500000920E-02 0. -1.
       -2   -1    0    0    0  501  0.00000000000E+00  0.00000000000E+00 -0.16373061502E+04  0.16373061502E+04  0.25500000920E-02 0.  1.
    10030    2    1    2    0    0  0.00000000000E+00  0.00000000000E+00  0.34447692276E+03  0.36190892232E+04  0.36026576933E+04 0.  0.
        1    1    3    3  502    0  0.76660377183E+02  0.14066831837E+04  0.12999229919E+04  0.19168813676E+04  0.50400001928E-02 0. -1.
       -1    1    3    3    0  502 -0.76660377183E+02 -0.14066831837E+04 -0.95544606910E+03  0.17022078556E+04  0.50400001928E-02 0.  1.
</event>
<event>
 5   0  0.5177000E-08  0.3686102E+04  0.7818609E-02  0.8071049E-01
       -1   -1    0    0    0  501  0.00000000000E+00  0.00000000000E+00  0.11100550601E+04  0.11100550601E+04  0.50400001928E-02 0.  1.
        1   -1    0    0  501    0  0.00000000000E+00  0.00000000000E+00 -0.30600624370E+04  0.30600624370E+04  0.50400001928E-02 0. -1.
    10030    2    1    2    0    0  0.00000000000E+00  0.00000000000E+00 -0.19500073769E+04  0.41701174971E+04  0.36861024362E+04 0.  0.
        1    1    3    3  502    0  0.78669136707E+03 -0.39037654908E+03 -0.28081280034E+04  0.29422542447E+04  0.50400001928E-02 0. -1.
       -1    1    3    3    0  502 -0.78669136707E+03  0.39037654908E+03  0.85812062647E+03  0.12278632524E+04  0.50400001928E-02 0.  1.
</event>
<event>
 5   0  0.1686284E-07  0.3698666E+04  0.7818609E-02  0.8068258E-01
        2   -1    0    0  501    0  0.00000000000E+00  0.00000000000E+00  0.11873240822E+04  0.11873240822E+04  0.25500000920E-02 0.  1.
       -2   -1    0    0    0  501  0.00000000000E+00  0.00000000000E+00 -0.28804533868E+04  0.28804533868E+04  0.25500000920E-02 0. -1.
    10030    2    1    2    0    0  0.00000000000E+00  0.00000000000E+00 -0.16931293046E+04  0.40677774691E+04  0.36986655291E+04 0.  0.
        5    1    3    3  502    0 -0.17051017357E+04 -0.17504949844E+03 -0.16101077245E+04  0.23516979463E+04  0.46999998093E+01 0. -1.
       -5    1    3    3    0  502  0.17051017357E+04  0.17504949844E+03 -0.83021580099E+02  0.17160795228E+04  0.46999998093E+01 0.  1.
</event>
<event>
 5   0  0.1666189E-07  0.3692420E+04  0.7818609E-02  0.8069644E-01
       -2   -1    0    0    0  501  0.00000000000E+00  0.00000000000E+00  0.26863376900E+04  0.26863376900E+04  0.25500000920E-02 0. -1.
        2   -1    0    0  501    0  0.00000000000E+00  0.00000000000E+00 -0.12688245930E+04  0.12688245930E+04  0.25500000920E-02 0.  1.
    10030    2    1    2    0    0  0.00000000000E+00  0.00000000000E+00  0.14175130970E+04  0.39551622829E+04  0.36924199794E+04 0.  0.
        4    1    3    3  502    0 -0.11067945543E+04 -0.44200043618E+03 -0.80158694653E+03  0.14362805495E+04  0.12699999809E+01 0.  1.
       -4    1    3    3    0  502  0.11067945543E+04  0.44200043618E+03  0.22191000435E+04  0.25188817335E+04  0.12699999809E+01 0. -1.
</event>
<event>
 5   0  0.1666189E-07  0.3702545E+04  0.7818609E-02  0.8067398E-01
       -2   -1    0    0    0  501  0.00000000000E+00  0.00000000000E+00  0.21912379232E+04  0.21912379232E+04  0.25500000920E-02 0.  1.
        2   -1    0    0  501    0  0.00000000000E+00  0.00000000000E+00 -0.15640516298E+04  0.15640516298E+04  0.25500000920E-02 0. -1.
    10030    2    1    2    0    0  0.00000000000E+00  0.00000000000E+00  0.62718629342E+03  0.37552895530E+04  0.37025446629E+04 0.  0.
        4    1    3    3  502    0 -0.14431255509E+04 -0.79382486820E+03  0.11708786977E+04  0.20208235486E+04  0.12699999809E+01 0.  1.
       -4    1    3    3    0  502  0.14431255509E+04  0.79382486820E+03 -0.54369240426E+03  0.17344660044E+04  0.12699999809E+01 0. -1.
</event>
<event>
 5   0  0.5177000E-08  0.3654802E+04  0.7818609E-02  0.8078053E-01
        1   -1    0    0  501    0  0.00000000000E+00  0.00000000000E+00  0.23058293020E+04  0.23058293020E+04  0.50400001928E-02 0.  1.
       -1   -1    0    0    0  501  0.00000000000E+00  0.00000000000E+00 -0.14482397305E+04  0.14482397305E+04  0.50400001928E-02 0. -1.
    10030    2    1    2    0    0  0.00000000000E+00  0.00000000000E+00  0.85758957148E+03  0.37540690325E+04  0.36548015580E+04 0.  0.
        2    1    3    3  502    0  0.95840995579E+03 -0.11605241421E+04 -0.63570649939E+03  0.16338569953E+04  0.25500000920E-02 0. -1.
       -2    1    3    3    0  502 -0.95840995579E+03  0.11605241421E+04  0.14932960709E+04  0.21202120373E+04  0.25500000920E-02 0.  1.
</event>
<event>
 5   0  0.5177000E-08  0.3706947E+04  0.7818609E-02  0.8066424E-01
        1   -1    0    0  501    0  0.00000000000E+00  0.00000000000E+00  0.12056215462E+04  0.12056215462E+04  0.50400001928E-02 0.  1.
       -1   -1    0    0    0  501  0.00000000000E+00  0.00000000000E+00 -0.28494543861E+04  0.28494543861E+04  0.50400001928E-02 0. -1.
    10030    2    1    2    0    0  0.00000000000E+00  0.00000000000E+00 -0.16438328399E+04  0.40550759323E+04  0.37069467775E+04 0.  0.
        3    1    3    3  502    0  0.14621038849E+04 -0.13174960004E+03  0.41582910975E+03  0.15257849082E+04  0.10100000352E+00 0.  1.
       -3    1    3    3    0  502 -0.14621038849E+04  0.13174960004E+03 -0.20596619497E+04  0.25292910241E+04  0.10100000352E+00 0. -1.
</event>
<event>
 5   0  0.5181371E-08  0.3693827E+04  0.7818609E-02  0.8069331E-01
        1   -1    0    0  501    0  0.00000000000E+00  0.00000000000E+00  0.15194525133E+04  0.15194525133E+04  0.50400001928E-02 0. -1.
       -1   -1    0    0    0  501  0.00000000000E+00  0.00000000000E+00 -0.22449464581E+04  0.22449464581E+04  0.50400001928E-02 0.  1.
    10030    2    1    2    0    0  0.00000000000E+00  0.00000000000E+00 -0.72549394481E+03  0.37643989713E+04  0.36938270332E+04 0.  0.
        5    1    3    3  502    0 -0.56192287864E+03 -0.12689583685E+04  0.87916361214E+03  0.16428522178E+04  0.46999998093E+01 0. -1.
       -5    1    3    3    0  502  0.56192287864E+03  0.12689583685E+04 -0.16046575569E+04  0.21215467536E+04  0.46999998093E+01 0.  1.
</event>
<event>
 5   0  0.1666189E-07  0.3701808E+04  0.7818609E-02  0.8067561E-01
        2   -1    0    0  501    0  0.00000000000E+00  0.00000000000E+00  0.26210137848E+04  0.26210137848E+04  0.25500000920E-02 0.  1.
       -2   -1    0    0    0  501  0.00000000000E+00  0.00000000000E+00 -0.13070692314E+04  0.13070692314E+04  0.25500000920E-02 0. -1.
    10030    2    1    2    0    0  0.00000000000E+00  0.00000000000E+00  0.13139445534E+04  0.39280830161E+04  0.37018084624E+04 0.  0.
        4    1    3    3  502    0 -0.99966664927E+03 -0.47426331932E+03  0.22314427369E+04  0.24907021914E+04  0.12699999809E+01 0.  1.
       -4    1    3    3    0  502  0.99966664927E+03  0.47426331932E+03 -0.91749818344E+03  0.14373808247E+04  0.12699999809E+01 0. -1.
</event>
<event>
 5   0  0.1686284E-07  0.3701259E+04  0.7818609E-02  0.8067683E-01
        2   -1    0    0  501    0  0.00000000000E+00  0.00000000000E+00  0.16902558474E+04  0.16902558474E+04  0.25500000920E-02 0. -1.
       -2   -1    0    0    0  501  0.00000000000E+00  0.00000000000E+00 -0.20262193876E+04  0.20262193876E+04  0.25500000920E-02 0.  1.
    10030    2    1    2    0    0  0.00000000000E+00  0.00000000000E+00 -0.33596354017E+03  0.37164752350E+04  0.37012587956E+04 0.  0.
        5    1    3    3  502    0 -0.11995859257E+04 -0.83762275635E+03  0.96989761712E+03  0.17553751032E+04  0.46999998093E+01 0. -1.
       -5    1    3    3    0  502  0.11995859257E+04  0.83762275635E+03 -0.13058611573E+04  0.19611001319E+04  0.46999998093E+01 0.  1.
</event>
<event>
 5   0  0.1558258E-07  0.3701151E+04  0.7818609E-02  0.8067707E-01
        2   -1    0    0  501    0  0.00000000000E+00  0.00000000000E+00  0.23879347307E+04  0.23879347307E+04  0.25500000920E-02 0.  1.
       -2   -1    0    0    0  501  0.00000000000E+00  0.00000000000E+00 -0.14341391025E+04  0.14341391025E+04  0.25500000920E-02 0. -1.
    10030    2    1    2    0    0  0.00000000000E+00  0.00000000000E+00  0.95379562821E+03  0.38220738333E+04  0.37011514812E+04 0.  0.
        1    1    3    3  502    0 -0.18541991325E+03  0.18068473283E+04  0.11098691707E+03  0.18197241296E+04  0.50400001928E-02 0.  1.
       -1    1    3    3    0  502  0.18541991325E+03 -0.18068473283E+04  0.84280871114E+03  0.20023497037E+04  0.50400001928E-02 0. -1.
</event>
<event>
 5   0  0.1558258E-07  0.3690070E+04  0.7818609E-02  0.8070166E-01
        2   -1    0    0  501    0  0.00000000000E+00  0.00000000000E+00  0.17608224718E+04  0.17608224718E+04  0.25500000920E-02 0. -1.
       -2   -1    0    0    0  501  0.00000000000E+00  0.00000000000E+00 -0.19332755541E+04  0.19332755541E+04  0.25500000920E-02 0.  1.
    10030    2    1    2    0    0  0.00000000000E+00  0.00000000000E+00 -0.17245308227E+03  0.36940980259E+04  0.36900704816E+04 0.  0.
        1    1    3    3  502    0 -0.59187025037E+03 -0.13345015365E+04  0.10432558832E+04  0.17943209250E+04  0.50400001928E-02 0. -1.
       -1    1    3    3    0  502  0.59187025037E+03  0.13345015365E+04 -0.12157089655E+04  0.18997771008E+04  0.50400001928E-02 0.  1.
</event>
<event>
 5   0  0.5177000E-08  0.3693847E+04  0.7818609E-02  0.8069327E-01
        3   -1    0    0  501    0  0.00000000000E+00  0.00000000000E+00  0.28408357893E+04  0.28408357911E+04  0.10100000352E+00 0. -1.
       -3   -1    0    0    0  501  0.00000000000E+00  0.00000000000E+00 -0.12007474400E+04  0.12007474443E+04  0.10100000352E+00 0.  1.
    10030    2    1    2    0    0  0.00000000000E+00  0.00000000000E+00  0.16400883492E+04  0.40415832354E+04  0.36938469453E+04 0.  0.
        1    1    3    3  502    0  0.13241709165E+04  0.12772318378E+04  0.64234661594E+03  0.19486813384E+04  0.50400001928E-02 0. -1.
       -1    1    3    3    0  502 -0.13241709165E+04 -0.12772318378E+04  0.99774173330E+03  0.20929018969E+04  0.50400001928E-02 0.  1.
</event>
<event>
 5   0  0.5177000E-08  0.3703223E+04  0.7818609E-02  0.8067248E-01
       -3   -1    0    0    0  501  0.00000000000E+00  0.00000000000E+00  0.26862878187E+04  0.26862878206E+04  0.10100000352E+00 0. -1.
        3   -1    0    0  501    0  0.00000000000E+00  0.00000000000E+00 -0.12762837579E+04  0.12762837619E+04  0.10100000352E+00 0.  1.
    10030    2    1    2    0    0  0.00000000000E+00  0.00000000000E+00  0.14100040608E+04  0.39625715825E+04  0.37032232035E+04 0.  0.
        3    1    3    3  502    0  0.65841175091E+03  0.59451758605E+02  0.25557031548E+04  0.26398218067E+04  0.10100000352E+00 0. -1.
       -3    1    3    3    0  502 -0.65841175091E+03 -0.59451758605E+02 -0.11456990940E+04  0.13227497758E+04  0.10100000352E+00 0.  1.
</event>
<event>
 5   0  0.1666189E-07  0.3754525E+04  0.7818609E-02  0.8055985E-01
        2   -1    0    0  501    0  0.00000000000E+00  0.00000000000E+00  0.27028109357E+04  0.27028109357E+04  0.25500000920E-02 0.  1.
       -2   -1    0    0    0  501  0.00000000000E+00  0.00000000000E+00 -0.13038701940E+04  0.13038701940E+04  0.25500000920E-02 0. -1.
    10030    2    1    2    0    0  0.00000000000E+00  0.00000000000E+00  0.13989407416E+04  0.40066811297E+04  0.37545250667E+04 0.  0.
        4    1    3    3  502    0 -0.14072399158E+04 -0.11747586904E+04  0.26765805566E+03  0.18525724301E+04  0.12699999809E+01 0.  1.
       -4    1    3    3    0  502  0.14072399158E+04  0.11747586904E+04  0.11312826860E+04  0.21541086996E+04  0.12699999809E+01 0. -1.
</event>
<event>
 5   0  0.5177000E-08  0.3697585E+04  0.7818609E-02  0.8068497E-01
        1   -1    0    0  501    0  0.00000000000E+00  0.00000000000E+00  0.33954589338E+04  0.33954589338E+04  0.50400001928E-02 0.  1.
       -1   -1    0    0    0  501  0.00000000000E+00  0.00000000000E+00 -0.10066483360E+04  0.10066483360E+04  0.50400001928E-02 0. -1.
    10030    2    1    2    0    0  0.00000000000E+00  0.00000000000E+00  0.23888105978E+04  0.44021072699E+04  0.36975846634E+04 0.  0.
        4    1    3    3  502    0  0.17733531787E+04 -0.18148472309E+03  0.17780269200E+04  0.25177568473E+04  0.12699999809E+01 0.  1.
       -4    1    3    3    0  502 -0.17733531787E+04  0.18148472309E+03  0.61078367777E+03  0.18843504225E+04  0.12699999809E+01 0. -1.
</event>
<event>
 5   0  0.1666189E-07  0.3681116E+04  0.7818609E-02  0.8072160E-01
        2   -1    0    0  501    0  0.00000000000E+00  0.00000000000E+00  0.16732436924E+04  0.16732436924E+04  0.25500000920E-02 0. -1.
       -2   -1    0    0    0  501  0.00000000000E+00  0.00000000000E+00 -0.20246028751E+04  0.20246028751E+04  0.25500000920E-02 0.  1.
    10030    2    1    2    0    0  0.00000000000E+00  0.00000000000E+00 -0.35135918268E+03  0.36978465675E+04  0.36811161299E+04 0.  0.
        4    1    3    3  502    0 -0.35130515855E+03 -0.14247852398E+04  0.94032601682E+03  0.17428835087E+04  0.12699999809E+01 0. -1.
       -4    1    3    3    0  502  0.35130515855E+03  0.14247852398E+04 -0.12916851995E+04  0.19549630589E+04  0.12699999809E+01 0.  1.
</event>
<event>
 5   0  0.5177000E-08  0.3716657E+04  0.7818609E-02  0.8064280E-01
       -1   -1    0    0    0  501  0.00000000000E+00  0.00000000000E+00  0.15410599837E+04  0.15410599837E+04  0.50400001928E-02 0. -1.
        1   -1    0    0  501    0  0.00000000000E+00  0.00000000000E+00 -0.22409155396E+04  0.22409155396E+04  0.50400001928E-02 0.  1.
    10030    2    1    2    0    0  0.00000000000E+00  0.00000000000E+00 -0.69985555584E+03  0.37819755233E+04  0.37166572427E+04 0.  0.
        3    1    3    3  502    0 -0.70317531007E+03 -0.70995701924E+03 -0.19442727214E+04  0.21860217088E+04  0.10100000352E+00 0.  1.
       -3    1    3    3    0  502  0.70317531007E+03  0.70995701924E+03  0.12444171656E+04  0.15959538145E+04  0.10100000352E+00 0. -1.
</event>
<event>
 5   0  0.5177000E-08  0.3721728E+04  0.7818609E-02  0.8063164E-01
        1   -1    0    0  501    0  0.00000000000E+00  0.00000000000E+00  0.21348348891E+04  0.21348348891E+04  0.50400001928E-02 0.  1.
       -1   -1    0    0    0  501  0.00000000000E+00  0.00000000000E+00 -0.16220523952E+04  0.16220523952E+04  0.50400001928E-02 0. -1.
    10030    2    1    2    0    0  0.00000000000E+00  0.00000000000E+00  0.51278249392E+03  0.37568872844E+04  0.37217275802E+04 0.  0.
        4    1    3    3  502    0 -0.80407682823E+03  0.10390830881E+04 -0.10738514547E+04  0.16968770637E+04  0.12699999809E+01 0. -1.
       -4    1    3    3    0  502  0.80407682823E+03 -0.10390830881E+04  0.15866339486E+04  0.20600102207E+04  0.12699999809E+01 0.  1.
</event>
<event>
 5   0  0.5177000E-08  0.3703163E+04  0.7818609E-02  0.8067261E-01
        1   -1    0    0  501    0  0.00000000000E+00  0.00000000000E+00  0.25097465282E+04  0.25097465282E+04  0.50400001928E-02 0. -1.
       -1   -1    0    0    0  501  0.00000000000E+00  0.00000000000E+00 -0.13660162641E+04  0.13660162641E+04  0.50400001928E-02 0.  1.
    10030    2    1    2    0    0  0.00000000000E+00  0.00000000000E+00  0.11437302641E+04  0.38757627922E+04  0.37031632836E+04 0.  0.
        2    1    3    3  502    0 -0.15903114014E+04  0.16357253822E+03  0.15494829261E+04  0.22263745567E+04  0.25500000920E-02 0. -1.
       -2    1    3    3    0  502  0.15903114014E+04 -0.16357253822E+03 -0.40575266203E+03  0.16493882355E+04  0.25500000920E-02 0.  1.
</event>
<event>
 5   0  0.1558258E-07  0.3627117E+04  0.7818609E-02  0.8084308E-01
       -2   -1    0    0    0  501  0.00000000000E+00  0.00000000000E+00  0.18339794578E+04  0.18339794578E+04  0.25500000920E-02 0.  1.
        2   -1    0    0  501    0  0.00000000000E+00  0.00000000000E+00 -0.17933649741E+04  0.17933649741E+04  0.25500000920E-02 0. -1.
    10030    2    1    2    0    0  0.00000000000E+00  0.00000000000E+00  0.40614483672E+02  0.36273444319E+04  0.36271170496E+04 0.  0.
        1    1    3    3  502    0 -0.17566191501E+04 -0.40112727724E+03  0.22618561735E+03  0.18159773855E+04  0.50400001928E-02 0. -1.
       -1    1    3    3    0  502  0.17566191501E+04  0.40112727724E+03 -0.18557113367E+03  0.18113670464E+04  0.50400001928E-02 0.  1.
</event>
<event>
 5   0  0.5177000E-08  0.3684748E+04  0.7818609E-02  0.8071350E-01
        1   -1    0    0  501    0  0.00000000000E+00  0.00000000000E+00  0.17182170787E+04  0.17182170787E+04  0.50400001928E-02 0.  1.
       -1   -1    0    0    0  501  0.00000000000E+00  0.00000000000E+00 -0.19755024401E+04  0.19755024401E+04  0.50400001928E-02 0. -1.
    10030    2    1    2    0    0  0.00000000000E+00  0.00000000000E+00 -0.25728536135E+03  0.36937195188E+04  0.36847480411E+04 0.  0.
        3    1    3    3  502    0  0.16932554984E+04  0.13260399581E+03 -0.84427440287E+03  0.18967069569E+04  0.10100000352E+00 0. -1.
       -3    1    3    3    0  502 -0.16932554984E+04 -0.13260399581E+03  0.58698904152E+03  0.17970125619E+04  0.10100000352E+00 0.  1.
</event>
<event>
 5   0  0.1558258E-07  0.3738353E+04  0.7818609E-02  0.8059515E-01
        2   -1    0    0  501    0  0.00000000000E+00  0.00000000000E+00  0.14729467947E+04  0.14729467947E+04  0.25500000920E-02 0. -1.
       -2   -1    0    0    0  501  0.00000000000E+00  0.00000000000E+00 -0.23719938161E+04  0.23719938161E+04  0.25500000920E-02 0.  1.
    10030    2    1    2    0    0  0.00000000000E+00  0.00000000000E+00 -0.89904702137E+03  0.38449406108E+04  0.37383529467E+04 0.  0.
        1    1    3    3  502    0  0.48884337847E+03 -0.10378582279E+03  0.14029636300E+04  0.14893106771E+04  0.50400001928E-02 0. -1.
       -1    1    3    3    0  502 -0.48884337847E+03  0.10378582279E+03 -0.23020106514E+04  0.23556299337E+04  0.50400001928E-02 0.  1.
</event>
<event>
 5   0  0.1658770E-07  0.3701101E+04  0.7818609E-02  0.8067718E-01
        2   -1    0    0  501    0  0.00000000000E+00  0.00000000000E+00  0.25229526632E+04  0.25229526632E+04  0.25500000920E-02 0. -1.
       -2   -1    0    0    0  501  0.00000000000E+00  0.00000000000E+00 -0.13573528437E+04  0.13573528437E+04  0.25500000920E-02 0.  1.
    10030    2    1    2    0    0  0.00000000000E+00  0.00000000000E+00  0.11655998194E+04  0.38803055069E+04  0.37011009022E+04 0.  0.
        2    1    3    3  502    0  0.38155070042E+02  0.97382216098E+03  0.22321042364E+04  0.24355850904E+04  0.25500000920E-02 0. -1.
       -2    1    3    3    0  502 -0.38155070042E+02 -0.97382216098E+03 -0.10665044169E+04  0.14447204165E+04  0.25500000920E-02 0.  1.
</event>
<event>
 5   0  0.1666189E-07  0.3683327E+04  0.7818609E-02  0.8071667E-01
       -2   -1    0    0    0  501  0.00000000000E+00  0.00000000000E+00  0.13829355641E+04  0.13829355641E+04  0.25500000920E-02 0.  1.
        2   -1    0    0  501    0  0.00000000000E+00  0.00000000000E+00 -0.24525546556E+04  0.24525546556E+04  0.25500000920E-02 0. -1.
    10030    2    1    2    0    0  0.00000000000E+00  0.00000000000E+00 -0.10696190915E+04  0.38354902197E+04  0.36833273307E+04 0.  0.
        4    1    3    3  502    0  0.62537277376E+02 -0.13263993234E+04 -0.18636456755E+04  0.22883231618E+04  0.12699999809E+01 0. -1.
       -4    1    3    3    0  502 -0.62537277376E+02  0.13263993234E+04  0.79402658405E+03  0.15471670579E+04  0.12699999809E+01 0.  1.
</event>
<event>
 5   0  0.5177000E-08  0.3700601E+04  0.7818609E-02  0.8067829E-01
        1   -1    0    0  501    0  0.00000000000E+00  0.00000000000E+00  0.24941253284E+04  0.24941253284E+04  0.50400001928E-02 0. -1.
       -1   -1    0    0    0  501  0.00000000000E+00  0.00000000000E+00 -0.13726702644E+04  0.13726702644E+04  0.50400001928E-02 0.  1.
    10030    2    1    2    0    0  0.00000000000E+00  0.00000000000E+00  0.11214550640E+04  0.38667955928E+04  0.37006008560E+04 0.  0.
        4    1    3    3  502    0  0.90982114971E+03  0.10938035642E+04  0.17968299363E+04  0.22918944554E+04  0.12699999809E+01 0. -1.
       -4    1    3    3    0  502 -0.90982114971E+03 -0.10938035642E+04 -0.67537487228E+03  0.15749011374E+04  0.12699999809E+01 0.  1.
</event>
<event>
 5   0  0.5177000E-08  0.3702421E+04  0.7818609E-02  0.8067426E-01
        1   -1    0    0  501    0  0.00000000000E+00  0.00000000000E+00  0.18259928621E+04  0.18259928622E+04  0.50400001928E-02 0.  1.
       -1   -1    0    0    0  501  0.00000000000E+00  0.00000000000E+00 -0.18767761785E+04  0.18767761786E+04  0.50400001928E-02 0. -1.
    10030    2    1    2    0    0  0.00000000000E+00  0.00000000000E+00 -0.50783316396E+02  0.37027690407E+04  0.37024207788E+04 0.  0.
        1    1    3    3  502    0  0.11645465673E+04 -0.13205905620E+04  0.54637163061E+03  0.18435428117E+04  0.50400001928E-02 0.  1.
       -1    1    3    3    0  502 -0.11645465673E+04  0.13205905620E+04 -0.59715494701E+03  0.18592262290E+04  0.50400001928E-02 0. -1.
</event>
<event>
 5   0  0.1666189E-07  0.3706146E+04  0.7818609E-02  0.8066601E-01
       -2   -1    0    0    0  501  0.00000000000E+00  0.00000000000E+00  0.13056434836E+04  0.13056434836E+04  0.25500000920E-02 0. -1.
        2   -1    0    0  501    0  0.00000000000E+00  0.00000000000E+00 -0.26300286529E+04  0.26300286529E+04  0.25500000920E-02 0.  1.
    10030    2    1    2    0    0  0.00000000000E+00  0.00000000000E+00 -0.13243851692E+04  0.39356721365E+04  0.37061461236E+04 0.  0.
        4    1    3    3  502    0  0.24835673994E+03 -0.89597340865E+03  0.10400233924E+04  0.13950267700E+04  0.12699999809E+01 0. -1.
       -4    1    3    3    0  502 -0.24835673994E+03  0.89597340865E+03 -0.23644085616E+04  0.25406453665E+04  0.12699999809E+01 0.  1.
</event>
<event>
 5   0  0.1587026E-07  0.3644569E+04  0.7818609E-02  0.8080358E-01
       -2   -1    0    0    0  501  0.00000000000E+00  0.00000000000E+00  0.15501225632E+04  0.15501225632E+04  0.25500000920E-02 0.  1.
        2   -1    0    0  501    0  0.00000000000E+00  0.00000000000E+00 -0.21422316393E+04  0.21422316393E+04  0.25500000920E-02 0. -1.
    10030    2    1    2    0    0  0.00000000000E+00  0.00000000000E+00 -0.59210907615E+03  0.36923542025E+04  0.36445694394E+04 0.  0.
        3    1    3    3  502    0 -0.96340281828E+03  0.10930357845E+04 -0.14048673397E+04  0.20239872700E+04  0.10100000352E+00 0. -1.
       -3    1    3    3    0  502  0.96340281828E+03 -0.10930357845E+04  0.81275826358E+03  0.16683669326E+04  0.10100000352E+00 0.  1.
</event>
<event>
 5   0  0.5177000E-08  0.3704386E+04  0.7818609E-02  0.8066991E-01
        1   -1    0    0  501    0  0.00000000000E+00  0.00000000000E+00  0.21524152718E+04  0.21524152718E+04  0.50400001928E-02 0. -1.
       -1   -1    0    0    0  501  0.00000000000E+00  0.00000000000E+00 -0.15938462602E+04  0.15938462602E+04  0.50400001928E-02 0.  1.
    10030    2    1    2    0    0  0.00000000000E+00  0.00000000000E+00  0.55856901160E+03  0.37462615320E+04  0.37043860659E+04 0.  0.
        2    1    3    3  502    0 -0.76066347420E+03  0.15671995828E+04 -0.35703051649E+03  0.17782559554E+04  0.25500000920E-02 0. -1.
       -2    1    3    3    0  502  0.76066347420E+03 -0.15671995828E+04  0.91559952810E+03  0.19680055765E+04  0.25500000920E-02 0.  1.
</event>
<event>
 5   0  0.5177000E-08  0.3696886E+04  0.7818609E-02  0.8068652E-01
        1   -1    0    0  501    0  0.00000000000E+00  0.00000000000E+00  0.14387895934E+04  0.14387895934E+04  0.50400001928E-02 0. -1.
       -1   -1    0    0    0  501  0.00000000000E+00  0.00000000000E+00 -0.23747338519E+04  0.23747338519E+04  0.50400001928E-02 0.  1.
    10030    2    1    2    0    0  0.00000000000E+00  0.00000000000E+00 -0.93594425853E+03  0.38135234453E+04  0.36968864484E+04 0.  0.
        3    1    3    3  502    0  0.14685975979E+04  0.52364175538E+03  0.55620839042E+03  0.16553994613E+04  0.10100000352E+00 0. -1.
       -3    1    3    3    0  502 -0.14685975979E+04 -0.52364175538E+03 -0.14921526489E+04  0.21581239840E+04  0.10100000352E+00 0.  1.
</event>
<event>
 5   0  0.1658770E-07  0.3636797E+04  0.7818609E-02  0.8082115E-01
        2   -1    0    0  501    0  0.00000000000E+00  0.00000000000E+00  0.24115044176E+04  0.24115044176E+04  0.25500000920E-02 0.  1.
       -2   -1    0    0    0  501  0.00000000000E+00  0.00000000000E+00 -0.13711660910E+04  0.13711660910E+04  0.25500000920E-02 0. -1.
    10030    2    1    2    0    0  0.00000000000E+00  0.00000000000E+00  0.10403383266E+04  0.37826705085E+04  0.36367969894E+04 0.  0.
        2    1    3    3  502    0 -0.13723331197E+04  0.94615786404E+03 -0.23565569027E+03  0.16834626517E+04  0.25500000920E-02 0. -1.
       -2    1    3    3    0  502  0.13723331197E+04 -0.94615786404E+03  0.12759940169E+04  0.20992078569E+04  0.25500000920E-02 0.  1.
</event>
<event>
 5   0  0.1666189E-07  0.3711830E+04  0.7818609E-02  0.8065345E-01
        2   -1    0    0  501    0  0.00000000000E+00  0.00000000000E+00  0.20556626149E+04  0.20556626149E+04  0.25500000920E-02 0. -1.
       -2   -1    0    0    0  501  0.00000000000E+00  0.00000000000E+00 -0.16755771908E+04  0.16755771908E+04  0.25500000920E-02 0.  1.
    10030    2    1    2    0    0  0.00000000000E+00  0.00000000000E+00  0.38008542409E+03  0.37312398057E+04  0.37118304862E+04 0.  0.
        4    1    3    3  502    0  0.80606429686E+03  0.15886810220E+04 -0.33303654029E+03  0.18123360589E+04  0.12699999809E+01 0.  1.
       -4    1    3    3    0  502 -0.80606429686E+03 -0.15886810220E+04  0.71312196438E+03  0.19189037468E+04  0.12699999809E+01 0. -1.
</event>
<event>
 5   0  0.5177000E-08  0.3679485E+04  0.7818609E-02  0.8072523E-01
        1   -1    0    0  501    0  0.00000000000E+00  0.00000000000E+00  0.16883922132E+04  0.16883922132E+04  0.50400001928E-02 0. -1.
       -1   -1    0    0    0  501  0.00000000000E+00  0.00000000000E+00 -0.20046600197E+04  0.20046600198E+04  0.50400001928E-02 0.  1.
    10030    2    1    2    0    0  0.00000000000E+00  0.00000000000E+00 -0.31626780651E+03  0.36930522330E+04  0.36794849463E+04 0.  0.
        1    1    3    3  502    0 -0.49763392902E+03  0.77277774901E+03  0.14414260442E+04  0.17095420491E+04  0.50400001928E-02 0. -1.
       -1    1    3    3    0  502  0.49763392902E+03 -0.77277774901E+03 -0.17576938507E+04  0.19835101839E+04  0.50400001928E-02 0.  1.
</event>
<event>
 5   0  0.5177000E-08  0.3709783E+04  0.7818609E-02  0.8065797E-01
        1   -1    0    0  501    0  0.00000000000E+00  0.00000000000E+00  0.13145256607E+04  0.13145256607E+04  0.50400001928E-02 0.  1.
       -1   -1    0    0    0  501  0.00000000000E+00  0.00000000000E+00 -0.26173875052E+04  0.26173875052E+04  0.50400001928E-02 0. -1.
    10030    2    1    2    0    0  0.00000000000E+00  0.00000000000E+00 -0.13028618445E+04  0.39319131659E+04  0.37097833034E+04 0.  0.
        1    1    3    3  502    0  0.69330221390E+03 -0.52725878977E+03 -0.23871561564E+04  0.25410990351E+04  0.50400001928E-02 0. -1.
       -1    1    3    3    0  502 -0.69330221390E+03  0.52725878977E+03  0.10842943120E+04  0.13908141307E+04  0.50400001928E-02 0.  1.
</event>
<event>
 5   0  0.1587026E-07  0.3683129E+04  0.7818609E-02  0.8071711E-01
        2   -1    0    0  501    0  0.00000000000E+00  0.00000000000E+00  0.13254101987E+04  0.13254101987E+04  0.25500000920E-02 0. -1.
       -2   -1    0    0    0  501  0.00000000000E+00  0.00000000000E+00 -0.25587251944E+04  0.25587251944E+04  0.25500000920E-02 0.  1.
    10030    2    1    2    0    0  0.00000000000E+00  0.00000000000E+00 -0.12333149957E+04  0.38841353931E+04  0.36831293588E+04 0.  0.
        3    1    3    3  502    0  0.10173488330E+04 -0.15347022572E+04 -0.65084251188E+03  0.19529223363E+04  0.10100000352E+00 0. -1.
       -3    1    3    3    0  502 -0.10173488330E+04  0.15347022572E+04 -0.58247248381E+03  0.19312130568E+04  0.10100000352E+00 0.  1.
</event>
<event>
 5   0  0.5177000E-08  0.3674553E+04  0.7818609E-02  0.8073625E-01
       -1   -1    0    0    0  501  0.00000000000E+00  0.00000000000E+00  0.26358676746E+04  0.26358676746E+04  0.50400001928E-02 0.  1.
        1   -1    0    0  501    0  0.00000000000E+00  0.00000000000E+00 -0.12806351580E+04  0.12806351580E+04  0.50400001928E-02 0. -1.
    10030    2    1    2    0    0  0.00000000000E+00  0.00000000000E+00  0.13552325166E+04  0.39165028326E+04  0.36745529339E+04 0.  0.
        4    1    3    3  502    0  0.56976114685E+03  0.15725842748E+04 -0.13265999443E+03  0.16778704816E+04  0.12699999809E+01 0. -1.
       -4    1    3    3    0  502 -0.56976114685E+03 -0.15725842748E+04  0.14878925111E+04  0.22386323511E+04  0.12699999809E+01 0.  1.
</event>
<event>
 5   0  0.5177000E-08  0.3471983E+04  0.7818609E-02  0.8120462E-01
        1   -1    0    0  501    0  0.00000000000E+00  0.00000000000E+00  0.10553517883E+04  0.10553517883E+04  0.50400001928E-02 0. -1.
       -1   -1    0    0    0  501  0.00000000000E+00  0.00000000000E+00 -0.28556033218E+04  0.28556033218E+04  0.50400001928E-02 0.  1.
    10030    2    1    2    0    0  0.00000000000E+00  0.00000000000E+00 -0.18002515335E+04  0.39109551101E+04  0.34719827605E+04 0.  0.
        3    1    3    3  502    0 -0.11425922080E+04  0.11135484003E+04 -0.16708552830E+04  0.23102520167E+04  0.10100000352E+00 0.  1.
       -3    1    3    3    0  502  0.11425922080E+04 -0.11135484003E+04 -0.12939625049E+03  0.16007030935E+04  0.10100000352E+00 0. -1.
</event>
<event>
 5   0  0.5177000E-08  0.3698055E+04  0.7818609E-02  0.8068393E-01
       -1   -1    0    0    0  501  0.00000000000E+00  0.00000000000E+00  0.16839322998E+04  0.16839322998E+04  0.50400001928E-02 0. -1.
        1   -1    0    0  501    0  0.00000000000E+00  0.00000000000E+00 -0.20303090202E+04  0.20303090202E+04  0.50400001928E-02 0.  1.
    10030    2    1    2    0    0  0.00000000000E+00  0.00000000000E+00 -0.34637672046E+03  0.37142413200E+04  0.36980551309E+04 0.  0.
        1    1    3    3  502    0  0.12370125871E+04 -0.13434257696E+04  0.11775174546E+03  0.18299886374E+04  0.50400001928E-02 0. -1.
       -1    1    3    3    0  502 -0.12370125871E+04  0.13434257696E+04 -0.46412846592E+03  0.18842526827E+04  0.50400001928E-02 0.  1.
</event>
<event>
 5   0  0.5177000E-08  0.3600763E+04  0.7818609E-02  0.8090317E-01
       -1   -1    0    0    0  501  0.00000000000E+00  0.00000000000E+00  0.19000819469E+04  0.19000819469E+04  0.50400001928E-02 0.  1.
        1   -1    0    0  501    0  0.00000000000E+00  0.00000000000E+00 -0.17059126528E+04  0.17059126528E+04  0.50400001928E-02 0. -1.
    10030    2    1    2    0    0  0.00000000000E+00  0.00000000000E+00  0.19416929408E+03  0.36059945996E+04  0.36007631605E+04 0.  0.
        3    1    3    3  502    0 -0.31213304460E+03  0.29161586473E+03  0.18485987967E+04  0.18973097722E+04  0.10100000352E+00 0.  1.
       -3    1    3    3    0  502  0.31213304460E+03 -0.29161586473E+03 -0.16544295027E+04  0.17086848275E+04  0.10100000352E+00 0. -1.
</event>
<event>
 5   0  0.1686284E-07  0.3627093E+04  0.7818609E-02  0.8084314E-01
        2   -1    0    0  501    0  0.00000000000E+00  0.00000000000E+00  0.14524303945E+04  0.14524303945E+04  0.25500000920E-02 0. -1.
       -2   -1    0    0    0  501  0.00000000000E+00  0.00000000000E+00 -0.22644466688E+04  0.22644466688E+04  0.25500000920E-02 0.  1.
    10030    2    1    2    0    0  0.00000000000E+00  0.00000000000E+00 -0.81201627426E+03  0.37168770632E+04  0.36270931438E+04 0.  0.
        5    1    3    3  502    0 -0.11012680787E+04 -0.54959242212E+03  0.95891063434E+03  0.15602483476E+04  0.46999998093E+01 0. -1.
       -5    1    3    3    0  502  0.11012680787E+04  0.54959242212E+03 -0.17709269086E+04  0.21566287156E+04  0.46999998093E+01 0.  1.
</event>
<event>
 5   0  0.5177000E-08  0.3704306E+04  0.7818609E-02  0.8067008E-01
        1   -1    0    0  501    0  0.00000000000E+00  0.00000000000E+00  0.30524199909E+04  0.30524199909E+04  0.50400001928E-02 0. -1.
       -1   -1    0    0    0  501  0.00000000000E+00  0.00000000000E+00 -0.11238525883E+04  0.11238525883E+04  0.50400001928E-02 0.  1.
    10030    2    1    2    0    0  0.00000000000E+00  0.00000000000E+00  0.19285674026E+04  0.41762725792E+04  0.37043056608E+04 0.  0.
        4    1    3    3  502    0  0.66675452936E+03  0.20387701574E+03 -0.97024901443E+03  0.11947854213E+04  0.12699999809E+01 0.  1.
       -4    1    3    3    0  502 -0.66675452936E+03 -0.20387701574E+03  0.28988164171E+04  0.29814871579E+04  0.12699999809E+01 0. -1.
</event>
<event>
 5   0  0.5177000E-08  0.3700788E+04  0.7818609E-02  0.8067787E-01
       -1   -1    0    0    0  501  0.00000000000E+00  0.00000000000E+00  0.25378043115E+04  0.25378043115E+04  0.50400001928E-02 0. -1.
        1   -1    0    0  501    0  0.00000000000E+00  0.00000000000E+00 -0.13491811237E+04  0.13491811237E+04  0.50400001928E-02 0.  1.
    10030    2    1    2    0    0  0.00000000000E+00  0.00000000000E+00  0.11886231878E+04  0.38869854352E+04  0.37007878474E+04 0.  0.
        1    1    3    3  502    0  0.40929876942E+02  0.16618555154E+04 -0.25930189819E+03  0.16824614359E+04  0.50400001928E-02 0.  1.
       -1    1    3    3    0  502 -0.40929876942E+02 -0.16618555154E+04  0.14479250860E+04  0.22045239993E+04  0.50400001928E-02 0. -1.
</event>
<event>
 5   0  0.5177000E-08  0.3664049E+04  0.7818609E-02  0.8075976E-01
        1   -1    0    0  501    0  0.00000000000E+00  0.00000000000E+00  0.20788064733E+04  0.20788064733E+04  0.50400001928E-02 0. -1.
       -1   -1    0    0    0  501  0.00000000000E+00  0.00000000000E+00 -0.16145384335E+04  0.16145384335E+04  0.50400001928E-02 0.  1.
    10030    2    1    2    0    0  0.00000000000E+00  0.00000000000E+00  0.46426803984E+03  0.36933449068E+04  0.36640485515E+04 0.  0.
        3    1    3    3  502    0 -0.47201833764E+03  0.13708615956E+04 -0.89675362764E+03  0.17047668181E+04  0.10100000352E+00 0.  1.
       -3    1    3    3    0  502  0.47201833764E+03 -0.13708615956E+04  0.13610216675E+04  0.19885780887E+04  0.10100000352E+00 0. -1.
</event>
<event>
 5   0  0.1686284E-07  0.3680434E+04  0.7818609E-02  0.8072312E-01
       -2   -1    0    0    0  501  0.00000000000E+00  0.00000000000E+00  0.18132809710E+04  0.18132809710E+04  0.25500000920E-02 0. -1.
        2   -1    0    0  501    0  0.00000000000E+00  0.00000000000E+00 -0.18675532992E+04  0.18675532992E+04  0.25500000920E-02 0.  1.
    10030    2    1    2    0    0  0.00000000000E+00  0.00000000000E+00 -0.54272328149E+02  0.36808342702E+04  0.36804341374E+04 0.  0.
        5    1    3    3  502    0  0.83082168347E+03 -0.96722105967E+03 -0.13541547633E+04  0.18599834572E+04  0.46999998093E+01 0. -1.
       -5    1    3    3    0  502 -0.83082168347E+03  0.96722105967E+03  0.12998824352E+04  0.18208508130E+04  0.46999998093E+01 0.  1.
</event>
<event>
 5   0  0.1666189E-07  0.3446374E+04  0.7818609E-02  0.8126618E-01
       -2   -1    0    0    0  501  0.00000000000E+00  0.00000000000E+00  0.23228976050E+04  0.23228976050E+04  0.25500000920E-02 0. -1.
        2   -1    0    0  501    0  0.00000000000E+00  0.00000000000E+00 -0.12783055500E+04  0.12783055500E+04  0.25500000920E-02 0.  1.
    10030    2    1    2    0    0  0.00000000000E+00  0.00000000000E+00  0.10445920550E+04  0.36012031550E+04  0.34463736887E+04 0.  0.
        4    1    3    3  502    0 -0.64717538755E+03 -0.87120674332E+03  0.19209097896E+04  0.22062939978E+04  0.12699999809E+01 0. -1.
       -4    1    3    3    0  502  0.64717538755E+03  0.87120674332E+03 -0.87631773465E+03  0.13949091572E+04  0.12699999809E+01 0.  1.
</event>
<event>
 5   0  0.5181371E-08  0.3682235E+04  0.7818609E-02  0.8071910E-01
       -1   -1    0    0    0  501  0.00000000000E+00  0.00000000000E+00  0.16419370653E+04  0.16419370653E+04  0.50400001928E-02 0.  1.
        1   -1    0    0  501    0  0.00000000000E+00  0.00000000000E+00 -0.20644598129E+04  0.20644598129E+04  0.50400001928E-02 0. -1.
    10030    2    1    2    0    0  0.00000000000E+00  0.00000000000E+00 -0.42252274760E+03  0.37063968782E+04  0.36822346947E+04 0.  0.
        5    1    3    3  502    0  0.67521047760E+03  0.77055521072E+03 -0.17510136019E+04  0.20287274943E+04  0.46999998093E+01 0. -1.
       -5    1    3    3    0  502 -0.67521047760E+03 -0.77055521072E+03  0.13284908543E+04  0.16776693839E+04  0.46999998093E+01 0.  1.
</event>
<event>
 5   0  0.1666189E-07  0.3710647E+04  0.7818609E-02  0.8065606E-01
        2   -1    0    0  501    0  0.00000000000E+00  0.00000000000E+00  0.19723368778E+04  0.19723368778E+04  0.25500000920E-02 0. -1.
       -2   -1    0    0    0  501  0.00000000000E+00  0.00000000000E+00 -0.17452519624E+04  0.17452519624E+04  0.25500000920E-02 0.  1.
    10030    2    1    2    0    0  0.00000000000E+00  0.00000000000E+00  0.22708491546E+03  0.37175888402E+04  0.37106467396E+04 0.  0.
        4    1    3    3  502    0  0.17780457695E+03  0.14717135444E+04 -0.10041916452E+04  0.17905188347E+04  0.12699999809E+01 0.  1.
       -4    1    3    3    0  502 -0.17780457695E+03 -0.14717135444E+04  0.12312765606E+04  0.19270700055E+04  0.12699999809E+01 0. -1.
</event>
<event>
 5   0  0.5177000E-08  0.3715800E+04  0.7818609E-02  0.8064469E-01
        1   -1    0    0  501    0  0.00000000000E+00  0.00000000000E+00  0.13946307386E+04  0.13946307387E+04  0.50400001928E-02 0.  1.
       -1   -1    0    0    0  501  0.00000000000E+00  0.00000000000E+00 -0.24750582469E+04  0.24750582469E+04  0.50400001928E-02 0. -1.
    10030    2    1    2    0    0  0.00000000000E+00  0.00000000000E+00 -0.10804275082E+04  0.38696889855E+04  0.37157999467E+04 0.  0.
        3    1    3    3  502    0 -0.16063069417E+04 -0.91191908589E+03 -0.74842872286E+03  0.19929786686E+04  0.10100000352E+00 0.  1.
       -3    1    3    3    0  502  0.16063069417E+04  0.91191908589E+03 -0.33199878536E+03  0.18767103169E+04  0.10100000352E+00 0. -1.
</event>
<event>
 5   0  0.1658770E-07  0.3727065E+04  0.7818609E-02  0.8061990E-01
        2   -1    0    0  501    0  0.00000000000E+00  0.00000000000E+00  0.15456106576E+04  0.15456106576E+04  0.25500000920E-02 0. -1.
       -2   -1    0    0    0  501  0.00000000000E+00  0.00000000000E+00 -0.22468489115E+04  0.22468489115E+04  0.25500000920E-02 0.  1.
    10030    2    1    2    0    0  0.00000000000E+00  0.00000000000E+00 -0.70123825390E+03  0.37924595690E+04  0.37270651314E+04 0.  0.
        2    1    3    3  502    0  0.71403252939E+03  0.67830205675E+03  0.12591684366E+04  0.15985747668E+04  0.25500000920E-02 0. -1.
       -2    1    3    3    0  502 -0.71403252939E+03 -0.67830205675E+03 -0.19604066905E+04  0.21938848022E+04  0.25500000920E-02 0.  1.
</event>
<event>
 5   0  0.1558258E-07  0.3739657E+04  0.7818609E-02  0.8059230E-01
        2   -1    0    0  501    0  0.00000000000E+00  0.00000000000E+00  0.20082233098E+04  0.20082233098E+04  0.25500000920E-02 0. -1.
       -2   -1    0    0    0  501  0.00000000000E+00  0.00000000000E+00 -0.17409708256E+04  0.17409708256E+04  0.25500000920E-02 0.  1.
    10030    2    1    2    0    0  0.00000000000E+00  0.00000000000E+00  0.26725248425E+03  0.37491941354E+04  0.37396567723E+04 0.  0.
        1    1    3    3  502    0  0.21581171641E+03 -0.16731348313E+04  0.94209673648E+03  0.19322269850E+04  0.50400001928E-02 0. -1.
       -1    1    3    3    0  502 -0.21581171641E+03  0.16731348313E+04 -0.67484425222E+03  0.18169671504E+04  0.50400001928E-02 0.  1.
</event>
<event>
 5   0  0.5177000E-08  0.3694809E+04  0.7818609E-02  0.8069113E-01
       -1   -1    0    0    0  501  0.00000000000E+00  0.00000000000E+00  0.27264695847E+04  0.27264695847E+04  0.50400001928E-02 0. -1.
        1   -1    0    0  501    0  0.00000000000E+00  0.00000000000E+00 -0.12517666409E+04  0.12517666409E+04  0.50400001928E-02 0.  1.
    10030    2    1    2    0    0  0.00000000000E+00  0.00000000000E+00  0.14747029438E+04  0.39782362256E+04  0.36948091554E+04 0.  0.
        4    1    3    3  502    0 -0.92923720568E+03  0.15437732868E+04  0.11762797616E+04  0.21518256053E+04  0.12699999809E+01 0.  1.
       -4    1    3    3    0  502  0.92923720568E+03 -0.15437732868E+04  0.29842318224E+03  0.18264106203E+04  0.12699999809E+01 0. -1.
</event>
<event>
 5   0  0.1558258E-07  0.3705420E+04  0.7818609E-02  0.8066762E-01
       -2   -1    0    0    0  501  0.00000000000E+00  0.00000000000E+00  0.15853391287E+04  0.15853391287E+04  0.25500000920E-02 0.  1.
        2   -1    0    0  501    0  0.00000000000E+00  0.00000000000E+00 -0.21651737859E+04  0.21651737859E+04  0.25500000920E-02 0. -1.
    10030    2    1    2    0    0  0.00000000000E+00  0.00000000000E+00 -0.57983465719E+03  0.37505129145E+04  0.37054202046E+04 0.  0.
        1    1    3    3  502    0  0.12125852092E+04  0.22977075080E+03 -0.16885351900E+04  0.20914847777E+04  0.50400001928E-02 0. -1.
       -1    1    3    3    0  502 -0.12125852092E+04 -0.22977075080E+03  0.11087005328E+04  0.16590281368E+04  0.50400001928E-02 0.  1.
</event>
<event>
 5   0  0.5177000E-08  0.3549253E+04  0.7818609E-02  0.8102216E-01
        1   -1    0    0  501    0  0.00000000000E+00  0.00000000000E+00  0.21612126515E+04  0.21612126515E+04  0.50400001928E-02 0. -1.
       -1   -1    0    0    0  501  0.00000000000E+00  0.00000000000E+00 -0.14571906271E+04  0.14571906271E+04  0.50400001928E-02 0.  1.
    10030    2    1    2    0    0  0.00000000000E+00  0.00000000000E+00  0.70402202443E+03  0.36184032787E+04  0.35492527772E+04 0.  0.
        2    1    3    3  502    0 -0.13536281601E+03 -0.53378704740E+03  0.20719026309E+04  0.21438358650E+04  0.25500000920E-02 0. -1.
       -2    1    3    3    0  502  0.13536281601E+03  0.53378704740E+03 -0.13678806065E+04  0.14745674137E+04  0.25500000920E-02 0.  1.
</event>
<event>
 5   0  0.1666189E-07  0.3695899E+04  0.7818609E-02  0.8068871E-01
       -2   -1    0    0    0  501  0.00000000000E+00  0.00000000000E+00  0.11827894210E+04  0.11827894210E+04  0.25500000920E-02 0. -1.
        2   -1    0    0  501    0  0.00000000000E+00  0.00000000000E+00 -0.28871734718E+04  0.28871734718E+04  0.25500000920E-02 0.  1.
    10030    2    1    2    0    0  0.00000000000E+00  0.00000000000E+00 -0.17043840509E+04  0.40699628928E+04  0.36958994786E+04 0.  0.
        4    1    3    3  502    0 -0.27325660805E+03 -0.17745688249E+04 -0.13336526642E+04  0.22366033912E+04  0.12699999809E+01 0.  1.
       -4    1    3    3    0  502  0.27325660805E+03  0.17745688249E+04 -0.37073138668E+03  0.18333595016E+04  0.12699999809E+01 0. -1.
</event>
<event>
 5   0  0.1587026E-07  0.3512939E+04  0.7818609E-02  0.8110730E-01
        2   -1    0    0  501    0  0.00000000000E+00  0.00000000000E+00  0.19992349229E+04  0.19992349229E+04  0.25500000920E-02 0. -1.
       -2   -1    0    0    0  501  0.00000000000E+00  0.00000000000E+00 -0.15431831025E+04  0.15431831025E+04  0.25500000920E-02 0.  1.
    10030    2    1    2    0    0  0.00000000000E+00  0.00000000000E+00  0.45605182043E+03  0.35424180255E+04  0.35129392543E+04 0.  0.
        3    1    3    3  502    0  0.35601633958E+03  0.16858714077E+04 -0.11582745842E+03  0.17269412404E+04  0.10100000352E+00 0.  1.
       -3    1    3    3    0  502 -0.35601633958E+03 -0.16858714077E+04  0.57187927884E+03  0.18154767851E+04  0.10100000352E+00 0. -1.
</event>
<event>
 5   0  0.5177000E-08  0.3716474E+04  0.7818609E-02  0.8064321E-01
        1   -1    0    0  501    0  0.00000000000E+00  0.00000000000E+00  0.16232249819E+04  0.16232249819E+04  0.50400001928E-02 0. -1.
       -1   -1    0    0    0  501  0.00000000000E+00  0.00000000000E+00 -0.21272744021E+04  0.21272744021E+04  0.50400001928E-02 0.  1.
    10030    2    1    2    0    0  0.00000000000E+00  0.00000000000E+00 -0.50404942019E+03  0.37504993840E+04  0.37164741101E+04 0.  0.
        2    1    3    3  502    0  0.34012572543E+03 -0.13192509028E+04  0.10232443121E+04  0.17038595529E+04  0.25500000920E-02 0. -1.
       -2    1    3    3    0  502 -0.34012572543E+03  0.13192509028E+04 -0.15272937322E+04  0.20466398311E+04  0.25500000920E-02 0.  1.
</event>
<event>
 5   0  0.5177000E-08  0.3713094E+04  0.7818609E-02  0.8065066E-01
       -1   -1    0    0    0  501  0.00000000000E+00  0.00000000000E+00  0.22317126756E+04  0.22317126756E+04  0.50400001928E-02 0.  1.
        1   -1    0    0  501    0  0.00000000000E+00  0.00000000000E+00 -0.15444488144E+04  0.15444488144E+04  0.50400001928E-02 0. -1.
    10030    2    1    2    0    0  0.00000000000E+00  0.00000000000E+00  0.68726386127E+03  0.37761614900E+04  0.37130935867E+04 0.  0.
        4    1    3    3  502    0 -0.32666881816E+03  0.69062727374E+03  0.20644376765E+04  0.22012685164E+04  0.12699999809E+01 0.  1.
       -4    1    3    3    0  502  0.32666881816E+03 -0.69062727374E+03 -0.13771738153E+04  0.15748929736E+04  0.12699999809E+01 0. -1.
</event>
<event>
 5   0  0.5177000E-08  0.3699553E+04  0.7818609E-02  0.8068061E-01
        1   -1    0    0  501    0  0.00000000000E+00  0.00000000000E+00  0.21946623947E+04  0.21946623948E+04  0.50400001928E-02 0.  1.
       -1   -1    0    0    0  501  0.00000000000E+00  0.00000000000E+00 -0.15590889390E+04  0.15590889390E+04  0.50400001928E-02 0. -1.
    10030    2    1    2    0    0  0.00000000000E+00  0.00000000000E+00  0.63557345572E+03  0.37537513338E+04  0.36995534134E+04 0.  0.
        3    1    3    3  502    0  0.37017756087E+03 -0.11848832259E+04 -0.10736878832E+04  0.16412755303E+04  0.10100000352E+00 0. -1.
       -3    1    3    3    0  502 -0.37017756087E+03  0.11848832259E+04  0.17092613389E+04  0.21124758035E+04  0.10100000352E+00 0.  1.
</event>
<event>
 5   0  0.5177000E-08  0.3708028E+04  0.7818609E-02  0.8066185E-01
        1   -1    0    0  501    0  0.00000000000E+00  0.00000000000E+00  0.21435876751E+04  0.21435876751E+04  0.50400001928E-02 0. -1.
       -1   -1    0    0    0  501  0.00000000000E+00  0.00000000000E+00 -0.16035579288E+04  0.16035579288E+04  0.50400001928E-02 0.  1.
    10030    2    1    2    0    0  0.00000000000E+00  0.00000000000E+00  0.54002974631E+03  0.37471456038E+04  0.37080275147E+04 0.  0.
        3    1    3    3  502    0  0.44512338211E+03  0.17979585487E+04  0.18805915313E+03  0.18617615377E+04  0.10100000352E+00 0.  1.
       -3    1    3    3    0  502 -0.44512338211E+03 -0.17979585487E+04  0.35197059318E+03  0.18853840661E+04  0.10100000352E+00 0. -1.
</event>
<event>
 5   0  0.1558258E-07  0.3558268E+04  0.7818609E-02  0.8100118E-01
        2   -1    0    0  501    0  0.00000000000E+00  0.00000000000E+00  0.28987745332E+04  0.28987745332E+04  0.25500000920E-02 0.  1.
       -2   -1    0    0    0  501  0.00000000000E+00  0.00000000000E+00 -0.10919504069E+04  0.10919504069E+04  0.25500000920E-02 0. -1.
    10030    2    1    2    0    0  0.00000000000E+00  0.00000000000E+00  0.18068241263E+04  0.39907249402E+04  0.35582681356E+04 0.  0.
        1    1    3    3  502    0  0.92749479795E+03 -0.28521751696E+03  0.25758630879E+04  0.27525744822E+04  0.50400001928E-02 0.  1.
       -1    1    3    3    0  502 -0.92749479795E+03  0.28521751696E+03 -0.76903896161E+03  0.12381504580E+04  0.50400001928E-02 0. -1.
</event>
<event>
 5   0  0.1686284E-07  0.3704400E+04  0.7818609E-02  0.8066987E-01
        2   -1    0    0  501    0  0.00000000000E+00  0.00000000000E+00  0.14817149748E+04  0.14817149748E+04  0.25500000920E-02 0. -1.
       -2   -1    0    0    0  501  0.00000000000E+00  0.00000000000E+00 -0.23153201194E+04  0.23153201194E+04  0.25500000920E-02 0.  1.
    10030    2    1    2    0    0  0.00000000000E+00  0.00000000000E+00 -0.83360514456E+03  0.37970350942E+04  0.37043998123E+04 0.  0.
        5    1    3    3  502    0  0.88562100207E+02  0.11490908930E+04  0.10694111205E+04  0.15722326038E+04  0.46999998093E+01 0. -1.
       -5    1    3    3    0  502 -0.88562100207E+02 -0.11490908930E+04 -0.19030162651E+04  0.22248024903E+04  0.46999998093E+01 0.  1.
</event>
<event>
 5   0  0.1658770E-07  0.3693562E+04  0.7818609E-02  0.8069390E-01
        2   -1    0    0  501    0  0.00000000000E+00  0.00000000000E+00  0.29427876414E+04  0.29427876414E+04  0.25500000920E-02 0. -1.
       -2   -1    0    0    0  501  0.00000000000E+00  0.00000000000E+00 -0.11589689178E+04  0.11589689178E+04  0.25500000920E-02 0.  1.
    10030    2    1    2    0    0  0.00000000000E+00  0.00000000000E+00  0.17838187236E+04  0.41017565591E+04  0.36935616459E+04 0.  0.
        2    1    3    3  502    0  0.23718764440E+03  0.17815539255E+04  0.42022522629E+03  0.18457468973E+04  0.25500000920E-02 0.  1.
       -2    1    3    3    0  502 -0.23718764440E+03 -0.17815539255E+04  0.13635934973E+04  0.22560096618E+04  0.25500000920E-02 0. -1.
</event>
<event>
 5   0  0.5177000E-08  0.3629824E+04  0.7818609E-02  0.8083694E-01
       -1   -1    0    0    0  501  0.00000000000E+00  0.00000000000E+00  0.12357840572E+04  0.12357840572E+04  0.50400001928E-02 0. -1.
        1   -1    0    0  501    0  0.00000000000E+00  0.00000000000E+00 -0.26654380701E+04  0.26654380701E+04  0.50400001928E-02 0.  1.
    10030    2    1    2    0    0  0.00000000000E+00  0.00000000000E+00 -0.14296540129E+04  0.39012221274E+04  0.36298241680E+04 0.  0.
        3    1    3    3  502    0 -0.10045182094E+04  0.44740053703E+03  0.83697024101E+03  0.13819346106E+04  0.10100000352E+00 0. -1.
       -3    1    3    3    0  502  0.10045182094E+04 -0.44740053703E+03 -0.22666242539E+04  0.25192875168E+04  0.10100000352E+00 0.  1.
</event>
<event>
 5   0  0.1658770E-07  0.3726758E+04  0.7818609E-02  0.8062058E-01
       -2   -1    0    0    0  501  0.00000000000E+00  0.00000000000E+00  0.16236913305E+04  0.16236913305E+04  0.25500000920E-02 0. -1.
        2   -1    0    0  501    0  0.00000000000E+00  0.00000000000E+00 -0.21384486914E+04  0.21384486914E+04  0.25500000920E-02 0.  1.
    10030    2    1    2    0    0  0.00000000000E+00  0.00000000000E+00 -0.51475736082E+03  0.37621400219E+04  0.37267576261E+04 0.  0.
        2    1    3    3  502    0 -0.12783684445E+04  0.97647218710E+03 -0.12067631356E+04  0.20109701831E+04  0.25500000920E-02 0.  1.
       -2    1    3    3    0  502  0.12783684445E+04 -0.97647218710E+03  0.69200577476E+03  0.17511698388E+04  0.25500000920E-02 0. -1.
</event>
<event>
 5   0  0.5177000E-08  0.3699537E+04  0.7818609E-02  0.8068065E-01
       -1   -1    0    0    0  501  0.00000000000E+00  0.00000000000E+00  0.14047377759E+04  0.14047377759E+04  0.50400001928E-02 0. -1.
        1   -1    0    0  501    0  0.00000000000E+00  0.00000000000E+00 -0.24357876780E+04  0.24357876780E+04  0.50400001928E-02 0.  1.
    10030    2    1    2    0    0  0.00000000000E+00  0.00000000000E+00 -0.10310499020E+04  0.38405254539E+04  0.36995367091E+04 0.  0.
        1    1    3    3  502    0  0.38131194268E+03  0.18071844739E+04 -0.62102697245E+03  0.19485864160E+04  0.50400001928E-02 0. -1.
       -1    1    3    3    0  502 -0.38131194268E+03 -0.18071844739E+04 -0.41002292958E+03  0.18919390379E+04  0.50400001928E-02 0.  1.
</event>
<event>
 5   0  0.5181371E-08  0.3705511E+04  0.7818609E-02  0.8066742E-01
       -1   -1    0    0    0  501  0.00000000000E+00  0.00000000000E+00  0.15837848446E+04  0.15837848446E+04  0.50400001928E-02 0.  1.
        1   -1    0    0  501    0  0.00000000000E+00  0.00000000000E+00 -0.21674043868E+04  0.21674043868E+04  0.50400001928E-02 0. -1.
    10030    2    1    2    0    0  0.00000000000E+00  0.00000000000E+00 -0.58361954217E+03  0.37511892315E+04  0.37055106099E+04 0.  0.
        5    1    3    3  502    0  0.12084660502E+04 -0.13920933980E+04 -0.10414410870E+03  0.18463971156E+04  0.46999998093E+01 0.  1.
       -5    1    3    3    0  502 -0.12084660502E+04  0.13920933980E+04 -0.47947543347E+03  0.19047921158E+04  0.46999998093E+01 0. -1.
</event>
<event>
 5   0  0.1666189E-07  0.3606187E+04  0.7818609E-02  0.8089076E-01
       -2   -1    0    0    0  501  0.00000000000E+00  0.00000000000E+00  0.16053362850E+04  0.16053362850E+04  0.25500000920E-02 0. -1.
        2   -1    0    0  501    0  0.00000000000E+00  0.00000000000E+00 -0.20252117074E+04  0.20252117074E+04  0.25500000920E-02 0.  1.
    10030    2    1    2    0    0  0.00000000000E+00  0.00000000000E+00 -0.41987542234E+03  0.36305479924E+04  0.36061868164E+04 0.  0.
        4    1    3    3  502    0  0.13437187915E+04  0.11967284273E+04 -0.32650027612E+03  0.18287545386E+04  0.12699999809E+01 0.  1.
       -4    1    3    3    0  502 -0.13437187915E+04 -0.11967284273E+04 -0.93375146227E+02  0.18017934538E+04  0.12699999809E+01 0. -1.
</event>
<event>
 5   0  0.5177000E-08  0.3720722E+04  0.7818609E-02  0.8063385E-01
        1   -1    0    0  501    0  0.00000000000E+00  0.00000000000E+00  0.26587251325E+04  0.26587251325E+04  0.50400001928E-02 0.  1.
       -1   -1    0    0    0  501  0.00000000000E+00  0.00000000000E+00 -0.13017304188E+04  0.13017304188E+04  0.50400001928E-02 0. -1.
    10030    2    1    2    0    0  0.00000000000E+00  0.00000000000E+00  0.13569947138E+04  0.39604555513E+04  0.37207221773E+04 0.  0.
        3    1    3    3  502    0  0.56593722463E+03  0.13511917806E+04 -0.54209525474E+03  0.15620087854E+04  0.10100000352E+00 0. -1.
       -3    1    3    3    0  502 -0.56593722463E+03 -0.13511917806E+04  0.18990899685E+04  0.23984467659E+04  0.10100000352E+00 0.  1.
</event>
<event>
 5   0  0.5177000E-08  0.3702160E+04  0.7818609E-02  0.8067483E-01
        1   -1    0    0  501    0  0.00000000000E+00  0.00000000000E+00  0.26601741195E+04  0.26601741195E+04  0.50400001928E-02 0. -1.
       -1   -1    0    0    0  501  0.00000000000E+00  0.00000000000E+00 -0.12880722863E+04  0.12880722863E+04  0.50400001928E-02 0.  1.
    10030    2    1    2    0    0  0.00000000000E+00  0.00000000000E+00  0.13721018332E+04  0.39482464058E+04  0.37021596724E+04 0.  0.
        1    1    3    3  502    0  0.14873359073E+04  0.57297087391E+03  0.16899129090E+04  0.23229871639E+04  0.50400001928E-02 0. -1.
       -1    1    3    3    0  502 -0.14873359073E+04 -0.57297087391E+03 -0.31781107581E+03  0.16252592419E+04  0.50400001928E-02 0.  1.
</event>
<event>
 5   0  0.5177000E-08  0.3734663E+04  0.7818609E-02  0.8060323E-01
       -1   -1    0    0    0  501  0.00000000000E+00  0.00000000000E+00  0.18217448941E+04  0.18217448941E+04  0.50400001928E-02 0. -1.
        1   -1    0    0  501    0  0.00000000000E+00  0.00000000000E+00 -0.19140589414E+04  0.19140589414E+04  0.50400001928E-02 0.  1.
    10030    2    1    2    0    0  0.00000000000E+00  0.00000000000E+00 -0.92314047370E+02  0.37358038355E+04  0.37346630924E+04 0.  0.
        2    1    3    3  502    0  0.82521094338E+03 -0.86673078445E+03 -0.14800284148E+04  0.19033337759E+04  0.25500000920E-02 0.  1.
       -2    1    3    3    0  502 -0.82521094338E+03  0.86673078445E+03  0.13877143674E+04  0.18324700596E+04  0.25500000920E-02 0. -1.
</event>
<event>
 5   0  0.5177000E-08  0.3686048E+04  0.7818609E-02  0.8071061E-01
       -1   -1    0    0    0  501  0.00000000000E+00  0.00000000000E+00  0.15110693124E+04  0.15110693124E+04  0.50400001928E-02 0. -1.
        1   -1    0    0  501    0  0.00000000000E+00  0.00000000000E+00 -0.22479027059E+04  0.22479027059E+04  0.50400001928E-02 0.  1.
    10030    2    1    2    0    0  0.00000000000E+00  0.00000000000E+00 -0.73683339353E+03  0.37589720183E+04  0.36860476373E+04 0.  0.
        4    1    3    3  502    0  0.14254295911E+03 -0.97191595837E+03  0.12218564455E+04  0.15677607954E+04  0.12699999809E+01 0. -1.
       -4    1    3    3    0  502 -0.14254295911E+03  0.97191595837E+03 -0.19586898390E+04  0.21912112229E+04  0.12699999809E+01 0.  1.
</event>
<event>
 5   0  0.5177000E-08  0.3626166E+04  0.7818609E-02  0.8084524E-01
        3   -1    0    0  501    0  0.00000000000E+00  0.00000000000E+00  0.19453616571E+04  0.19453616597E+04  0.10100000352E+00 0.  1.
       -3   -1    0    0    0  501  0.00000000000E+00  0.00000000000E+00 -0.16897987250E+04  0.16897987280E+04  0.10100000352E+00 0. -1.
    10030    2    1    2    0    0  0.00000000000E+00  0.00000000000E+00  0.25556293204E+03  0.36351603877E+04  0.36261658308E+04 0.  0.
        1    1    3    3  502    0  0.42366015811E+03 -0.16524864741E+04 -0.48780209120E+03  0.17743027805E+04  0.50400001928E-02 0.  1.
       -1    1    3    3    0  502 -0.42366015811E+03  0.16524864741E+04  0.74336502324E+03  0.18608576072E+04  0.50400001928E-02 0. -1.
</event>
<event>
 5   0  0.1558258E-07  0.3650195E+04  0.7818609E-02  0.8079090E-01
       -2   -1    0    0    0  501  0.00000000000E+00  0.00000000000E+00  0.14903120251E+04  0.14903120251E+04  0.25500000920E-02 0.  1.
        2   -1    0    0  501    0  0.00000000000E+00  0.00000000000E+00 -0.22350894919E+04  0.22350894919E+04  0.25500000920E-02 0. -1.
    10030    2    1    2    0    0  0.00000000000E+00  0.00000000000E+00 -0.74477746681E+03  0.37254015170E+04  0.36501949246E+04 0.  0.
        1    1    3    3  502    0  0.51590270189E+03 -0.14978806699E+04  0.55247096347E+03  0.16778040006E+04  0.50400001928E-02 0.  1.
       -1    1    3    3    0  502 -0.51590270189E+03  0.14978806699E+04 -0.12972484303E+04  0.20475975163E+04  0.50400001928E-02 0. -1.
</event>
<event>
 5   0  0.5177000E-08  0.3701821E+04  0.7818609E-02  0.8067558E-01
        1   -1    0    0  501    0  0.00000000000E+00  0.00000000000E+00  0.11738413283E+04  0.11738413283E+04  0.50400001928E-02 0. -1.
       -1   -1    0    0    0  501  0.00000000000E+00  0.00000000000E+00 -0.29185117328E+04  0.29185117328E+04  0.50400001928E-02 0.  1.
    10030    2    1    2    0    0  0.00000000000E+00  0.00000000000E+00 -0.17446704045E+04  0.40923530610E+04  0.37018210054E+04 0.  0.
        2    1    3    3  502    0  0.80369203951E+03 -0.24645886460E+03 -0.26953021725E+04  0.28233520269E+04  0.25500000920E-02 0.  1.
       -2    1    3    3    0  502 -0.80369203951E+03  0.24645886460E+03  0.95063176804E+03  0.12690010342E+04  0.25500000920E-02 0. -1.
</event>
<event>
 5   0  0.1587026E-07  0.3702074E+04  0.7818609E-02  0.8067502E-01
        2   -1    0    0  501    0  0.00000000000E+00  0.00000000000E+00  0.28957315510E+04  0.28957315510E+04  0.25500000920E-02 0.  1.
       -2   -1    0    0    0  501  0.00000000000E+00  0.00000000000E+00 -0.11832374393E+04  0.11832374393E+04  0.25500000920E-02 0. -1.
    10030    2    1    2    0    0  0.00000000000E+00  0.00000000000E+00  0.17124941117E+04  0.40789689903E+04  0.37020740054E+04 0.  0.
        3    1    3    3  502    0 -0.11801361442E+04  0.41622269403E+03  0.23590623038E+04  0.26704189958E+04  0.10100000352E+00 0.  1.
       -3    1    3    3    0  502  0.11801361442E+04 -0.41622269403E+03 -0.64656819207E+03  0.14085499945E+04  0.10100000352E+00 0. -1.
</event>
<event>
 5   0  0.5177000E-08  0.3737264E+04  0.7818609E-02  0.8059753E-01
       -1   -1    0    0    0  501  0.00000000000E+00  0.00000000000E+00  0.12515793162E+04  0.12515793162E+04  0.50400001928E-02 0. -1.
        1   -1    0    0  501    0  0.00000000000E+00  0.00000000000E+00 -0.27899040470E+04  0.27899040470E+04  0.50400001928E-02 0.  1.
    10030    2    1    2    0    0  0.00000000000E+00  0.00000000000E+00 -0.15383247309E+04  0.40414833632E+04  0.37372643467E+04 0.  0.
        4    1    3    3  502    0 -0.14119296605E+04 -0.23111257820E+03 -0.20690169830E+04  0.25155101428E+04  0.12699999809E+01 0.  1.
       -4    1    3    3    0  502  0.14119296605E+04  0.23111257820E+03  0.53069225213E+03  0.15259732204E+04  0.12699999809E+01 0. -1.
</event>
<event>
 5   0  0.1558258E-07  0.3808607E+04  0.7818609E-02  0.8044310E-01
       -2   -1    0    0    0  501  0.00000000000E+00  0.00000000000E+00  0.19618316776E+04  0.19618316776E+04  0.25500000920E-02 0.  1.
        2   -1    0    0  501    0  0.00000000000E+00  0.00000000000E+00 -0.18484619101E+04  0.18484619101E+04  0.25500000920E-02 0. -1.
    10030    2    1    2    0    0  0.00000000000E+00  0.00000000000E+00  0.11336976751E+03  0.38102935877E+04  0.38086066377E+04 0.  0.
        1    1    3    3  502    0  0.11311303195E+04  0.10826559393E+04 -0.10276639362E+04  0.18728835651E+04  0.50400001928E-02 0. -1.
       -1    1    3    3    0  502 -0.11311303195E+04 -0.10826559393E+04  0.11410337037E+04  0.19374100226E+04  0.50400001928E-02 0.  1.
</event>
<event>
 5   0  0.5177000E-08  0.3649133E+04  0.7818609E-02  0.8079329E-01
        1   -1    0    0  501    0  0.00000000000E+00  0.00000000000E+00  0.22393482171E+04  0.22393482171E+04  0.50400001928E-02 0. -1.
       -1   -1    0    0    0  501  0.00000000000E+00  0.00000000000E+00 -0.14866120604E+04  0.14866120604E+04  0.50400001928E-02 0.  1.
    10030    2    1    2    0    0  0.00000000000E+00  0.00000000000E+00  0.75273615669E+03  0.37259602775E+04  0.36491325364E+04 0.  0.
        3    1    3    3  502    0 -0.59079580003E+03  0.14932050548E+04  0.12608275455E+04  0.20416628327E+04  0.10100000352E+00 0.  1.
       -3    1    3    3    0  502  0.59079580003E+03 -0.14932050548E+04 -0.50809138878E+03  0.16842974448E+04  0.10100000352E+00 0. -1.
</event>
<event>
 5   0  0.1666189E-07  0.3777652E+04  0.7818609E-02  0.8050968E-01
       -2   -1    0    0    0  501  0.00000000000E+00  0.00000000000E+00  0.23059412768E+04  0.23059412768E+04  0.25500000920E-02 0.  1.
        2   -1    0    0  501    0  0.00000000000E+00  0.00000000000E+00 -0.15471614981E+04  0.15471614981E+04  0.25500000920E-02 0. -1.
    10030    2    1    2    0    0  0.00000000000E+00  0.00000000000E+00  0.75877977872E+03  0.38531027750E+04  0.37776519482E+04 0.  0.
        4    1    3    3  502    0  0.56244733307E+03 -0.58115140853E+03  0.21204027322E+04  0.22694037371E+04  0.12699999809E+01 0.  1.
       -4    1    3    3    0  502 -0.56244733307E+03  0.58115140853E+03 -0.13616229535E+04  0.15836990379E+04  0.12699999809E+01 0. -1.
</event>
<event>
 5   0  0.1666189E-07  0.3715539E+04  0.7818609E-02  0.8064527E-01
        2   -1    0    0  501    0  0.00000000000E+00  0.00000000000E+00  0.20271908139E+04  0.20271908139E+04  0.25500000920E-02 0.  1.
       -2   -1    0    0    0  501  0.00000000000E+00  0.00000000000E+00 -0.17025078296E+04  0.17025078296E+04  0.25500000920E-02 0. -1.
    10030    2    1    2    0    0  0.00000000000E+00  0.00000000000E+00  0.32468298438E+03  0.37296986435E+04  0.37155393863E+04 0.  0.
        4    1    3    3  502    0  0.54462064642E+03 -0.26032064030E+03 -0.16013195946E+04  0.17113166104E+04  0.12699999809E+01 0. -1.
       -4    1    3    3    0  502 -0.54462064642E+03  0.26032064030E+03  0.19260025790E+04  0.20183820331E+04  0.12699999809E+01 0.  1.
</event>
<event>
 5   0  0.1686284E-07  0.3630530E+04  0.7818609E-02  0.8083534E-01
       -2   -1    0    0    0  501  0.00000000000E+00  0.00000000000E+00  0.15620809832E+04  0.15620809832E+04  0.25500000920E-02 0. -1.
        2   -1    0    0  501    0  0.00000000000E+00  0.00000000000E+00 -0.21094849013E+04  0.21094849013E+04  0.25500000920E-02 0.  1.
    10030    2    1    2    0    0  0.00000000000E+00  0.00000000000E+00 -0.54740391810E+03  0.36715658844E+04  0.36305295749E+04 0.  0.
        5    1    3    3  502    0  0.74255808132E+03  0.46149570848E+03  0.13351263166E+04  0.15959182825E+04  0.46999998093E+01 0. -1.
       -5    1    3    3    0  502 -0.74255808132E+03 -0.46149570848E+03 -0.18825302347E+04  0.20756476020E+04  0.46999998093E+01 0.  1.
</event>
<event>
 5   0  0.1658770E-07  0.3695229E+04  0.7818609E-02  0.8069020E-01
        2   -1    0    0  501    0  0.00000000000E+00  0.00000000000E+00  0.18159320046E+04  0.18159320046E+04  0.25500000920E-02 0. -1.
       -2   -1    0    0    0  501  0.00000000000E+00  0.00000000000E+00 -0.18798499075E+04  0.18798499075E+04  0.25500000920E-02 0.  1.
    10030    2    1    2    0    0  0.00000000000E+00  0.00000000000E+00 -0.63917902870E+02  0.36957819120E+04  0.36952291462E+04 0.  0.
        2    1    3    3  502    0  0.13316153409E+04  0.11630480240E+04 -0.56850866791E+03  0.18571704897E+04  0.25500000920E-02 0. -1.
       -2    1    3    3    0  502 -0.13316153409E+04 -0.11630480240E+04  0.50459076505E+03  0.18386114224E+04  0.25500000920E-02 0.  1.
</event>
<event>
 5   0  0.1587026E-07  0.3704987E+04  0.7818609E-02  0.8066858E-01
        2   -1    0    0  501    0  0.00000000000E+00  0.00000000000E+00  0.24603263703E+04  0.24603263703E+04  0.25500000920E-02 0.  1.
       -2   -1    0    0    0  501  0.00000000000E+00  0.00000000000E+00 -0.13948277698E+04  0.13948277698E+04  0.25500000920E-02 0. -1.
    10030    2    1    2    0    0  0.00000000000E+00  0.00000000000E+00  0.10654986005E+04  0.38551541401E+04  0.37049866634E+04 0.  0.
        3    1    3    3  502    0  0.24881734854E+03 -0.16093544030E+04 -0.38610505110E+03  0.16736214590E+04  0.10100000352E+00 0. -1.
       -3    1    3    3    0  502 -0.24881734854E+03  0.16093544030E+04  0.14516036516E+04  0.21815326811E+04  0.10100000352E+00 0.  1.
</event>
<event>
 5   0  0.1587026E-07  0.3696693E+04  0.7818609E-02  0.8068695E-01
        2   -1    0    0  501    0  0.00000000000E+00  0.00000000000E+00  0.17158006829E+04  0.17158006829E+04  0.25500000920E-02 0.  1.
       -2   -1    0    0    0  501  0.00000000000E+00  0.00000000000E+00 -0.19911312610E+04  0.19911312610E+04  0.25500000920E-02 0. -1.
    10030    2    1    2    0    0  0.00000000000E+00  0.00000000000E+00 -0.27533057808E+03  0.37069319439E+04  0.36966927800E+04 0.  0.
        3    1    3    3  502    0  0.15295956564E+04 -0.42258032675E+03  0.81266605397E+03  0.17828805709E+04  0.10100000352E+00 0.  1.
       -3    1    3    3    0  502 -0.15295956564E+04  0.42258032675E+03 -0.10879966321E+04  0.19240513730E+04  0.10100000352E+00 0. -1.
</event>
<event>
 5   0  0.1658770E-07  0.3485307E+04  0.7818609E-02  0.8117281E-01
        2   -1    0    0  501    0  0.00000000000E+00  0.00000000000E+00  0.14292817728E+04  0.14292817728E+04  0.25500000920E-02 0.  1.
       -2   -1    0    0    0  501  0.00000000000E+00  0.00000000000E+00 -0.21247320202E+04  0.21247320202E+04  0.25500000920E-02 0. -1.
    10030    2    1    2    0    0  0.00000000000E+00  0.00000000000E+00 -0.69545024744E+03  0.35540137930E+04  0.34853067289E+04 0.  0.
        2    1    3    3  502    0  0.16157019852E+04 -0.55574269511E+01 -0.10135260710E+04  0.19072909811E+04  0.25500000920E-02 0. -1.
       -2    1    3    3    0  502 -0.16157019852E+04  0.55574269511E+01  0.31807582356E+03  0.16467228119E+04  0.25500000920E-02 0.  1.
</event>
<event>
 5   0  0.1686284E-07  0.3704941E+04  0.7818609E-02  0.8066868E-01
        2   -1    0    0  501    0  0.00000000000E+00  0.00000000000E+00  0.21940810168E+04  0.21940810168E+04  0.25500000920E-02 0.  1.
       -2   -1    0    0    0  501  0.00000000000E+00  0.00000000000E+00 -0.15640473784E+04  0.15640473784E+04  0.25500000920E-02 0. -1.
    10030    2    1    2    0    0  0.00000000000E+00  0.00000000000E+00  0.63003363843E+03  0.37581283952E+04  0.37049408429E+04 0.  0.
        5    1    3    3  502    0 -0.10371355205E+04  0.12057545993E+04 -0.64842385646E+03  0.17175476206E+04  0.46999998093E+01 0. -1.
       -5    1    3    3    0  502  0.10371355205E+04 -0.12057545993E+04  0.12784574949E+04  0.20405807746E+04  0.46999998093E+01 0.  1.
</event>
<event>
 5   0  0.1587026E-07  0.3700625E+04  0.7818609E-02  0.8067823E-01
        2   -1    0    0  501    0  0.00000000000E+00  0.00000000000E+00  0.26345009538E+04  0.26345009538E+04  0.25500000920E-02 0.  1.
       -2   -1    0    0    0  501  0.00000000000E+00  0.00000000000E+00 -0.12995462074E+04  0.12995462074E+04  0.25500000920E-02 0. -1.
    10030    2    1    2    0    0  0.00000000000E+00  0.00000000000E+00  0.13349547463E+04  0.39340471612E+04  0.37006246624E+04 0.  0.
        3    1    3    3  502    0 -0.13731507334E+04  0.45744800269E+03  0.18929487547E+04  0.23828673085E+04  0.10100000352E+00 0.  1.
       -3    1    3    3    0  502  0.13731507334E+04 -0.45744800269E+03 -0.55799400838E+03  0.15511798527E+04  0.10100000352E+00 0. -1.
</event>
<event>
 5   0  0.5177000E-08  0.3710798E+04  0.7818609E-02  0.8065573E-01
       -1   -1    0    0    0  501  0.00000000000E+00  0.00000000000E+00  0.13004146796E+04  0.13004146796E+04  0.50400001928E-02 0. -1.
        1   -1    0    0  501    0  0.00000000000E+00  0.00000000000E+00 -0.26472370988E+04  0.26472370988E+04  0.50400001928E-02 0.  1.
    10030    2    1    2    0    0  0.00000000000E+00  0.00000000000E+00 -0.13468224192E+04  0.39476517784E+04  0.37107982880E+04 0.  0.
        1    1    3    3  502    0 -0.13124852199E+04 -0.13099281930E+04 -0.74049703103E+03  0.19967135939E+04  0.50400001928E-02 0. -1.
       -1    1    3    3    0  502  0.13124852199E+04  0.13099281930E+04 -0.60632538822E+03  0.19509381845E+04  0.50400001928E-02 0.  1.
</event>
<event>
 5   0  0.1558258E-07  0.3728257E+04  0.7818609E-02  0.8061728E-01
       -2   -1    0    0    0  501  0.00000000000E+00  0.00000000000E+00  0.14888992587E+04  0.14888992587E+04  0.25500000920E-02 0. -1.
        2   -1    0    0  501    0  0.00000000000E+00  0.00000000000E+00 -0.23339222914E+04  0.23339222914E+04  0.25500000920E-02 0.  1.
    10030    2    1    2    0    0  0.00000000000E+00  0.00000000000E+00 -0.84502303274E+03  0.38228215501E+04  0.37282570563E+04 0.  0.
        1    1    3    3  502    0 -0.85407540009E+03 -0.14275479004E+04  0.44003704997E+03  0.17207470478E+04  0.50400001928E-02 0. -1.
       -1    1    3    3    0  502  0.85407540009E+03  0.14275479004E+04 -0.12850600827E+04  0.21020745023E+04  0.50400001928E-02 0.  1.
</event>
<event>
 5   0  0.1658770E-07  0.3692192E+04  0.7818609E-02  0.8069694E-01
       -2   -1    0    0    0  501  0.00000000000E+00  0.00000000000E+00  0.17491851759E+04  0.17491851759E+04  0.25500000920E-02 0.  1.
        2   -1    0    0  501    0  0.00000000000E+00  0.00000000000E+00 -0.19483761904E+04  0.19483761904E+04  0.25500000920E-02 0. -1.
    10030    2    1    2    0    0  0.00000000000E+00  0.00000000000E+00 -0.19919101445E+03  0.36975613663E+04  0.36921921669E+04 0.  0.
        2    1    3    3  502    0  0.14539803262E+04  0.10519840343E+04  0.33386361840E+03  0.18254298434E+04  0.25500000920E-02 0.  1.
       -2    1    3    3    0  502 -0.14539803262E+04 -0.10519840343E+04 -0.53305463286E+03  0.18721315229E+04  0.25500000920E-02 0. -1.
</event>
<event>
 5   0  0.5177000E-08  0.3533577E+04  0.7818609E-02  0.8105878E-01
       -1   -1    0    0    0  501  0.00000000000E+00  0.00000000000E+00  0.27455438205E+04  0.27455438205E+04  0.50400001928E-02 0. -1.
        1   -1    0    0  501    0  0.00000000000E+00  0.00000000000E+00 -0.11369486220E+04  0.11369486220E+04  0.50400001928E-02 0.  1.
    10030    2    1    2    0    0  0.00000000000E+00  0.00000000000E+00  0.16085951985E+04  0.38824924424E+04  0.35335773733E+04 0.  0.
        2    1    3    3  502    0 -0.29347274874E+03 -0.52553615595E+03 -0.10208155283E+04  0.11850649131E+04  0.25500000920E-02 0.  1.
       -2    1    3    3    0  502  0.29347274874E+03  0.52553615595E+03  0.26294107268E+04  0.26974275293E+04  0.25500000920E-02 0. -1.
</event>
<event>
 5   0  0.1686284E-07  0.3692069E+04  0.7818609E-02  0.8069722E-01
        2   -1    0    0  501    0  0.00000000000E+00  0.00000000000E+00  0.17464668399E+04  0.17464668399E+04  0.25500000920E-02 0.  1.
       -2   -1    0    0    0  501  0.00000000000E+00  0.00000000000E+00 -0.19512788190E+04  0.19512788190E+04  0.25500000920E-02 0. -1.
    10030    2    1    2    0    0  0.00000000000E+00  0.00000000000E+00 -0.20481197910E+03  0.36977456588E+04  0.36920692045E+04 0.  0.
        5    1    3    3  502    0 -0.14582426453E+03  0.11856114628E+04 -0.15120081292E+04  0.19269483464E+04  0.46999998093E+01 0. -1.
       -5    1    3    3    0  502  0.14582426453E+03 -0.11856114628E+04  0.13071961501E+04  0.17707973124E+04  0.46999998093E+01 0.  1.
</event>
<event>
 5   0  0.5177000E-08  0.3709949E+04  0.7818609E-02  0.8065761E-01
        1   -1    0    0  501    0  0.00000000000E+00  0.00000000000E+00  0.16372283237E+04  0.16372283237E+04  0.50400001928E-02 0.  1.
       -1   -1    0    0    0  501  0.00000000000E+00  0.00000000000E+00 -0.21016797633E+04  0.21016797633E+04  0.50400001928E-02 0. -1.
    10030    2    1    2    0    0  0.00000000000E+00  0.00000000000E+00 -0.46445143968E+03  0.37389080870E+04  0.37099485904E+04 0.  0.
        3    1    3    3  502    0 -0.33519068705E+03 -0.83293000114E+03  0.14036529551E+04  0.16662433231E+04  0.10100000352E+00 0.  1.
       -3    1    3    3    0  502  0.33519068705E+03  0.83293000114E+03 -0.18681043947E+04  0.20726647639E+04  0.10100000352E+00 0. -1.
</event>
<event>
 5   0  0.5177000E-08  0.3694632E+04  0.7818609E-02  0.8069152E-01
        1   -1    0    0  501    0  0.00000000000E+00  0.00000000000E+00  0.24987107559E+04  0.24987107559E+04  0.50400001928E-02 0. -1.
       -1   -1    0    0    0  501  0.00000000000E+00  0.00000000000E+00 -0.13657350226E+04  0.13657350226E+04  0.50400001928E-02 0.  1.
    10030    2    1    2    0    0  0.00000000000E+00  0.00000000000E+00  0.11329757333E+04  0.38644457785E+04  0.36946322094E+04 0.  0.
        3    1    3    3  502    0 -0.11466436616E+04  0.50991836770E+03  0.19844394120E+04  0.23479370133E+04  0.10100000352E+00 0. -1.
       -3    1    3    3    0  502  0.11466436616E+04 -0.50991836770E+03 -0.85146367870E+03  0.15165087652E+04  0.10100000352E+00 0.  1.
</event>
<event>
 5   0  0.5177000E-08  0.3692742E+04  0.7818609E-02  0.8069572E-01
       -1   -1    0    0    0  501  0.00000000000E+00  0.00000000000E+00  0.17127750011E+04  0.17127750011E+04  0.50400001928E-02 0. -1.
        1   -1    0    0  501    0  0.00000000000E+00  0.00000000000E+00 -0.19903874505E+04  0.19903874505E+04  0.50400001928E-02 0.  1.
    10030    2    1    2    0    0  0.00000000000E+00  0.00000000000E+00 -0.27761244940E+03  0.37031624516E+04  0.36927419990E+04 0.  0.
        4    1    3    3  502    0  0.12845453061E+04 -0.10400838561E+04  0.68646998541E+03  0.17897133080E+04  0.12699999809E+01 0. -1.
       -4    1    3    3    0  502 -0.12845453061E+04  0.10400838561E+04 -0.96408243481E+03  0.19134491436E+04  0.12699999809E+01 0.  1.
</event>
<event>
 5   0  0.1666189E-07  0.3690347E+04  0.7818609E-02  0.8070104E-01
       -2   -1    0    0    0  501  0.00000000000E+00  0.00000000000E+00  0.13094394342E+04  0.13094394342E+04  0.25500000920E-02 0.  1.
        2   -1    0    0  501    0  0.00000000000E+00  0.00000000000E+00 -0.26000943538E+04  0.26000943538E+04  0.25500000920E-02 0. -1.
    10030    2    1    2    0    0  0.00000000000E+00  0.00000000000E+00 -0.12906549197E+04  0.39095337880E+04  0.36903474522E+04 0.  0.
        4    1    3    3  502    0  0.36974950976E+03  0.15617220445E+04 -0.16098850744E+04  0.22731964301E+04  0.12699999809E+01 0. -1.
       -4    1    3    3    0  502 -0.36974950976E+03 -0.15617220445E+04  0.31923015476E+03  0.16363373579E+04  0.12699999809E+01 0.  1.
</event>
<event>
 5   0  0.1658770E-07  0.3738483E+04  0.7818609E-02  0.8059487E-01
       -2   -1    0    0    0  501  0.00000000000E+00  0.00000000000E+00  0.11789476664E+04  0.11789476664E+04  0.25500000920E-02 0.  1.
        2   -1    0    0  501    0  0.00000000000E+00  0.00000000000E+00 -0.29637141605E+04  0.29637141605E+04  0.25500000920E-02 0. -1.
    10030    2    1    2    0    0  0.00000000000E+00  0.00000000000E+00 -0.17847664942E+04  0.41426618269E+04  0.37384830578E+04 0.  0.
        2    1    3    3  502    0  0.69707450601E+03 -0.17336109913E+04 -0.83433718766E+03  0.20463231609E+04  0.25500000920E-02 0.  1.
       -2    1    3    3    0  502 -0.69707450601E+03  0.17336109913E+04 -0.95042930652E+03  0.20963386660E+04  0.25500000920E-02 0. -1.
</event>
<event>
 5   0  0.1666189E-07  0.3699348E+04  0.7818609E-02  0.8068106E-01
        2   -1    0    0  501    0  0.00000000000E+00  0.00000000000E+00  0.20590562730E+04  0.20590562730E+04  0.25500000920E-02 0. -1.
       -2   -1    0    0    0  501  0.00000000000E+00  0.00000000000E+00 -0.16615830494E+04  0.16615830494E+04  0.25500000920E-02 0.  1.
    10030    2    1    2    0    0  0.00000000000E+00  0.00000000000E+00  0.39747322358E+03  0.37206393225E+04  0.36993475106E+04 0.  0.
        4    1    3    3  502    0  0.39136885321E+01  0.15313899829E+04 -0.84459640907E+03  0.17488611448E+04  0.12699999809E+01 0.  1.
       -4    1    3    3    0  502 -0.39136885321E+01 -0.15313899829E+04  0.12420696326E+04  0.19717781777E+04  0.12699999809E+01 0. -1.
</event>
<event>
 5   0  0.1558258E-07  0.3644463E+04  0.7818609E-02  0.8080382E-01
       -2   -1    0    0    0  501  0.00000000000E+00  0.00000000000E+00  0.25670251906E+04  0.25670251906E+04  0.25500000920E-02 0. -1.
        2   -1    0    0  501    0  0.00000000000E+00  0.00000000000E+00 -0.12935310779E+04  0.12935310779E+04  0.25500000920E-02 0.  1.
    10030    2    1    2    0    0  0.00000000000E+00  0.00000000000E+00  0.12734941126E+04  0.38605562685E+04  0.36444625732E+04 0.  0.
        1    1    3    3  502    0  0.34624647361E+03 -0.36468231668E+03 -0.12185740586E+04  0.13182573910E+04  0.50400001928E-02 0.  1.
       -1    1    3    3    0  502 -0.34624647361E+03  0.36468231668E+03  0.24920681712E+04  0.25422988775E+04  0.50400001928E-02 0. -1.
</event>
<event>
 5   0  0.1587026E-07  0.3736835E+04  0.7818609E-02  0.8059847E-01
        2   -1    0    0  501    0  0.00000000000E+00  0.00000000000E+00  0.17598661265E+04  0.17598661265E+04  0.25500000920E-02 0. -1.
       -2   -1    0    0    0  501  0.00000000000E+00  0.00000000000E+00 -0.19836645175E+04  0.19836645175E+04  0.25500000920E-02 0.  1.
    10030    2    1    2    0    0  0.00000000000E+00  0.00000000000E+00 -0.22379839101E+03  0.37435306439E+04  0.37368350194E+04 0.  0.
        3    1    3    3  502    0 -0.15494190144E+04  0.55551883897E+02  0.93265728491E+03  0.18093189092E+04  0.10100000352E+00 0. -1.
       -3    1    3    3    0  502  0.15494190144E+04 -0.55551883897E+02 -0.11564556759E+04  0.19342117347E+04  0.10100000352E+00 0.  1.
</event>
<event>
 5   0  0.5177000E-08  0.3715542E+04  0.7818609E-02  0.8064526E-01
        1   -1    0    0  501    0  0.00000000000E+00  0.00000000000E+00  0.18287924761E+04  0.18287924761E+04  0.50400001928E-02 0.  1.
       -1   -1    0    0    0  501  0.00000000000E+00  0.00000000000E+00 -0.18872082609E+04  0.18872082609E+04  0.50400001928E-02 0. -1.
    10030    2    1    2    0    0  0.00000000000E+00  0.00000000000E+00 -0.58415784737E+02  0.37160007370E+04  0.37155415586E+04 0.  0.
        1    1    3    3  502    0  0.16001651186E+04  0.75263492996E+03  0.54035746025E+03  0.18490467624E+04  0.50400001928E-02 0.  1.
       -1    1    3    3    0  502 -0.16001651186E+04 -0.75263492996E+03 -0.59877324499E+03  0.18669539746E+04  0.50400001928E-02 0. -1.
</event>
<event>
 5   0  0.1658770E-07  0.3664752E+04  0.7818609E-02  0.8075818E-01
        2   -1    0    0  501    0  0.00000000000E+00  0.00000000000E+00  0.27197423257E+04  0.27197423257E+04  0.25500000920E-02 0. -1.
       -2   -1    0    0    0  501  0.00000000000E+00  0.00000000000E+00 -0.12345294581E+04  0.12345294581E+04  0.25500000920E-02 0.  1.
    10030    2    1    2    0    0  0.00000000000E+00  0.00000000000E+00  0.14852128676E+04  0.39542717838E+04  0.36647521168E+04 0.  0.
        2    1    3    3  502    0 -0.13549912662E+04 -0.11666482410E+04  0.11749246050E+04  0.21395133272E+04  0.25500000920E-02 0.  1.
       -2    1    3    3    0  502  0.13549912662E+04  0.11666482410E+04  0.31028826262E+03  0.18147584566E+04  0.25500000920E-02 0. -1.
</event>
<event>
 5   0  0.5177000E-08  0.3676125E+04  0.7818609E-02  0.8073274E-01
       -1   -1    0    0    0  501  0.00000000000E+00  0.00000000000E+00  0.21928665385E+04  0.21928665385E+04  0.50400001928E-02 0. -1.
        1   -1    0    0  501    0  0.00000000000E+00  0.00000000000E+00 -0.15406653281E+04  0.15406653281E+04  0.50400001928E-02 0.  1.
    10030    2    1    2    0    0  0.00000000000E+00  0.00000000000E+00  0.65220121043E+03  0.37335318666E+04  0.36761248319E+04 0.  0.
        2    1    3    3  502    0  0.14580603732E+04  0.77076758100E+03  0.11502221224E+04  0.20107296305E+04  0.25500000920E-02 0. -1.
       -2    1    3    3    0  502 -0.14580603732E+04 -0.77076758100E+03 -0.49802091201E+03  0.17228022361E+04  0.25500000920E-02 0.  1.
</event>
<event>
 5   0  0.1666189E-07  0.3721368E+04  0.7818609E-02  0.8063243E-01
       -2   -1    0    0    0  501  0.00000000000E+00  0.00000000000E+00  0.16696310321E+04  0.16696310321E+04  0.25500000920E-02 0.  1.
        2   -1    0    0  501    0  0.00000000000E+00  0.00000000000E+00 -0.20735987068E+04  0.20735987068E+04  0.25500000920E-02 0. -1.
    10030    2    1    2    0    0  0.00000000000E+00  0.00000000000E+00 -0.40396767472E+03  0.37432297389E+04  0.37213678931E+04 0.  0.
        4    1    3    3  502    0  0.14703864653E+04  0.96466378625E+03  0.40947757525E+03  0.18056262280E+04  0.12699999809E+01 0.  1.
       -4    1    3    3    0  502 -0.14703864653E+04 -0.96466378625E+03 -0.81344524997E+03  0.19376035109E+04  0.12699999809E+01 0. -1.
</event>
<event>
 5   0  0.1666189E-07  0.3706953E+04  0.7818609E-02  0.8066423E-01
        2   -1    0    0  501    0  0.00000000000E+00  0.00000000000E+00  0.10708329931E+04  0.10708329931E+04  0.25500000920E-02 0. -1.
       -2   -1    0    0    0  501  0.00000000000E+00  0.00000000000E+00 -0.32081329950E+04  0.32081329950E+04  0.25500000920E-02 0.  1.
    10030    2    1    2    0    0  0.00000000000E+00  0.00000000000E+00 -0.21373000020E+04  0.42789659881E+04  0.37069527416E+04 0.  0.
        4    1    3    3  502    0  0.40633673806E+03 -0.18042563044E+04 -0.12096585055E+04  0.22099153083E+04  0.12699999809E+01 0. -1.
       -4    1    3    3    0  502 -0.40633673806E+03  0.18042563044E+04 -0.92764149646E+03  0.20690506798E+04  0.12699999809E+01 0.  1.
</event>
<event>
 5   0  0.5177000E-08  0.3716579E+04  0.7818609E-02  0.8064298E-01
       -1   -1    0    0    0  501  0.00000000000E+00  0.00000000000E+00  0.18514164297E+04  0.18514164297E+04  0.50400001928E-02 0. -1.
        1   -1    0    0  501    0  0.00000000000E+00  0.00000000000E+00 -0.18651878541E+04  0.18651878541E+04  0.50400001928E-02 0.  1.
    10030    2    1    2    0    0  0.00000000000E+00  0.00000000000E+00 -0.13771424449E+02  0.37166042838E+04  0.37165787696E+04 0.  0.
        1    1    3    3  502    0  0.71931399041E+03  0.11748066508E+04 -0.12541537320E+04  0.18629237416E+04  0.50400001928E-02 0.  1.
       -1    1    3    3    0  502 -0.71931399041E+03 -0.11748066508E+04  0.12403823075E+04  0.18536805422E+04  0.50400001928E-02 0. -1.
</event>
<event>
 5   0  0.5177000E-08  0.3694442E+04  0.7818609E-02  0.8069195E-01
       -1   -1    0    0    0  501  0.00000000000E+00  0.00000000000E+00  0.32398114772E+04  0.32398114772E+04  0.50400001928E-02 0.  1.
        1   -1    0    0  501    0  0.00000000000E+00  0.00000000000E+00 -0.10532170118E+04  0.10532170118E+04  0.50400001928E-02 0. -1.
    10030    2    1    2    0    0  0.00000000000E+00  0.00000000000E+00  0.21865944654E+04  0.42930284891E+04  0.36944415345E+04 0.  0.
        3    1    3    3  502    0 -0.15162234082E+04 -0.10097473007E+04  0.73759361230E+03  0.19653415433E+04  0.10100000352E+00 0.  1.
       -3    1    3    3    0  502  0.15162234082E+04  0.10097473007E+04  0.14490008531E+04  0.23276869457E+04  0.10100000352E+00 0. -1.
</event>
<event>
 5   0  0.1587026E-07  0.3732362E+04  0.7818609E-02  0.8060828E-01
       -2   -1    0    0    0  501  0.00000000000E+00  0.00000000000E+00  0.14295003429E+04  0.14295003429E+04  0.25500000920E-02 0.  1.
        2   -1    0    0  501    0  0.00000000000E+00  0.00000000000E+00 -0.24362576690E+04  0.24362576690E+04  0.25500000920E-02 0. -1.
    10030    2    1    2    0    0  0.00000000000E+00  0.00000000000E+00 -0.10067573261E+04  0.38657580120E+04  0.37323618117E+04 0.  0.
        3    1    3    3  502    0  0.63815226110E+02 -0.17580394374E+04  0.14166074746E+03  0.17648917315E+04  0.10100000352E+00 0.  1.
       -3    1    3    3    0  502 -0.63815226110E+02  0.17580394374E+04 -0.11484180736E+04  0.21008662804E+04  0.10100000352E+00 0. -1.
</event>
<event>
 5   0  0.5181371E-08  0.3691229E+04  0.7818609E-02  0.8069908E-01
        1   -1    0    0  501    0  0.00000000000E+00  0.00000000000E+00  0.20095813788E+04  0.20095813788E+04  0.50400001928E-02 0.  1.
       -1   -1    0    0    0  501  0.00000000000E+00  0.00000000000E+00 -0.16950262908E+04  0.16950262908E+04  0.50400001928E-02 0. -1.
    10030    2    1    2    0    0  0.00000000000E+00  0.00000000000E+00  0.31455508804E+03  0.37046076696E+04  0.36912292102E+04 0.  0.
        5    1    3    3  502    0  0.17879606956E+04 -0.39311389114E+02 -0.30036015254E+03  0.18134462070E+04  0.46999998093E+01 0. -1.
       -5    1    3    3    0  502 -0.17879606956E+04  0.39311389114E+02  0.61491524058E+03  0.18911614626E+04  0.46999998093E+01 0.  1.
</event>
<event>
 5   0  0.5177000E-08  0.3747544E+04  0.7818609E-02  0.8057507E-01
        1   -1    0    0  501    0  0.00000000000E+00  0.00000000000E+00  0.16738645050E+04  0.16738645051E+04  0.50400001928E-02 0.  1.
       -1   -1    0    0    0  501  0.00000000000E+00  0.00000000000E+00 -0.20975536878E+04  0.20975536878E+04  0.50400001928E-02 0. -1.
    10030    2    1    2    0    0  0.00000000000E+00  0.00000000000E+00 -0.42368918275E+03  0.37714181929E+04  0.37475435504E+04 0.  0.
        4    1    3    3  502    0  0.15528448600E+04 -0.66195246959E+03  0.60667010154E+03  0.17937554059E+04  0.12699999809E+01 0.  1.
       -4    1    3    3    0  502 -0.15528448600E+04  0.66195246959E+03 -0.10303592843E+04  0.19776627869E+04  0.12699999809E+01 0. -1.
</event>
<event>
 5   0  0.1666189E-07  0.3702800E+04  0.7818609E-02  0.8067342E-01
        2   -1    0    0  501    0  0.00000000000E+00  0.00000000000E+00  0.25603076373E+04  0.25603076373E+04  0.25500000920E-02 0.  1.
       -2   -1    0    0    0  501  0.00000000000E+00  0.00000000000E+00 -0.13387773690E+04  0.13387773690E+04  0.25500000920E-02 0. -1.
    10030    2    1    2    0    0  0.00000000000E+00  0.00000000000E+00  0.12215302683E+04  0.38990850063E+04  0.37027999798E+04 0.  0.
        4    1    3    3  502    0  0.12056062371E+04 -0.10389375182E+04  0.16068494562E+04  0.22616021652E+04  0.12699999809E+01 0.  1.
       -4    1    3    3    0  502 -0.12056062371E+04  0.10389375182E+04 -0.38531918793E+03  0.16374828412E+04  0.12699999809E+01 0. -1.
</event>
<event>
 5   0  0.1558258E-07  0.3710939E+04  0.7818609E-02  0.8065542E-01
       -2   -1    0    0    0  501  0.00000000000E+00  0.00000000000E+00  0.14605555490E+04  0.14605555490E+04  0.25500000920E-02 0.  1.
        2   -1    0    0  501    0  0.00000000000E+00  0.00000000000E+00 -0.23571623320E+04  0.23571623320E+04  0.25500000920E-02 0. -1.
    10030    2    1    2    0    0  0.00000000000E+00  0.00000000000E+00 -0.89660678301E+03  0.38177178811E+04  0.37109387082E+04 0.  0.
        1    1    3    3  502    0  0.16935331650E+04 -0.41662088071E+02 -0.12270359759E+04  0.20917474983E+04  0.50400001928E-02 0. -1.
       -1    1    3    3    0  502 -0.16935331650E+04  0.41662088071E+02  0.33042919293E+03  0.17259703827E+04  0.50400001928E-02 0.  1.
</event>
<event>
 5   0  0.5177000E-08  0.3688392E+04  0.7818609E-02  0.8070539E-01
        1   -1    0    0  501    0  0.00000000000E+00  0.00000000000E+00  0.20449473286E+04  0.20449473286E+04  0.50400001928E-02 0. -1.
       -1   -1    0    0    0  501  0.00000000000E+00  0.00000000000E+00 -0.16631521444E+04  0.16631521444E+04  0.50400001928E-02 0.  1.
    10030    2    1    2    0    0  0.00000000000E+00  0.00000000000E+00  0.38179518423E+03  0.37080994730E+04  0.36883918093E+04 0.  0.
        2    1    3    3  502    0 -0.62937354633E+03 -0.41110086990E+03 -0.15021264205E+04  0.16797317551E+04  0.25500000920E-02 0.  1.
       -2    1    3    3    0  502  0.62937354633E+03  0.41110086990E+03  0.18839216047E+04  0.20283677179E+04  0.25500000920E-02 0. -1.
</event>
<event>
 5   0  0.1658770E-07  0.3706678E+04  0.7818609E-02  0.8066483E-01
       -2   -1    0    0    0  501  0.00000000000E+00  0.00000000000E+00  0.19099444129E+04  0.19099444129E+04  0.25500000920E-02 0.  1.
        2   -1    0    0  501    0  0.00000000000E+00  0.00000000000E+00 -0.17984115045E+04  0.17984115045E+04  0.25500000920E-02 0. -1.
    10030    2    1    2    0    0  0.00000000000E+00  0.00000000000E+00  0.11153290844E+03  0.37083559174E+04  0.37066783001E+04 0.  0.
        2    1    3    3  502    0  0.99509468737E+03 -0.20719170997E+03 -0.14946846619E+04  0.18075464254E+04  0.25500000920E-02 0. -1.
       -2    1    3    3    0  502 -0.99509468737E+03  0.20719170997E+03  0.16062175703E+04  0.19008094920E+04  0.25500000920E-02 0.  1.
</event>
<event>
 5   0  0.1558258E-07  0.3701929E+04  0.7818609E-02  0.8067534E-01
       -2   -1    0    0    0  501  0.00000000000E+00  0.00000000000E+00  0.18514796441E+04  0.18514796441E+04  0.25500000920E-02 0.  1.
        2   -1    0    0  501    0  0.00000000000E+00  0.00000000000E+00 -0.18504498301E+04  0.18504498301E+04  0.25500000920E-02 0. -1.
    10030    2    1    2    0    0  0.00000000000E+00  0.00000000000E+00  0.10298139676E+01  0.37019294742E+04  0.37019293310E+04 0.  0.
        1    1    3    3  502    0  0.10585527252E+04  0.94415645321E+03  0.11896763855E+04  0.18512955416E+04  0.50400001928E-02 0.  1.
       -1    1    3    3    0  502 -0.10585527252E+04 -0.94415645321E+03 -0.11886465716E+04  0.18506339326E+04  0.50400001928E-02 0. -1.
</event>
<event>
 5   0  0.1587026E-07  0.3697918E+04  0.7818609E-02  0.8068423E-01
       -2   -1    0    0    0  501  0.00000000000E+00  0.00000000000E+00  0.12114977047E+04  0.12114977047E+04  0.25500000920E-02 0. -1.
        2   -1    0    0  501    0  0.00000000000E+00  0.00000000000E+00 -0.28218365162E+04  0.28218365162E+04  0.25500000920E-02 0.  1.
    10030    2    1    2    0    0  0.00000000000E+00  0.00000000000E+00 -0.16103388115E+04  0.40333342209E+04  0.36979175018E+04 0.  0.
        3    1    3    3  502    0  0.18182531305E+04 -0.14097447410E+03 -0.47303214520E+03  0.18840588286E+04  0.10100000352E+00 0. -1.
       -3    1    3    3    0  502 -0.18182531305E+04  0.14097447410E+03 -0.11373066663E+04  0.21492753924E+04  0.10100000352E+00 0.  1.
</event>
<event>
 5   0  0.1658770E-07  0.3761939E+04  0.7818609E-02  0.8054372E-01
       -2   -1    0    0    0  501  0.00000000000E+00  0.00000000000E+00  0.16490003496E+04  0.16490003496E+04  0.25500000920E-02 0. -1.
        2   -1    0    0  501    0  0.00000000000E+00  0.00000000000E+00 -0.21455698501E+04  0.21455698501E+04  0.25500000920E-02 0.  1.
    10030    2    1    2    0    0  0.00000000000E+00  0.00000000000E+00 -0.49656950051E+03  0.37945701996E+04  0.37619385602E+04 0.  0.
        2    1    3    3  502    0 -0.19674314712E+03 -0.11105080349E+04 -0.17667027252E+04  0.20959900956E+04  0.25500000920E-02 0.  1.
       -2    1    3    3    0  502  0.19674314712E+03  0.11105080349E+04  0.12701332247E+04  0.16985801041E+04  0.25500000920E-02 0. -1.
</event>
<event>
 5   0  0.5181371E-08  0.3644704E+04  0.7818609E-02  0.8080328E-01
       -1   -1    0    0    0  501  0.00000000000E+00  0.00000000000E+00  0.10949843725E+04  0.10949843725E+04  0.50400001928E-02 0.  1.
        1   -1    0    0  501    0  0.00000000000E+00  0.00000000000E+00 -0.30328889770E+04  0.30328889770E+04  0.50400001928E-02 0. -1.
    10030    2    1    2    0    0  0.00000000000E+00  0.00000000000E+00 -0.19379046045E+04  0.41278733496E+04  0.36447035729E+04 0.  0.
        5    1    3    3  502    0 -0.34691635609E+03  0.17628059775E+04 -0.62336496907E+03  0.19016944674E+04  0.46999998093E+01 0. -1.
       -5    1    3    3    0  502  0.34691635609E+03 -0.17628059775E+04 -0.13145396354E+04  0.22261788822E+04  0.46999998093E+01 0.  1.
</event>
<event>
 5   0  0.1666189E-07  0.3750890E+04  0.7818609E-02  0.8056777E-01
        2   -1    0    0  501    0  0.00000000000E+00  0.00000000000E+00  0.22538453698E+04  0.22538453698E+04  0.25500000920E-02 0. -1.
       -2   -1    0    0    0  501  0.00000000000E+00  0.00000000000E+00 -0.15605749235E+04  0.15605749235E+04  0.25500000920E-02 0.  1.
    10030    2    1    2    0    0  0.00000000000E+00  0.00000000000E+00  0.69327044626E+03  0.38144202934E+04  0.37508903293E+04 0.  0.
        4    1    3    3  502    0  0.17685603268E+04 -0.48549387592E+03  0.74542899788E+03  0.19796908690E+04  0.12699999809E+01 0. -1.
       -4    1    3    3    0  502 -0.17685603268E+04  0.48549387592E+03 -0.52158551625E+02  0.18347294243E+04  0.12699999809E+01 0.  1.
</event>
<event>
 5   0  0.5177000E-08  0.3783552E+04  0.7818609E-02  0.8049694E-01
       -1   -1    0    0    0  501  0.00000000000E+00  0.00000000000E+00  0.17722718660E+04  0.17722718660E+04  0.50400001928E-02 0.  1.
        1   -1    0    0  501    0  0.00000000000E+00  0.00000000000E+00 -0.20193384252E+04  0.20193384252E+04  0.50400001928E-02 0. -1.
    10030    2    1    2    0    0  0.00000000000E+00  0.00000000000E+00 -0.24706655922E+03  0.37916102912E+04  0.37835521294E+04 0.  0.
        3    1    3    3  502    0  0.14443497057E+04  0.42904134094E+03  0.10228410548E+04  0.18211058119E+04  0.10100000352E+00 0.  1.
       -3    1    3    3    0  502 -0.14443497057E+04 -0.42904134094E+03 -0.12699076140E+04  0.19705044793E+04  0.10100000352E+00 0. -1.
</event>
<event>
 5   0  0.5177000E-08  0.3706315E+04  0.7818609E-02  0.8066564E-01
       -1   -1    0    0    0  501  0.00000000000E+00  0.00000000000E+00  0.21043529121E+04  0.21043529121E+04  0.50400001928E-02 0. -1.
        1   -1    0    0  501    0  0.00000000000E+00  0.00000000000E+00 -0.16319471059E+04  0.16319471059E+04  0.50400001928E-02 0.  1.
    10030    2    1    2    0    0  0.00000000000E+00  0.00000000000E+00  0.47240580623E+03  0.37363000181E+04  0.37063149595E+04 0.  0.
        3    1    3    3  502    0  0.16785780590E+04 -0.26224256149E+03 -0.50991818172E+03  0.17738128490E+04  0.10100000352E+00 0.  1.
       -3    1    3    3    0  502 -0.16785780590E+04  0.26224256149E+03  0.98232398795E+03  0.19624871690E+04  0.10100000352E+00 0. -1.
</event>
<event>
 5   0  0.1587026E-07  0.3700989E+04  0.7818609E-02  0.8067743E-01
       -2   -1    0    0    0  501  0.00000000000E+00  0.00000000000E+00  0.14798527896E+04  0.14798527896E+04  0.25500000920E-02 0. -1.
        2   -1    0    0  501    0  0.00000000000E+00  0.00000000000E+00 -0.23139669043E+04  0.23139669043E+04  0.25500000920E-02 0.  1.
    10030    2    1    2    0    0  0.00000000000E+00  0.00000000000E+00 -0.83411411475E+03  0.37938196939E+04  0.37009892614E+04 0.  0.
        3    1    3    3  502    0 -0.24465432284E+03 -0.99462998445E+03 -0.19968772409E+04  0.22442511600E+04  0.10100000352E+00 0.  1.
       -3    1    3    3    0  502  0.24465432284E+03  0.99462998445E+03  0.11627631261E+04  0.15495685339E+04  0.10100000352E+00 0. -1.
</event>
<event>
 5   0  0.5177000E-08  0.3719510E+04  0.7818609E-02  0.8063652E-01
        1   -1    0    0  501    0  0.00000000000E+00  0.00000000000E+00  0.28070582644E+04  0.28070582644E+04  0.50400001928E-02 0. -1.
       -1   -1    0    0    0  501  0.00000000000E+00  0.00000000000E+00 -0.12321401916E+04  0.12321401916E+04  0.50400001928E-02 0.  1.
    10030    2    1    2    0    0  0.00000000000E+00  0.00000000000E+00  0.15749180728E+04  0.40391984560E+04  0.37195103483E+04 0.  0.
        3    1    3    3  502    0 -0.15402980285E+04 -0.16577294976E+03  0.19048211740E+04  0.24552682954E+04  0.10100000352E+00 0. -1.
       -3    1    3    3    0  502  0.15402980285E+04  0.16577294976E+03 -0.32990310123E+03  0.15839301606E+04  0.10100000352E+00 0.  1.
</event>
<event>
 5   0  0.5177000E-08  0.3724355E+04  0.7818609E-02  0.8062586E-01
       -1   -1    0    0    0  501  0.00000000000E+00  0.00000000000E+00  0.13545667682E+04  0.13545667682E+04  0.50400001928E-02 0. -1.
        1   -1    0    0  501    0  0.00000000000E+00  0.00000000000E+00 -0.25600104290E+04  0.25600104291E+04  0.50400001928E-02 0.  1.
    10030    2    1    2    0    0  0.00000000000E+00  0.00000000000E+00 -0.12054436609E+04  0.39145771972E+04  0.37243550064E+04 0.  0.
        4    1    3    3  502    0  0.15410916057E+04 -0.58402785903E+03  0.30853767836E+03  0.16766779623E+04  0.12699999809E+01 0. -1.
       -4    1    3    3    0  502 -0.15410916057E+04  0.58402785903E+03 -0.15139813393E+04  0.22378992350E+04  0.12699999809E+01 0.  1.
</event>
<event>
 5   0  0.5181371E-08  0.3698922E+04  0.7818609E-02  0.8068201E-01
       -1   -1    0    0    0  501  0.00000000000E+00  0.00000000000E+00  0.14587341122E+04  0.14587341122E+04  0.50400001928E-02 0.  1.
        1   -1    0    0  501    0  0.00000000000E+00  0.00000000000E+00 -0.23448451513E+04  0.23448451513E+04  0.50400001928E-02 0. -1.
    10030    2    1    2    0    0  0.00000000000E+00  0.00000000000E+00 -0.88611103912E+03  0.38035792635E+04  0.36989217942E+04 0.  0.
        5    1    3    3  502    0  0.86334719158E+02  0.10318811229E+04  0.11327027569E+04  0.15346888808E+04  0.46999998093E+01 0.  1.
       -5    1    3    3    0  502 -0.86334719158E+02 -0.10318811229E+04 -0.20188137960E+04  0.22688903826E+04  0.46999998093E+01 0. -1.
</event>
<event>
 5   0  0.5177000E-08  0.3439707E+04  0.7818609E-02  0.8128229E-01
       -1   -1    0    0    0  501  0.00000000000E+00  0.00000000000E+00  0.14972176312E+04  0.14972176312E+04  0.50400001928E-02 0. -1.
        1   -1    0    0  501    0  0.00000000000E+00  0.00000000000E+00 -0.19755950033E+04  0.19755950033E+04  0.50400001928E-02 0.  1.
    10030    2    1    2    0    0  0.00000000000E+00  0.00000000000E+00 -0.47837737215E+03  0.34728126345E+04  0.34397067730E+04 0.  0.
        4    1    3    3  502    0  0.84530690169E+02  0.10093676782E+04 -0.16425035328E+04  0.19297118996E+04  0.12699999809E+01 0.  1.
       -4    1    3    3    0  502 -0.84530690169E+02 -0.10093676782E+04  0.11641261606E+04  0.15431007349E+04  0.12699999809E+01 0. -1.
</event>
<event>
 5   0  0.1558258E-07  0.3699404E+04  0.7818609E-02  0.8068094E-01
       -2   -1    0    0    0  501  0.00000000000E+00  0.00000000000E+00  0.13218525935E+04  0.13218525935E+04  0.25500000920E-02 0. -1.
        2   -1    0    0  501    0  0.00000000000E+00  0.00000000000E+00 -0.25883350710E+04  0.25883350710E+04  0.25500000920E-02 0.  1.
    10030    2    1    2    0    0  0.00000000000E+00  0.00000000000E+00 -0.12664824775E+04  0.39101876646E+04  0.36994039664E+04 0.  0.
        1    1    3    3  502    0 -0.18121833726E+03 -0.10375260700E+04  0.97395485454E+03  0.14345342416E+04  0.50400001928E-02 0. -1.
       -1    1    3    3    0  502  0.18121833726E+03  0.10375260700E+04 -0.22404373321E+04  0.24756534230E+04  0.50400001928E-02 0.  1.
</event>
<event>
 5   0  0.5177000E-08  0.3723794E+04  0.7818609E-02  0.8062709E-01
       -1   -1    0    0    0  501  0.00000000000E+00  0.00000000000E+00  0.14999048290E+04  0.14999048290E+04  0.50400001928E-02 0.  1.
        1   -1    0    0  501    0  0.00000000000E+00  0.00000000000E+00 -0.23112541945E+04  0.23112541945E+04  0.50400001928E-02 0. -1.
    10030    2    1    2    0    0  0.00000000000E+00  0.00000000000E+00 -0.81134936553E+03  0.38111590236E+04  0.37237944774E+04 0.  0.
        1    1    3    3  502    0  0.38183090758E+03 -0.59150671795E+03  0.13584191863E+04  0.15300254001E+04  0.50400001928E-02 0.  1.
       -1    1    3    3    0  502 -0.38183090758E+03  0.59150671795E+03 -0.21697685518E+04  0.22811336234E+04  0.50400001928E-02 0. -1.
</event>
<event>
 5   0  0.1587026E-07  0.3777718E+04  0.7818609E-02  0.8050953E-01
        2   -1    0    0  501    0  0.00000000000E+00  0.00000000000E+00  0.18207115333E+04  0.18207115333E+04  0.25500000920E-02 0. -1.
       -2   -1    0    0    0  501  0.00000000000E+00  0.00000000000E+00 -0.19595572035E+04  0.19595572036E+04  0.25500000920E-02 0.  1.
    10030    2    1    2    0    0  0.00000000000E+00  0.00000000000E+00 -0.13884567024E+03  0.37802687369E+04  0.37777180417E+04 0.  0.
        3    1    3    3  502    0  0.65365188060E+03 -0.15751031592E+04  0.74326937897E+03  0.18602849574E+04  0.10100000352E+00 0. -1.
       -3    1    3    3    0  502 -0.65365188060E+03  0.15751031592E+04 -0.88211504921E+03  0.19199837794E+04  0.10100000352E+00 0.  1.
</event>
<event>
 5   0  0.1666189E-07  0.3493628E+04  0.7818609E-02  0.8115302E-01
       -2   -1    0    0    0  501  0.00000000000E+00  0.00000000000E+00  0.12131123576E+04  0.12131123576E+04  0.25500000920E-02 0.  1.
        2   -1    0    0  501    0  0.00000000000E+00  0.00000000000E+00 -0.25153142933E+04  0.25153142933E+04  0.25500000920E-02 0. -1.
    10030    2    1    2    0    0  0.00000000000E+00  0.00000000000E+00 -0.13022019357E+04  0.37284266509E+04  0.34936278293E+04 0.  0.
        4    1    3    3  502    0  0.10738456830E+04  0.46851035204E+03 -0.20338294207E+04  0.23471493831E+04  0.12699999809E+01 0. -1.
       -4    1    3    3    0  502 -0.10738456830E+04 -0.46851035204E+03  0.73162748500E+03  0.13812772678E+04  0.12699999809E+01 0.  1.
</event>
<event>
 5   0  0.5177000E-08  0.3662318E+04  0.7818609E-02  0.8076364E-01
        1   -1    0    0  501    0  0.00000000000E+00  0.00000000000E+00  0.27017864087E+04  0.27017864087E+04  0.50400001928E-02 0.  1.
       -1   -1    0    0    0  501  0.00000000000E+00  0.00000000000E+00 -0.12410837216E+04  0.12410837216E+04  0.50400001928E-02 0. -1.
    10030    2    1    2    0    0  0.00000000000E+00  0.00000000000E+00  0.14607026871E+04  0.39428701303E+04  0.36623179169E+04 0.  0.
        4    1    3    3  502    0  0.71857284812E+03  0.10198329076E+04  0.21734582186E+04  0.25060583270E+04  0.12699999809E+01 0.  1.
       -4    1    3    3    0  502 -0.71857284812E+03 -0.10198329076E+04 -0.71275553148E+03  0.14368118033E+04  0.12699999809E+01 0. -1.
</event>
<event>
 5   0  0.5177000E-08  0.3695452E+04  0.7818609E-02  0.8068970E-01
       -1   -1    0    0    0  501  0.00000000000E+00  0.00000000000E+00  0.10335526053E+04  0.10335526053E+04  0.50400001928E-02 0.  1.
        1   -1    0    0  501    0  0.00000000000E+00  0.00000000000E+00 -0.33032584875E+04  0.33032584875E+04  0.50400001928E-02 0. -1.
    10030    2    1    2    0    0  0.00000000000E+00  0.00000000000E+00 -0.22697058822E+04  0.43368110927E+04  0.36954520241E+04 0.  0.
        1    1    3    3  502    0 -0.91503111038E+02 -0.48323461553E+03 -0.32250316315E+04  0.32623178167E+04  0.50400001928E-02 0. -1.
       -1    1    3    3    0  502  0.91503111038E+02  0.48323461553E+03  0.95532574930E+03  0.10744932761E+04  0.50400001928E-02 0.  1.
</event>
<event>
 5   0  0.1658770E-07  0.3706862E+04  0.7818609E-02  0.8066443E-01
       -2   -1    0    0    0  501  0.00000000000E+00  0.00000000000E+00  0.12772559187E+04  0.12772559187E+04  0.25500000920E-02 0.  1.
        2   -1    0    0  501    0  0.00000000000E+00  0.00000000000E+00 -0.26895208834E+04  0.26895208834E+04  0.25500000920E-02 0. -1.
    10030    2    1    2    0    0  0.00000000000E+00  0.00000000000E+00 -0.14122649647E+04  0.39667768020E+04  0.37068619972E+04 0.  0.
        2    1    3    3  502    0 -0.69035503513E+03 -0.36705479629E+03 -0.25044029697E+04  0.26236145930E+04  0.25500000920E-02 0. -1.
       -2    1    3    3    0  502  0.69035503513E+03  0.36705479629E+03  0.10921380049E+04  0.13431622091E+04  0.25500000920E-02 0.  1.
</event>
<event>
 5   0  0.1587026E-07  0.3715643E+04  0.7818609E-02  0.8064504E-01
        2   -1    0    0  501    0  0.00000000000E+00  0.00000000000E+00  0.28613286316E+04  0.28613286316E+04  0.25500000920E-02 0. -1.
       -2   -1    0    0    0  501  0.00000000000E+00  0.00000000000E+00 -0.12062579793E+04  0.12062579793E+04  0.25500000920E-02 0.  1.
    10030    2    1    2    0    0  0.00000000000E+00  0.00000000000E+00  0.16550706523E+04  0.40675866110E+04  0.37156428749E+04 0.  0.
        3    1    3    3  502    0  0.18726551509E+03  0.79477558149E+03 -0.99929003694E+03  0.12904716914E+04  0.10100000352E+00 0.  1.
       -3    1    3    3    0  502 -0.18726551509E+03 -0.79477558149E+03  0.26543606892E+04  0.27771149196E+04  0.10100000352E+00 0. -1.
</event>
<event>
 5   0  0.5177000E-08  0.3690724E+04  0.7818609E-02  0.8070021E-01
       -1   -1    0    0    0  501  0.00000000000E+00  0.00000000000E+00  0.19966757170E+04  0.19966757170E+04  0.50400001928E-02 0. -1.
        1   -1    0    0  501    0  0.00000000000E+00  0.00000000000E+00 -0.17055149633E+04  0.17055149633E+04  0.50400001928E-02 0.  1.
    10030    2    1    2    0    0  0.00000000000E+00  0.00000000000E+00  0.29116075372E+03  0.37021906803E+04  0.36907236755E+04 0.  0.
        4    1    3    3  502    0  0.38889511697E+03  0.74450883074E+03  0.17938001926E+04  0.19807204636E+04  0.12699999809E+01 0. -1.
       -4    1    3    3    0  502 -0.38889511697E+03 -0.74450883074E+03 -0.15026394389E+04  0.17214702168E+04  0.12699999809E+01 0.  1.
</event>
<event>
 5   0  0.5177000E-08  0.3699811E+04  0.7818609E-02  0.8068004E-01
        1   -1    0    0  501    0  0.00000000000E+00  0.00000000000E+00  0.15613496673E+04  0.15613496673E+04  0.50400001928E-02 0. -1.
       -1   -1    0    0    0  501  0.00000000000E+00  0.00000000000E+00 -0.21917894501E+04  0.21917894501E+04  0.50400001928E-02 0.  1.
    10030    2    1    2    0    0  0.00000000000E+00  0.00000000000E+00 -0.63043978281E+03  0.37531391174E+04  0.36998106593E+04 0.  0.
        2    1    3    3  502    0  0.12181594462E+04  0.72884314848E+03  0.88805835084E+03  0.16744468955E+04  0.25500000920E-02 0. -1.
       -2    1    3    3    0  502 -0.12181594462E+04 -0.72884314848E+03 -0.15184981336E+04  0.20786922219E+04  0.25500000920E-02 0.  1.
</event>
<event>
 5   0  0.5177000E-08  0.3701758E+04  0.7818609E-02  0.8067572E-01
       -1   -1    0    0    0  501  0.00000000000E+00  0.00000000000E+00  0.16841847656E+04  0.16841847656E+04  0.50400001928E-02 0. -1.
        1   -1    0    0  501    0  0.00000000000E+00  0.00000000000E+00 -0.20340715384E+04  0.20340715384E+04  0.50400001928E-02 0.  1.
    10030    2    1    2    0    0  0.00000000000E+00  0.00000000000E+00 -0.34988677281E+03  0.37182563040E+04  0.37017575810E+04 0.  0.
        1    1    3    3  502    0 -0.63462525921E+02  0.63911161861E+03 -0.19185549241E+04  0.20232014606E+04  0.50400001928E-02 0.  1.
       -1    1    3    3    0  502  0.63462525921E+02 -0.63911161861E+03  0.15686681513E+04  0.16950548434E+04  0.50400001928E-02 0. -1.
</event>
<event>
 5   0  0.1658770E-07  0.3693924E+04  0.7818609E-02  0.8069310E-01
        2   -1    0    0  501    0  0.00000000000E+00  0.00000000000E+00  0.19211646791E+04  0.19211646791E+04  0.25500000920E-02 0.  1.
       -2   -1    0    0    0  501  0.00000000000E+00  0.00000000000E+00 -0.17756257899E+04  0.17756257899E+04  0.25500000920E-02 0. -1.
    10030    2    1    2    0    0  0.00000000000E+00  0.00000000000E+00  0.14553888921E+03  0.36967904691E+04  0.36939244990E+04 0.  0.
        2    1    3    3  502    0 -0.49971909223E+03  0.43178373185E+03 -0.16534204422E+04  0.17804368905E+04  0.25500000920E-02 0. -1.
       -2    1    3    3    0  502  0.49971909223E+03 -0.43178373185E+03  0.17989593314E+04  0.19163535786E+04  0.25500000920E-02 0.  1.
</event>
<event>
 5   0  0.5181371E-08  0.3682708E+04  0.7818609E-02  0.8071805E-01
        1   -1    0    0  501    0  0.00000000000E+00  0.00000000000E+00  0.12596801685E+04  0.12596801685E+04  0.50400001928E-02 0.  1.
       -1   -1    0    0    0  501  0.00000000000E+00  0.00000000000E+00 -0.26916239914E+04  0.26916239914E+04  0.50400001928E-02 0. -1.
    10030    2    1    2    0    0  0.00000000000E+00  0.00000000000E+00 -0.14319438228E+04  0.39513041599E+04  0.36827084398E+04 0.  0.
        5    1    3    3  502    0  0.10721649340E+04  0.11879312238E+04  0.26142649037E+03  0.16214450771E+04  0.46999998093E+01 0.  1.
       -5    1    3    3    0  502 -0.10721649340E+04 -0.11879312238E+04 -0.16933703132E+04  0.23298590828E+04  0.46999998093E+01 0. -1.
</event>
<event>
 5   0  0.5177000E-08  0.3704312E+04  0.7818609E-02  0.8067007E-01
        1   -1    0    0  501    0  0.00000000000E+00  0.00000000000E+00  0.22315960946E+04  0.22315960946E+04  0.50400001928E-02 0. -1.
       -1   -1    0    0    0  501  0.00000000000E+00  0.00000000000E+00 -0.15372324950E+04  0.15372324950E+04  0.50400001928E-02 0.  1.
    10030    2    1    2    0    0  0.00000000000E+00  0.00000000000E+00  0.69436359957E+03  0.37688285896E+04  0.37043120994E+04 0.  0.
        3    1    3    3  502    0 -0.11279084647E+03  0.37158650987E+03 -0.14953491733E+04  0.15449490184E+04  0.10100000352E+00 0.  1.
       -3    1    3    3    0  502  0.11279084647E+03 -0.37158650987E+03  0.21897127729E+04  0.22238795712E+04  0.10100000352E+00 0. -1.
</event>
<event>
 5   0  0.1587026E-07  0.3691488E+04  0.7818609E-02  0.8069851E-01
        2   -1    0    0  501    0  0.00000000000E+00  0.00000000000E+00  0.17499044827E+04  0.17499044827E+04  0.25500000920E-02 0.  1.
       -2   -1    0    0    0  501  0.00000000000E+00  0.00000000000E+00 -0.19468319699E+04  0.19468319699E+04  0.25500000920E-02 0. -1.
    10030    2    1    2    0    0  0.00000000000E+00  0.00000000000E+00 -0.19692748718E+03  0.36967364526E+04  0.36914875003E+04 0.  0.
        3    1    3    3  502    0 -0.18333225295E+04  0.20386781654E+03 -0.16287002277E+03  0.18517991895E+04  0.10100000352E+00 0. -1.
       -3    1    3    3    0  502  0.18333225295E+04 -0.20386781654E+03 -0.34057464412E+02  0.18449372631E+04  0.10100000352E+00 0.  1.
</event>
<event>
 5   0  0.1587026E-07  0.3707106E+04  0.7818609E-02  0.8066389E-01
       -2   -1    0    0    0  501  0.00000000000E+00  0.00000000000E+00  0.14469432838E+04  0.14469432838E+04  0.25500000920E-02 0. -1.
        2   -1    0    0  501    0  0.00000000000E+00  0.00000000000E+00 -0.23744259124E+04  0.23744259124E+04  0.25500000920E-02 0.  1.
    10030    2    1    2    0    0  0.00000000000E+00  0.00000000000E+00 -0.92748262860E+03  0.38213691961E+04  0.37071064871E+04 0.  0.
        3    1    3    3  502    0 -0.11049173921E+04  0.32318414064E+03  0.10337460117E+04  0.15472301894E+04  0.10100000352E+00 0. -1.
       -3    1    3    3    0  502  0.11049173921E+04 -0.32318414064E+03 -0.19612286403E+04  0.22741390067E+04  0.10100000352E+00 0.  1.
</event>
<event>
 5   0  0.5177000E-08  0.3721929E+04  0.7818609E-02  0.8063119E-01
       -1   -1    0    0    0  501  0.00000000000E+00  0.00000000000E+00  0.15004139191E+04  0.15004139191E+04  0.50400001928E-02 0. -1.
        1   -1    0    0  501    0  0.00000000000E+00  0.00000000000E+00 -0.23081562601E+04  0.23081562601E+04  0.50400001928E-02 0.  1.
    10030    2    1    2    0    0  0.00000000000E+00  0.00000000000E+00 -0.80774234103E+03  0.38085701792E+04  0.37219294889E+04 0.  0.
        1    1    3    3  502    0  0.68384200699E+02  0.80978208493E+03  0.13092467934E+04  0.15409576860E+04  0.50400001928E-02 0. -1.
       -1    1    3    3    0  502 -0.68384200699E+02 -0.80978208493E+03 -0.21169891344E+04  0.22676124932E+04  0.50400001928E-02 0.  1.
</event>
<event>
 5   0  0.1558258E-07  0.3658179E+04  0.7818609E-02  0.8077294E-01
       -2   -1    0    0    0  501  0.00000000000E+00  0.00000000000E+00  0.12898482780E+04  0.12898482780E+04  0.25500000920E-02 0. -1.
        2   -1    0    0  501    0  0.00000000000E+00  0.00000000000E+00 -0.25937687985E+04  0.25937687985E+04  0.25500000920E-02 0.  1.
    10030    2    1    2    0    0  0.00000000000E+00  0.00000000000E+00 -0.13039205205E+04  0.38836170764E+04  0.36581789011E+04 0.  0.
        1    1    3    3  502    0  0.92159016136E+03  0.44745346933E+02 -0.23286023967E+04  0.25047394462E+04  0.50400001928E-02 0.  1.
       -1    1    3    3    0  502 -0.92159016136E+03 -0.44745346933E+02  0.10246818762E+04  0.13788776302E+04  0.50400001928E-02 0. -1.
</event>
<event>
 5   0  0.5177000E-08  0.3684604E+04  0.7818609E-02  0.8071382E-01
        1   -1    0    0  501    0  0.00000000000E+00  0.00000000000E+00  0.22992042493E+04  0.22992042493E+04  0.50400001928E-02 0.  1.
       -1   -1    0    0    0  501  0.00000000000E+00  0.00000000000E+00 -0.14761966242E+04  0.14761966242E+04  0.50400001928E-02 0. -1.
    10030    2    1    2    0    0  0.00000000000E+00  0.00000000000E+00  0.82300762506E+03  0.37754008735E+04  0.36846044841E+04 0.  0.
        2    1    3    3  502    0  0.96342368170E+03  0.14614714547E+04 -0.17710250604E+03  0.17593888999E+04  0.25500000920E-02 0.  1.
       -2    1    3    3    0  502 -0.96342368170E+03 -0.14614714547E+04  0.10001101311E+04  0.20160119736E+04  0.25500000920E-02 0. -1.
</event>
<event>
 5   0  0.5177000E-08  0.3710780E+04  0.7818609E-02  0.8065577E-01
       -1   -1    0    0    0  501  0.00000000000E+00  0.00000000000E+00  0.17542563840E+04  0.17542563840E+04  0.50400001928E-02 0. -1.
        1   -1    0    0  501    0  0.00000000000E+00  0.00000000000E+00 -0.19623538180E+04  0.19623538180E+04  0.50400001928E-02 0.  1.
    10030    2    1    2    0    0  0.00000000000E+00  0.00000000000E+00 -0.20809743404E+03  0.37166102020E+04  0.37107798172E+04 0.  0.
        1    1    3    3  502    0  0.12361140791E+04 -0.66457481563E+03  0.11114618285E+04  0.17902472171E+04  0.50400001928E-02 0. -1.
       -1    1    3    3    0  502 -0.12361140791E+04  0.66457481563E+03 -0.13195592625E+04  0.19263629849E+04  0.50400001928E-02 0.  1.
</event>
<event>
 5   0  0.5177000E-08  0.3652566E+04  0.7818609E-02  0.8078556E-01
        4   -1    0    0  501    0  0.00000000000E+00  0.00000000000E+00  0.18852143794E+04  0.18852148072E+04  0.12699999809E+01 0. -1.
       -4   -1    0    0    0  501  0.00000000000E+00  0.00000000000E+00 -0.17691933758E+04  0.17691938316E+04  0.12699999809E+01 0.  1.
    10030    2    1    2    0    0  0.00000000000E+00  0.00000000000E+00  0.11602100368E+03  0.36544086388E+04  0.36525664438E+04 0.  0.
        4    1    3    3  502    0  0.46087728984E+03  0.15363246004E+04  0.93172503499E+03  0.18549432088E+04  0.12699999809E+01 0. -1.
       -4    1    3    3    0  502 -0.46087728984E+03 -0.15363246004E+04 -0.81570403131E+03  0.17994654300E+04  0.12699999809E+01 0.  1.
</event>
<event>
 5   0  0.1558258E-07  0.3705486E+04  0.7818609E-02  0.8066747E-01
       -2   -1    0    0    0  501  0.00000000000E+00  0.00000000000E+00  0.27165235529E+04  0.27165235529E+04  0.25500000920E-02 0. -1.
        2   -1    0    0  501    0  0.00000000000E+00  0.00000000000E+00 -0.12636212375E+04  0.12636212375E+04  0.25500000920E-02 0.  1.
    10030    2    1    2    0    0  0.00000000000E+00  0.00000000000E+00  0.14529023154E+04  0.39801447904E+04  0.37054861239E+04 0.  0.
        1    1    3    3  502    0  0.55681471622E+03  0.16317457824E+04  0.14549720358E+04  0.22560098739E+04  0.50400001928E-02 0. -1.
       -1    1    3    3    0  502 -0.55681471622E+03 -0.16317457824E+04 -0.20697203203E+01  0.17241349165E+04  0.50400001928E-02 0.  1.
</event>
<event>
 5   0  0.5177000E-08  0.3695433E+04  0.7818609E-02  0.8068975E-01
        1   -1    0    0  501    0  0.00000000000E+00  0.00000000000E+00  0.12366929460E+04  0.12366929460E+04  0.50400001928E-02 0.  1.
       -1   -1    0    0    0  501  0.00000000000E+00  0.00000000000E+00 -0.27606341048E+04  0.27606341049E+04  0.50400001928E-02 0. -1.
    10030    2    1    2    0    0  0.00000000000E+00  0.00000000000E+00 -0.15239411588E+04  0.39973270509E+04  0.36954332488E+04 0.  0.
        4    1    3    3  502    0 -0.10234389971E+04 -0.77567417562E+03 -0.21990190688E+04  0.25465239613E+04  0.12699999809E+01 0. -1.
       -4    1    3    3    0  502  0.10234389971E+04  0.77567417562E+03  0.67507790995E+03  0.14508030896E+04  0.12699999809E+01 0.  1.
</event>
<event>
 5   0  0.5177000E-08  0.3705865E+04  0.7818609E-02  0.8066663E-01
       -1   -1    0    0    0  501  0.00000000000E+00  0.00000000000E+00  0.21547995150E+04  0.21547995150E+04  0.50400001928E-02 0.  1.
        1   -1    0    0  501    0  0.00000000000E+00  0.00000000000E+00 -0.15933540406E+04  0.15933540407E+04  0.50400001928E-02 0. -1.
    10030    2    1    2    0    0  0.00000000000E+00  0.00000000000E+00  0.56144547431E+03  0.37481535556E+04  0.37058648189E+04 0.  0.
        2    1    3    3  502    0 -0.36484131310E+03 -0.16726658693E+04  0.99764016147E+03  0.19814656661E+04  0.25500000920E-02 0.  1.
       -2    1    3    3    0  502  0.36484131310E+03  0.16726658693E+04 -0.43619468715E+03  0.17666878896E+04  0.25500000920E-02 0. -1.
</event>
<event>
 5   0  0.1658770E-07  0.3698139E+04  0.7818609E-02  0.8068374E-01
        2   -1    0    0  501    0  0.00000000000E+00  0.00000000000E+00  0.28926538561E+04  0.28926538561E+04  0.25500000920E-02 0.  1.
       -2   -1    0    0    0  501  0.00000000000E+00  0.00000000000E+00 -0.11819799724E+04  0.11819799724E+04  0.25500000920E-02 0. -1.
    10030    2    1    2    0    0  0.00000000000E+00  0.00000000000E+00  0.17106738837E+04  0.40746338285E+04  0.36981394916E+04 0.  0.
        2    1    3    3  502    0  0.80785350334E+02 -0.10136941479E+04  0.25568902467E+04  0.27516885419E+04  0.25500000920E-02 0.  1.
       -2    1    3    3    0  502 -0.80785350334E+02  0.10136941479E+04 -0.84621636295E+03  0.13229452865E+04  0.25500000920E-02 0. -1.
</event>
<event>
 5   0  0.5177000E-08  0.3693360E+04  0.7818609E-02  0.8069435E-01
       -1   -1    0    0    0  501  0.00000000000E+00  0.00000000000E+00  0.13529573659E+04  0.13529573659E+04  0.50400001928E-02 0.  1.
        1   -1    0    0  501    0  0.00000000000E+00  0.00000000000E+00 -0.25205718366E+04  0.25205718366E+04  0.50400001928E-02 0. -1.
    10030    2    1    2    0    0  0.00000000000E+00  0.00000000000E+00 -0.11676144707E+04  0.38735292025E+04  0.36933595723E+04 0.  0.
        3    1    3    3  502    0  0.97890643756E+02  0.25813215170E+03  0.13311927986E+04  0.13595179525E+04  0.10100000352E+00 0.  1.
       -3    1    3    3    0  502 -0.97890643756E+02 -0.25813215170E+03 -0.24988072693E+04  0.25140112500E+04  0.10100000352E+00 0. -1.
</event>
<event>
 5   0  0.1686284E-07  0.3697907E+04  0.7818609E-02  0.8068426E-01
        2   -1    0    0  501    0  0.00000000000E+00  0.00000000000E+00  0.22411556254E+04  0.22411556254E+04  0.25500000920E-02 0. -1.
       -2   -1    0    0    0  501  0.00000000000E+00  0.00000000000E+00 -0.15253868103E+04  0.15253868103E+04  0.25500000920E-02 0.  1.
    10030    2    1    2    0    0  0.00000000000E+00  0.00000000000E+00  0.71576881511E+03  0.37665424358E+04  0.36979071005E+04 0.  0.
        5    1    3    3  502    0 -0.11010149995E+04  0.12862771336E+04  0.11145482785E+04  0.20270626158E+04  0.46999998093E+01 0. -1.
       -5    1    3    3    0  502  0.11010149995E+04 -0.12862771336E+04 -0.39877946336E+03  0.17394798199E+04  0.46999998093E+01 0.  1.
</event>
<event>
 5   0  0.5177000E-08  0.3796332E+04  0.7818609E-02  0.8046942E-01
       -1   -1    0    0    0  501  0.00000000000E+00  0.00000000000E+00  0.17979272022E+04  0.17979272022E+04  0.50400001928E-02 0. -1.
        1   -1    0    0  501    0  0.00000000000E+00  0.00000000000E+00 -0.20039933184E+04  0.20039933184E+04  0.50400001928E-02 0.  1.
    10030    2    1    2    0    0  0.00000000000E+00  0.00000000000E+00 -0.20606611617E+03  0.38019205205E+04  0.37963319666E+04 0.  0.
        3    1    3    3  502    0  0.43846759625E+03  0.15359911877E+04 -0.11299748539E+04  0.19566210523E+04  0.10100000352E+00 0.  1.
       -3    1    3    3    0  502 -0.43846759625E+03 -0.15359911877E+04  0.92390873772E+03  0.18452994682E+04  0.10100000352E+00 0. -1.
</event>
<event>
 5   0  0.1658770E-07  0.3693320E+04  0.7818609E-02  0.8069444E-01
       -2   -1    0    0    0  501  0.00000000000E+00  0.00000000000E+00  0.14217397527E+04  0.14217397527E+04  0.25500000920E-02 0.  1.
        2   -1    0    0  501    0  0.00000000000E+00  0.00000000000E+00 -0.23985781496E+04  0.23985781496E+04  0.25500000920E-02 0. -1.
    10030    2    1    2    0    0  0.00000000000E+00  0.00000000000E+00 -0.97683839694E+03  0.38203179023E+04  0.36933204059E+04 0.  0.
        2    1    3    3  502    0  0.13329247714E+04  0.11921205398E+04 -0.11799581139E+02  0.17882894223E+04  0.25500000920E-02 0. -1.
       -2    1    3    3    0  502 -0.13329247714E+04 -0.11921205398E+04 -0.96503881580E+03  0.20320284800E+04  0.25500000920E-02 0.  1.
</event>
<event>
 5   0  0.1658770E-07  0.3697792E+04  0.7818609E-02  0.8068451E-01
       -2   -1    0    0    0  501  0.00000000000E+00  0.00000000000E+00  0.15535500337E+04  0.15535500337E+04  0.25500000920E-02 0.  1.
        2   -1    0    0  501    0  0.00000000000E+00  0.00000000000E+00 -0.22003900130E+04  0.22003900130E+04  0.25500000920E-02 0. -1.
    10030    2    1    2    0    0  0.00000000000E+00  0.00000000000E+00 -0.64683997932E+03  0.37539400468E+04  0.36977917621E+04 0.  0.
        2    1    3    3  502    0  0.12616452329E+04  0.13257737868E+04 -0.59006998394E+03  0.19229163823E+04  0.25500000920E-02 0. -1.
       -2    1    3    3    0  502 -0.12616452329E+04 -0.13257737868E+04 -0.56769995376E+02  0.18310236645E+04  0.25500000920E-02 0.  1.
</event>
<event>
 5   0  0.5177000E-08  0.3703449E+04  0.7818609E-02  0.8067198E-01
       -1   -1    0    0    0  501  0.00000000000E+00  0.00000000000E+00  0.18357629597E+04  0.18357629597E+04  0.50400001928E-02 0. -1.
        1   -1    0    0  501    0  0.00000000000E+00  0.00000000000E+00 -0.18678251605E+04  0.18678251605E+04  0.50400001928E-02 0.  1.
    10030    2    1    2    0    0  0.00000000000E+00  0.00000000000E+00 -0.32062200793E+02  0.37035881201E+04  0.37034493353E+04 0.  0.
        1    1    3    3  502    0 -0.27085782056E+03  0.13284214609E+04  0.12452919908E+04  0.18408747049E+04  0.50400001928E-02 0. -1.
       -1    1    3    3    0  502  0.27085782056E+03 -0.13284214609E+04 -0.12773541916E+04  0.18627134153E+04  0.50400001928E-02 0.  1.
</event>
<event>
 5   0  0.1587026E-07  0.3702369E+04  0.7818609E-02  0.8067437E-01
        2   -1    0    0  501    0  0.00000000000E+00  0.00000000000E+00  0.20026863447E+04  0.20026863447E+04  0.25500000920E-02 0.  1.
       -2   -1    0    0    0  501  0.00000000000E+00  0.00000000000E+00 -0.17111438366E+04  0.17111438366E+04  0.25500000920E-02 0. -1.
    10030    2    1    2    0    0  0.00000000000E+00  0.00000000000E+00  0.29154250814E+03  0.37138301813E+04  0.37023691849E+04 0.  0.
        3    1    3    3  502    0 -0.52571934650E+03  0.13447643238E+04  0.13078532534E+04  0.19481406675E+04  0.10100000352E+00 0.  1.
       -3    1    3    3    0  502  0.52571934650E+03 -0.13447643238E+04 -0.10163107453E+04  0.17656895137E+04  0.10100000352E+00 0. -1.
</event>
<event>
 5   0  0.1658770E-07  0.3710394E+04  0.7818609E-02  0.8065662E-01
        2   -1    0    0  501    0  0.00000000000E+00  0.00000000000E+00  0.20923904693E+04  0.20923904693E+04  0.25500000920E-02 0.  1.
       -2   -1    0    0    0  501  0.00000000000E+00  0.00000000000E+00 -0.16448916307E+04  0.16448916307E+04  0.25500000920E-02 0. -1.
    10030    2    1    2    0    0  0.00000000000E+00  0.00000000000E+00  0.44749883863E+03  0.37372821000E+04  0.37103938180E+04 0.  0.
        2    1    3    3  502    0 -0.10497752042E+03  0.66758006200E+02 -0.16406854375E+04  0.16453952765E+04  0.25500000920E-02 0. -1.
       -2    1    3    3    0  502  0.10497752042E+03 -0.66758006200E+02  0.20881842761E+04  0.20918868235E+04  0.25500000920E-02 0.  1.
</event>
<event>
 5   0  0.5177000E-08  0.3697334E+04  0.7818609E-02  0.8068553E-01
       -1   -1    0    0    0  501  0.00000000000E+00  0.00000000000E+00  0.12123478516E+04  0.12123478516E+04  0.50400001928E-02 0. -1.
        1   -1    0    0  501    0  0.00000000000E+00  0.00000000000E+00 -0.28189685011E+04  0.28189685011E+04  0.50400001928E-02 0.  1.
    10030    2    1    2    0    0  0.00000000000E+00  0.00000000000E+00 -0.16066206495E+04  0.40313163527E+04  0.36973343944E+04 0.  0.
        3    1    3    3  502    0  0.11076702863E+04  0.10643472393E+03 -0.24129086592E+04  0.26571394433E+04  0.10100000352E+00 0.  1.
       -3    1    3    3    0  502 -0.11076702863E+04 -0.10643472393E+03  0.80628800963E+03  0.13741769094E+04  0.10100000352E+00 0. -1.
</event>
<event>
 5   0  0.5177000E-08  0.3720272E+04  0.7818609E-02  0.8063484E-01
       -1   -1    0    0    0  501  0.00000000000E+00  0.00000000000E+00  0.12932400317E+04  0.12932400317E+04  0.50400001928E-02 0.  1.
        1   -1    0    0  501    0  0.00000000000E+00  0.00000000000E+00 -0.26755325669E+04  0.26755325669E+04  0.50400001928E-02 0. -1.
    10030    2    1    2    0    0  0.00000000000E+00  0.00000000000E+00 -0.13822925352E+04  0.39687725986E+04  0.37202719372E+04 0.  0.
        3    1    3    3  502    0  0.39981212369E+03  0.15411759294E+04 -0.17171763709E+04  0.23417445801E+04  0.10100000352E+00 0. -1.
       -3    1    3    3    0  502 -0.39981212369E+03 -0.15411759294E+04  0.33488383566E+03  0.16270280185E+04  0.10100000352E+00 0.  1.
</event>
<event>
 5   0  0.5177000E-08  0.3684309E+04  0.7818609E-02  0.8071448E-01
       -1   -1    0    0    0  501  0.00000000000E+00  0.00000000000E+00  0.14136858006E+04  0.14136858006E+04  0.50400001928E-02 0. -1.
        1   -1    0    0  501    0  0.00000000000E+00  0.00000000000E+00 -0.24004866509E+04  0.24004866509E+04  0.50400001928E-02 0.  1.
    10030    2    1    2    0    0  0.00000000000E+00  0.00000000000E+00 -0.98680085025E+03  0.38141724515E+04  0.36843093751E+04 0.  0.
        4    1    3    3  502    0 -0.95086298037E+03  0.57111296171E+03  0.10292309168E+04  0.15131517820E+04  0.12699999809E+01 0. -1.
       -4    1    3    3    0  502  0.95086298037E+03 -0.57111296171E+03 -0.20160317671E+04  0.23010206694E+04  0.12699999809E+01 0.  1.
</event>
<event>
 5   0  0.1587026E-07  0.3609378E+04  0.7818609E-02  0.8088347E-01
       -2   -1    0    0    0  501  0.00000000000E+00  0.00000000000E+00  0.14414324742E+04  0.14414324742E+04  0.25500000920E-02 0. -1.
        2   -1    0    0  501    0  0.00000000000E+00  0.00000000000E+00 -0.22594900816E+04  0.22594900816E+04  0.25500000920E-02 0.  1.
    10030    2    1    2    0    0  0.00000000000E+00  0.00000000000E+00 -0.81805760744E+03  0.37009225558E+04  0.36093779956E+04 0.  0.
        3    1    3    3  502    0 -0.15558228038E+04  0.91362714458E+03 -0.45008447602E+03  0.18595362868E+04  0.10100000352E+00 0.  1.
       -3    1    3    3    0  502  0.15558228038E+04 -0.91362714458E+03 -0.36797313142E+03  0.18413862690E+04  0.10100000352E+00 0. -1.
</event>
<event>
 5   0  0.1658770E-07  0.3703776E+04  0.7818609E-02  0.8067126E-01
        2   -1    0    0  501    0  0.00000000000E+00  0.00000000000E+00  0.12709267997E+04  0.12709267997E+04  0.25500000920E-02 0. -1.
       -2   -1    0    0    0  501  0.00000000000E+00  0.00000000000E+00 -0.26984154317E+04  0.26984154317E+04  0.25500000920E-02 0.  1.
    10030    2    1    2    0    0  0.00000000000E+00  0.00000000000E+00 -0.14274886319E+04  0.39693422314E+04  0.37037756351E+04 0.  0.
        2    1    3    3  502    0 -0.15935330534E+04 -0.45540257951E+03  0.17178824319E+03  0.16662083610E+04  0.25500000920E-02 0. -1.
       -2    1    3    3    0  502  0.15935330534E+04  0.45540257951E+03 -0.15992768751E+04  0.23031338704E+04  0.25500000920E-02 0.  1.
</event>
<event>
 5   0  0.1666189E-07  0.3687271E+04  0.7818609E-02  0.8070789E-01
       -2   -1    0    0    0  501  0.00000000000E+00  0.00000000000E+00  0.12920472653E+04  0.12920472653E+04  0.25500000920E-02 0.  1.
        2   -1    0    0  501    0  0.00000000000E+00  0.00000000000E+00 -0.26307029344E+04  0.26307029344E+04  0.25500000920E-02 0. -1.
    10030    2    1    2    0    0  0.00000000000E+00  0.00000000000E+00 -0.13386556691E+04  0.39227501997E+04  0.36872713663E+04 0.  0.
        4    1    3    3  502    0  0.17317170331E+04  0.53637600888E+03 -0.10260754346E+04  0.20831167793E+04  0.12699999809E+01 0. -1.
       -4    1    3    3    0  502 -0.17317170331E+04 -0.53637600888E+03 -0.31258023442E+03  0.18396334204E+04  0.12699999809E+01 0.  1.
</event>
<event>
 5   0  0.5177000E-08  0.3699077E+04  0.7818609E-02  0.8068166E-01
       -1   -1    0    0    0  501  0.00000000000E+00  0.00000000000E+00  0.20749356774E+04  0.20749356774E+04  0.50400001928E-02 0.  1.
        1   -1    0    0  501    0  0.00000000000E+00  0.00000000000E+00 -0.16486259455E+04  0.16486259455E+04  0.50400001928E-02 0. -1.
    10030    2    1    2    0    0  0.00000000000E+00  0.00000000000E+00  0.42630973197E+03  0.37235616229E+04  0.36990770703E+04 0.  0.
        2    1    3    3  502    0 -0.18012216225E+04 -0.16407652270E+03  0.60233046550E+03  0.19063374382E+04  0.25500000920E-02 0.  1.
       -2    1    3    3    0  502  0.18012216225E+04  0.16407652270E+03 -0.17602073353E+03  0.18172241847E+04  0.25500000920E-02 0. -1.
</event>
<event>
 5   0  0.1558258E-07  0.3715086E+04  0.7818609E-02  0.8064627E-01
        2   -1    0    0  501    0  0.00000000000E+00  0.00000000000E+00  0.21607773108E+04  0.21607773108E+04  0.25500000920E-02 0. -1.
       -2   -1    0    0    0  501  0.00000000000E+00  0.00000000000E+00 -0.15968631850E+04  0.15968631850E+04  0.25500000920E-02 0.  1.
    10030    2    1    2    0    0  0.00000000000E+00  0.00000000000E+00  0.56391412581E+03  0.37576404958E+04  0.37150858610E+04 0.  0.
        1    1    3    3  502    0  0.27207880937E+03  0.15737477579E+04  0.12413774752E+04  0.20228017501E+04  0.50400001928E-02 0. -1.
       -1    1    3    3    0  502 -0.27207880937E+03 -0.15737477579E+04 -0.67746334938E+03  0.17348387458E+04  0.50400001928E-02 0.  1.
</event>
<event>
 5   0  0.1658770E-07  0.3697944E+04  0.7818609E-02  0.8068418E-01
       -2   -1    0    0    0  501  0.00000000000E+00  0.00000000000E+00  0.13323537054E+04  0.13323537054E+04  0.25500000920E-02 0.  1.
        2   -1    0    0  501    0  0.00000000000E+00  0.00000000000E+00 -0.25659077024E+04  0.25659077024E+04  0.25500000920E-02 0. -1.
    10030    2    1    2    0    0  0.00000000000E+00  0.00000000000E+00 -0.12335539970E+04  0.38982614078E+04  0.36979435555E+04 0.  0.
        2    1    3    3  502    0 -0.88094371327E+02 -0.18207454254E+04 -0.29045710428E+03  0.18458710279E+04  0.25500000920E-02 0.  1.
       -2    1    3    3    0  502  0.88094371327E+02  0.18207454254E+04 -0.94309689275E+03  0.20523903799E+04  0.25500000920E-02 0. -1.
</event>
<event>
 5   0  0.5177000E-08  0.3691137E+04  0.7818609E-02  0.8069929E-01
       -1   -1    0    0    0  501  0.00000000000E+00  0.00000000000E+00  0.14066237526E+04  0.14066237527E+04  0.50400001928E-02 0. -1.
        1   -1    0    0  501    0  0.00000000000E+00  0.00000000000E+00 -0.24214887738E+04  0.24214887738E+04  0.50400001928E-02 0.  1.
    10030    2    1    2    0    0  0.00000000000E+00  0.00000000000E+00 -0.10148650212E+04  0.38281125265E+04  0.36911372914E+04 0.  0.
        1    1    3    3  502    0 -0.14969761629E+04 -0.57218880411E+03 -0.14567053102E+04  0.21657165144E+04  0.50400001928E-02 0.  1.
       -1    1    3    3    0  502  0.14969761629E+04  0.57218880411E+03  0.44184028904E+03  0.16623960121E+04  0.50400001928E-02 0. -1.
</event>
<event>
 5   0  0.5181371E-08  0.3697797E+04  0.7818609E-02  0.8068450E-01
       -1   -1    0    0    0  501  0.00000000000E+00  0.00000000000E+00  0.23538541147E+04  0.23538541147E+04  0.50400001928E-02 0. -1.
        1   -1    0    0  501    0  0.00000000000E+00  0.00000000000E+00 -0.14522671101E+04  0.14522671101E+04  0.50400001928E-02 0.  1.
    10030    2    1    2    0    0  0.00000000000E+00  0.00000000000E+00  0.90158700461E+03  0.38061212249E+04  0.36977965941E+04 0.  0.
        5    1    3    3  502    0 -0.69272175559E+03 -0.78531172017E+03 -0.11175974562E+04  0.15315430430E+04  0.46999998093E+01 0.  1.
       -5    1    3    3    0  502  0.69272175559E+03  0.78531172017E+03  0.20191844608E+04  0.22745781819E+04  0.46999998093E+01 0. -1.
</event>
<event>
 5   0  0.5177000E-08  0.3709086E+04  0.7818609E-02  0.8065951E-01
       -1   -1    0    0    0  501  0.00000000000E+00  0.00000000000E+00  0.13881748199E+04  0.13881748199E+04  0.50400001928E-02 0. -1.
        1   -1    0    0  501    0  0.00000000000E+00  0.00000000000E+00 -0.24775917433E+04  0.24775917433E+04  0.50400001928E-02 0.  1.
    10030    2    1    2    0    0  0.00000000000E+00  0.00000000000E+00 -0.10894169234E+04  0.38657665631E+04  0.37090863953E+04 0.  0.
        4    1    3    3  502    0 -0.13683850136E+04  0.12501200519E+04 -0.61104592802E+03  0.19515779330E+04  0.12699999809E+01 0. -1.
       -4    1    3    3    0  502  0.13683850136E+04 -0.12501200519E+04 -0.47837099538E+03  0.19141886301E+04  0.12699999809E+01 0.  1.
</event>
<event>
 5   0  0.5177000E-08  0.3746191E+04  0.7818609E-02  0.8057802E-01
        1   -1    0    0  501    0  0.00000000000E+00  0.00000000000E+00  0.28229290156E+04  0.28229290156E+04  0.50400001928E-02 0.  1.
       -1   -1    0    0    0  501  0.00000000000E+00  0.00000000000E+00 -0.12428532238E+04  0.12428532238E+04  0.50400001928E-02 0. -1.
    10030    2    1    2    0    0  0.00000000000E+00  0.00000000000E+00  0.15800757918E+04  0.40657822394E+04  0.37461908267E+04 0.  0.
        3    1    3    3  502    0 -0.96816461733E+02  0.68031252112E+03  0.26811866465E+04  0.27678439980E+04  0.10100000352E+00 0.  1.
       -3    1    3    3    0  502  0.96816461733E+02 -0.68031252112E+03 -0.11011108548E+04  0.12979382414E+04  0.10100000352E+00 0. -1.
</event>
<event>
 5   0  0.1587026E-07  0.3707282E+04  0.7818609E-02  0.8066350E-01
       -2   -1    0    0    0  501  0.00000000000E+00  0.00000000000E+00  0.19765208974E+04  0.19765208974E+04  0.25500000920E-02 0. -1.
        2   -1    0    0  501    0  0.00000000000E+00  0.00000000000E+00 -0.17384009802E+04  0.17384009802E+04  0.25500000920E-02 0.  1.
    10030    2    1    2    0    0  0.00000000000E+00  0.00000000000E+00  0.23811991713E+03  0.37149218776E+04  0.37072824902E+04 0.  0.
        3    1    3    3  502    0  0.27841629297E+03  0.93516019853E+03 -0.14602415409E+04  0.17562305080E+04  0.10100000352E+00 0.  1.
       -3    1    3    3    0  502 -0.27841629297E+03 -0.93516019853E+03  0.16983614581E+04  0.19586913696E+04  0.10100000352E+00 0. -1.
</event>
<event>
 5   0  0.5177000E-08  0.3747252E+04  0.7818609E-02  0.8057570E-01
        1   -1    0    0  501    0  0.00000000000E+00  0.00000000000E+00  0.17127013791E+04  0.17127013791E+04  0.50400001928E-02 0. -1.
       -1   -1    0    0    0  501  0.00000000000E+00  0.00000000000E+00 -0.20496706721E+04  0.20496706721E+04  0.50400001928E-02 0.  1.
    10030    2    1    2    0    0  0.00000000000E+00  0.00000000000E+00 -0.33696929298E+03  0.37623720512E+04  0.37472516792E+04 0.  0.
        2    1    3    3  502    0 -0.66296278798E+03 -0.16743095404E+04  0.35094383544E+03  0.18346644573E+04  0.25500000920E-02 0.  1.
       -2    1    3    3    0  502  0.66296278798E+03  0.16743095404E+04 -0.68791312842E+03  0.19277075939E+04  0.25500000920E-02 0. -1.
</event>
<event>
 5   0  0.1558258E-07  0.3703208E+04  0.7818609E-02  0.8067251E-01
        2   -1    0    0  501    0  0.00000000000E+00  0.00000000000E+00  0.20209879910E+04  0.20209879910E+04  0.25500000920E-02 0.  1.
       -2   -1    0    0    0  501  0.00000000000E+00  0.00000000000E+00 -0.16964164093E+04  0.16964164093E+04  0.25500000920E-02 0. -1.
    10030    2    1    2    0    0  0.00000000000E+00  0.00000000000E+00  0.32457158168E+03  0.37174044003E+04  0.37032079018E+04 0.  0.
        1    1    3    3  502    0  0.63620102900E+03 -0.15967672859E+04 -0.52884445433E+03  0.17983586882E+04  0.50400001928E-02 0. -1.
       -1    1    3    3    0  502 -0.63620102900E+03  0.15967672859E+04  0.85341603601E+03  0.19190457121E+04  0.50400001928E-02 0.  1.
</event>
<event>
 5   0  0.5177000E-08  0.3705244E+04  0.7818609E-02  0.8066801E-01
       -1   -1    0    0    0  501  0.00000000000E+00  0.00000000000E+00  0.17181560990E+04  0.17181560990E+04  0.50400001928E-02 0.  1.
        1   -1    0    0  501    0  0.00000000000E+00  0.00000000000E+00 -0.19976116180E+04  0.19976116180E+04  0.50400001928E-02 0. -1.
    10030    2    1    2    0    0  0.00000000000E+00  0.00000000000E+00 -0.27945551898E+03  0.37157677171E+04  0.37052441674E+04 0.  0.
        2    1    3    3  502    0 -0.11047128236E+04  0.74426356070E+03 -0.14309754856E+04  0.19549960386E+04  0.25500000920E-02 0. -1.
       -2    1    3    3    0  502  0.11047128236E+04 -0.74426356070E+03  0.11515199666E+04  0.17607716785E+04  0.25500000920E-02 0.  1.
</event>
<event>
 5   0  0.5177000E-08  0.3678607E+04  0.7818609E-02  0.8072719E-01
       -1   -1    0    0    0  501  0.00000000000E+00  0.00000000000E+00  0.15608291171E+04  0.15608291171E+04  0.50400001928E-02 0. -1.
        1   -1    0    0  501    0  0.00000000000E+00  0.00000000000E+00 -0.21674611910E+04  0.21674611910E+04  0.50400001928E-02 0.  1.
    10030    2    1    2    0    0  0.00000000000E+00  0.00000000000E+00 -0.60663207392E+03  0.37282903081E+04  0.36786065499E+04 0.  0.
        3    1    3    3  502    0 -0.15689555090E+04  0.95854432194E+03 -0.25155850289E+03  0.18557236585E+04  0.10100000352E+00 0. -1.
       -3    1    3    3    0  502  0.15689555090E+04 -0.95854432194E+03 -0.35507357103E+03  0.18725666496E+04  0.10100000352E+00 0.  1.
</event>
<event>
 5   0  0.1558258E-07  0.3709510E+04  0.7818609E-02  0.8065858E-01
        2   -1    0    0  501    0  0.00000000000E+00  0.00000000000E+00  0.18529079392E+04  0.18529079392E+04  0.25500000920E-02 0. -1.
       -2   -1    0    0    0  501  0.00000000000E+00  0.00000000000E+00 -0.18566038064E+04  0.18566038064E+04  0.25500000920E-02 0.  1.
    10030    2    1    2    0    0  0.00000000000E+00  0.00000000000E+00 -0.36958672377E+01  0.37095117456E+04  0.37095099045E+04 0.  0.
        1    1    3    3  502    0  0.16716123881E+04 -0.73312072245E+03 -0.33103188028E+03  0.18550838459E+04  0.50400001928E-02 0.  1.
       -1    1    3    3    0  502 -0.16716123881E+04  0.73312072245E+03  0.32733601304E+03  0.18544278997E+04  0.50400001928E-02 0. -1.
</event>
<event>
 5   0  0.5177000E-08  0.3706274E+04  0.7818609E-02  0.8066573E-01
       -1   -1    0    0    0  501  0.00000000000E+00  0.00000000000E+00  0.12905998324E+04  0.12905998324E+04  0.50400001928E-02 0. -1.
        1   -1    0    0  501    0  0.00000000000E+00  0.00000000000E+00 -0.26608684127E+04  0.26608684127E+04  0.50400001928E-02 0.  1.
    10030    2    1    2    0    0  0.00000000000E+00  0.00000000000E+00 -0.13702685803E+04  0.39514682452E+04  0.37062737771E+04 0.  0.
        4    1    3    3  502    0  0.84332482807E+03 -0.85129799218E+03  0.82196383070E+03  0.14531108660E+04  0.12699999809E+01 0. -1.
       -4    1    3    3    0  502 -0.84332482807E+03  0.85129799218E+03 -0.21922324110E+04  0.24983573791E+04  0.12699999809E+01 0.  1.
</event>
<event>
 5   0  0.1658770E-07  0.3684905E+04  0.7818609E-02  0.8071315E-01
        2   -1    0    0  501    0  0.00000000000E+00  0.00000000000E+00  0.15353809707E+04  0.15353809707E+04  0.25500000920E-02 0. -1.
       -2   -1    0    0    0  501  0.00000000000E+00  0.00000000000E+00 -0.22109378506E+04  0.22109378506E+04  0.25500000920E-02 0.  1.
    10030    2    1    2    0    0  0.00000000000E+00  0.00000000000E+00 -0.67555687991E+03  0.37463188213E+04  0.36849053736E+04 0.  0.
        2    1    3    3  502    0 -0.17202384189E+04 -0.65965725059E+03 -0.32125965892E+03  0.18701806529E+04  0.25500000920E-02 0.  1.
       -2    1    3    3    0  502  0.17202384189E+04  0.65965725059E+03 -0.35429722099E+03  0.18761381684E+04  0.25500000920E-02 0. -1.
</event>
<event>
 5   0  0.5181371E-08  0.3683151E+04  0.7818609E-02  0.8071706E-01
        1   -1    0    0  501    0  0.00000000000E+00  0.00000000000E+00  0.18864495410E+04  0.18864495410E+04  0.50400001928E-02 0.  1.
       -1   -1    0    0    0  501  0.00000000000E+00  0.00000000000E+00 -0.17977685048E+04  0.17977685048E+04  0.50400001928E-02 0. -1.
    10030    2    1    2    0    0  0.00000000000E+00  0.00000000000E+00  0.88681036208E+02  0.36842180458E+04  0.36831505919E+04 0.  0.
        5    1    3    3  502    0  0.82818423846E+03 -0.15073644279E+04  0.70281758534E+03  0.18579589069E+04  0.46999998093E+01 0.  1.
       -5    1    3    3    0  502 -0.82818423846E+03  0.15073644279E+04 -0.61413654913E+03  0.18262591389E+04  0.46999998093E+01 0. -1.
</event>
<event>
 5   0  0.1587026E-07  0.3653637E+04  0.7818609E-02  0.8078315E-01
       -2   -1    0    0    0  501  0.00000000000E+00  0.00000000000E+00  0.14027301444E+04  0.14027301444E+04  0.25500000920E-02 0. -1.
        2   -1    0    0  501    0  0.00000000000E+00  0.00000000000E+00 -0.23791215239E+04  0.23791215239E+04  0.25500000920E-02 0.  1.
    10030    2    1    2    0    0  0.00000000000E+00  0.00000000000E+00 -0.97639137953E+03  0.37818516683E+04  0.36536368066E+04 0.  0.
        3    1    3    3  502    0  0.77631040174E+03 -0.10745707423E+04  0.81285630203E+03  0.15550226680E+04  0.10100000352E+00 0. -1.
       -3    1    3    3    0  502 -0.77631040174E+03  0.10745707423E+04 -0.17892476816E+04  0.22268290002E+04  0.10100000352E+00 0.  1.
</event>
<event>
 5   0  0.5177000E-08  0.3688483E+04  0.7818609E-02  0.8070519E-01
       -1   -1    0    0    0  501  0.00000000000E+00  0.00000000000E+00  0.16630180784E+04  0.16630180784E+04  0.50400001928E-02 0. -1.
        1   -1    0    0  501    0  0.00000000000E+00  0.00000000000E+00 -0.20452137860E+04  0.20452137860E+04  0.50400001928E-02 0.  1.
    10030    2    1    2    0    0  0.00000000000E+00  0.00000000000E+00 -0.38219570759E+03  0.37082318645E+04  0.36884834284E+04 0.  0.
        2    1    3    3  502    0  0.48453469433E+03 -0.81902688500E+03  0.13971225145E+04  0.16904230917E+04  0.25500000920E-02 0. -1.
       -2    1    3    3    0  502 -0.48453469433E+03  0.81902688500E+03 -0.17793182221E+04  0.20178087728E+04  0.25500000920E-02 0.  1.
</event>
<event>
 5   0  0.1658770E-07  0.3698433E+04  0.7818609E-02  0.8068309E-01
        2   -1    0    0  501    0  0.00000000000E+00  0.00000000000E+00  0.26289884707E+04  0.26289884707E+04  0.25500000920E-02 0. -1.
       -2   -1    0    0    0  501  0.00000000000E+00  0.00000000000E+00 -0.13007292308E+04  0.13007292308E+04  0.25500000920E-02 0.  1.
    10030    2    1    2    0    0  0.00000000000E+00  0.00000000000E+00  0.13282592399E+04  0.39297177015E+04  0.36984332636E+04 0.  0.
        2    1    3    3  502    0  0.16419905135E+04 -0.61354447728E+02 -0.23727713354E+03  0.16601800061E+04  0.25500000920E-02 0.  1.
       -2    1    3    3    0  502 -0.16419905135E+04  0.61354447728E+02  0.15655363734E+04  0.22695376955E+04  0.25500000920E-02 0. -1.
</event>
<event>
 5   0  0.1558258E-07  0.3698355E+04  0.7818609E-02  0.8068326E-01
       -2   -1    0    0    0  501  0.00000000000E+00  0.00000000000E+00  0.17374580256E+04  0.17374580256E+04  0.25500000920E-02 0. -1.
        2   -1    0    0  501    0  0.00000000000E+00  0.00000000000E+00 -0.19680805959E+04  0.19680805959E+04  0.25500000920E-02 0.  1.
    10030    2    1    2    0    0  0.00000000000E+00  0.00000000000E+00 -0.23062257021E+03  0.37055386215E+04  0.36983549999E+04 0.  0.
        1    1    3    3  502    0  0.17692711894E+04  0.30849200683E+02  0.42256028950E+03  0.18192936578E+04  0.50400001928E-02 0. -1.
       -1    1    3    3    0  502 -0.17692711894E+04 -0.30849200683E+02 -0.65318285971E+03  0.18862449637E+04  0.50400001928E-02 0.  1.
</event>
<event>
 5   0  0.5177000E-08  0.3695999E+04  0.7818609E-02  0.8068849E-01
       -1   -1    0    0    0  501  0.00000000000E+00  0.00000000000E+00  0.14634499657E+04  0.14634499657E+04  0.50400001928E-02 0.  1.
        1   -1    0    0  501    0  0.00000000000E+00  0.00000000000E+00 -0.23335968201E+04  0.23335968201E+04  0.50400001928E-02 0. -1.
    10030    2    1    2    0    0  0.00000000000E+00  0.00000000000E+00 -0.87014685440E+03  0.37970467858E+04  0.36959990185E+04 0.  0.
        3    1    3    3  502    0  0.10075560051E+04 -0.11435882470E+04  0.63855266597E+03  0.16524868228E+04  0.10100000352E+00 0. -1.
       -3    1    3    3    0  502 -0.10075560051E+04  0.11435882470E+04 -0.15086995204E+04  0.21445599630E+04  0.10100000352E+00 0.  1.
</event>
<event>
 5   0  0.5177000E-08  0.3705755E+04  0.7818609E-02  0.8066688E-01
       -1   -1    0    0    0  501  0.00000000000E+00  0.00000000000E+00  0.11683410871E+04  0.11683410871E+04  0.50400001928E-02 0.  1.
        1   -1    0    0  501    0  0.00000000000E+00  0.00000000000E+00 -0.29384863020E+04  0.29384863020E+04  0.50400001928E-02 0. -1.
    10030    2    1    2    0    0  0.00000000000E+00  0.00000000000E+00 -0.17701452149E+04  0.41068273891E+04  0.37057545955E+04 0.  0.
        4    1    3    3  502    0 -0.16382556823E+03  0.16846316271E+04 -0.17205412129E+04  0.24135215379E+04  0.12699999809E+01 0. -1.
       -4    1    3    3    0  502  0.16382556823E+03 -0.16846316271E+04 -0.49604001996E+02  0.16933058512E+04  0.12699999809E+01 0.  1.
</event>
<event>
 5   0  0.1658770E-07  0.3696224E+04  0.7818609E-02  0.8068799E-01
       -2   -1    0    0    0  501  0.00000000000E+00  0.00000000000E+00  0.23202280900E+04  0.23202280900E+04  0.25500000920E-02 0.  1.
        2   -1    0    0  501    0  0.00000000000E+00  0.00000000000E+00 -0.14720614350E+04  0.14720614350E+04  0.25500000920E-02 0. -1.
    10030    2    1    2    0    0  0.00000000000E+00  0.00000000000E+00  0.84816665508E+03  0.37922895250E+04  0.36962241770E+04 0.  0.
        2    1    3    3  502    0  0.61730359905E+02 -0.16288115554E+04 -0.46957738198E+03  0.16962725719E+04  0.25500000920E-02 0. -1.
       -2    1    3    3    0  502 -0.61730359905E+02  0.16288115554E+04  0.13177440371E+04  0.20960169531E+04  0.25500000920E-02 0.  1.
</event>
<event>
 5   0  0.1666189E-07  0.3703808E+04  0.7818609E-02  0.8067118E-01
        2   -1    0    0  501    0  0.00000000000E+00  0.00000000000E+00  0.20779642531E+04  0.20779642531E+04  0.25500000920E-02 0. -1.
       -2   -1    0    0    0  501  0.00000000000E+00  0.00000000000E+00 -0.16504365514E+04  0.16504365514E+04  0.25500000920E-02 0.  1.
    10030    2    1    2    0    0  0.00000000000E+00  0.00000000000E+00  0.42752770176E+03  0.37284008045E+04  0.37038078546E+04 0.  0.
        4    1    3    3  502    0  0.56108085241E+03 -0.76451804043E+03 -0.13874730972E+04  0.16805900051E+04  0.12699999809E+01 0.  1.
       -4    1    3    3    0  502 -0.56108085241E+03  0.76451804043E+03  0.18150007989E+04  0.20478107994E+04  0.12699999809E+01 0. -1.
</event>
<event>
 5   0  0.1587026E-07  0.3812953E+04  0.7818609E-02  0.8043381E-01
        2   -1    0    0  501    0  0.00000000000E+00  0.00000000000E+00  0.19979707142E+04  0.19979707142E+04  0.25500000920E-02 0. -1.
       -2   -1    0    0    0  501  0.00000000000E+00  0.00000000000E+00 -0.18191717149E+04  0.18191717149E+04  0.25500000920E-02 0.  1.
    10030    2    1    2    0    0  0.00000000000E+00  0.00000000000E+00  0.17879899933E+03  0.38171424292E+04  0.38129525623E+04 0.  0.
        3    1    3    3  502    0  0.51965516545E+03 -0.13119917904E+04 -0.11939170212E+04  0.18484593078E+04  0.10100000352E+00 0.  1.
       -3    1    3    3    0  502 -0.51965516545E+03  0.13119917904E+04  0.13727160205E+04  0.19686831213E+04  0.10100000352E+00 0. -1.
</event>
<event>
 5   0  0.1686284E-07  0.3711001E+04  0.7818609E-02  0.8065528E-01
        2   -1    0    0  501    0  0.00000000000E+00  0.00000000000E+00  0.18268123750E+04  0.18268123750E+04  0.25500000920E-02 0. -1.
       -2   -1    0    0    0  501  0.00000000000E+00  0.00000000000E+00 -0.18846394042E+04  0.18846394042E+04  0.25500000920E-02 0.  1.
    10030    2    1    2    0    0  0.00000000000E+00  0.00000000000E+00 -0.57827029255E+02  0.37114517792E+04  0.37110012590E+04 0.  0.
        5    1    3    3  502    0 -0.70234188472E+03 -0.66755842503E+03  0.15536635364E+04  0.18310682260E+04  0.46999998093E+01 0. -1.
       -5    1    3    3    0  502  0.70234188472E+03  0.66755842503E+03 -0.16114905657E+04  0.18803835532E+04  0.46999998093E+01 0.  1.
</event>
<event>
 5   0  0.5177000E-08  0.3589284E+04  0.7818609E-02  0.8092951E-01
        1   -1    0    0  501    0  0.00000000000E+00  0.00000000000E+00  0.21269882730E+04  0.21269882730E+04  0.50400001928E-02 0.  1.
       -1   -1    0    0    0  501  0.00000000000E+00  0.00000000000E+00 -0.15142251457E+04  0.15142251457E+04  0.50400001928E-02 0. -1.
    10030    2    1    2    0    0  0.00000000000E+00  0.00000000000E+00  0.61276312731E+03  0.36412134187E+04  0.35892835650E+04 0.  0.
        4    1    3    3  502    0  0.98631103062E+03  0.27096525804E+03 -0.11895738812E+04  0.15688592199E+04  0.12699999809E+01 0. -1.
       -4    1    3    3    0  502 -0.98631103062E+03 -0.27096525804E+03  0.18023370085E+04  0.20723541988E+04  0.12699999809E+01 0.  1.
</event>
<event>
 5   0  0.5181371E-08  0.3718628E+04  0.7818609E-02  0.8063846E-01
       -1   -1    0    0    0  501  0.00000000000E+00  0.00000000000E+00  0.16468353004E+04  0.16468353004E+04  0.50400001928E-02 0.  1.
        1   -1    0    0  501    0  0.00000000000E+00  0.00000000000E+00 -0.20992072359E+04  0.20992072359E+04  0.50400001928E-02 0. -1.
    10030    2    1    2    0    0  0.00000000000E+00  0.00000000000E+00 -0.45237193543E+03  0.37460425363E+04  0.37186280153E+04 0.  0.
        5    1    3    3  502    0  0.88785814846E+03 -0.15990047455E+04 -0.56319408921E+03  0.19137183544E+04  0.46999998093E+01 0. -1.
       -5    1    3    3    0  502 -0.88785814846E+03  0.15990047455E+04  0.11082215378E+03  0.18323241819E+04  0.46999998093E+01 0.  1.
</event>
<event>
 5   0  0.5177000E-08  0.3682135E+04  0.7818609E-02  0.8071932E-01
       -1   -1    0    0    0  501  0.00000000000E+00  0.00000000000E+00  0.23197305845E+04  0.23197305845E+04  0.50400001928E-02 0. -1.
        1   -1    0    0  501    0  0.00000000000E+00  0.00000000000E+00 -0.14611741362E+04  0.14611741362E+04  0.50400001928E-02 0.  1.
    10030    2    1    2    0    0  0.00000000000E+00  0.00000000000E+00  0.85855644830E+03  0.37809047207E+04  0.36821354309E+04 0.  0.
        1    1    3    3  502    0 -0.98193200988E+03 -0.52429683485E+03 -0.10764996849E+04  0.15485248512E+04  0.50400001928E-02 0.  1.
       -1    1    3    3    0  502  0.98193200988E+03  0.52429683485E+03  0.19350561332E+04  0.22323798695E+04  0.50400001928E-02 0. -1.
</event>
<event>
 5   0  0.1666189E-07  0.3697952E+04  0.7818609E-02  0.8068416E-01
        2   -1    0    0  501    0  0.00000000000E+00  0.00000000000E+00  0.13235758007E+04  0.13235758007E+04  0.25500000920E-02 0. -1.
       -2   -1    0    0    0  501  0.00000000000E+00  0.00000000000E+00 -0.25829358958E+04  0.25829358958E+04  0.25500000920E-02 0.  1.
    10030    2    1    2    0    0  0.00000000000E+00  0.00000000000E+00 -0.12593600951E+04  0.39065116965E+04  0.36979515662E+04 0.  0.
        4    1    3    3  502    0 -0.52649127781E+03  0.23872966375E+03 -0.24850138266E+04  0.25513683092E+04  0.12699999809E+01 0.  1.
       -4    1    3    3    0  502  0.52649127781E+03 -0.23872966375E+03  0.12256537314E+04  0.13551433873E+04  0.12699999809E+01 0. -1.
</event>
<event>
 5   0  0.1666189E-07  0.3707271E+04  0.7818609E-02  0.8066352E-01
       -2   -1    0    0    0  501  0.00000000000E+00  0.00000000000E+00  0.16637616282E+04  0.16637616282E+04  0.25500000920E-02 0. -1.
        2   -1    0    0  501    0  0.00000000000E+00  0.00000000000E+00 -0.20651788201E+04  0.20651788201E+04  0.25500000920E-02 0.  1.
    10030    2    1    2    0    0  0.00000000000E+00  0.00000000000E+00 -0.40141719191E+03  0.37289404482E+04  0.37072713826E+04 0.  0.
        4    1    3    3  502    0  0.56142585377E+03  0.11362156797E+04  0.11598910114E+04  0.17180028613E+04  0.12699999809E+01 0. -1.
       -4    1    3    3    0  502 -0.56142585377E+03 -0.11362156797E+04 -0.15613082033E+04  0.20109375870E+04  0.12699999809E+01 0.  1.
</event>
<event>
 5   0  0.5177000E-08  0.3705431E+04  0.7818609E-02  0.8066759E-01
        3   -1    0    0  501    0  0.00000000000E+00  0.00000000000E+00  0.15076896468E+04  0.15076896502E+04  0.10100000352E+00 0.  1.
       -3   -1    0    0    0  501  0.00000000000E+00  0.00000000000E+00 -0.22766985649E+04  0.22766985671E+04  0.10100000352E+00 0. -1.
    10030    2    1    2    0    0  0.00000000000E+00  0.00000000000E+00 -0.76900891803E+03  0.37843882173E+04  0.37054310766E+04 0.  0.
        5    1    3    3  502    0 -0.86248533656E+03  0.56600758984E+03 -0.19562206555E+04  0.22115756579E+04  0.46999998093E+01 0. -1.
       -5    1    3    3    0  502  0.86248533656E+03 -0.56600758984E+03  0.11872117375E+04  0.15728125594E+04  0.46999998093E+01 0.  1.
</event>
<event>
 5   0  0.1658770E-07  0.3702056E+04  0.7818609E-02  0.8067506E-01
        2   -1    0    0  501    0  0.00000000000E+00  0.00000000000E+00  0.22702073770E+04  0.22702073770E+04  0.25500000920E-02 0.  1.
       -2   -1    0    0    0  501  0.00000000000E+00  0.00000000000E+00 -0.15092471868E+04  0.15092471868E+04  0.25500000920E-02 0. -1.
    10030    2    1    2    0    0  0.00000000000E+00  0.00000000000E+00  0.76096019023E+03  0.37794545638E+04  0.37020556976E+04 0.  0.
        2    1    3    3  502    0 -0.47468858426E+03 -0.99238907002E+03  0.19002738544E+04  0.21957244909E+04  0.25500000920E-02 0.  1.
       -2    1    3    3    0  502  0.47468858426E+03  0.99238907002E+03 -0.11393136641E+04  0.15837300728E+04  0.25500000920E-02 0. -1.
</event>
<event>
 5   0  0.5177000E-08  0.3694083E+04  0.7818609E-02  0.8069274E-01
       -1   -1    0    0    0  501  0.00000000000E+00  0.00000000000E+00  0.24901933149E+04  0.24901933150E+04  0.50400001928E-02 0.  1.
        1   -1    0    0  501    0  0.00000000000E+00  0.00000000000E+00 -0.13699989369E+04  0.13699989369E+04  0.50400001928E-02 0. -1.
    10030    2    1    2    0    0  0.00000000000E+00  0.00000000000E+00  0.11201943780E+04  0.38601922519E+04  0.36940829412E+04 0.  0.
        2    1    3    3  502    0  0.17108615375E+04 -0.33474090923E+03  0.11978379309E+04  0.21151629690E+04  0.25500000920E-02 0. -1.
       -2    1    3    3    0  502 -0.17108615375E+04  0.33474090923E+03 -0.77643552830E+02  0.17450292829E+04  0.25500000920E-02 0.  1.
</event>
<event>
 5   0  0.5177000E-08  0.3631141E+04  0.7818609E-02  0.8083395E-01
       -1   -1    0    0    0  501  0.00000000000E+00  0.00000000000E+00  0.12202699413E+04  0.12202699413E+04  0.50400001928E-02 0. -1.
        1   -1    0    0  501    0  0.00000000000E+00  0.00000000000E+00 -0.27012844732E+04  0.27012844732E+04  0.50400001928E-02 0.  1.
    10030    2    1    2    0    0  0.00000000000E+00  0.00000000000E+00 -0.14810145320E+04  0.39215544145E+04  0.36311410028E+04 0.  0.
        3    1    3    3  502    0 -0.80197083811E+02 -0.13786180990E+04 -0.20134519264E+04  0.24415175824E+04  0.10100000352E+00 0.  1.
       -3    1    3    3    0  502  0.80197083811E+02  0.13786180990E+04  0.53243739448E+03  0.14800368321E+04  0.10100000352E+00 0. -1.
</event>
<event>
 5   0  0.1587026E-07  0.3703510E+04  0.7818609E-02  0.8067184E-01
       -2   -1    0    0    0  501  0.00000000000E+00  0.00000000000E+00  0.16622595406E+04  0.16622595406E+04  0.25500000920E-02 0. -1.
        2   -1    0    0  501    0  0.00000000000E+00  0.00000000000E+00 -0.20628527615E+04  0.20628527615E+04  0.25500000920E-02 0.  1.
    10030    2    1    2    0    0  0.00000000000E+00  0.00000000000E+00 -0.40059322093E+03  0.37251123021E+04  0.37035100560E+04 0.  0.
        3    1    3    3  502    0 -0.13253188590E+04 -0.76866100151E+03 -0.12464048409E+04  0.19750531260E+04  0.10100000352E+00 0.  1.
       -3    1    3    3    0  502  0.13253188590E+04  0.76866100151E+03  0.84581161994E+03  0.17500591761E+04  0.10100000352E+00 0. -1.
</event>
<event>
 5   0  0.1558258E-07  0.3693595E+04  0.7818609E-02  0.8069383E-01
        2   -1    0    0  501    0  0.00000000000E+00  0.00000000000E+00  0.11459965694E+04  0.11459965694E+04  0.25500000920E-02 0. -1.
       -2   -1    0    0    0  501  0.00000000000E+00  0.00000000000E+00 -0.29761527210E+04  0.29761527210E+04  0.25500000920E-02 0.  1.
    10030    2    1    2    0    0  0.00000000000E+00  0.00000000000E+00 -0.18301561516E+04  0.41221492905E+04  0.36935948930E+04 0.  0.
        1    1    3    3  502    0  0.66347676202E+03 -0.97297046735E+03 -0.25027360500E+04  0.27659646925E+04  0.50400001928E-02 0.  1.
       -1    1    3    3    0  502 -0.66347676202E+03  0.97297046735E+03  0.67257989841E+03  0.13561845980E+04  0.50400001928E-02 0. -1.
</event>
<event>
 5   0  0.5177000E-08  0.3652095E+04  0.7818609E-02  0.8078662E-01
        1   -1    0    0  501    0  0.00000000000E+00  0.00000000000E+00  0.21797667767E+04  0.21797667767E+04  0.50400001928E-02 0. -1.
       -1   -1    0    0    0  501  0.00000000000E+00  0.00000000000E+00 -0.15297274642E+04  0.15297274642E+04  0.50400001928E-02 0.  1.
    10030    2    1    2    0    0  0.00000000000E+00  0.00000000000E+00  0.65003931247E+03  0.37094942409E+04  0.36520947983E+04 0.  0.
        4    1    3    3  502    0  0.15232184757E+04  0.63245789698E+03 -0.47103929981E+03  0.17152484226E+04  0.12699999809E+01 0.  1.
       -4    1    3    3    0  502 -0.15232184757E+04 -0.63245789698E+03  0.11210786123E+04  0.19942458184E+04  0.12699999809E+01 0. -1.
</event>
<event>
 5   0  0.5177000E-08  0.3718286E+04  0.7818609E-02  0.8063922E-01
        1   -1    0    0  501    0  0.00000000000E+00  0.00000000000E+00  0.14410308932E+04  0.14410308932E+04  0.50400001928E-02 0.  1.
       -1   -1    0    0    0  501  0.00000000000E+00  0.00000000000E+00 -0.23985691118E+04  0.23985691118E+04  0.50400001928E-02 0. -1.
    10030    2    1    2    0    0  0.00000000000E+00  0.00000000000E+00 -0.95753821858E+03  0.38396000051E+04  0.37182857285E+04 0.  0.
        4    1    3    3  502    0  0.48600438779E+03  0.17362208669E+04 -0.10376087924E+02  0.18029898612E+04  0.12699999809E+01 0.  1.
       -4    1    3    3    0  502 -0.48600438779E+03 -0.17362208669E+04 -0.94716213065E+03  0.20366101439E+04  0.12699999809E+01 0. -1.
</event>
<event>
 5   0  0.5181371E-08  0.3724024E+04  0.7818609E-02  0.8062659E-01
       -1   -1    0    0    0  501  0.00000000000E+00  0.00000000000E+00  0.18672215882E+04  0.18672215882E+04  0.50400001928E-02 0. -1.
        1   -1    0    0  501    0  0.00000000000E+00  0.00000000000E+00 -0.18568167492E+04  0.18568167492E+04  0.50400001928E-02 0.  1.
    10030    2    1    2    0    0  0.00000000000E+00  0.00000000000E+00  0.10404839021E+02  0.37240383375E+04  0.37240238021E+04 0.  0.
        5    1    3    3  502    0  0.20990190295E+03 -0.71007713140E+03 -0.17032532203E+04  0.18572458006E+04  0.46999998093E+01 0.  1.
       -5    1    3    3    0  502 -0.20990190295E+03  0.71007713140E+03  0.17136580593E+04  0.18667925369E+04  0.46999998093E+01 0. -1.
</event>
<event>
 5   0  0.1666189E-07  0.3690552E+04  0.7818609E-02  0.8070059E-01
        2   -1    0    0  501    0  0.00000000000E+00  0.00000000000E+00  0.23613956204E+04  0.23613956204E+04  0.25500000920E-02 0.  1.
       -2   -1    0    0    0  501  0.00000000000E+00  0.00000000000E+00 -0.14419622050E+04  0.14419622050E+04  0.25500000920E-02 0. -1.
    10030    2    1    2    0    0  0.00000000000E+00  0.00000000000E+00  0.91943341539E+03  0.38033578253E+04  0.36905518479E+04 0.  0.
        4    1    3    3  502    0 -0.78794066315E+03  0.15476911642E+04 -0.18291644492E+03  0.17463271363E+04  0.12699999809E+01 0. -1.
       -4    1    3    3    0  502  0.78794066315E+03 -0.15476911642E+04  0.11023498603E+04  0.20570306890E+04  0.12699999809E+01 0.  1.
</event>
<event>
 5   0  0.5181371E-08  0.3702496E+04  0.7818609E-02  0.8067409E-01
        1   -1    0    0  501    0  0.00000000000E+00  0.00000000000E+00  0.28401405401E+04  0.28401405401E+04  0.50400001928E-02 0. -1.
       -1   -1    0    0    0  501  0.00000000000E+00  0.00000000000E+00 -0.12066726894E+04  0.12066726894E+04  0.50400001928E-02 0.  1.
    10030    2    1    2    0    0  0.00000000000E+00  0.00000000000E+00  0.16334678507E+04  0.40468132295E+04  0.37024964679E+04 0.  0.
        5    1    3    3  502    0 -0.11864612516E+04  0.13338468786E+04  0.28098739409E+03  0.18071562752E+04  0.46999998093E+01 0.  1.
       -5    1    3    3    0  502  0.11864612516E+04 -0.13338468786E+04  0.13524804566E+04  0.22396569543E+04  0.46999998093E+01 0. -1.
</event>
<event>
 5   0  0.1587026E-07  0.3707549E+04  0.7818609E-02  0.8066291E-01
       -2   -1    0    0    0  501  0.00000000000E+00  0.00000000000E+00  0.24807878901E+04  0.24807878901E+04  0.25500000920E-02 0.  1.
        2   -1    0    0  501    0  0.00000000000E+00  0.00000000000E+00 -0.13852370396E+04  0.13852370396E+04  0.25500000920E-02 0. -1.
    10030    2    1    2    0    0  0.00000000000E+00  0.00000000000E+00  0.10955508504E+04  0.38660249297E+04  0.37075486634E+04 0.  0.
        3    1    3    3  502    0 -0.51346031594E+03  0.17563843952E+04  0.23853253853E+03  0.18453794791E+04  0.10100000352E+00 0.  1.
       -3    1    3    3    0  502  0.51346031594E+03 -0.17563843952E+04  0.85701831191E+03  0.20206454506E+04  0.10100000352E+00 0. -1.
</event>
<event>
 5   0  0.1587026E-07  0.3696502E+04  0.7818609E-02  0.8068738E-01
        2   -1    0    0  501    0  0.00000000000E+00  0.00000000000E+00  0.18358755625E+04  0.18358755625E+04  0.25500000920E-02 0. -1.
       -2   -1    0    0    0  501  0.00000000000E+00  0.00000000000E+00 -0.18607095977E+04  0.18607095978E+04  0.25500000920E-02 0.  1.
    10030    2    1    2    0    0  0.00000000000E+00  0.00000000000E+00 -0.24834035271E+02  0.36965851602E+04  0.36965017405E+04 0.  0.
        3    1    3    3  502    0 -0.18290163713E+04  0.21851735209E+03 -0.16401380746E+03  0.18493110228E+04  0.10100000352E+00 0.  1.
       -3    1    3    3    0  502  0.18290163713E+04 -0.21851735209E+03  0.13917977219E+03  0.18472741375E+04  0.10100000352E+00 0. -1.
</event>
<event>
 5   0  0.5181371E-08  0.3698586E+04  0.7818609E-02  0.8068275E-01
        1   -1    0    0  501    0  0.00000000000E+00  0.00000000000E+00  0.32083859686E+04  0.32083859686E+04  0.50400001928E-02 0.  1.
       -1   -1    0    0    0  501  0.00000000000E+00  0.00000000000E+00 -0.10659204922E+04  0.10659204922E+04  0.50400001928E-02 0. -1.
    10030    2    1    2    0    0  0.00000000000E+00  0.00000000000E+00  0.21424654765E+04  0.42743064608E+04  0.36985858653E+04 0.  0.
        5    1    3    3  502    0 -0.10249628342E+04 -0.65004496999E+03 -0.54121482169E+03  0.13289254485E+04  0.46999998093E+01 0. -1.
       -5    1    3    3    0  502  0.10249628342E+04  0.65004496999E+03  0.26836802982E+04  0.29453810123E+04  0.46999998093E+01 0.  1.
</event>
<event>
 5   0  0.1587026E-07  0.3660354E+04  0.7818609E-02  0.8076805E-01
        2   -1    0    0  501    0  0.00000000000E+00  0.00000000000E+00  0.27078977827E+04  0.27078977827E+04  0.25500000920E-02 0.  1.
       -2   -1    0    0    0  501  0.00000000000E+00  0.00000000000E+00 -0.12369552476E+04  0.12369552476E+04  0.25500000920E-02 0. -1.
    10030    2    1    2    0    0  0.00000000000E+00  0.00000000000E+00  0.14709425351E+04  0.39448530303E+04  0.36603542846E+04 0.  0.
        3    1    3    3  502    0  0.74109236607E+03 -0.80888356543E+03 -0.84332609873E+03  0.13837302615E+04  0.10100000352E+00 0. -1.
       -3    1    3    3    0  502 -0.74109236607E+03  0.80888356543E+03  0.23142686338E+04  0.25611227688E+04  0.10100000352E+00 0.  1.
</event>
<event>
 5   0  0.1658770E-07  0.3720219E+04  0.7818609E-02  0.8063496E-01
        2   -1    0    0  501    0  0.00000000000E+00  0.00000000000E+00  0.16818149340E+04  0.16818149340E+04  0.25500000920E-02 0.  1.
       -2   -1    0    0    0  501  0.00000000000E+00  0.00000000000E+00 -0.20573058098E+04  0.20573058098E+04  0.25500000920E-02 0. -1.
    10030    2    1    2    0    0  0.00000000000E+00  0.00000000000E+00 -0.37549087573E+03  0.37391207438E+04  0.37202191520E+04 0.  0.
        2    1    3    3  502    0  0.91150493197E+03 -0.23705602114E+03 -0.17999435092E+04  0.20314609114E+04  0.25500000920E-02 0. -1.
       -2    1    3    3    0  502 -0.91150493197E+03  0.23705602114E+03  0.14244526335E+04  0.17076598324E+04  0.25500000920E-02 0.  1.
</event>
<event>
 5   0  0.1558258E-07  0.3690515E+04  0.7818609E-02  0.8070067E-01
        2   -1    0    0  501    0  0.00000000000E+00  0.00000000000E+00  0.21082983445E+04  0.21082983445E+04  0.25500000920E-02 0. -1.
       -2   -1    0    0    0  501  0.00000000000E+00  0.00000000000E+00 -0.16150344044E+04  0.16150344044E+04  0.25500000920E-02 0.  1.
    10030    2    1    2    0    0  0.00000000000E+00  0.00000000000E+00  0.49326394006E+03  0.37233327489E+04  0.36905145230E+04 0.  0.
        1    1    3    3  502    0  0.43337261541E+03  0.49385366161E+03 -0.14930192507E+04  0.16311988677E+04  0.50400001928E-02 0.  1.
       -1    1    3    3    0  502 -0.43337261541E+03 -0.49385366161E+03  0.19862831908E+04  0.20921338812E+04  0.50400001928E-02 0. -1.
</event>
<event>
 5   0  0.5177000E-08  0.3693244E+04  0.7818609E-02  0.8069461E-01
        1   -1    0    0  501    0  0.00000000000E+00  0.00000000000E+00  0.15823126720E+04  0.15823126720E+04  0.50400001928E-02 0.  1.
       -1   -1    0    0    0  501  0.00000000000E+00  0.00000000000E+00 -0.21550816832E+04  0.21550816832E+04  0.50400001928E-02 0. -1.
    10030    2    1    2    0    0  0.00000000000E+00  0.00000000000E+00 -0.57276901114E+03  0.37373943552E+04  0.36932441330E+04 0.  0.
        1    1    3    3  502    0 -0.15325488336E+04 -0.24376557088E+03  0.72652337279E+03  0.17134654336E+04  0.50400001928E-02 0.  1.
       -1    1    3    3    0  502  0.15325488336E+04  0.24376557088E+03 -0.12992923839E+04  0.20239289216E+04  0.50400001928E-02 0. -1.
</event>
<event>
 5   0  0.1666189E-07  0.3709846E+04  0.7818609E-02  0.8065783E-01
        2   -1    0    0  501    0  0.00000000000E+00  0.00000000000E+00  0.30828435514E+04  0.30828435514E+04  0.25500000920E-02 0. -1.
       -2   -1    0    0    0  501  0.00000000000E+00  0.00000000000E+00 -0.11160928256E+04  0.11160928256E+04  0.25500000920E-02 0.  1.
    10030    2    1    2    0    0  0.00000000000E+00  0.00000000000E+00  0.19667507258E+04  0.41989363771E+04  0.37098461264E+04 0.  0.
        4    1    3    3  502    0  0.13564900801E+04  0.62157476296E+03 -0.26386314961E+03  0.15152708992E+04  0.12699999809E+01 0.  1.
       -4    1    3    3    0  502 -0.13564900801E+04 -0.62157476296E+03  0.22306138754E+04  0.26836654779E+04  0.12699999809E+01 0. -1.
</event>
<event>
 5   0  0.1666189E-07  0.3696366E+04  0.7818609E-02  0.8068768E-01
       -2   -1    0    0    0  501  0.00000000000E+00  0.00000000000E+00  0.21530404458E+04  0.21530404458E+04  0.25500000920E-02 0.  1.
        2   -1    0    0  501    0  0.00000000000E+00  0.00000000000E+00 -0.15864917595E+04  0.15864917595E+04  0.25500000920E-02 0. -1.
    10030    2    1    2    0    0  0.00000000000E+00  0.00000000000E+00  0.56654868631E+03  0.37395322052E+04  0.36963662833E+04 0.  0.
        4    1    3    3  502    0  0.10684800097E+04  0.11521634136E+04  0.12675955118E+04  0.20188932753E+04  0.12699999809E+01 0.  1.
       -4    1    3    3    0  502 -0.10684800097E+04 -0.11521634136E+04 -0.70104682552E+03  0.17206389299E+04  0.12699999809E+01 0. -1.
</event>
<event>
 5   0  0.1587026E-07  0.3707302E+04  0.7818609E-02  0.8066346E-01
       -2   -1    0    0    0  501  0.00000000000E+00  0.00000000000E+00  0.10915012583E+04  0.10915012583E+04  0.25500000920E-02 0. -1.
        2   -1    0    0  501    0  0.00000000000E+00  0.00000000000E+00 -0.31479775912E+04  0.31479775912E+04  0.25500000920E-02 0.  1.
    10030    2    1    2    0    0  0.00000000000E+00  0.00000000000E+00 -0.20564763329E+04  0.42394788495E+04  0.37073017152E+04 0.  0.
        3    1    3    3  502    0  0.97054126860E+03  0.24065488840E+03 -0.28131103473E+04  0.29855409837E+04  0.10100000352E+00 0.  1.
       -3    1    3    3    0  502 -0.97054126860E+03 -0.24065488840E+03  0.75663401436E+03  0.12539378658E+04  0.10100000352E+00 0. -1.
</event>
<event>
 5   0  0.5177000E-08  0.3716842E+04  0.7818609E-02  0.8064240E-01
       -1   -1    0    0    0  501  0.00000000000E+00  0.00000000000E+00  0.13213978313E+04  0.13213978313E+04  0.50400001928E-02 0.  1.
        1   -1    0    0  501    0  0.00000000000E+00  0.00000000000E+00 -0.26136932334E+04  0.26136932334E+04  0.50400001928E-02 0. -1.
    10030    2    1    2    0    0  0.00000000000E+00  0.00000000000E+00 -0.12922954021E+04  0.39350910647E+04  0.37168419769E+04 0.  0.
        4    1    3    3  502    0  0.16270656244E+04 -0.37640779030E+03  0.21701774712E+03  0.16840794774E+04  0.12699999809E+01 0. -1.
       -4    1    3    3    0  502 -0.16270656244E+04  0.37640779030E+03 -0.15093131492E+04  0.22510115873E+04  0.12699999809E+01 0.  1.
</event>
<event>
 5   0  0.5177000E-08  0.3706500E+04  0.7818609E-02  0.8066523E-01
       -1   -1    0    0    0  501  0.00000000000E+00  0.00000000000E+00  0.29478127731E+04  0.29478127731E+04  0.50400001928E-02 0.  1.
        1   -1    0    0  501    0  0.00000000000E+00  0.00000000000E+00 -0.11651133258E+04  0.11651133258E+04  0.50400001928E-02 0. -1.
    10030    2    1    2    0    0  0.00000000000E+00  0.00000000000E+00  0.17826994473E+04  0.41129260989E+04  0.37065002058E+04 0.  0.
        2    1    3    3  502    0 -0.16616516912E+04  0.34074147752E+03  0.62932971483E+02  0.16973955509E+04  0.25500000920E-02 0. -1.
       -2    1    3    3    0  502  0.16616516912E+04 -0.34074147752E+03  0.17197664758E+04  0.24155305480E+04  0.25500000920E-02 0.  1.
</event>
<event>
 5   0  0.1587026E-07  0.3683538E+04  0.7818609E-02  0.8071620E-01
        2   -1    0    0  501    0  0.00000000000E+00  0.00000000000E+00  0.12882339076E+04  0.12882339076E+04  0.25500000920E-02 0. -1.
       -2   -1    0    0    0  501  0.00000000000E+00  0.00000000000E+00 -0.26331502939E+04  0.26331502939E+04  0.25500000920E-02 0.  1.
    10030    2    1    2    0    0  0.00000000000E+00  0.00000000000E+00 -0.13449163862E+04  0.39213842015E+04  0.36835382406E+04 0.  0.
        3    1    3    3  502    0  0.25161690152E+03 -0.11813863372E+04  0.80768795970E+03  0.14530466591E+04  0.10100000352E+00 0. -1.
       -3    1    3    3    0  502 -0.25161690152E+03  0.11813863372E+04 -0.21526043459E+04  0.24683375424E+04  0.10100000352E+00 0.  1.
</event>
<event>
 5   0  0.1666189E-07  0.3699724E+04  0.7818609E-02  0.8068023E-01
        2   -1    0    0  501    0  0.00000000000E+00  0.00000000000E+00  0.31782166891E+04  0.31782166891E+04  0.25500000920E-02 0.  1.
       -2   -1    0    0    0  501  0.00000000000E+00  0.00000000000E+00 -0.10767009866E+04  0.10767009866E+04  0.25500000920E-02 0. -1.
    10030    2    1    2    0    0  0.00000000000E+00  0.00000000000E+00  0.21015157025E+04  0.42549176756E+04  0.36997237976E+04 0.  0.
        4    1    3    3  502    0  0.16166214264E+04  0.69522962100E+03  0.17065748710E+04  0.24513686923E+04  0.12699999809E+01 0.  1.
       -4    1    3    3    0  502 -0.16166214264E+04 -0.69522962100E+03  0.39494083151E+03  0.18035489834E+04  0.12699999809E+01 0. -1.
</event>
<event>
 5   0  0.1666189E-07  0.3708414E+04  0.7818609E-02  0.8066100E-01
       -2   -1    0    0    0  501  0.00000000000E+00  0.00000000000E+00  0.32231142408E+04  0.32231142408E+04  0.25500000920E-02 0.  1.
        2   -1    0    0  501    0  0.00000000000E+00  0.00000000000E+00 -0.10666964369E+04  0.10666964369E+04  0.25500000920E-02 0. -1.
    10030    2    1    2    0    0  0.00000000000E+00  0.00000000000E+00  0.21564178038E+04  0.42898106777E+04  0.37084144733E+04 0.  0.
        4    1    3    3  502    0  0.58995271552E+03  0.60879538438E+03  0.29858073087E+04  0.31038239196E+04  0.12699999809E+01 0.  1.
       -4    1    3    3    0  502 -0.58995271552E+03 -0.60879538438E+03 -0.82938950484E+03  0.11859867580E+04  0.12699999809E+01 0. -1.
</event>
<event>
 5   0  0.5177000E-08  0.3710221E+04  0.7818609E-02  0.8065700E-01
       -1   -1    0    0    0  501  0.00000000000E+00  0.00000000000E+00  0.23712659993E+04  0.23712659993E+04  0.50400001928E-02 0. -1.
        1   -1    0    0  501    0  0.00000000000E+00  0.00000000000E+00 -0.14513071021E+04  0.14513071021E+04  0.50400001928E-02 0.  1.
    10030    2    1    2    0    0  0.00000000000E+00  0.00000000000E+00  0.91995889725E+03  0.38225731014E+04  0.37102211178E+04 0.  0.
        3    1    3    3  502    0 -0.34228380666E+03  0.16889407753E+04 -0.24766440023E+03  0.17409815657E+04  0.10100000352E+00 0.  1.
       -3    1    3    3    0  502  0.34228380666E+03 -0.16889407753E+04  0.11676232975E+04  0.20815915357E+04  0.10100000352E+00 0. -1.
</event>
<event>
 5   0  0.5177000E-08  0.3666242E+04  0.7818609E-02  0.8075485E-01
        1   -1    0    0  501    0  0.00000000000E+00  0.00000000000E+00  0.16017166238E+04  0.16017166238E+04  0.50400001928E-02 0.  1.
       -1   -1    0    0    0  501  0.00000000000E+00  0.00000000000E+00 -0.20979564543E+04  0.20979564543E+04  0.50400001928E-02 0. -1.
    10030    2    1    2    0    0  0.00000000000E+00  0.00000000000E+00 -0.49623983050E+03  0.36996730781E+04  0.36662415244E+04 0.  0.
        1    1    3    3  502    0  0.19178677487E+03  0.96824943690E+03  0.13106476950E+04  0.16407579101E+04  0.50400001928E-02 0.  1.
       -1    1    3    3    0  502 -0.19178677487E+03 -0.96824943690E+03 -0.18068875255E+04  0.20589151680E+04  0.50400001928E-02 0. -1.
</event>
<event>
 5   0  0.5177000E-08  0.3701738E+04  0.7818609E-02  0.8067577E-01
        1   -1    0    0  501    0  0.00000000000E+00  0.00000000000E+00  0.15546555688E+04  0.15546555688E+04  0.50400001928E-02 0. -1.
       -1   -1    0    0    0  501  0.00000000000E+00  0.00000000000E+00 -0.22035206674E+04  0.22035206674E+04  0.50400001928E-02 0.  1.
    10030    2    1    2    0    0  0.00000000000E+00  0.00000000000E+00 -0.64886509860E+03  0.37581762362E+04  0.37017377954E+04 0.  0.
        4    1    3    3  502    0 -0.99026521106E+03  0.42416601967E+03  0.12035629930E+04  0.16152731941E+04  0.12699999809E+01 0. -1.
       -4    1    3    3    0  502  0.99026521106E+03 -0.42416601967E+03 -0.18524280916E+04  0.21429030421E+04  0.12699999809E+01 0.  1.
</event>
<event>
 5   0  0.1558258E-07  0.3682093E+04  0.7818609E-02  0.8071942E-01
        2   -1    0    0  501    0  0.00000000000E+00  0.00000000000E+00  0.31924711992E+04  0.31924711992E+04  0.25500000920E-02 0. -1.
       -2   -1    0    0    0  501  0.00000000000E+00  0.00000000000E+00 -0.10617019826E+04  0.10617019826E+04  0.25500000920E-02 0.  1.
    10030    2    1    2    0    0  0.00000000000E+00  0.00000000000E+00  0.21307692166E+04  0.42541731818E+04  0.36820934271E+04 0.  0.
        1    1    3    3  502    0 -0.11041638087E+04 -0.18345219098E+03 -0.62343812012E+03  0.12812132970E+04  0.50400001928E-02 0.  1.
       -1    1    3    3    0  502  0.11041638087E+04  0.18345219098E+03  0.27542073367E+04  0.29729598847E+04  0.50400001928E-02 0. -1.
</event>
<event>
 5   0  0.1666189E-07  0.3750621E+04  0.7818609E-02  0.8056835E-01
       -2   -1    0    0    0  501  0.00000000000E+00  0.00000000000E+00  0.17666648953E+04  0.17666648953E+04  0.25500000920E-02 0.  1.
        2   -1    0    0  501    0  0.00000000000E+00  0.00000000000E+00 -0.19906374337E+04  0.19906374337E+04  0.25500000920E-02 0. -1.
    10030    2    1    2    0    0  0.00000000000E+00  0.00000000000E+00 -0.22397253846E+03  0.37573023290E+04  0.37506208944E+04 0.  0.
        4    1    3    3  502    0 -0.16254353128E+04  0.55608901222E+01 -0.10489153137E+04  0.19345014417E+04  0.12699999809E+01 0. -1.
       -4    1    3    3    0  502  0.16254353128E+04 -0.55608901222E+01  0.82494277526E+03  0.18228008874E+04  0.12699999809E+01 0.  1.
</event>
<event>
 5   0  0.5181371E-08  0.3694686E+04  0.7818609E-02  0.8069141E-01
        1   -1    0    0  501    0  0.00000000000E+00  0.00000000000E+00  0.16127781722E+04  0.16127781722E+04  0.50400001928E-02 0. -1.
       -1   -1    0    0    0  501  0.00000000000E+00  0.00000000000E+00 -0.21160231779E+04  0.21160231779E+04  0.50400001928E-02 0.  1.
    10030    2    1    2    0    0  0.00000000000E+00  0.00000000000E+00 -0.50324500575E+03  0.37288013501E+04  0.36946859099E+04 0.  0.
        5    1    3    3  502    0 -0.39823673264E+03 -0.11093935522E+04 -0.16871868136E+04  0.20581467350E+04  0.46999998093E+01 0.  1.
       -5    1    3    3    0  502  0.39823673264E+03  0.11093935522E+04  0.11839418078E+04  0.16706546151E+04  0.46999998093E+01 0. -1.
</event>
<event>
 5   0  0.1558258E-07  0.3688826E+04  0.7818609E-02  0.8070443E-01
       -2   -1    0    0    0  501  0.00000000000E+00  0.00000000000E+00  0.17171655625E+04  0.17171655625E+04  0.25500000920E-02 0.  1.
        2   -1    0    0  501    0  0.00000000000E+00  0.00000000000E+00 -0.19810893879E+04  0.19810893879E+04  0.25500000920E-02 0. -1.
    10030    2    1    2    0    0  0.00000000000E+00  0.00000000000E+00 -0.26392382542E+03  0.36982549503E+04  0.36888255437E+04 0.  0.
        1    1    3    3  502    0 -0.16429799551E+04 -0.37777733340E+03  0.61812142171E+03  0.17955982119E+04  0.50400001928E-02 0.  1.
       -1    1    3    3    0  502  0.16429799551E+04  0.37777733340E+03 -0.88204524714E+03  0.19026567385E+04  0.50400001928E-02 0. -1.
</event>
<event>
 5   0  0.5177000E-08  0.3695279E+04  0.7818609E-02  0.8069009E-01
       -1   -1    0    0    0  501  0.00000000000E+00  0.00000000000E+00  0.16154410139E+04  0.16154410139E+04  0.50400001928E-02 0.  1.
        1   -1    0    0  501    0  0.00000000000E+00  0.00000000000E+00 -0.21132133268E+04  0.21132133268E+04  0.50400001928E-02 0. -1.
    10030    2    1    2    0    0  0.00000000000E+00  0.00000000000E+00 -0.49777231292E+03  0.37286543406E+04  0.36952788686E+04 0.  0.
        3    1    3    3  502    0  0.97259859867E+03 -0.14212749623E+04  0.42633710458E+03  0.17741854158E+04  0.10100000352E+00 0.  1.
       -3    1    3    3    0  502 -0.97259859867E+03  0.14212749623E+04 -0.92410941750E+03  0.19544689249E+04  0.10100000352E+00 0. -1.
</event>
<event>
 5   0  0.5177000E-08  0.3697792E+04  0.7818609E-02  0.8068451E-01
        3   -1    0    0  501    0  0.00000000000E+00  0.00000000000E+00  0.15869643001E+04  0.15869643033E+04  0.10100000352E+00 0.  1.
       -3   -1    0    0    0  501  0.00000000000E+00  0.00000000000E+00 -0.21540599819E+04  0.21540599842E+04  0.10100000352E+00 0. -1.
    10030    2    1    2    0    0  0.00000000000E+00  0.00000000000E+00 -0.56709568177E+03  0.37410242876E+04  0.36977919368E+04 0.  0.
        1    1    3    3  502    0 -0.13373892354E+04  0.44188186105E+03 -0.14952765858E+04  0.20541960993E+04  0.50400001928E-02 0. -1.
       -1    1    3    3    0  502  0.13373892354E+04 -0.44188186105E+03  0.92818090406E+03  0.16868281883E+04  0.50400001928E-02 0.  1.
</event>
<event>
 5   0  0.5181371E-08  0.3707760E+04  0.7818609E-02  0.8066244E-01
       -1   -1    0    0    0  501  0.00000000000E+00  0.00000000000E+00  0.12702896958E+04  0.12702896958E+04  0.50400001928E-02 0. -1.
        1   -1    0    0  501    0  0.00000000000E+00  0.00000000000E+00 -0.27055803189E+04  0.27055803189E+04  0.50400001928E-02 0.  1.
    10030    2    1    2    0    0  0.00000000000E+00  0.00000000000E+00 -0.14352906231E+04  0.39758700147E+04  0.37077598630E+04 0.  0.
        5    1    3    3  502    0  0.10221163008E+04  0.15307659249E+04 -0.48056362997E+03  0.19023484280E+04  0.46999998093E+01 0. -1.
       -5    1    3    3    0  502 -0.10221163008E+04 -0.15307659249E+04 -0.95472699314E+03  0.20735215867E+04  0.46999998093E+01 0.  1.
</event>
<event>
 5   0  0.1686284E-07  0.3719564E+04  0.7818609E-02  0.8063640E-01
       -2   -1    0    0    0  501  0.00000000000E+00  0.00000000000E+00  0.16919803761E+04  0.16919803761E+04  0.25500000920E-02 0.  1.
        2   -1    0    0  501    0  0.00000000000E+00  0.00000000000E+00 -0.20442253891E+04  0.20442253891E+04  0.25500000920E-02 0. -1.
    10030    2    1    2    0    0  0.00000000000E+00  0.00000000000E+00 -0.35224501300E+03  0.37362057652E+04  0.37195640834E+04 0.  0.
        5    1    3    3  502    0 -0.33834036547E+03  0.21106666198E+03  0.16485244728E+04  0.16960773467E+04  0.46999998093E+01 0.  1.
       -5    1    3    3    0  502  0.33834036547E+03 -0.21106666198E+03 -0.20007694858E+04  0.20401284185E+04  0.46999998093E+01 0. -1.
</event>
<event>
 5   0  0.1686284E-07  0.3700227E+04  0.7818609E-02  0.8067912E-01
       -2   -1    0    0    0  501  0.00000000000E+00  0.00000000000E+00  0.17819145386E+04  0.17819145386E+04  0.25500000920E-02 0. -1.
        2   -1    0    0  501    0  0.00000000000E+00  0.00000000000E+00 -0.19209223452E+04  0.19209223452E+04  0.25500000920E-02 0.  1.
    10030    2    1    2    0    0  0.00000000000E+00  0.00000000000E+00 -0.13900780660E+03  0.37028368838E+04  0.37002267251E+04 0.  0.
        5    1    3    3  502    0 -0.10309583331E+04 -0.35019382743E+02 -0.16064244964E+04  0.19091158148E+04  0.46999998093E+01 0.  1.
       -5    1    3    3    0  502  0.10309583331E+04  0.35019382743E+02  0.14674166898E+04  0.17937210690E+04  0.46999998093E+01 0. -1.
</event>
<event>
 5   0  0.1666189E-07  0.3708126E+04  0.7818609E-02  0.8066163E-01
        2   -1    0    0  501    0  0.00000000000E+00  0.00000000000E+00  0.15874967116E+04  0.15874967116E+04  0.25500000920E-02 0.  1.
       -2   -1    0    0    0  501  0.00000000000E+00  0.00000000000E+00 -0.21653905614E+04  0.21653905614E+04  0.25500000920E-02 0. -1.
    10030    2    1    2    0    0  0.00000000000E+00  0.00000000000E+00 -0.57789384981E+03  0.37528872731E+04  0.37081264249E+04 0.  0.
        4    1    3    3  502    0  0.11492355163E+04  0.13118576785E+03  0.11775425103E+04  0.16506241105E+04  0.12699999809E+01 0.  1.
       -4    1    3    3    0  502 -0.11492355163E+04 -0.13118576785E+03 -0.17554363601E+04  0.21022631626E+04  0.12699999809E+01 0. -1.
</event>
<event>
 5   0  0.5177000E-08  0.3685180E+04  0.7818609E-02  0.8071254E-01
       -1   -1    0    0    0  501  0.00000000000E+00  0.00000000000E+00  0.31143565372E+04  0.31143565372E+04  0.50400001928E-02 0. -1.
        1   -1    0    0  501    0  0.00000000000E+00  0.00000000000E+00 -0.10901570051E+04  0.10901570051E+04  0.50400001928E-02 0.  1.
    10030    2    1    2    0    0  0.00000000000E+00  0.00000000000E+00  0.20241995321E+04  0.42045135423E+04  0.36851798304E+04 0.  0.
        1    1    3    3  502    0 -0.14002492897E+04 -0.30287989493E+03 -0.30994784844E+03  0.14657769179E+04  0.50400001928E-02 0.  1.
       -1    1    3    3    0  502  0.14002492897E+04  0.30287989493E+03  0.23341473805E+04  0.27387366245E+04  0.50400001928E-02 0. -1.
</event>
<event>
 5   0  0.1686284E-07  0.3679405E+04  0.7818609E-02  0.8072541E-01
       -2   -1    0    0    0  501  0.00000000000E+00  0.00000000000E+00  0.14802724588E+04  0.14802724588E+04  0.25500000920E-02 0. -1.
        2   -1    0    0  501    0  0.00000000000E+00  0.00000000000E+00 -0.22864067654E+04  0.22864067654E+04  0.25500000920E-02 0.  1.
    10030    2    1    2    0    0  0.00000000000E+00  0.00000000000E+00 -0.80613430659E+03  0.37666792242E+04  0.36794048239E+04 0.  0.
        5    1    3    3  502    0 -0.50838307597E+03 -0.14344568350E+04 -0.14612007535E+04  0.21097984490E+04  0.46999998093E+01 0.  1.
       -5    1    3    3    0  502  0.50838307597E+03  0.14344568350E+04  0.65506644687E+03  0.16568807752E+04  0.46999998093E+01 0. -1.
</event>
<event>
 5   0  0.5181371E-08  0.3700629E+04  0.7818609E-02  0.8067823E-01
        1   -1    0    0  501    0  0.00000000000E+00  0.00000000000E+00  0.20403364162E+04  0.20403364162E+04  0.50400001928E-02 0. -1.
       -1   -1    0    0    0  501  0.00000000000E+00  0.00000000000E+00 -0.16779895149E+04  0.16779895149E+04  0.50400001928E-02 0.  1.
    10030    2    1    2    0    0  0.00000000000E+00  0.00000000000E+00  0.36234690134E+03  0.37183259311E+04  0.37006286564E+04 0.  0.
        5    1    3    3  502    0 -0.46836975786E+02  0.17485134407E+04 -0.42515919692E+03  0.18000764949E+04  0.46999998093E+01 0.  1.
       -5    1    3    3    0  502  0.46836975786E+02 -0.17485134407E+04  0.78750609827E+03  0.19182494362E+04  0.46999998093E+01 0. -1.
</event>
<event>
 5   0  0.1587026E-07  0.3725217E+04  0.7818609E-02  0.8062396E-01
       -2   -1    0    0    0  501  0.00000000000E+00  0.00000000000E+00  0.15087350541E+04  0.15087350541E+04  0.25500000920E-02 0.  1.
        2   -1    0    0  501    0  0.00000000000E+00  0.00000000000E+00 -0.22994834588E+04  0.22994834588E+04  0.25500000920E-02 0. -1.
    10030    2    1    2    0    0  0.00000000000E+00  0.00000000000E+00 -0.79074840476E+03  0.38082185129E+04  0.37252174704E+04 0.  0.
        3    1    3    3  502    0 -0.18392395190E+03 -0.26267864284E+03  0.14803045325E+04  0.15146384416E+04  0.10100000352E+00 0.  1.
       -3    1    3    3    0  502  0.18392395190E+03  0.26267864284E+03 -0.22710529373E+04  0.22935800713E+04  0.10100000352E+00 0. -1.
</event>
<event>
 5   0  0.1686284E-07  0.3705334E+04  0.7818609E-02  0.8066781E-01
       -2   -1    0    0    0  501  0.00000000000E+00  0.00000000000E+00  0.20131190054E+04  0.20131190054E+04  0.25500000920E-02 0. -1.
        2   -1    0    0  501    0  0.00000000000E+00  0.00000000000E+00 -0.17050038108E+04  0.17050038108E+04  0.25500000920E-02 0.  1.
    10030    2    1    2    0    0  0.00000000000E+00  0.00000000000E+00  0.30811519455E+03  0.37181228162E+04  0.37053343039E+04 0.  0.
        5    1    3    3  502    0  0.10462814236E+04 -0.69490724327E+03 -0.12125358292E+04  0.17458138850E+04  0.46999998093E+01 0.  1.
       -5    1    3    3    0  502 -0.10462814236E+04  0.69490724327E+03  0.15206510237E+04  0.19723089312E+04  0.46999998093E+01 0. -1.
</event>
<event>
 5   0  0.5177000E-08  0.3712357E+04  0.7818609E-02  0.8065229E-01
       -1   -1    0    0    0  501  0.00000000000E+00  0.00000000000E+00  0.24115405458E+04  0.24115405458E+04  0.50400001928E-02 0. -1.
        1   -1    0    0  501    0  0.00000000000E+00  0.00000000000E+00 -0.14287123931E+04  0.14287123932E+04  0.50400001928E-02 0.  1.
    10030    2    1    2    0    0  0.00000000000E+00  0.00000000000E+00  0.98282815263E+03  0.38402529389E+04  0.37123565908E+04 0.  0.
        4    1    3    3  502    0  0.94710272103E+03  0.10358970170E+04 -0.76505497568E+03  0.15985608911E+04  0.12699999809E+01 0.  1.
       -4    1    3    3    0  502 -0.94710272103E+03 -0.10358970170E+04  0.17478831283E+04  0.22416920478E+04  0.12699999809E+01 0. -1.
</event>
<event>
 5   0  0.1587026E-07  0.3686571E+04  0.7818609E-02  0.8070944E-01
       -2   -1    0    0    0  501  0.00000000000E+00  0.00000000000E+00  0.18433682823E+04  0.18433682823E+04  0.25500000920E-02 0. -1.
        2   -1    0    0  501    0  0.00000000000E+00  0.00000000000E+00 -0.18432022544E+04  0.18432022544E+04  0.25500000920E-02 0.  1.
    10030    2    1    2    0    0  0.00000000000E+00  0.00000000000E+00  0.16602792906E+00  0.36865705367E+04  0.36865705329E+04 0.  0.
        3    1    3    3  502    0  0.15792448493E+04  0.75245681326E+03 -0.58086019698E+03  0.18432591050E+04  0.10100000352E+00 0.  1.
       -3    1    3    3    0  502 -0.15792448493E+04 -0.75245681326E+03  0.58102622491E+03  0.18433114316E+04  0.10100000352E+00 0. -1.
</event>
<event>
 5   0  0.1658770E-07  0.3713254E+04  0.7818609E-02  0.8065031E-01
       -2   -1    0    0    0  501  0.00000000000E+00  0.00000000000E+00  0.20750267430E+04  0.20750267430E+04  0.25500000920E-02 0.  1.
        2   -1    0    0  501    0  0.00000000000E+00  0.00000000000E+00 -0.16612144152E+04  0.16612144152E+04  0.25500000920E-02 0. -1.
    10030    2    1    2    0    0  0.00000000000E+00  0.00000000000E+00  0.41381232772E+03  0.37362411582E+04  0.37132542802E+04 0.  0.
        2    1    3    3  502    0  0.73938289711E+03  0.13920733898E+03 -0.15009517343E+04  0.16789645203E+04  0.25500000920E-02 0. -1.
       -2    1    3    3    0  502 -0.73938289711E+03 -0.13920733898E+03  0.19147640620E+04  0.20572766379E+04  0.25500000920E-02 0.  1.
</event>
<event>
 5   0  0.1666189E-07  0.3687770E+04  0.7818609E-02  0.8070678E-01
        2   -1    0    0  501    0  0.00000000000E+00  0.00000000000E+00  0.11499131530E+04  0.11499131530E+04  0.25500000920E-02 0.  1.
       -2   -1    0    0    0  501  0.00000000000E+00  0.00000000000E+00 -0.29566679766E+04  0.29566679766E+04  0.25500000920E-02 0. -1.
    10030    2    1    2    0    0  0.00000000000E+00  0.00000000000E+00 -0.18067548237E+04  0.41065811296E+04  0.36877697300E+04 0.  0.
        4    1    3    3  502    0  0.69724312529E+03 -0.12048286336E+04  0.44314176262E+03  0.14608683194E+04  0.12699999809E+01 0.  1.
       -4    1    3    3    0  502 -0.69724312529E+03  0.12048286336E+04 -0.22498965863E+04  0.26457128102E+04  0.12699999809E+01 0. -1.
</event>
<event>
 5   0  0.1587026E-07  0.3691292E+04  0.7818609E-02  0.8069894E-01
       -2   -1    0    0    0  501  0.00000000000E+00  0.00000000000E+00  0.13151909022E+04  0.13151909022E+04  0.25500000920E-02 0.  1.
        2   -1    0    0  501    0  0.00000000000E+00  0.00000000000E+00 -0.25900495239E+04  0.25900495239E+04  0.25500000920E-02 0. -1.
    10030    2    1    2    0    0  0.00000000000E+00  0.00000000000E+00 -0.12748586217E+04  0.39052404262E+04  0.36912922237E+04 0.  0.
        3    1    3    3  502    0  0.13526854934E+04  0.10700032455E+03 -0.19610227556E+04  0.23847048815E+04  0.10100000352E+00 0. -1.
       -3    1    3    3    0  502 -0.13526854934E+04 -0.10700032455E+03  0.68616413391E+03  0.15205355446E+04  0.10100000352E+00 0.  1.
</event>
<event>
 5   0  0.1558258E-07  0.3703261E+04  0.7818609E-02  0.8067240E-01
        2   -1    0    0  501    0  0.00000000000E+00  0.00000000000E+00  0.32470091450E+04  0.32470091450E+04  0.25500000920E-02 0.  1.
       -2   -1    0    0    0  501  0.00000000000E+00  0.00000000000E+00 -0.10559054424E+04  0.10559054424E+04  0.25500000920E-02 0. -1.
    10030    2    1    2    0    0  0.00000000000E+00  0.00000000000E+00  0.21911037026E+04  0.43029145874E+04  0.37032605243E+04 0.  0.
        1    1    3    3  502    0  0.32193012073E+03 -0.18228767982E+04  0.10433840442E+04  0.21248927238E+04  0.50400001928E-02 0. -1.
       -1    1    3    3    0  502 -0.32193012073E+03  0.18228767982E+04  0.11477196584E+04  0.21780218636E+04  0.50400001928E-02 0.  1.
</event>
<event>
 5   0  0.1558258E-07  0.3697694E+04  0.7818609E-02  0.8068473E-01
       -2   -1    0    0    0  501  0.00000000000E+00  0.00000000000E+00  0.24813749469E+04  0.24813749469E+04  0.25500000920E-02 0.  1.
        2   -1    0    0  501    0  0.00000000000E+00  0.00000000000E+00 -0.13775570947E+04  0.13775570947E+04  0.25500000920E-02 0. -1.
    10030    2    1    2    0    0  0.00000000000E+00  0.00000000000E+00  0.11038178522E+04  0.38589320416E+04  0.36976942344E+04 0.  0.
        1    1    3    3  502    0  0.10379346520E+04  0.26372306978E+02  0.21483966175E+04  0.23861290549E+04  0.50400001928E-02 0.  1.
       -1    1    3    3    0  502 -0.10379346520E+04 -0.26372306978E+02 -0.10445787654E+04  0.14728029867E+04  0.50400001928E-02 0. -1.
</event>
<event>
 5   0  0.5177000E-08  0.3789733E+04  0.7818609E-02  0.8048362E-01
       -1   -1    0    0    0  501  0.00000000000E+00  0.00000000000E+00  0.13381442383E+04  0.13381442383E+04  0.50400001928E-02 0. -1.
        1   -1    0    0  501    0  0.00000000000E+00  0.00000000000E+00 -0.26832077076E+04  0.26832077076E+04  0.50400001928E-02 0.  1.
    10030    2    1    2    0    0  0.00000000000E+00  0.00000000000E+00 -0.13450634693E+04  0.40213519458E+04  0.37897329373E+04 0.  0.
        1    1    3    3  502    0 -0.73394971517E+03 -0.78446909253E+02 -0.25243817746E+04  0.26300835435E+04  0.50400001928E-02 0.  1.
       -1    1    3    3    0  502  0.73394971517E+03  0.78446909253E+02  0.11793183053E+04  0.13912684023E+04  0.50400001928E-02 0. -1.
</event>
<event>
 5   0  0.5177000E-08  0.3685246E+04  0.7818609E-02  0.8071239E-01
        1   -1    0    0  501    0  0.00000000000E+00  0.00000000000E+00  0.17919551078E+04  0.17919551078E+04  0.50400001928E-02 0.  1.
       -1   -1    0    0    0  501  0.00000000000E+00  0.00000000000E+00 -0.18947230611E+04  0.18947230611E+04  0.50400001928E-02 0. -1.
    10030    2    1    2    0    0  0.00000000000E+00  0.00000000000E+00 -0.10276795334E+03  0.36866781689E+04  0.36852455371E+04 0.  0.
        2    1    3    3  502    0  0.96252206944E+03  0.28277833726E+03 -0.15975741411E+04  0.18864398899E+04  0.25500000920E-02 0. -1.
       -2    1    3    3    0  502 -0.96252206944E+03 -0.28277833726E+03  0.14948061877E+04  0.18002382790E+04  0.25500000920E-02 0.  1.
</event>
<event>
 5   0  0.1558258E-07  0.3681137E+04  0.7818609E-02  0.8072155E-01
        2   -1    0    0  501    0  0.00000000000E+00  0.00000000000E+00  0.21848597302E+04  0.21848597302E+04  0.25500000920E-02 0. -1.
       -2   -1    0    0    0  501  0.00000000000E+00  0.00000000000E+00 -0.15505305103E+04  0.15505305103E+04  0.25500000920E-02 0.  1.
    10030    2    1    2    0    0  0.00000000000E+00  0.00000000000E+00  0.63432921988E+03  0.37353902405E+04  0.36811366030E+04 0.  0.
        1    1    3    3  502    0 -0.57983522043E+03  0.16932829620E+04  0.75276470220E+03  0.19416670078E+04  0.50400001928E-02 0. -1.
       -1    1    3    3    0  502  0.57983522043E+03 -0.16932829620E+04 -0.11843548232E+03  0.17937232327E+04  0.50400001928E-02 0.  1.
</event>
<event>
 5   0  0.5181371E-08  0.3701133E+04  0.7818609E-02  0.8067711E-01
        1   -1    0    0  501    0  0.00000000000E+00  0.00000000000E+00  0.10247040845E+04  0.10247040845E+04  0.50400001928E-02 0.  1.
       -1   -1    0    0    0  501  0.00000000000E+00  0.00000000000E+00 -0.33420345715E+04  0.33420345715E+04  0.50400001928E-02 0. -1.
    10030    2    1    2    0    0  0.00000000000E+00  0.00000000000E+00 -0.23173304870E+04  0.43667386560E+04  0.37011330567E+04 0.  0.
        5    1    3    3  502    0 -0.16969929091E+04 -0.54611268301E+03 -0.17445002901E+04  0.24942588775E+04  0.46999998093E+01 0. -1.
       -5    1    3    3    0  502  0.16969929091E+04  0.54611268301E+03 -0.57283019695E+03  0.18724797784E+04  0.46999998093E+01 0.  1.
</event>
<event>
 5   0  0.1686284E-07  0.3737129E+04  0.7818609E-02  0.8059783E-01
       -2   -1    0    0    0  501  0.00000000000E+00  0.00000000000E+00  0.15757813001E+04  0.15757813001E+04  0.25500000920E-02 0.  1.
        2   -1    0    0  501    0  0.00000000000E+00  0.00000000000E+00 -0.22157476661E+04  0.22157476661E+04  0.25500000920E-02 0. -1.
    10030    2    1    2    0    0  0.00000000000E+00  0.00000000000E+00 -0.63996636591E+03  0.37915289662E+04  0.37371292394E+04 0.  0.
        5    1    3    3  502    0 -0.17422724651E+04 -0.14028375463E+03 -0.99014273338E+03  0.20088796870E+04  0.46999998093E+01 0. -1.
       -5    1    3    3    0  502  0.17422724651E+04  0.14028375463E+03  0.35017636747E+03  0.17826492792E+04  0.46999998093E+01 0.  1.
</event>
<event>
 5   0  0.5177000E-08  0.3673227E+04  0.7818609E-02  0.8073921E-01
        1   -1    0    0  501    0  0.00000000000E+00  0.00000000000E+00  0.27981010457E+04  0.27981010457E+04  0.50400001928E-02 0. -1.
       -1   -1    0    0    0  501  0.00000000000E+00  0.00000000000E+00 -0.12055134128E+04  0.12055134128E+04  0.50400001928E-02 0.  1.
    10030    2    1    2    0    0  0.00000000000E+00  0.00000000000E+00  0.15925876329E+04  0.40036144586E+04  0.36732265604E+04 0.  0.
        3    1    3    3  502    0 -0.12593929823E+04 -0.13014185392E+04  0.11293739667E+04  0.21343023368E+04  0.10100000352E+00 0. -1.
       -3    1    3    3    0  502  0.12593929823E+04  0.13014185392E+04  0.46321366625E+03  0.18693121218E+04  0.10100000352E+00 0.  1.
</event>
<event>
 5   0  0.1658770E-07  0.3701784E+04  0.7818609E-02  0.8067567E-01
       -2   -1    0    0    0  501  0.00000000000E+00  0.00000000000E+00  0.19223844990E+04  0.19223844990E+04  0.25500000920E-02 0.  1.
        2   -1    0    0  501    0  0.00000000000E+00  0.00000000000E+00 -0.17820585909E+04  0.17820585909E+04  0.25500000920E-02 0. -1.
    10030    2    1    2    0    0  0.00000000000E+00  0.00000000000E+00  0.14032590811E+03  0.37044430900E+04  0.37017843328E+04 0.  0.
        2    1    3    3  502    0  0.87718152367E+03  0.19520565028E+03  0.16894256060E+04  0.19135599153E+04  0.25500000920E-02 0.  1.
       -2    1    3    3    0  502 -0.87718152367E+03 -0.19520565028E+03 -0.15490996979E+04  0.17908831747E+04  0.25500000920E-02 0. -1.
</event>
<event>
 5   0  0.5177000E-08  0.3698190E+04  0.7818609E-02  0.8068363E-01
        1   -1    0    0  501    0  0.00000000000E+00  0.00000000000E+00  0.17624284760E+04  0.17624284760E+04  0.50400001928E-02 0.  1.
       -1   -1    0    0    0  501  0.00000000000E+00  0.00000000000E+00 -0.19400237866E+04  0.19400237866E+04  0.50400001928E-02 0. -1.
    10030    2    1    2    0    0  0.00000000000E+00  0.00000000000E+00 -0.17759531058E+03  0.37024522626E+04  0.36981904578E+04 0.  0.
        4    1    3    3  502    0  0.64274983390E+02  0.43848681955E+03 -0.18860682746E+04  0.19374357057E+04  0.12699999809E+01 0. -1.
       -4    1    3    3    0  502 -0.64274983390E+02 -0.43848681955E+03  0.17084729640E+04  0.17650165569E+04  0.12699999809E+01 0.  1.
</event>
<event>
 5   0  0.5181371E-08  0.3697899E+04  0.7818609E-02  0.8068428E-01
       -1   -1    0    0    0  501  0.00000000000E+00  0.00000000000E+00  0.16049872182E+04  0.16049872182E+04  0.50400001928E-02 0.  1.
        1   -1    0    0  501    0  0.00000000000E+00  0.00000000000E+00 -0.21299948159E+04  0.21299948159E+04  0.50400001928E-02 0. -1.
    10030    2    1    2    0    0  0.00000000000E+00  0.00000000000E+00 -0.52500759763E+03  0.37349820341E+04  0.36978991086E+04 0.  0.
        5    1    3    3  502    0  0.44153924398E+03 -0.17660442753E+04 -0.58935844185E+03  0.19134353266E+04  0.46999998093E+01 0. -1.
       -5    1    3    3    0  502 -0.44153924398E+03  0.17660442753E+04  0.64350844223E+02  0.18215467075E+04  0.46999998093E+01 0.  1.
</event>
<event>
 5   0  0.5177000E-08  0.3686013E+04  0.7818609E-02  0.8071069E-01
        1   -1    0    0  501    0  0.00000000000E+00  0.00000000000E+00  0.26792087587E+04  0.26792087587E+04  0.50400001928E-02 0.  1.
       -1   -1    0    0    0  501  0.00000000000E+00  0.00000000000E+00 -0.12677895261E+04  0.12677895261E+04  0.50400001928E-02 0. -1.
    10030    2    1    2    0    0  0.00000000000E+00  0.00000000000E+00  0.14114192326E+04  0.39469982848E+04  0.36860129151E+04 0.  0.
        1    1    3    3  502    0 -0.20191841669E+01 -0.73789340895E+03  0.25141271357E+04  0.26201767144E+04  0.50400001928E-02 0.  1.
       -1    1    3    3    0  502  0.20191841669E+01  0.73789340895E+03 -0.11027079032E+04  0.13268215704E+04  0.50400001928E-02 0. -1.
</event>
<event>
 5   0  0.5177000E-08  0.3691801E+04  0.7818609E-02  0.8069781E-01
       -1   -1    0    0    0  501  0.00000000000E+00  0.00000000000E+00  0.16579581190E+04  0.16579581190E+04  0.50400001928E-02 0.  1.
        1   -1    0    0  501    0  0.00000000000E+00  0.00000000000E+00 -0.20551471160E+04  0.20551471160E+04  0.50400001928E-02 0. -1.
    10030    2    1    2    0    0  0.00000000000E+00  0.00000000000E+00 -0.39718899696E+03  0.37131052350E+04  0.36918005616E+04 0.  0.
        2    1    3    3  502    0  0.17892788832E+03 -0.11580197028E+04  0.12359333505E+04  0.17031018960E+04  0.25500000920E-02 0.  1.
       -2    1    3    3    0  502 -0.17892788832E+03  0.11580197028E+04 -0.16331223474E+04  0.20100033390E+04  0.25500000920E-02 0. -1.
</event>
<event>
 5   0  0.1587026E-07  0.3547402E+04  0.7818609E-02  0.8102647E-01
        2   -1    0    0  501    0  0.00000000000E+00  0.00000000000E+00  0.21722730589E+04  0.21722730589E+04  0.25500000920E-02 0.  1.
       -2   -1    0    0    0  501  0.00000000000E+00  0.00000000000E+00 -0.14482598366E+04  0.14482598366E+04  0.25500000920E-02 0. -1.
    10030    2    1    2    0    0  0.00000000000E+00  0.00000000000E+00  0.72401322233E+03  0.36205328955E+04  0.35474023315E+04 0.  0.
        3    1    3    3  502    0  0.89982215502E+03  0.56659716041E+03  0.18108861753E+04  0.21000050007E+04  0.10100000352E+00 0.  1.
       -3    1    3    3    0  502 -0.89982215502E+03 -0.56659716041E+03 -0.10868729530E+04  0.15205278948E+04  0.10100000352E+00 0. -1.
</event>
<event>
 5   0  0.1558258E-07  0.3702500E+04  0.7818609E-02  0.8067408E-01
        2   -1    0    0  501    0  0.00000000000E+00  0.00000000000E+00  0.14725190062E+04  0.14725190062E+04  0.25500000920E-02 0. -1.
       -2   -1    0    0    0  501  0.00000000000E+00  0.00000000000E+00 -0.23273904503E+04  0.23273904503E+04  0.25500000920E-02 0.  1.
    10030    2    1    2    0    0  0.00000000000E+00  0.00000000000E+00 -0.85487144410E+03  0.37999094565E+04  0.37025000596E+04 0.  0.
        1    1    3    3  502    0 -0.14131647842E+04  0.11650202085E+04 -0.15048458496E+03  0.18376486072E+04  0.50400001928E-02 0. -1.
       -1    1    3    3    0  502  0.14131647842E+04 -0.11650202085E+04 -0.70438685914E+03  0.19622608493E+04  0.50400001928E-02 0.  1.
</event>
<event>
 5   0  0.5177000E-08  0.3687937E+04  0.7818609E-02  0.8070640E-01
        1   -1    0    0  501    0  0.00000000000E+00  0.00000000000E+00  0.19601766585E+04  0.19601766585E+04  0.50400001928E-02 0. -1.
       -1   -1    0    0    0  501  0.00000000000E+00  0.00000000000E+00 -0.17346495713E+04  0.17346495713E+04  0.50400001928E-02 0.  1.
    10030    2    1    2    0    0  0.00000000000E+00  0.00000000000E+00  0.22552708718E+03  0.36948262298E+04  0.36879368760E+04 0.  0.
        2    1    3    3  502    0  0.24462233365E+03 -0.43754130092E+03  0.18906029721E+04  0.19559299768E+04  0.25500000920E-02 0. -1.
       -2    1    3    3    0  502 -0.24462233365E+03  0.43754130092E+03 -0.16650758849E+04  0.17388962530E+04  0.25500000920E-02 0.  1.
</event>
<event>
 5   0  0.5177000E-08  0.3770997E+04  0.7818609E-02  0.8052408E-01
        1   -1    0    0  501    0  0.00000000000E+00  0.00000000000E+00  0.22202135984E+04  0.22202135984E+04  0.50400001928E-02 0.  1.
       -1   -1    0    0    0  501  0.00000000000E+00  0.00000000000E+00 -0.16012446854E+04  0.16012446854E+04  0.50400001928E-02 0. -1.
    10030    2    1    2    0    0  0.00000000000E+00  0.00000000000E+00  0.61896891302E+03  0.38214582838E+04  0.37709973349E+04 0.  0.
        4    1    3    3  502    0  0.49589963040E+03  0.71410039662E+03  0.20049679646E+04  0.21853498511E+04  0.12699999809E+01 0.  1.
       -4    1    3    3    0  502 -0.49589963040E+03 -0.71410039662E+03 -0.13859990515E+04  0.16361084327E+04  0.12699999809E+01 0. -1.
</event>
<event>
 5   0  0.5177000E-08  0.3503001E+04  0.7818609E-02  0.8113079E-01
        1   -1    0    0  501    0  0.00000000000E+00  0.00000000000E+00  0.34907736773E+04  0.34907736773E+04  0.50400001928E-02 0. -1.
       -1   -1    0    0    0  501  0.00000000000E+00  0.00000000000E+00 -0.87881770297E+03  0.87881770298E+03  0.50400001928E-02 0.  1.
    10030    2    1    2    0    0  0.00000000000E+00  0.00000000000E+00  0.26119559743E+04  0.43695913803E+04  0.35030008305E+04 0.  0.
        3    1    3    3  502    0 -0.98605348492E+03  0.11775414605E+04  0.25576533632E+03  0.15570232124E+04  0.10100000352E+00 0.  1.
       -3    1    3    3    0  502  0.98605348492E+03 -0.11775414605E+04  0.23561906380E+04  0.28125681679E+04  0.10100000352E+00 0. -1.
</event>
<event>
 5   0  0.5177000E-08  0.3686991E+04  0.7818609E-02  0.8070851E-01
       -1   -1    0    0    0  501  0.00000000000E+00  0.00000000000E+00  0.26243571955E+04  0.26243571955E+04  0.50400001928E-02 0.  1.
        1   -1    0    0  501    0  0.00000000000E+00  0.00000000000E+00 -0.12949742469E+04  0.12949742469E+04  0.50400001928E-02 0. -1.
    10030    2    1    2    0    0  0.00000000000E+00  0.00000000000E+00  0.13293829486E+04  0.39193314425E+04  0.36869906335E+04 0.  0.
        4    1    3    3  502    0  0.16303316105E+04 -0.86022047812E+03  0.64061611695E+03  0.19514996934E+04  0.12699999809E+01 0.  1.
       -4    1    3    3    0  502 -0.16303316105E+04  0.86022047812E+03  0.68876683168E+03  0.19678317490E+04  0.12699999809E+01 0. -1.
</event>
<event>
 5   0  0.1658770E-07  0.3703066E+04  0.7818609E-02  0.8067283E-01
        2   -1    0    0  501    0  0.00000000000E+00  0.00000000000E+00  0.19441942283E+04  0.19441942283E+04  0.25500000920E-02 0.  1.
       -2   -1    0    0    0  501  0.00000000000E+00  0.00000000000E+00 -0.17632884206E+04  0.17632884206E+04  0.25500000920E-02 0. -1.
    10030    2    1    2    0    0  0.00000000000E+00  0.00000000000E+00  0.18090580767E+03  0.37074826489E+04  0.37030663889E+04 0.  0.
        2    1    3    3  502    0 -0.78890146373E+03  0.16713536661E+04  0.20188061775E+03  0.18591784155E+04  0.25500000920E-02 0.  1.
       -2    1    3    3    0  502  0.78890146373E+03 -0.16713536661E+04 -0.20974810075E+02  0.18483042335E+04  0.25500000920E-02 0. -1.
</event>
<event>
 5   0  0.1558258E-07  0.3694366E+04  0.7818609E-02  0.8069212E-01
        2   -1    0    0  501    0  0.00000000000E+00  0.00000000000E+00  0.15424565599E+04  0.15424565599E+04  0.25500000920E-02 0. -1.
       -2   -1    0    0    0  501  0.00000000000E+00  0.00000000000E+00 -0.22121105006E+04  0.22121105006E+04  0.25500000920E-02 0.  1.
    10030    2    1    2    0    0  0.00000000000E+00  0.00000000000E+00 -0.66965394069E+03  0.37545670606E+04  0.36943656305E+04 0.  0.
        1    1    3    3  502    0 -0.77184107178E+03  0.68997883837E+03  0.12198974825E+04  0.15999872829E+04  0.50400001928E-02 0. -1.
       -1    1    3    3    0  502  0.77184107178E+03 -0.68997883837E+03 -0.18895514232E+04  0.21545797777E+04  0.50400001928E-02 0.  1.
</event>
<event>
 5   0  0.5177000E-08  0.3700931E+04  0.7818609E-02  0.8067756E-01
       -1   -1    0    0    0  501  0.00000000000E+00  0.00000000000E+00  0.17372986448E+04  0.17372986448E+04  0.50400001928E-02 0.  1.
        1   -1    0    0  501    0  0.00000000000E+00  0.00000000000E+00 -0.19710038407E+04  0.19710038407E+04  0.50400001928E-02 0. -1.
    10030    2    1    2    0    0  0.00000000000E+00  0.00000000000E+00 -0.23370519590E+03  0.37083024855E+04  0.37009308566E+04 0.  0.
        1    1    3    3  502    0 -0.20920126302E+02  0.16091125318E+04  0.79849943927E+03  0.17964637893E+04  0.50400001928E-02 0. -1.
       -1    1    3    3    0  502  0.20920126302E+02 -0.16091125318E+04 -0.10322046352E+04  0.19118386963E+04  0.50400001928E-02 0.  1.
</event>
<event>
 5   0  0.1658770E-07  0.3695840E+04  0.7818609E-02  0.8068884E-01
        2   -1    0    0  501    0  0.00000000000E+00  0.00000000000E+00  0.22183914994E+04  0.22183914994E+04  0.25500000920E-02 0. -1.
       -2   -1    0    0    0  501  0.00000000000E+00  0.00000000000E+00 -0.15393175815E+04  0.15393175815E+04  0.25500000920E-02 0.  1.
    10030    2    1    2    0    0  0.00000000000E+00  0.00000000000E+00  0.67907391792E+03  0.37577090810E+04  0.36958403850E+04 0.  0.
        2    1    3    3  502    0  0.98918772585E+03 -0.12247684816E+04  0.13233394431E+04  0.20566422811E+04  0.25500000920E-02 0.  1.
       -2    1    3    3    0  502 -0.98918772585E+03  0.12247684816E+04 -0.64426552522E+03  0.17010667999E+04  0.25500000920E-02 0. -1.
</event>
<event>
 5   0  0.5177000E-08  0.3579988E+04  0.7818609E-02  0.8095091E-01
        1   -1    0    0  501    0  0.00000000000E+00  0.00000000000E+00  0.98535528389E+03  0.98535528390E+03  0.50400001928E-02 0.  1.
       -1   -1    0    0    0  501  0.00000000000E+00  0.00000000000E+00 -0.32516989183E+04  0.32516989183E+04  0.50400001928E-02 0. -1.
    10030    2    1    2    0    0  0.00000000000E+00  0.00000000000E+00 -0.22663436344E+04  0.42370542022E+04  0.35799881065E+04 0.  0.
        3    1    3    3  502    0  0.14165825342E+04 -0.10451008160E+04 -0.15169321104E+04  0.23237953503E+04  0.10100000352E+00 0. -1.
       -3    1    3    3    0  502 -0.14165825342E+04  0.10451008160E+04 -0.74941152393E+03  0.19132588519E+04  0.10100000352E+00 0.  1.
</event>
<event>
 5   0  0.1558258E-07  0.3697891E+04  0.7818609E-02  0.8068429E-01
        2   -1    0    0  501    0  0.00000000000E+00  0.00000000000E+00  0.22104040515E+04  0.22104040515E+04  0.25500000920E-02 0. -1.
       -2   -1    0    0    0  501  0.00000000000E+00  0.00000000000E+00 -0.15465951774E+04  0.15465951774E+04  0.25500000920E-02 0.  1.
    10030    2    1    2    0    0  0.00000000000E+00  0.00000000000E+00  0.66380887413E+03  0.37569992289E+04  0.36978914241E+04 0.  0.
        1    1    3    3  502    0  0.42092256691E+03  0.38378222404E+03 -0.14552275365E+04  0.15627385533E+04  0.50400001928E-02 0.  1.
       -1    1    3    3    0  502 -0.42092256691E+03 -0.38378222404E+03  0.21190364106E+04  0.21942606756E+04  0.50400001928E-02 0. -1.
</event>
<event>
 5   0  0.5177000E-08  0.3699550E+04  0.7818609E-02  0.8068062E-01
       -1   -1    0    0    0  501  0.00000000000E+00  0.00000000000E+00  0.24513079342E+04  0.24513079342E+04  0.50400001928E-02 0.  1.
        1   -1    0    0  501    0  0.00000000000E+00  0.00000000000E+00 -0.13958536925E+04  0.13958536925E+04  0.50400001928E-02 0. -1.
    10030    2    1    2    0    0  0.00000000000E+00  0.00000000000E+00  0.10554542417E+04  0.38471616268E+04  0.36995498275E+04 0.  0.
        3    1    3    3  502    0  0.18447254486E+04  0.61898470330E+02  0.65433817286E+03  0.19583160766E+04  0.10100000352E+00 0.  1.
       -3    1    3    3    0  502 -0.18447254486E+04 -0.61898470330E+02  0.40111606883E+03  0.18888455501E+04  0.10100000352E+00 0. -1.
</event>
<event>
 5   0  0.1686284E-07  0.3673102E+04  0.7818609E-02  0.8073949E-01
       -2   -1    0    0    0  501  0.00000000000E+00  0.00000000000E+00  0.27251267489E+04  0.27251267489E+04  0.25500000920E-02 0. -1.
        2   -1    0    0  501    0  0.00000000000E+00  0.00000000000E+00 -0.12377109186E+04  0.12377109186E+04  0.25500000920E-02 0.  1.
    10030    2    1    2    0    0  0.00000000000E+00  0.00000000000E+00  0.14874158303E+04  0.39628376674E+04  0.36731017582E+04 0.  0.
        5    1    3    3  502    0 -0.17041578892E+04 -0.53338669039E+03  0.28061606945E+03  0.18076014332E+04  0.46999998093E+01 0. -1.
       -5    1    3    3    0  502  0.17041578892E+04  0.53338669039E+03  0.12067997609E+04  0.21552362343E+04  0.46999998093E+01 0.  1.
</event>
<event>
 5   0  0.1558258E-07  0.3699426E+04  0.7818609E-02  0.8068089E-01
        2   -1    0    0  501    0  0.00000000000E+00  0.00000000000E+00  0.13080567779E+04  0.13080567779E+04  0.25500000920E-02 0.  1.
       -2   -1    0    0    0  501  0.00000000000E+00  0.00000000000E+00 -0.26156651174E+04  0.26156651174E+04  0.25500000920E-02 0. -1.
    10030    2    1    2    0    0  0.00000000000E+00  0.00000000000E+00 -0.13076083395E+04  0.39237218953E+04  0.36994261639E+04 0.  0.
        1    1    3    3  502    0  0.25754880991E+03 -0.55519242178E+03  0.11975551113E+04  0.13448822474E+04  0.50400001928E-02 0.  1.
       -1    1    3    3    0  502 -0.25754880991E+03  0.55519242178E+03 -0.25051634508E+04  0.25788396479E+04  0.50400001928E-02 0. -1.
</event>
<event>
 5   0  0.5177000E-08  0.3687795E+04  0.7818609E-02  0.8070672E-01
        1   -1    0    0  501    0  0.00000000000E+00  0.00000000000E+00  0.17522137755E+04  0.17522137755E+04  0.50400001928E-02 0.  1.
       -1   -1    0    0    0  501  0.00000000000E+00  0.00000000000E+00 -0.19403784110E+04  0.19403784110E+04  0.50400001928E-02 0. -1.
    10030    2    1    2    0    0  0.00000000000E+00  0.00000000000E+00 -0.18816463543E+03  0.36925921865E+04  0.36877948866E+04 0.  0.
        2    1    3    3  502    0 -0.94769458804E+03 -0.51021305136E+03  0.14050344136E+04  0.17699051086E+04  0.25500000920E-02 0.  1.
       -2    1    3    3    0  502  0.94769458804E+03  0.51021305136E+03 -0.15931990490E+04  0.19226870779E+04  0.25500000920E-02 0. -1.
</event>
<event>
 5   0  0.1658770E-07  0.3692176E+04  0.7818609E-02  0.8069698E-01
        2   -1    0    0  501    0  0.00000000000E+00  0.00000000000E+00  0.17135711116E+04  0.17135711116E+04  0.25500000920E-02 0.  1.
       -2   -1    0    0    0  501  0.00000000000E+00  0.00000000000E+00 -0.19888525485E+04  0.19888525485E+04  0.25500000920E-02 0. -1.
    10030    2    1    2    0    0  0.00000000000E+00  0.00000000000E+00 -0.27528143687E+03  0.37024236601E+04  0.36921756580E+04 0.  0.
        2    1    3    3  502    0 -0.12128115277E+04  0.12022971626E+04 -0.84073588683E+03  0.19034881404E+04  0.25500000920E-02 0. -1.
       -2    1    3    3    0  502  0.12128115277E+04 -0.12022971626E+04  0.56545444995E+03  0.17989355197E+04  0.25500000920E-02 0.  1.
</event>
<event>
 5   0  0.1558258E-07  0.3701357E+04  0.7818609E-02  0.8067661E-01
       -2   -1    0    0    0  501  0.00000000000E+00  0.00000000000E+00  0.13653008904E+04  0.13653008904E+04  0.25500000920E-02 0. -1.
        2   -1    0    0  501    0  0.00000000000E+00  0.00000000000E+00 -0.25086130312E+04  0.25086130312E+04  0.25500000920E-02 0.  1.
    10030    2    1    2    0    0  0.00000000000E+00  0.00000000000E+00 -0.11433121408E+04  0.38739139216E+04  0.37013573754E+04 0.  0.
        1    1    3    3  502    0  0.64754142327E+02 -0.54538100751E+03 -0.24213557654E+04  0.24828607059E+04  0.50400001928E-02 0.  1.
       -1    1    3    3    0  502 -0.64754142327E+02  0.54538100751E+03  0.12780436247E+04  0.13910532157E+04  0.50400001928E-02 0. -1.
</event>
<event>
 5   0  0.5177000E-08  0.3699137E+04  0.7818609E-02  0.8068153E-01
        1   -1    0    0  501    0  0.00000000000E+00  0.00000000000E+00  0.20937372306E+04  0.20937372306E+04  0.50400001928E-02 0.  1.
       -1   -1    0    0    0  501  0.00000000000E+00  0.00000000000E+00 -0.16338742326E+04  0.16338742326E+04  0.50400001928E-02 0. -1.
    10030    2    1    2    0    0  0.00000000000E+00  0.00000000000E+00  0.45986299801E+03  0.37276114633E+04  0.36991368242E+04 0.  0.
        2    1    3    3  502    0 -0.70517385188E+03 -0.62000046817E+03  0.18356946340E+04  0.20619033758E+04  0.25500000920E-02 0.  1.
       -2    1    3    3    0  502  0.70517385188E+03  0.62000046817E+03 -0.13758316360E+04  0.16657080874E+04  0.25500000920E-02 0. -1.
</event>
<event>
 5   0  0.5177000E-08  0.3703974E+04  0.7818609E-02  0.8067082E-01
        1   -1    0    0  501    0  0.00000000000E+00  0.00000000000E+00  0.19249252627E+04  0.19249252627E+04  0.50400001928E-02 0. -1.
       -1   -1    0    0    0  501  0.00000000000E+00  0.00000000000E+00 -0.17818126197E+04  0.17818126197E+04  0.50400001928E-02 0.  1.
    10030    2    1    2    0    0  0.00000000000E+00  0.00000000000E+00  0.14311264299E+03  0.37067378824E+04  0.37039741495E+04 0.  0.
        4    1    3    3  502    0 -0.14673014668E+04  0.68097460090E+03 -0.83086732582E+03  0.18185274614E+04  0.12699999809E+01 0.  1.
       -4    1    3    3    0  502  0.14673014668E+04 -0.68097460090E+03  0.97397996882E+03  0.18882104211E+04  0.12699999809E+01 0. -1.
</event>
<event>
 5   0  0.1686284E-07  0.3682356E+04  0.7818609E-02  0.8071883E-01
        2   -1    0    0  501    0  0.00000000000E+00  0.00000000000E+00  0.21175929570E+04  0.21175929570E+04  0.25500000920E-02 0.  1.
       -2   -1    0    0    0  501  0.00000000000E+00  0.00000000000E+00 -0.16008446155E+04  0.16008446155E+04  0.25500000920E-02 0. -1.
    10030    2    1    2    0    0  0.00000000000E+00  0.00000000000E+00  0.51674834152E+03  0.37184375725E+04  0.36823564646E+04 0.  0.
        5    1    3    3  502    0  0.41384345350E+03 -0.16595766525E+04 -0.42981221803E+03  0.17635820657E+04  0.46999998093E+01 0. -1.
       -5    1    3    3    0  502 -0.41384345350E+03  0.16595766525E+04  0.94656055956E+03  0.19548555068E+04  0.46999998093E+01 0.  1.
</event>
<event>
 5   0  0.5181371E-08  0.3697175E+04  0.7818609E-02  0.8068588E-01
       -1   -1    0    0    0  501  0.00000000000E+00  0.00000000000E+00  0.15932099759E+04  0.15932099759E+04  0.50400001928E-02 0.  1.
        1   -1    0    0  501    0  0.00000000000E+00  0.00000000000E+00 -0.21448992353E+04  0.21448992353E+04  0.50400001928E-02 0. -1.
    10030    2    1    2    0    0  0.00000000000E+00  0.00000000000E+00 -0.55168925940E+03  0.37381092112E+04  0.36971745206E+04 0.  0.
        5    1    3    3  502    0  0.56370200657E+03  0.16764792482E+04 -0.81929943306E+03  0.19492604426E+04  0.46999998093E+01 0. -1.
       -5    1    3    3    0  502 -0.56370200657E+03 -0.16764792482E+04  0.26761017367E+03  0.17888487686E+04  0.46999998093E+01 0.  1.
</event>
<event>
 5   0  0.5177000E-08  0.3685271E+04  0.7818609E-02  0.8071234E-01
        1   -1    0    0  501    0  0.00000000000E+00  0.00000000000E+00  0.10603135787E+04  0.10603135787E+04  0.50400001928E-02 0.  1.
       -1   -1    0    0    0  501  0.00000000000E+00  0.00000000000E+00 -0.32021705527E+04  0.32021705527E+04  0.50400001928E-02 0. -1.
    10030    2    1    2    0    0  0.00000000000E+00  0.00000000000E+00 -0.21418569740E+04  0.42624841314E+04  0.36852706378E+04 0.  0.
        3    1    3    3  502    0  0.12105999442E+04  0.11124259642E+04 -0.20332681159E+04  0.26148084045E+04  0.10100000352E+00 0. -1.
       -3    1    3    3    0  502 -0.12105999442E+04 -0.11124259642E+04 -0.10858885808E+03  0.16476757269E+04  0.10100000352E+00 0.  1.
</event>
<event>
 5   0  0.1587026E-07  0.3695278E+04  0.7818609E-02  0.8069009E-01
       -2   -1    0    0    0  501  0.00000000000E+00  0.00000000000E+00  0.16380196632E+04  0.16380196632E+04  0.25500000920E-02 0. -1.
        2   -1    0    0  501    0  0.00000000000E+00  0.00000000000E+00 -0.20840834679E+04  0.20840834679E+04  0.25500000920E-02 0.  1.
    10030    2    1    2    0    0  0.00000000000E+00  0.00000000000E+00 -0.44606380469E+03  0.37221031312E+04  0.36952779058E+04 0.  0.
        3    1    3    3  502    0  0.14018950016E+04 -0.58985920902E+02  0.98776786411E+03  0.17159470557E+04  0.10100000352E+00 0. -1.
       -3    1    3    3    0  502 -0.14018950016E+04  0.58985920902E+02 -0.14338316688E+04  0.20061560754E+04  0.10100000352E+00 0.  1.
</event>
<event>
 5   0  0.1686284E-07  0.3700600E+04  0.7818609E-02  0.8067829E-01
        2   -1    0    0  501    0  0.00000000000E+00  0.00000000000E+00  0.20808937495E+04  0.20808937495E+04  0.25500000920E-02 0. -1.
       -2   -1    0    0    0  501  0.00000000000E+00  0.00000000000E+00 -0.16452592255E+04  0.16452592255E+04  0.25500000920E-02 0.  1.
    10030    2    1    2    0    0  0.00000000000E+00  0.00000000000E+00  0.43563452403E+03  0.37261529750E+04  0.37005997561E+04 0.  0.
        5    1    3    3  502    0  0.87550705863E+03  0.58164583589E+03 -0.13154460760E+04  0.16838185641E+04  0.46999998093E+01 0.  1.
       -5    1    3    3    0  502 -0.87550705863E+03 -0.58164583589E+03  0.17510806000E+04  0.20423344109E+04  0.46999998093E+01 0. -1.
</event>
<event>
 5   0  0.5181371E-08  0.3696389E+04  0.7818609E-02  0.8068763E-01
        1   -1    0    0  501    0  0.00000000000E+00  0.00000000000E+00  0.11042479639E+04  0.11042479640E+04  0.50400001928E-02 0.  1.
       -1   -1    0    0    0  501  0.00000000000E+00  0.00000000000E+00 -0.30933475027E+04  0.30933475027E+04  0.50400001928E-02 0. -1.
    10030    2    1    2    0    0  0.00000000000E+00  0.00000000000E+00 -0.19890995387E+04  0.41975954666E+04  0.36963888765E+04 0.  0.
        5    1    3    3  502    0  0.93590254758E+03 -0.51283348843E+03  0.71898862703E+03  0.12868094269E+04  0.46999998093E+01 0.  1.
       -5    1    3    3    0  502 -0.93590254758E+03  0.51283348843E+03 -0.27080881657E+04  0.29107860397E+04  0.46999998093E+01 0. -1.
</event>
<event>
 5   0  0.5177000E-08  0.3686970E+04  0.7818609E-02  0.8070855E-01
        1   -1    0    0  501    0  0.00000000000E+00  0.00000000000E+00  0.21044824210E+04  0.21044824210E+04  0.50400001928E-02 0.  1.
       -1   -1    0    0    0  501  0.00000000000E+00  0.00000000000E+00 -0.16148568491E+04  0.16148568491E+04  0.50400001928E-02 0. -1.
    10030    2    1    2    0    0  0.00000000000E+00  0.00000000000E+00  0.48962557190E+03  0.37193392701E+04  0.36869704915E+04 0.  0.
        2    1    3    3  502    0  0.12124910036E+04  0.45614506273E+03  0.15679047634E+04  0.20338456430E+04  0.25500000920E-02 0.  1.
       -2    1    3    3    0  502 -0.12124910036E+04 -0.45614506273E+03 -0.10782791915E+04  0.16854936271E+04  0.25500000920E-02 0. -1.
</event>
<event>
 5   0  0.1666189E-07  0.3697722E+04  0.7818609E-02  0.8068467E-01
        2   -1    0    0  501    0  0.00000000000E+00  0.00000000000E+00  0.26321699023E+04  0.26321699023E+04  0.25500000920E-02 0.  1.
       -2   -1    0    0    0  501  0.00000000000E+00  0.00000000000E+00 -0.12986577535E+04  0.12986577536E+04  0.25500000920E-02 0. -1.
    10030    2    1    2    0    0  0.00000000000E+00  0.00000000000E+00  0.13335121487E+04  0.39308276558E+04  0.36977224624E+04 0.  0.
        4    1    3    3  502    0 -0.68404937274E+03  0.21405595503E+03  0.24784656401E+04  0.25800265577E+04  0.12699999809E+01 0.  1.
       -4    1    3    3    0  502  0.68404937274E+03 -0.21405595503E+03 -0.11449534914E+04  0.13508010981E+04  0.12699999809E+01 0. -1.
</event>
<event>
 5   0  0.1686284E-07  0.3571348E+04  0.7818609E-02  0.8097087E-01
       -2   -1    0    0    0  501  0.00000000000E+00  0.00000000000E+00  0.14070088421E+04  0.14070088421E+04  0.25500000920E-02 0.  1.
        2   -1    0    0  501    0  0.00000000000E+00  0.00000000000E+00 -0.22662479080E+04  0.22662479080E+04  0.25500000920E-02 0. -1.
    10030    2    1    2    0    0  0.00000000000E+00  0.00000000000E+00 -0.85923906590E+03  0.36732567501E+04  0.35713475580E+04 0.  0.
        5    1    3    3  502    0  0.16193957717E+04  0.29902466219E+03  0.28055431342E+03  0.16705062786E+04  0.46999998093E+01 0.  1.
       -5    1    3    3    0  502 -0.16193957717E+04 -0.29902466219E+03 -0.11397933793E+04  0.20027504716E+04  0.46999998093E+01 0. -1.
</event>
<event>
 5   0  0.5177000E-08  0.3687593E+04  0.7818609E-02  0.8070717E-01
        1   -1    0    0  501    0  0.00000000000E+00  0.00000000000E+00  0.17680968578E+04  0.17680968578E+04  0.50400001928E-02 0. -1.
       -1   -1    0    0    0  501  0.00000000000E+00  0.00000000000E+00 -0.19227366561E+04  0.19227366561E+04  0.50400001928E-02 0.  1.
    10030    2    1    2    0    0  0.00000000000E+00  0.00000000000E+00 -0.15463979825E+03  0.36908335139E+04  0.36875925155E+04 0.  0.
        1    1    3    3  502    0 -0.23866239394E+03  0.17045412904E+04  0.58444491498E+03  0.18176899096E+04  0.50400001928E-02 0.  1.
       -1    1    3    3    0  502  0.23866239394E+03 -0.17045412904E+04 -0.73908471323E+03  0.18731436043E+04  0.50400001928E-02 0. -1.
</event>
<event>
 5   0  0.1658770E-07  0.3704975E+04  0.7818609E-02  0.8066860E-01
       -2   -1    0    0    0  501  0.00000000000E+00  0.00000000000E+00  0.17165965131E+04  0.17165965131E+04  0.25500000920E-02 0.  1.
        2   -1    0    0  501    0  0.00000000000E+00  0.00000000000E+00 -0.19991362766E+04  0.19991362766E+04  0.25500000920E-02 0. -1.
    10030    2    1    2    0    0  0.00000000000E+00  0.00000000000E+00 -0.28253976345E+03  0.37157327897E+04  0.37049752288E+04 0.  0.
        2    1    3    3  502    0 -0.15231755270E+04 -0.56097754671E+03 -0.10365829840E+04  0.19259449049E+04  0.25500000920E-02 0. -1.
       -2    1    3    3    0  502  0.15231755270E+04  0.56097754671E+03  0.75404322056E+03  0.17897878848E+04  0.25500000920E-02 0.  1.
</event>
<event>
 5   0  0.5177000E-08  0.3672467E+04  0.7818609E-02  0.8074091E-01
        1   -1    0    0  501    0  0.00000000000E+00  0.00000000000E+00  0.19122725113E+04  0.19122725113E+04  0.50400001928E-02 0. -1.
       -1   -1    0    0    0  501  0.00000000000E+00  0.00000000000E+00 -0.17632184670E+04  0.17632184670E+04  0.50400001928E-02 0.  1.
    10030    2    1    2    0    0  0.00000000000E+00  0.00000000000E+00  0.14905404429E+03  0.36754909783E+04  0.36724674026E+04 0.  0.
        2    1    3    3  502    0 -0.81276300774E+03 -0.12133221953E+03  0.17179657466E+04  0.19043926908E+04  0.25500000920E-02 0. -1.
       -2    1    3    3    0  502  0.81276300774E+03  0.12133221953E+03 -0.15689117023E+04  0.17710982875E+04  0.25500000920E-02 0.  1.
</event>
<event>
 5   0  0.1558258E-07  0.3689546E+04  0.7818609E-02  0.8070282E-01
       -2   -1    0    0    0  501  0.00000000000E+00  0.00000000000E+00  0.31841460578E+04  0.31841460578E+04  0.25500000920E-02 0.  1.
        2   -1    0    0  501    0  0.00000000000E+00  0.00000000000E+00 -0.10687915189E+04  0.10687915189E+04  0.25500000920E-02 0. -1.
    10030    2    1    2    0    0  0.00000000000E+00  0.00000000000E+00  0.21153545389E+04  0.42529375768E+04  0.36895464771E+04 0.  0.
        1    1    3    3  502    0 -0.13385932790E+04 -0.10385085529E+04  0.18991132593E+04  0.25449878492E+04  0.50400001928E-02 0.  1.
       -1    1    3    3    0  502  0.13385932790E+04  0.10385085529E+04  0.21624127956E+03  0.17079497276E+04  0.50400001928E-02 0. -1.
</event>
<event>
 5   0  0.5177000E-08  0.3711766E+04  0.7818609E-02  0.8065359E-01
       -1   -1    0    0    0  501  0.00000000000E+00  0.00000000000E+00  0.17406693645E+04  0.17406693645E+04  0.50400001928E-02 0. -1.
        1   -1    0    0  501    0  0.00000000000E+00  0.00000000000E+00 -0.19787228046E+04  0.19787228046E+04  0.50400001928E-02 0.  1.
    10030    2    1    2    0    0  0.00000000000E+00  0.00000000000E+00 -0.23805344009E+03  0.37193921691E+04  0.37117662463E+04 0.  0.
        3    1    3    3  502    0 -0.52822344355E+03 -0.16041163365E+04 -0.89008337814E+03  0.19090462691E+04  0.10100000352E+00 0.  1.
       -3    1    3    3    0  502  0.52822344355E+03  0.16041163365E+04  0.65202993805E+03  0.18103459000E+04  0.10100000352E+00 0. -1.
</event>
<event>
 5   0  0.5177000E-08  0.3524019E+04  0.7818609E-02  0.8108121E-01
       -1   -1    0    0    0  501  0.00000000000E+00  0.00000000000E+00  0.13783987091E+04  0.13783987091E+04  0.50400001928E-02 0. -1.
        1   -1    0    0  501    0  0.00000000000E+00  0.00000000000E+00 -0.22523797808E+04  0.22523797808E+04  0.50400001928E-02 0.  1.
    10030    2    1    2    0    0  0.00000000000E+00  0.00000000000E+00 -0.87398107168E+03  0.36307784899E+04  0.35240189456E+04 0.  0.
        3    1    3    3  502    0  0.55290908176E+03  0.74444461571E+03  0.11066549021E+04  0.14438113870E+04  0.10100000352E+00 0. -1.
       -3    1    3    3    0  502 -0.55290908176E+03 -0.74444461571E+03 -0.19806359738E+04  0.21869671030E+04  0.10100000352E+00 0.  1.
</event>
<event>
 5   0  0.1666189E-07  0.3730337E+04  0.7818609E-02  0.8061272E-01
        2   -1    0    0  501    0  0.00000000000E+00  0.00000000000E+00  0.20418515850E+04  0.20418515850E+04  0.25500000920E-02 0. -1.
       -2   -1    0    0    0  501  0.00000000000E+00  0.00000000000E+00 -0.17037739338E+04  0.17037739338E+04  0.25500000920E-02 0.  1.
    10030    2    1    2    0    0  0.00000000000E+00  0.00000000000E+00  0.33807765120E+03  0.37456255188E+04  0.37303369860E+04 0.  0.
        4    1    3    3  502    0  0.69735859407E+03 -0.36418774116E+03  0.18670966893E+04  0.20260783251E+04  0.12699999809E+01 0. -1.
       -4    1    3    3    0  502 -0.69735859407E+03  0.36418774116E+03 -0.15290190381E+04  0.17195471937E+04  0.12699999809E+01 0.  1.
</event>
<event>
 5   0  0.1558258E-07  0.3713793E+04  0.7818609E-02  0.8064912E-01
        2   -1    0    0  501    0  0.00000000000E+00  0.00000000000E+00  0.23013812918E+04  0.23013812918E+04  0.25500000920E-02 0. -1.
       -2   -1    0    0    0  501  0.00000000000E+00  0.00000000000E+00 -0.14982587480E+04  0.14982587480E+04  0.25500000920E-02 0.  1.
    10030    2    1    2    0    0  0.00000000000E+00  0.00000000000E+00  0.80312254374E+03  0.37996400398E+04  0.37137930222E+04 0.  0.
        1    1    3    3  502    0  0.12143402141E+04 -0.10390311944E+04  0.13688557383E+04  0.21042751747E+04  0.50400001928E-02 0. -1.
       -1    1    3    3    0  502 -0.12143402141E+04  0.10390311944E+04 -0.56573319454E+03  0.16953648651E+04  0.50400001928E-02 0.  1.
</event>
<event>
 5   0  0.5177000E-08  0.3661599E+04  0.7818609E-02  0.8076526E-01
       -4   -1    0    0    0  501  0.00000000000E+00  0.00000000000E+00  0.15427880881E+04  0.15427886108E+04  0.12699999809E+01 0. -1.
        4   -1    0    0  501    0  0.00000000000E+00  0.00000000000E+00 -0.21725765938E+04  0.21725769650E+04  0.12699999809E+01 0.  1.
    10030    2    1    2    0    0  0.00000000000E+00  0.00000000000E+00 -0.62978850573E+03  0.37153655758E+04  0.36615990769E+04 0.  0.
        1    1    3    3  502    0  0.11665796825E+04 -0.51652477790E+03 -0.16472329049E+04  0.20835263965E+04  0.50400001928E-02 0.  1.
       -1    1    3    3    0  502 -0.11665796825E+04  0.51652477790E+03  0.10174443991E+04  0.16318391793E+04  0.50400001928E-02 0. -1.
</event>
<event>
 5   0  0.5177000E-08  0.3695872E+04  0.7818609E-02  0.8068877E-01
        1   -1    0    0  501    0  0.00000000000E+00  0.00000000000E+00  0.18080929621E+04  0.18080929621E+04  0.50400001928E-02 0.  1.
       -1   -1    0    0    0  501  0.00000000000E+00  0.00000000000E+00 -0.18886571632E+04  0.18886571632E+04  0.50400001928E-02 0. -1.
    10030    2    1    2    0    0  0.00000000000E+00  0.00000000000E+00 -0.80564201123E+02  0.36967501253E+04  0.36958721431E+04 0.  0.
        4    1    3    3  502    0 -0.13162920957E+04 -0.41422405830E+02 -0.13369408654E+04  0.18766334718E+04  0.12699999809E+01 0. -1.
       -4    1    3    3    0  502  0.13162920957E+04  0.41422405830E+02  0.12563766643E+04  0.18201166535E+04  0.12699999809E+01 0.  1.
</event>
<event>
 5   0  0.5181371E-08  0.3711468E+04  0.7818609E-02  0.8065425E-01
       -1   -1    0    0    0  501  0.00000000000E+00  0.00000000000E+00  0.14953898734E+04  0.14953898734E+04  0.50400001928E-02 0.  1.
        1   -1    0    0  501    0  0.00000000000E+00  0.00000000000E+00 -0.23029105077E+04  0.23029105077E+04  0.50400001928E-02 0. -1.
    10030    2    1    2    0    0  0.00000000000E+00  0.00000000000E+00 -0.80752063430E+03  0.37983003810E+04  0.37114682014E+04 0.  0.
        5    1    3    3  502    0  0.24552307878E+03 -0.38314464102E+03 -0.22449186375E+04  0.22905814059E+04  0.46999998093E+01 0. -1.
       -5    1    3    3    0  502 -0.24552307878E+03  0.38314464102E+03  0.14373980032E+04  0.15077189751E+04  0.46999998093E+01 0.  1.
</event>
<event>
 5   0  0.1658770E-07  0.3703807E+04  0.7818609E-02  0.8067119E-01
        2   -1    0    0  501    0  0.00000000000E+00  0.00000000000E+00  0.17512340237E+04  0.17512340237E+04  0.25500000920E-02 0. -1.
       -2   -1    0    0    0  501  0.00000000000E+00  0.00000000000E+00 -0.19583594773E+04  0.19583594773E+04  0.25500000920E-02 0.  1.
    10030    2    1    2    0    0  0.00000000000E+00  0.00000000000E+00 -0.20712545361E+03  0.37095935010E+04  0.37038065540E+04 0.  0.
        2    1    3    3  502    0 -0.44775509040E+03  0.82904310754E+03  0.14932144892E+04  0.17656405653E+04  0.25500000920E-02 0. -1.
       -2    1    3    3    0  502  0.44775509040E+03 -0.82904310754E+03 -0.17003399428E+04  0.19439529357E+04  0.25500000920E-02 0.  1.
</event>
<event>
 5   0  0.5177000E-08  0.3663440E+04  0.7818609E-02  0.8076113E-01
        1   -1    0    0  501    0  0.00000000000E+00  0.00000000000E+00  0.16682772633E+04  0.16682772633E+04  0.50400001928E-02 0. -1.
       -1   -1    0    0    0  501  0.00000000000E+00  0.00000000000E+00 -0.20111751992E+04  0.20111751992E+04  0.50400001928E-02 0.  1.
    10030    2    1    2    0    0  0.00000000000E+00  0.00000000000E+00 -0.34289793589E+03  0.36794524626E+04  0.36634398357E+04 0.  0.
        4    1    3    3  502    0 -0.26021312258E+02  0.17683824042E+04 -0.65033783724E+03  0.18843551554E+04  0.12699999809E+01 0. -1.
       -4    1    3    3    0  502  0.26021312258E+02 -0.17683824042E+04  0.30743990134E+03  0.17950973071E+04  0.12699999809E+01 0.  1.
</event>
<event>
 5   0  0.1686284E-07  0.3806447E+04  0.7818609E-02  0.8044773E-01
        2   -1    0    0  501    0  0.00000000000E+00  0.00000000000E+00  0.16154055248E+04  0.16154055248E+04  0.25500000920E-02 0.  1.
       -2   -1    0    0    0  501  0.00000000000E+00  0.00000000000E+00 -0.22423226490E+04  0.22423226490E+04  0.25500000920E-02 0. -1.
    10030    2    1    2    0    0  0.00000000000E+00  0.00000000000E+00 -0.62691712418E+03  0.38577281738E+04  0.38064473702E+04 0.  0.
        5    1    3    3  502    0  0.98492948691E+03  0.80829885620E+03 -0.17462963465E+04  0.21617137079E+04  0.46999998093E+01 0. -1.
       -5    1    3    3    0  502 -0.98492948691E+03 -0.80829885620E+03  0.11193792223E+04  0.16960144659E+04  0.46999998093E+01 0.  1.
</event>
<event>
 5   0  0.5181371E-08  0.3671300E+04  0.7818609E-02  0.8074352E-01
        1   -1    0    0  501    0  0.00000000000E+00  0.00000000000E+00  0.24572800904E+04  0.24572800904E+04  0.50400001928E-02 0.  1.
       -1   -1    0    0    0  501  0.00000000000E+00  0.00000000000E+00 -0.13712767818E+04  0.13712767818E+04  0.50400001928E-02 0. -1.
    10030    2    1    2    0    0  0.00000000000E+00  0.00000000000E+00  0.10860033087E+04  0.38285568722E+04  0.36713001154E+04 0.  0.
        5    1    3    3  502    0 -0.12208372800E+04 -0.77481450773E+03 -0.63628087082E+03  0.15797647363E+04  0.46999998093E+01 0. -1.
       -5    1    3    3    0  502  0.12208372800E+04  0.77481450773E+03  0.17222841795E+04  0.22487921359E+04  0.46999998093E+01 0.  1.
</event>
<event>
 5   0  0.5177000E-08  0.3694398E+04  0.7818609E-02  0.8069205E-01
       -1   -1    0    0    0  501  0.00000000000E+00  0.00000000000E+00  0.16393625055E+04  0.16393625055E+04  0.50400001928E-02 0.  1.
        1   -1    0    0  501    0  0.00000000000E+00  0.00000000000E+00 -0.20813842401E+04  0.20813842401E+04  0.50400001928E-02 0. -1.
    10030    2    1    2    0    0  0.00000000000E+00  0.00000000000E+00 -0.44202173466E+03  0.37207467456E+04  0.36943975329E+04 0.  0.
        1    1    3    3  502    0  0.18056072395E+04  0.66339135325E+02 -0.60783997619E+03  0.19063283613E+04  0.50400001928E-02 0.  1.
       -1    1    3    3    0  502 -0.18056072395E+04 -0.66339135325E+02  0.16581824153E+03  0.18144183844E+04  0.50400001928E-02 0. -1.
</event>
<event>
 5   0  0.1658770E-07  0.3713579E+04  0.7818609E-02  0.8064959E-01
        2   -1    0    0  501    0  0.00000000000E+00  0.00000000000E+00  0.11599963492E+04  0.11599963492E+04  0.25500000920E-02 0.  1.
       -2   -1    0    0    0  501  0.00000000000E+00  0.00000000000E+00 -0.29721366384E+04  0.29721366384E+04  0.25500000920E-02 0. -1.
    10030    2    1    2    0    0  0.00000000000E+00  0.00000000000E+00 -0.18121402892E+04  0.41321329877E+04  0.37135792169E+04 0.  0.
        2    1    3    3  502    0 -0.15626646069E+04 -0.58815991755E+03 -0.18099124246E+04  0.24624450750E+04  0.25500000920E-02 0. -1.
       -2    1    3    3    0  502  0.15626646069E+04  0.58815991755E+03 -0.22278645337E+01  0.16696879127E+04  0.25500000920E-02 0.  1.
</event>
<event>
 5   0  0.5181371E-08  0.3713482E+04  0.7818609E-02  0.8064981E-01
        1   -1    0    0  501    0  0.00000000000E+00  0.00000000000E+00  0.22075417608E+04  0.22075417608E+04  0.50400001928E-02 0.  1.
       -1   -1    0    0    0  501  0.00000000000E+00  0.00000000000E+00 -0.15616859692E+04  0.15616859692E+04  0.50400001928E-02 0. -1.
    10030    2    1    2    0    0  0.00000000000E+00  0.00000000000E+00  0.64585579155E+03  0.37692277300E+04  0.37134819209E+04 0.  0.
        5    1    3    3  502    0 -0.13048483710E+04 -0.11120627974E+04 -0.40062097395E+03  0.17606340311E+04  0.46999998093E+01 0. -1.
       -5    1    3    3    0  502  0.13048483710E+04  0.11120627974E+04  0.10464767655E+04  0.20085936989E+04  0.46999998093E+01 0.  1.
</event>
<event>
 5   0  0.1558258E-07  0.3707500E+04  0.7818609E-02  0.8066302E-01
       -2   -1    0    0    0  501  0.00000000000E+00  0.00000000000E+00  0.13838324457E+04  0.13838324457E+04  0.25500000920E-02 0. -1.
        2   -1    0    0  501    0  0.00000000000E+00  0.00000000000E+00 -0.24832410954E+04  0.24832410955E+04  0.25500000920E-02 0.  1.
    10030    2    1    2    0    0  0.00000000000E+00  0.00000000000E+00 -0.10994086498E+04  0.38670735411E+04  0.37075002890E+04 0.  0.
        1    1    3    3  502    0 -0.75557976205E+03  0.67501350792E+03 -0.21688869890E+04  0.23938702521E+04  0.50400001928E-02 0.  1.
       -1    1    3    3    0  502  0.75557976205E+03 -0.67501350792E+03  0.10694783392E+04  0.14732032890E+04  0.50400001928E-02 0. -1.
</event>
<event>
 5   0  0.5177000E-08  0.3657105E+04  0.7818609E-02  0.8077535E-01
       -1   -1    0    0    0  501  0.00000000000E+00  0.00000000000E+00  0.15341388310E+04  0.15341388310E+04  0.50400001928E-02 0. -1.
        1   -1    0    0  501    0  0.00000000000E+00  0.00000000000E+00 -0.21794670350E+04  0.21794670350E+04  0.50400001928E-02 0.  1.
    10030    2    1    2    0    0  0.00000000000E+00  0.00000000000E+00 -0.64532820404E+03  0.37136058660E+04  0.36571054178E+04 0.  0.
        1    1    3    3  502    0 -0.13197312274E+04  0.49146124078E+03 -0.15070371182E+04  0.20626161881E+04  0.50400001928E-02 0.  1.
       -1    1    3    3    0  502  0.13197312274E+04 -0.49146124078E+03  0.86170891413E+03  0.16509896779E+04  0.50400001928E-02 0. -1.
</event>
<event>
 5   0  0.5177000E-08  0.3694846E+04  0.7818609E-02  0.8069105E-01
        1   -1    0    0  501    0  0.00000000000E+00  0.00000000000E+00  0.29482241399E+04  0.29482241399E+04  0.50400001928E-02 0.  1.
       -1   -1    0    0    0  501  0.00000000000E+00  0.00000000000E+00 -0.11576365950E+04  0.11576365950E+04  0.50400001928E-02 0. -1.
    10030    2    1    2    0    0  0.00000000000E+00  0.00000000000E+00  0.17905875449E+04  0.41058607349E+04  0.36948462239E+04 0.  0.
        2    1    3    3  502    0  0.24629741713E+03  0.17124243794E+04  0.16153845329E+04  0.23669657501E+04  0.25500000920E-02 0. -1.
       -2    1    3    3    0  502 -0.24629741713E+03 -0.17124243794E+04  0.17520301195E+03  0.17388949848E+04  0.25500000920E-02 0.  1.
</event>
<event>
 5   0  0.1666189E-07  0.3725622E+04  0.7818609E-02  0.8062307E-01
       -2   -1    0    0    0  501  0.00000000000E+00  0.00000000000E+00  0.19424904572E+04  0.19424904572E+04  0.25500000920E-02 0. -1.
        2   -1    0    0  501    0  0.00000000000E+00  0.00000000000E+00 -0.17863997153E+04  0.17863997153E+04  0.25500000920E-02 0.  1.
    10030    2    1    2    0    0  0.00000000000E+00  0.00000000000E+00  0.15609074187E+03  0.37288901725E+04  0.37256217734E+04 0.  0.
        4    1    3    3  502    0  0.25911533205E+03  0.13119233211E+04  0.13760173640E+04  0.19187779848E+04  0.12699999809E+01 0. -1.
       -4    1    3    3    0  502 -0.25911533205E+03 -0.13119233211E+04 -0.12199266221E+04  0.18101121877E+04  0.12699999809E+01 0.  1.
</event>
<event>
 5   0  0.1658770E-07  0.3760446E+04  0.7818609E-02  0.8054697E-01
        2   -1    0    0  501    0  0.00000000000E+00  0.00000000000E+00  0.22243631255E+04  0.22243631255E+04  0.25500000920E-02 0.  1.
       -2   -1    0    0    0  501  0.00000000000E+00  0.00000000000E+00 -0.15893265122E+04  0.15893265122E+04  0.25500000920E-02 0. -1.
    10030    2    1    2    0    0  0.00000000000E+00  0.00000000000E+00  0.63503661329E+03  0.38136896377E+04  0.37604464034E+04 0.  0.
        2    1    3    3  502    0  0.11580813044E+03 -0.11631795505E+04  0.18110684599E+04  0.21555433552E+04  0.25500000920E-02 0.  1.
       -2    1    3    3    0  502 -0.11580813044E+03  0.11631795505E+04 -0.11760318466E+04  0.16581462825E+04  0.25500000920E-02 0. -1.
</event>
<event>
 5   0  0.1666189E-07  0.3696126E+04  0.7818609E-02  0.8068821E-01
        2   -1    0    0  501    0  0.00000000000E+00  0.00000000000E+00  0.13589740544E+04  0.13589740544E+04  0.25500000920E-02 0.  1.
       -2   -1    0    0    0  501  0.00000000000E+00  0.00000000000E+00 -0.25131727524E+04  0.25131727524E+04  0.25500000920E-02 0. -1.
    10030    2    1    2    0    0  0.00000000000E+00  0.00000000000E+00 -0.11541986980E+04  0.38721468068E+04  0.36961258446E+04 0.  0.
        4    1    3    3  502    0 -0.13682143940E+04 -0.18261992109E+03 -0.18644292038E+04  0.23197970886E+04  0.12699999809E+01 0. -1.
       -4    1    3    3    0  502  0.13682143940E+04  0.18261992109E+03  0.71023050572E+03  0.15523497182E+04  0.12699999809E+01 0.  1.
</event>
<event>
 5   0  0.5177000E-08  0.3699805E+04  0.7818609E-02  0.8068005E-01
        1   -1    0    0  501    0  0.00000000000E+00  0.00000000000E+00  0.21145110549E+04  0.21145110549E+04  0.50400001928E-02 0.  1.
       -1   -1    0    0    0  501  0.00000000000E+00  0.00000000000E+00 -0.16184066846E+04  0.16184066846E+04  0.50400001928E-02 0. -1.
    10030    2    1    2    0    0  0.00000000000E+00  0.00000000000E+00  0.49610437022E+03  0.37329177395E+04  0.36998047656E+04 0.  0.
        2    1    3    3  502    0 -0.85166580536E+03 -0.14392442123E+04 -0.54983539200E+03  0.17604196957E+04  0.25500000920E-02 0. -1.
       -2    1    3    3    0  502  0.85166580536E+03  0.14392442123E+04  0.10459397622E+04  0.19724980438E+04  0.25500000920E-02 0.  1.
</event>
<event>
 5   0  0.1558258E-07  0.3710844E+04  0.7818609E-02  0.8065563E-01
       -2   -1    0    0    0  501  0.00000000000E+00  0.00000000000E+00  0.12048848828E+04  0.12048848828E+04  0.25500000920E-02 0. -1.
        2   -1    0    0  501    0  0.00000000000E+00  0.00000000000E+00 -0.28571954906E+04  0.28571954906E+04  0.25500000920E-02 0.  1.
    10030    2    1    2    0    0  0.00000000000E+00  0.00000000000E+00 -0.16523106078E+04  0.40620803734E+04  0.37108444612E+04 0.  0.
        1    1    3    3  502    0 -0.99615920778E+03 -0.20009644470E+03 -0.25255884896E+04  0.27223094925E+04  0.50400001928E-02 0.  1.
       -1    1    3    3    0  502  0.99615920778E+03  0.20009644470E+03  0.87327788177E+03  0.13397708809E+04  0.50400001928E-02 0. -1.
</event>
<event>
 5   0  0.5177000E-08  0.3701537E+04  0.7818609E-02  0.8067621E-01
        1   -1    0    0  501    0  0.00000000000E+00  0.00000000000E+00  0.27242056706E+04  0.27242056706E+04  0.50400001928E-02 0.  1.
       -1   -1    0    0    0  501  0.00000000000E+00  0.00000000000E+00 -0.12573736922E+04  0.12573736922E+04  0.50400001928E-02 0. -1.
    10030    2    1    2    0    0  0.00000000000E+00  0.00000000000E+00  0.14668319784E+04  0.39815793628E+04  0.37015372711E+04 0.  0.
        4    1    3    3  502    0 -0.42587273960E+02 -0.80046679188E+03 -0.10609575487E+04  0.13297342944E+04  0.12699999809E+01 0. -1.
       -4    1    3    3    0  502  0.42587273960E+02  0.80046679188E+03  0.25277895271E+04  0.26518450684E+04  0.12699999809E+01 0.  1.
</event>
<event>
 5   0  0.5177000E-08  0.3710582E+04  0.7818609E-02  0.8065621E-01
        1   -1    0    0  501    0  0.00000000000E+00  0.00000000000E+00  0.21759081608E+04  0.21759081608E+04  0.50400001928E-02 0.  1.
       -1   -1    0    0    0  501  0.00000000000E+00  0.00000000000E+00 -0.15819167538E+04  0.15819167538E+04  0.50400001928E-02 0. -1.
    10030    2    1    2    0    0  0.00000000000E+00  0.00000000000E+00  0.59399140704E+03  0.37578249146E+04  0.37105824741E+04 0.  0.
        2    1    3    3  502    0  0.15144218554E+04  0.10390091871E+04  0.30795669897E+02  0.18368347831E+04  0.25500000920E-02 0. -1.
       -2    1    3    3    0  502 -0.15144218554E+04 -0.10390091871E+04  0.56319573714E+03  0.19209901315E+04  0.25500000920E-02 0.  1.
</event>
<event>
 5   0  0.5177000E-08  0.3717515E+04  0.7818609E-02  0.8064091E-01
        1   -1    0    0  501    0  0.00000000000E+00  0.00000000000E+00  0.17659212665E+04  0.17659212666E+04  0.50400001928E-02 0. -1.
       -1   -1    0    0    0  501  0.00000000000E+00  0.00000000000E+00 -0.19564746440E+04  0.19564746440E+04  0.50400001928E-02 0.  1.
    10030    2    1    2    0    0  0.00000000000E+00  0.00000000000E+00 -0.19055337743E+03  0.37223959105E+04  0.37175153968E+04 0.  0.
        1    1    3    3  502    0 -0.15237920080E+04 -0.86864427234E+03  0.52075065455E+03  0.18296628651E+04  0.50400001928E-02 0. -1.
       -1    1    3    3    0  502  0.15237920080E+04  0.86864427234E+03 -0.71130403198E+03  0.18927330455E+04  0.50400001928E-02 0.  1.
</event>
<event>
 5   0  0.1558258E-07  0.3732256E+04  0.7818609E-02  0.8060851E-01
        2   -1    0    0  501    0  0.00000000000E+00  0.00000000000E+00  0.16083346534E+04  0.16083346535E+04  0.25500000920E-02 0. -1.
       -2   -1    0    0    0  501  0.00000000000E+00  0.00000000000E+00 -0.21652423548E+04  0.21652423548E+04  0.25500000920E-02 0.  1.
    10030    2    1    2    0    0  0.00000000000E+00  0.00000000000E+00 -0.55690770132E+03  0.37735770082E+04  0.37322563215E+04 0.  0.
        1    1    3    3  502    0  0.18276515681E+04 -0.34805396099E+03 -0.42491092444E+03  0.19084027635E+04  0.50400001928E-02 0.  1.
       -1    1    3    3    0  502 -0.18276515681E+04  0.34805396099E+03 -0.13199677688E+03  0.18651742447E+04  0.50400001928E-02 0. -1.
</event>
<event>
 5   0  0.5177000E-08  0.3714578E+04  0.7818609E-02  0.8064739E-01
        1   -1    0    0  501    0  0.00000000000E+00  0.00000000000E+00  0.21611741426E+04  0.21611741426E+04  0.50400001928E-02 0. -1.
       -1   -1    0    0    0  501  0.00000000000E+00  0.00000000000E+00 -0.15961335915E+04  0.15961335915E+04  0.50400001928E-02 0.  1.
    10030    2    1    2    0    0  0.00000000000E+00  0.00000000000E+00  0.56504055111E+03  0.37573077341E+04  0.37145781166E+04 0.  0.
        3    1    3    3  502    0 -0.12368697849E+03  0.15213861307E+04  0.13528075120E+04  0.20396083943E+04  0.10100000352E+00 0. -1.
       -3    1    3    3    0  502  0.12368697849E+03 -0.15213861307E+04 -0.78776696091E+03  0.17176993399E+04  0.10100000352E+00 0.  1.
</event>
<event>
 5   0  0.5181371E-08  0.3699980E+04  0.7818609E-02  0.8067966E-01
        1   -1    0    0  501    0  0.00000000000E+00  0.00000000000E+00  0.21227218195E+04  0.21227218195E+04  0.50400001928E-02 0. -1.
       -1   -1    0    0    0  501  0.00000000000E+00  0.00000000000E+00 -0.16122989860E+04  0.16122989860E+04  0.50400001928E-02 0.  1.
    10030    2    1    2    0    0  0.00000000000E+00  0.00000000000E+00  0.51042283352E+03  0.37350208056E+04  0.36999795877E+04 0.  0.
        5    1    3    3  502    0 -0.21947988222E+03  0.14893455161E+04 -0.83020129399E+03  0.17191793867E+04  0.46999998093E+01 0.  1.
       -5    1    3    3    0  502  0.21947988222E+03 -0.14893455161E+04  0.13406241275E+04  0.20158414189E+04  0.46999998093E+01 0. -1.
</event>
<event>
 5   0  0.5177000E-08  0.3701164E+04  0.7818609E-02  0.8067704E-01
        1   -1    0    0  501    0  0.00000000000E+00  0.00000000000E+00  0.31895816950E+04  0.31895816950E+04  0.50400001928E-02 0. -1.
       -1   -1    0    0    0  501  0.00000000000E+00  0.00000000000E+00 -0.10736996702E+04  0.10736996703E+04  0.50400001928E-02 0.  1.
    10030    2    1    2    0    0  0.00000000000E+00  0.00000000000E+00  0.21158820248E+04  0.42632813653E+04  0.37011635004E+04 0.  0.
        3    1    3    3  502    0  0.11077508799E+04  0.14069823725E+04  0.15956850318E+04  0.23985249924E+04  0.10100000352E+00 0. -1.
       -3    1    3    3    0  502 -0.11077508799E+04 -0.14069823725E+04  0.52019699304E+03  0.18647563729E+04  0.10100000352E+00 0.  1.
</event>
<event>
 5   0  0.1658770E-07  0.3674428E+04  0.7818609E-02  0.8073653E-01
       -2   -1    0    0    0  501  0.00000000000E+00  0.00000000000E+00  0.16386108687E+04  0.16386108687E+04  0.25500000920E-02 0. -1.
        2   -1    0    0  501    0  0.00000000000E+00  0.00000000000E+00 -0.20598884832E+04  0.20598884832E+04  0.25500000920E-02 0.  1.
    10030    2    1    2    0    0  0.00000000000E+00  0.00000000000E+00 -0.42127761449E+03  0.36984993519E+04  0.36744282041E+04 0.  0.
        2    1    3    3  502    0  0.65771194532E+03 -0.77540564258E+01  0.15160320239E+04  0.16525732135E+04  0.25500000920E-02 0. -1.
       -2    1    3    3    0  502 -0.65771194532E+03  0.77540564258E+01 -0.19373096384E+04  0.20459261383E+04  0.25500000920E-02 0.  1.
</event>
<event>
 5   0  0.1658770E-07  0.3720354E+04  0.7818609E-02  0.8063466E-01
        2   -1    0    0  501    0  0.00000000000E+00  0.00000000000E+00  0.19431048087E+04  0.19431048087E+04  0.25500000920E-02 0. -1.
       -2   -1    0    0    0  501  0.00000000000E+00  0.00000000000E+00 -0.17807883833E+04  0.17807883833E+04  0.25500000920E-02 0.  1.
    10030    2    1    2    0    0  0.00000000000E+00  0.00000000000E+00  0.16231642541E+03  0.37238931919E+04  0.37203539997E+04 0.  0.
        2    1    3    3  502    0 -0.15463105659E+04  0.71538169793E+03 -0.66615174400E+03  0.18293729762E+04  0.25500000920E-02 0.  1.
       -2    1    3    3    0  502  0.15463105659E+04 -0.71538169793E+03  0.82846816942E+03  0.18945202157E+04  0.25500000920E-02 0. -1.
</event>
<event>
 5   0  0.1666189E-07  0.3709443E+04  0.7818609E-02  0.8065872E-01
        2   -1    0    0  501    0  0.00000000000E+00  0.00000000000E+00  0.20108091409E+04  0.20108091409E+04  0.25500000920E-02 0.  1.
       -2   -1    0    0    0  501  0.00000000000E+00  0.00000000000E+00 -0.17107496466E+04  0.17107496466E+04  0.25500000920E-02 0. -1.
    10030    2    1    2    0    0  0.00000000000E+00  0.00000000000E+00  0.30005949435E+03  0.37215587875E+04  0.37094425604E+04 0.  0.
        4    1    3    3  502    0  0.14278874257E+04 -0.75245679090E+03 -0.76670300241E+03  0.17868656439E+04  0.12699999809E+01 0. -1.
       -4    1    3    3    0  502 -0.14278874257E+04  0.75245679090E+03  0.10667624968E+04  0.19346931436E+04  0.12699999809E+01 0.  1.
</event>
<event>
 5   0  0.5177000E-08  0.3691499E+04  0.7818609E-02  0.8069848E-01
        1   -1    0    0  501    0  0.00000000000E+00  0.00000000000E+00  0.23752600649E+04  0.23752600649E+04  0.50400001928E-02 0.  1.
       -1   -1    0    0    0  501  0.00000000000E+00  0.00000000000E+00 -0.14342815107E+04  0.14342815107E+04  0.50400001928E-02 0. -1.
    10030    2    1    2    0    0  0.00000000000E+00  0.00000000000E+00  0.94097855418E+03  0.38095415756E+04  0.36914992045E+04 0.  0.
        3    1    3    3  502    0  0.55946394326E+03  0.81773994641E+03  0.20775568678E+04  0.23017256728E+04  0.10100000352E+00 0.  1.
       -3    1    3    3    0  502 -0.55946394326E+03 -0.81773994641E+03 -0.11365783136E+04  0.15078159029E+04  0.10100000352E+00 0. -1.
</event>
<event>
 5   0  0.5177000E-08  0.3706620E+04  0.7818609E-02  0.8066496E-01
        1   -1    0    0  501    0  0.00000000000E+00  0.00000000000E+00  0.10400886858E+04  0.10400886858E+04  0.50400001928E-02 0.  1.
       -1   -1    0    0    0  501  0.00000000000E+00  0.00000000000E+00 -0.33023706602E+04  0.33023706602E+04  0.50400001928E-02 0. -1.
    10030    2    1    2    0    0  0.00000000000E+00  0.00000000000E+00 -0.22622819745E+04  0.43424593460E+04  0.37066202179E+04 0.  0.
        4    1    3    3  502    0  0.29058616508E+03 -0.15870510625E+04 -0.62797057879E+02  0.16146567678E+04  0.12699999809E+01 0.  1.
       -4    1    3    3    0  502 -0.29058616508E+03  0.15870510625E+04 -0.21994849166E+04  0.27278025782E+04  0.12699999809E+01 0. -1.
</event>
<event>
 5   0  0.1686284E-07  0.3744861E+04  0.7818609E-02  0.8058092E-01
        2   -1    0    0  501    0  0.00000000000E+00  0.00000000000E+00  0.29645837108E+04  0.29645837108E+04  0.25500000920E-02 0. -1.
       -2   -1    0    0    0  501  0.00000000000E+00  0.00000000000E+00 -0.11826266438E+04  0.11826266438E+04  0.25500000920E-02 0.  1.
    10030    2    1    2    0    0  0.00000000000E+00  0.00000000000E+00  0.17819570670E+04  0.41472103546E+04  0.37448608434E+04 0.  0.
        5    1    3    3  502    0  0.12032753032E+04 -0.66740256188E+03 -0.51537314500E+03  0.14693295081E+04  0.46999998093E+01 0.  1.
       -5    1    3    3    0  502 -0.12032753032E+04  0.66740256188E+03  0.22973302120E+04  0.26778808465E+04  0.46999998093E+01 0. -1.
</event>
<event>
 5   0  0.5181371E-08  0.3492933E+04  0.7818609E-02  0.8115467E-01
       -1   -1    0    0    0  501  0.00000000000E+00  0.00000000000E+00  0.16989557805E+04  0.16989557805E+04  0.50400001928E-02 0. -1.
        1   -1    0    0  501    0  0.00000000000E+00  0.00000000000E+00 -0.17953062231E+04  0.17953062231E+04  0.50400001928E-02 0.  1.
    10030    2    1    2    0    0  0.00000000000E+00  0.00000000000E+00 -0.96350442594E+02  0.34942620037E+04  0.34929333722E+04 0.  0.
        5    1    3    3  502    0 -0.11660549707E+04 -0.12669783726E+04  0.24383545846E+03  0.17390791276E+04  0.46999998093E+01 0. -1.
       -5    1    3    3    0  502  0.11660549707E+04  0.12669783726E+04 -0.34018590105E+03  0.17551828761E+04  0.46999998093E+01 0.  1.
</event>
<event>
 5   0  0.5177000E-08  0.3631518E+04  0.7818609E-02  0.8083310E-01
        1   -1    0    0  501    0  0.00000000000E+00  0.00000000000E+00  0.26681201623E+04  0.26681201623E+04  0.50400001928E-02 0. -1.
       -1   -1    0    0    0  501  0.00000000000E+00  0.00000000000E+00 -0.12356943308E+04  0.12356943309E+04  0.50400001928E-02 0.  1.
    10030    2    1    2    0    0  0.00000000000E+00  0.00000000000E+00  0.14324258314E+04  0.39038144931E+04  0.36315181170E+04 0.  0.
        2    1    3    3  502    0 -0.13420604318E+04 -0.17271347608E+03 -0.58536933355E+03  0.14743179454E+04  0.25500000920E-02 0.  1.
       -2    1    3    3    0  502  0.13420604318E+04  0.17271347608E+03  0.20177951650E+04  0.24294965477E+04  0.25500000920E-02 0. -1.
</event>
<event>
 5   0  0.1587026E-07  0.3704640E+04  0.7818609E-02  0.8066934E-01
       -2   -1    0    0    0  501  0.00000000000E+00  0.00000000000E+00  0.13917641560E+04  0.13917641560E+04  0.25500000920E-02 0.  1.
        2   -1    0    0  501    0  0.00000000000E+00  0.00000000000E+00 -0.24652807275E+04  0.24652807275E+04  0.25500000920E-02 0. -1.
    10030    2    1    2    0    0  0.00000000000E+00  0.00000000000E+00 -0.10735165715E+04  0.38570448836E+04  0.37046399831E+04 0.  0.
        3    1    3    3  502    0 -0.10745668099E+04  0.42273688734E+03  0.97116496340E+03  0.15088279230E+04  0.10100000352E+00 0.  1.
       -3    1    3    3    0  502  0.10745668099E+04 -0.42273688734E+03 -0.20446815349E+04  0.23482169606E+04  0.10100000352E+00 0. -1.
</event>
<event>
 5   0  0.5177000E-08  0.3694753E+04  0.7818609E-02  0.8069126E-01
       -1   -1    0    0    0  501  0.00000000000E+00  0.00000000000E+00  0.18415404197E+04  0.18415404197E+04  0.50400001928E-02 0.  1.
        1   -1    0    0  501    0  0.00000000000E+00  0.00000000000E+00 -0.18532311800E+04  0.18532311800E+04  0.50400001928E-02 0. -1.
    10030    2    1    2    0    0  0.00000000000E+00  0.00000000000E+00 -0.11690760304E+02  0.36947715997E+04  0.36947531040E+04 0.  0.
        3    1    3    3  502    0 -0.14812600990E+04  0.11007696221E+04  0.77670743222E+02  0.18471215434E+04  0.10100000352E+00 0. -1.
       -3    1    3    3    0  502  0.14812600990E+04 -0.11007696221E+04 -0.89361503526E+02  0.18476500562E+04  0.10100000352E+00 0.  1.
</event>
<event>
 5   0  0.5177000E-08  0.3721492E+04  0.7818609E-02  0.8063216E-01
        1   -1    0    0  501    0  0.00000000000E+00  0.00000000000E+00  0.29661184358E+04  0.29661184358E+04  0.50400001928E-02 0. -1.
       -1   -1    0    0    0  501  0.00000000000E+00  0.00000000000E+00 -0.11673084522E+04  0.11673084522E+04  0.50400001928E-02 0.  1.
    10030    2    1    2    0    0  0.00000000000E+00  0.00000000000E+00  0.17988099837E+04  0.41334268880E+04  0.37214917011E+04 0.  0.
        3    1    3    3  502    0  0.10461227237E+04 -0.10054988915E+04 -0.39443038728E+03  0.15036542536E+04  0.10100000352E+00 0.  1.
       -3    1    3    3    0  502 -0.10461227237E+04  0.10054988915E+04  0.21932403709E+04  0.26297726344E+04  0.10100000352E+00 0. -1.
</event>
<event>
 5   0  0.5177000E-08  0.3654149E+04  0.7818609E-02  0.8078200E-01
        1   -1    0    0  501    0  0.00000000000E+00  0.00000000000E+00  0.23438111374E+04  0.23438111374E+04  0.50400001928E-02 0.  1.
       -1   -1    0    0    0  501  0.00000000000E+00  0.00000000000E+00 -0.14242622594E+04  0.14242622594E+04  0.50400001928E-02 0. -1.
    10030    2    1    2    0    0  0.00000000000E+00  0.00000000000E+00  0.91954887799E+03  0.37680733968E+04  0.36541492833E+04 0.  0.
        3    1    3    3  502    0  0.94710481920E+03  0.73236983127E+03  0.18829583411E+04  0.22313460585E+04  0.10100000352E+00 0.  1.
       -3    1    3    3    0  502 -0.94710481920E+03 -0.73236983127E+03 -0.96340946312E+03  0.15367273383E+04  0.10100000352E+00 0. -1.
</event>
<event>
 5   0  0.5177000E-08  0.3697259E+04  0.7818609E-02  0.8068569E-01
        1   -1    0    0  501    0  0.00000000000E+00  0.00000000000E+00  0.28180620878E+04  0.28180620879E+04  0.50400001928E-02 0.  1.
       -1   -1    0    0    0  501  0.00000000000E+00  0.00000000000E+00 -0.12126885682E+04  0.12126885682E+04  0.50400001928E-02 0. -1.
    10030    2    1    2    0    0  0.00000000000E+00  0.00000000000E+00  0.16053735197E+04  0.40307506560E+04  0.36972593517E+04 0.  0.
        2    1    3    3  502    0 -0.39682688292E+03 -0.18051261274E+04  0.84462428377E+03  0.20320782690E+04  0.25500000920E-02 0. -1.
       -2    1    3    3    0  502  0.39682688292E+03  0.18051261274E+04  0.76074923590E+03  0.19986723870E+04  0.25500000920E-02 0.  1.
</event>
<event>
 5   0  0.5177000E-08  0.3685590E+04  0.7818609E-02  0.8071163E-01
        1   -1    0    0  501    0  0.00000000000E+00  0.00000000000E+00  0.11842466948E+04  0.11842466948E+04  0.50400001928E-02 0.  1.
       -1   -1    0    0    0  501  0.00000000000E+00  0.00000000000E+00 -0.28675550720E+04  0.28675550720E+04  0.50400001928E-02 0. -1.
    10030    2    1    2    0    0  0.00000000000E+00  0.00000000000E+00 -0.16833083772E+04  0.40518017668E+04  0.36855895682E+04 0.  0.
        4    1    3    3  502    0  0.71876521600E+03 -0.37786114377E+03  0.97694936362E+03  0.12703677230E+04  0.12699999809E+01 0.  1.
       -4    1    3    3    0  502 -0.71876521600E+03  0.37786114377E+03 -0.26602577408E+04  0.27814340438E+04  0.12699999809E+01 0. -1.
</event>
<event>
 5   0  0.5177000E-08  0.3698332E+04  0.7818609E-02  0.8068332E-01
        1   -1    0    0  501    0  0.00000000000E+00  0.00000000000E+00  0.12357140814E+04  0.12357140814E+04  0.50400001928E-02 0.  1.
       -1   -1    0    0    0  501  0.00000000000E+00  0.00000000000E+00 -0.27671574038E+04  0.27671574038E+04  0.50400001928E-02 0. -1.
    10030    2    1    2    0    0  0.00000000000E+00  0.00000000000E+00 -0.15314433224E+04  0.40028714852E+04  0.36983322562E+04 0.  0.
        4    1    3    3  502    0 -0.89879130325E+03  0.14025681380E+04  0.10311934350E+03  0.16690291790E+04  0.12699999809E+01 0.  1.
       -4    1    3    3    0  502  0.89879130325E+03 -0.14025681380E+04 -0.16345626659E+04  0.23338423062E+04  0.12699999809E+01 0. -1.
</event>
<event>
 5   0  0.1587026E-07  0.3712187E+04  0.7818609E-02  0.8065266E-01
       -2   -1    0    0    0  501  0.00000000000E+00  0.00000000000E+00  0.14833972638E+04  0.14833972638E+04  0.25500000920E-02 0.  1.
        2   -1    0    0  501    0  0.00000000000E+00  0.00000000000E+00 -0.23224281878E+04  0.23224281878E+04  0.25500000920E-02 0. -1.
    10030    2    1    2    0    0  0.00000000000E+00  0.00000000000E+00 -0.83903092401E+03  0.38058254515E+04  0.37121872900E+04 0.  0.
        3    1    3    3  502    0  0.45511177507E+03 -0.13704784710E+04 -0.16150106281E+04  0.21664711644E+04  0.10100000352E+00 0. -1.
       -3    1    3    3    0  502 -0.45511177507E+03  0.13704784710E+04  0.77597970405E+03  0.16393542871E+04  0.10100000352E+00 0.  1.
</event>
<event>
 5   0  0.1666189E-07  0.3719320E+04  0.7818609E-02  0.8063694E-01
        2   -1    0    0  501    0  0.00000000000E+00  0.00000000000E+00  0.23392624854E+04  0.23392624854E+04  0.25500000920E-02 0. -1.
       -2   -1    0    0    0  501  0.00000000000E+00  0.00000000000E+00 -0.14783872980E+04  0.14783872980E+04  0.25500000920E-02 0.  1.
    10030    2    1    2    0    0  0.00000000000E+00  0.00000000000E+00  0.86087518745E+03  0.38176497834E+04  0.37193203385E+04 0.  0.
        4    1    3    3  502    0 -0.11865192689E+04  0.13405927690E+04  0.94705019819E+03  0.20253203792E+04  0.12699999809E+01 0. -1.
       -4    1    3    3    0  502  0.11865192689E+04 -0.13405927690E+04 -0.86175010748E+02  0.17923294042E+04  0.12699999809E+01 0.  1.
</event>
<event>
 5   0  0.1666189E-07  0.3696994E+04  0.7818609E-02  0.8068628E-01
       -2   -1    0    0    0  501  0.00000000000E+00  0.00000000000E+00  0.16422113357E+04  0.16422113357E+04  0.25500000920E-02 0.  1.
        2   -1    0    0  501    0  0.00000000000E+00  0.00000000000E+00 -0.20806952524E+04  0.20806952524E+04  0.25500000920E-02 0. -1.
    10030    2    1    2    0    0  0.00000000000E+00  0.00000000000E+00 -0.43848391674E+03  0.37229065880E+04  0.36969940922E+04 0.  0.
        4    1    3    3  502    0  0.15945231445E+04  0.93282877438E+03 -0.15346849273E+03  0.18537064956E+04  0.12699999809E+01 0. -1.
       -4    1    3    3    0  502 -0.15945231445E+04 -0.93282877438E+03 -0.28501542401E+03  0.18692000924E+04  0.12699999809E+01 0.  1.
</event>
<event>
 5   0  0.5181371E-08  0.3707251E+04  0.7818609E-02  0.8066357E-01
       -1   -1    0    0    0  501  0.00000000000E+00  0.00000000000E+00  0.25146795171E+04  0.25146795171E+04  0.50400001928E-02 0. -1.
        1   -1    0    0  501    0  0.00000000000E+00  0.00000000000E+00 -0.13663476974E+04  0.13663476974E+04  0.50400001928E-02 0.  1.
    10030    2    1    2    0    0  0.00000000000E+00  0.00000000000E+00  0.11483318197E+04  0.38810272145E+04  0.37072505002E+04 0.  0.
        5    1    3    3  502    0 -0.73073084678E+03 -0.53614842093E+03  0.22668954191E+04  0.24413642971E+04  0.46999998093E+01 0.  1.
       -5    1    3    3    0  502  0.73073084678E+03  0.53614842093E+03 -0.11185635995E+04  0.14396629174E+04  0.46999998093E+01 0. -1.
</event>
<event>
 5   0  0.5177000E-08  0.3715203E+04  0.7818609E-02  0.8064601E-01
        1   -1    0    0  501    0  0.00000000000E+00  0.00000000000E+00  0.19944924768E+04  0.19944924768E+04  0.50400001928E-02 0.  1.
       -1   -1    0    0    0  501  0.00000000000E+00  0.00000000000E+00 -0.17301059285E+04  0.17301059285E+04  0.50400001928E-02 0. -1.
    10030    2    1    2    0    0  0.00000000000E+00  0.00000000000E+00  0.26438654836E+03  0.37245984053E+04  0.37152029600E+04 0.  0.
        3    1    3    3  502    0  0.11811232999E+04 -0.86048234318E+03 -0.10175291358E+04  0.17806874135E+04  0.10100000352E+00 0. -1.
       -3    1    3    3    0  502 -0.11811232999E+04  0.86048234318E+03  0.12819156841E+04  0.19439109917E+04  0.10100000352E+00 0.  1.
</event>
<event>
 5   0  0.1666189E-07  0.3701083E+04  0.7818609E-02  0.8067722E-01
       -2   -1    0    0    0  501  0.00000000000E+00  0.00000000000E+00  0.17989530904E+04  0.17989530904E+04  0.25500000920E-02 0. -1.
        2   -1    0    0  501    0  0.00000000000E+00  0.00000000000E+00 -0.19036096758E+04  0.19036096758E+04  0.25500000920E-02 0.  1.
    10030    2    1    2    0    0  0.00000000000E+00  0.00000000000E+00 -0.10465658544E+03  0.37025627662E+04  0.37010833598E+04 0.  0.
        4    1    3    3  502    0 -0.60007575087E+03 -0.29444755844E+03 -0.17786230584E+04  0.19000768059E+04  0.12699999809E+01 0.  1.
       -4    1    3    3    0  502  0.60007575087E+03  0.29444755844E+03  0.16739664730E+04  0.18024859603E+04  0.12699999809E+01 0. -1.
</event>
<event>
 5   0  0.1686284E-07  0.3722001E+04  0.7818609E-02  0.8063104E-01
       -2   -1    0    0    0  501  0.00000000000E+00  0.00000000000E+00  0.25015568774E+04  0.25015568774E+04  0.25500000920E-02 0. -1.
        2   -1    0    0  501    0  0.00000000000E+00  0.00000000000E+00 -0.13844668579E+04  0.13844668579E+04  0.25500000920E-02 0.  1.
    10030    2    1    2    0    0  0.00000000000E+00  0.00000000000E+00  0.11170900195E+04  0.38860237353E+04  0.37220008543E+04 0.  0.
        5    1    3    3  502    0  0.64052511082E+03 -0.11243368686E+04  0.19549820750E+04  0.23444365667E+04  0.46999998093E+01 0. -1.
       -5    1    3    3    0  502 -0.64052511082E+03  0.11243368686E+04 -0.83789205555E+03  0.15415871686E+04  0.46999998093E+01 0.  1.
</event>
<event>
 5   0  0.5181371E-08  0.3620642E+04  0.7818609E-02  0.8085780E-01
       -1   -1    0    0    0  501  0.00000000000E+00  0.00000000000E+00  0.15324617813E+04  0.15324617813E+04  0.50400001928E-02 0. -1.
        1   -1    0    0  501    0  0.00000000000E+00  0.00000000000E+00 -0.21385600194E+04  0.21385600194E+04  0.50400001928E-02 0.  1.
    10030    2    1    2    0    0  0.00000000000E+00  0.00000000000E+00 -0.60609823810E+03  0.36710218007E+04  0.36206416540E+04 0.  0.
        5    1    3    3  502    0  0.84963541918E+03  0.15012960629E+04  0.25365301873E+03  0.17435974759E+04  0.46999998093E+01 0. -1.
       -5    1    3    3    0  502 -0.84963541918E+03 -0.15012960629E+04 -0.85975125683E+03  0.19274243248E+04  0.46999998093E+01 0.  1.
</event>
<event>
 5   0  0.5177000E-08  0.3698224E+04  0.7818609E-02  0.8068355E-01
        1   -1    0    0  501    0  0.00000000000E+00  0.00000000000E+00  0.21255443888E+04  0.21255443888E+04  0.50400001928E-02 0.  1.
       -1   -1    0    0    0  501  0.00000000000E+00  0.00000000000E+00 -0.16086307728E+04  0.16086307728E+04  0.50400001928E-02 0. -1.
    10030    2    1    2    0    0  0.00000000000E+00  0.00000000000E+00  0.51691361600E+03  0.37341751616E+04  0.36982244998E+04 0.  0.
        3    1    3    3  502    0  0.18166854395E+04  0.30866083344E+03  0.41356852067E+03  0.18885593524E+04  0.10100000352E+00 0.  1.
       -3    1    3    3    0  502 -0.18166854395E+04 -0.30866083344E+03  0.10334509533E+03  0.18456158092E+04  0.10100000352E+00 0. -1.
</event>
<event>
 5   0  0.1658770E-07  0.3718970E+04  0.7818609E-02  0.8063771E-01
        2   -1    0    0  501    0  0.00000000000E+00  0.00000000000E+00  0.15943175853E+04  0.15943175853E+04  0.25500000920E-02 0. -1.
       -2   -1    0    0    0  501  0.00000000000E+00  0.00000000000E+00 -0.21687553598E+04  0.21687553598E+04  0.25500000920E-02 0.  1.
    10030    2    1    2    0    0  0.00000000000E+00  0.00000000000E+00 -0.57443777448E+03  0.37630729451E+04  0.37189701845E+04 0.  0.
        2    1    3    3  502    0  0.13113148783E+04  0.49029712774E+03 -0.15255567279E+04  0.20705702871E+04  0.25500000920E-02 0.  1.
       -2    1    3    3    0  502 -0.13113148783E+04 -0.49029712774E+03  0.95111895344E+03  0.16925026580E+04  0.25500000920E-02 0. -1.
</event>
<event>
 5   0  0.1686284E-07  0.3656940E+04  0.7818609E-02  0.8077572E-01
        2   -1    0    0  501    0  0.00000000000E+00  0.00000000000E+00  0.19647523308E+04  0.19647523308E+04  0.25500000920E-02 0. -1.
       -2   -1    0    0    0  501  0.00000000000E+00  0.00000000000E+00 -0.17016408717E+04  0.17016408717E+04  0.25500000920E-02 0.  1.
    10030    2    1    2    0    0  0.00000000000E+00  0.00000000000E+00  0.26311145912E+03  0.36663932025E+04  0.36569401793E+04 0.  0.
        5    1    3    3  502    0  0.17957150144E+04 -0.29056068669E+03 -0.54025028694E+02  0.18198787651E+04  0.46999998093E+01 0.  1.
       -5    1    3    3    0  502 -0.17957150144E+04  0.29056068669E+03  0.31713648782E+03  0.18465144374E+04  0.46999998093E+01 0. -1.
</event>
<event>
 5   0  0.1558258E-07  0.3704154E+04  0.7818609E-02  0.8067042E-01
       -2   -1    0    0    0  501  0.00000000000E+00  0.00000000000E+00  0.18889391775E+04  0.18889391775E+04  0.25500000920E-02 0.  1.
        2   -1    0    0  501    0  0.00000000000E+00  0.00000000000E+00 -0.18159343487E+04  0.18159343487E+04  0.25500000920E-02 0. -1.
    10030    2    1    2    0    0  0.00000000000E+00  0.00000000000E+00  0.73004828777E+02  0.37048735263E+04  0.37041541734E+04 0.  0.
        1    1    3    3  502    0  0.94871573915E+03  0.13456164297E+04 -0.81186299463E+03  0.18357196550E+04  0.50400001928E-02 0. -1.
       -1    1    3    3    0  502 -0.94871573915E+03 -0.13456164297E+04  0.88486782340E+03  0.18691538713E+04  0.50400001928E-02 0.  1.
</event>
<event>
 5   0  0.1666189E-07  0.3685090E+04  0.7818609E-02  0.8071274E-01
       -2   -1    0    0    0  501  0.00000000000E+00  0.00000000000E+00  0.16712103386E+04  0.16712103386E+04  0.25500000920E-02 0.  1.
        2   -1    0    0  501    0  0.00000000000E+00  0.00000000000E+00 -0.20314454911E+04  0.20314454911E+04  0.25500000920E-02 0. -1.
    10030    2    1    2    0    0  0.00000000000E+00  0.00000000000E+00 -0.36023515252E+03  0.37026558297E+04  0.36850903419E+04 0.  0.
        4    1    3    3  502    0 -0.61234417640E+03  0.49561406694E+03  0.14934666877E+04  0.16885031992E+04  0.12699999809E+01 0.  1.
       -4    1    3    3    0  502  0.61234417640E+03 -0.49561406694E+03 -0.18537018402E+04  0.20141526305E+04  0.12699999809E+01 0. -1.
</event>
<event>
 5   0  0.1686284E-07  0.3692263E+04  0.7818609E-02  0.8069679E-01
       -2   -1    0    0    0  501  0.00000000000E+00  0.00000000000E+00  0.19921562222E+04  0.19921562222E+04  0.25500000920E-02 0. -1.
        2   -1    0    0  501    0  0.00000000000E+00  0.00000000000E+00 -0.17108107085E+04  0.17108107085E+04  0.25500000920E-02 0.  1.
    10030    2    1    2    0    0  0.00000000000E+00  0.00000000000E+00  0.28134551372E+03  0.37029669308E+04  0.36922633698E+04 0.  0.
        5    1    3    3  502    0  0.35715779052E+03  0.18089227843E+04  0.48663785571E+02  0.18444927707E+04  0.46999998093E+01 0.  1.
       -5    1    3    3    0  502 -0.35715779052E+03 -0.18089227843E+04  0.23268172815E+03  0.18584741601E+04  0.46999998093E+01 0. -1.
</event>
<event>
 5   0  0.1587026E-07  0.3739774E+04  0.7818609E-02  0.8059204E-01
        2   -1    0    0  501    0  0.00000000000E+00  0.00000000000E+00  0.25427471462E+04  0.25427471462E+04  0.25500000920E-02 0.  1.
       -2   -1    0    0    0  501  0.00000000000E+00  0.00000000000E+00 -0.13750785838E+04  0.13750785838E+04  0.25500000920E-02 0. -1.
    10030    2    1    2    0    0  0.00000000000E+00  0.00000000000E+00  0.11676685624E+04  0.39178257300E+04  0.37397738674E+04 0.  0.
        3    1    3    3  502    0 -0.57614764281E+03  0.10940412725E+04  0.20533312672E+04  0.23968816649E+04  0.10100000352E+00 0.  1.
       -3    1    3    3    0  502  0.57614764281E+03 -0.10940412725E+04 -0.88566270481E+03  0.15209440651E+04  0.10100000352E+00 0. -1.
</event>
<event>
 5   0  0.5177000E-08  0.3706828E+04  0.7818609E-02  0.8066450E-01
        1   -1    0    0  501    0  0.00000000000E+00  0.00000000000E+00  0.23310091513E+04  0.23310091513E+04  0.50400001928E-02 0. -1.
       -1   -1    0    0    0  501  0.00000000000E+00  0.00000000000E+00 -0.14736718924E+04  0.14736718925E+04  0.50400001928E-02 0.  1.
    10030    2    1    2    0    0  0.00000000000E+00  0.00000000000E+00  0.85733725886E+03  0.38046810438E+04  0.37068275748E+04 0.  0.
        4    1    3    3  502    0  0.36152793536E+02 -0.28707983596E+03  0.23076836253E+04  0.23257530359E+04  0.12699999809E+01 0. -1.
       -4    1    3    3    0  502 -0.36152793536E+02  0.28707983596E+03 -0.14503463665E+04  0.14789280078E+04  0.12699999809E+01 0.  1.
</event>
<event>
 5   0  0.1686284E-07  0.3694289E+04  0.7818609E-02  0.8069229E-01
        2   -1    0    0  501    0  0.00000000000E+00  0.00000000000E+00  0.19324760056E+04  0.19324760056E+04  0.25500000920E-02 0.  1.
       -2   -1    0    0    0  501  0.00000000000E+00  0.00000000000E+00 -0.17655814005E+04  0.17655814005E+04  0.25500000920E-02 0. -1.
    10030    2    1    2    0    0  0.00000000000E+00  0.00000000000E+00  0.16689460504E+03  0.36980574061E+04  0.36942894810E+04 0.  0.
        5    1    3    3  502    0 -0.61629651279E+02  0.25800493813E+03 -0.17464096973E+04  0.17664466261E+04  0.46999998093E+01 0. -1.
       -5    1    3    3    0  502  0.61629651279E+02 -0.25800493813E+03  0.19133043023E+04  0.19316107800E+04  0.46999998093E+01 0.  1.
</event>
<event>
 5   0  0.5181371E-08  0.3724228E+04  0.7818609E-02  0.8062614E-01
       -1   -1    0    0    0  501  0.00000000000E+00  0.00000000000E+00  0.23761749832E+04  0.23761749832E+04  0.50400001928E-02 0. -1.
        1   -1    0    0  501    0  0.00000000000E+00  0.00000000000E+00 -0.14592647480E+04  0.14592647480E+04  0.50400001928E-02 0.  1.
    10030    2    1    2    0    0  0.00000000000E+00  0.00000000000E+00  0.91691023518E+03  0.38354397312E+04  0.37242279136E+04 0.  0.
        5    1    3    3  502    0 -0.77507305893E+03 -0.33857431847E+03  0.21669319051E+04  0.23261527867E+04  0.46999998093E+01 0. -1.
       -5    1    3    3    0  502  0.77507305893E+03  0.33857431847E+03 -0.12500216699E+04  0.15092869446E+04  0.46999998093E+01 0.  1.
</event>
<event>
 5   0  0.5181371E-08  0.3710297E+04  0.7818609E-02  0.8065684E-01
       -1   -1    0    0    0  501  0.00000000000E+00  0.00000000000E+00  0.19455010506E+04  0.19455010506E+04  0.50400001928E-02 0. -1.
        1   -1    0    0  501    0  0.00000000000E+00  0.00000000000E+00 -0.17689925210E+04  0.17689925210E+04  0.50400001928E-02 0.  1.
    10030    2    1    2    0    0  0.00000000000E+00  0.00000000000E+00  0.17650852963E+03  0.37144935716E+04  0.37102974587E+04 0.  0.
        5    1    3    3  502    0 -0.17647121539E+04  0.56709844522E+03  0.16413632615E+03  0.18608526154E+04  0.46999998093E+01 0.  1.
       -5    1    3    3    0  502  0.17647121539E+04 -0.56709844522E+03  0.12372203478E+02  0.18536409561E+04  0.46999998093E+01 0. -1.
</event>
<event>
 5   0  0.5181371E-08  0.3703323E+04  0.7818609E-02  0.8067226E-01
       -1   -1    0    0    0  501  0.00000000000E+00  0.00000000000E+00  0.29280457290E+04  0.29280457290E+04  0.50400001928E-02 0.  1.
        1   -1    0    0  501    0  0.00000000000E+00  0.00000000000E+00 -0.11709685621E+04  0.11709685621E+04  0.50400001928E-02 0. -1.
    10030    2    1    2    0    0  0.00000000000E+00  0.00000000000E+00  0.17570771668E+04  0.40990142911E+04  0.37033225607E+04 0.  0.
        5    1    3    3  502    0 -0.11194380039E+04  0.13572461762E+04  0.23946575316E+03  0.17755631682E+04  0.46999998093E+01 0. -1.
       -5    1    3    3    0  502  0.11194380039E+04 -0.13572461762E+04  0.15176114137E+04  0.23234511229E+04  0.46999998093E+01 0.  1.
</event>
<event>
 5   0  0.5177000E-08  0.3718263E+04  0.7818609E-02  0.8063927E-01
       -1   -1    0    0    0  501  0.00000000000E+00  0.00000000000E+00  0.15221375282E+04  0.15221375282E+04  0.50400001928E-02 0.  1.
        1   -1    0    0  501    0  0.00000000000E+00  0.00000000000E+00 -0.22707340675E+04  0.22707340675E+04  0.50400001928E-02 0. -1.
    10030    2    1    2    0    0  0.00000000000E+00  0.00000000000E+00 -0.74859653923E+03  0.37928715957E+04  0.37182627883E+04 0.  0.
        1    1    3    3  502    0  0.12348500869E+03 -0.30887356049E+02  0.15176873038E+04  0.15230158661E+04  0.50400001928E-02 0.  1.
       -1    1    3    3    0  502 -0.12348500869E+03  0.30887356049E+02 -0.22662838430E+04  0.22698557296E+04  0.50400001928E-02 0. -1.
</event>
<event>
 5   0  0.1587026E-07  0.3696518E+04  0.7818609E-02  0.8068734E-01
        2   -1    0    0  501    0  0.00000000000E+00  0.00000000000E+00  0.23391006671E+04  0.23391006671E+04  0.25500000920E-02 0. -1.
       -2   -1    0    0    0  501  0.00000000000E+00  0.00000000000E+00 -0.14604162866E+04  0.14604162866E+04  0.25500000920E-02 0.  1.
    10030    2    1    2    0    0  0.00000000000E+00  0.00000000000E+00  0.87868438043E+03  0.37995169537E+04  0.36965176641E+04 0.  0.
        3    1    3    3  502    0 -0.65809966877E+03 -0.14698376193E+04 -0.49287021856E+03  0.16841730504E+04  0.10100000352E+00 0.  1.
       -3    1    3    3    0  502  0.65809966877E+03  0.14698376193E+04  0.13715545990E+04  0.21153439033E+04  0.10100000352E+00 0. -1.
</event>
<event>
 5   0  0.1686284E-07  0.3699379E+04  0.7818609E-02  0.8068099E-01
       -2   -1    0    0    0  501  0.00000000000E+00  0.00000000000E+00  0.24675004168E+04  0.24675004168E+04  0.25500000920E-02 0. -1.
        2   -1    0    0  501    0  0.00000000000E+00  0.00000000000E+00 -0.13865655592E+04  0.13865655592E+04  0.25500000920E-02 0.  1.
    10030    2    1    2    0    0  0.00000000000E+00  0.00000000000E+00  0.10809348576E+04  0.38540659760E+04  0.36993789183E+04 0.  0.
        5    1    3    3  502    0 -0.15138386775E+04 -0.10626506745E+04  0.51976157338E+03  0.19212256975E+04  0.46999998093E+01 0.  1.
       -5    1    3    3    0  502  0.15138386775E+04  0.10626506745E+04  0.56117328426E+03  0.19328402786E+04  0.46999998093E+01 0. -1.
</event>
<event>
 5   0  0.5177000E-08  0.3725479E+04  0.7818609E-02  0.8062339E-01
       -1   -1    0    0    0  501  0.00000000000E+00  0.00000000000E+00  0.11696300841E+04  0.11696300841E+04  0.50400001928E-02 0. -1.
        1   -1    0    0  501    0  0.00000000000E+00  0.00000000000E+00 -0.29665783846E+04  0.29665783846E+04  0.50400001928E-02 0.  1.
    10030    2    1    2    0    0  0.00000000000E+00  0.00000000000E+00 -0.17969483006E+04  0.41362084687E+04  0.37254794727E+04 0.  0.
        4    1    3    3  502    0  0.40766406166E+03  0.10111522399E+04 -0.25753461581E+04  0.27966101420E+04  0.12699999809E+01 0.  1.
       -4    1    3    3    0  502 -0.40766406166E+03 -0.10111522399E+04  0.77839785756E+03  0.13395983267E+04  0.12699999809E+01 0. -1.
</event>
<event>
 5   0  0.1658770E-07  0.3693778E+04  0.7818609E-02  0.8069342E-01
       -2   -1    0    0    0  501  0.00000000000E+00  0.00000000000E+00  0.16886872928E+04  0.16886872928E+04  0.25500000920E-02 0. -1.
        2   -1    0    0  501    0  0.00000000000E+00  0.00000000000E+00 -0.20199116163E+04  0.20199116163E+04  0.25500000920E-02 0.  1.
    10030    2    1    2    0    0  0.00000000000E+00  0.00000000000E+00 -0.33122432350E+03  0.37085989092E+04  0.36937780546E+04 0.  0.
        2    1    3    3  502    0  0.51640916993E+03  0.22940248321E+03  0.15997645847E+04  0.16966292042E+04  0.25500000920E-02 0. -1.
       -2    1    3    3    0  502 -0.51640916993E+03 -0.22940248321E+03 -0.19309889082E+04  0.20119697050E+04  0.25500000920E-02 0.  1.
</event>
<event>
 5   0  0.1658770E-07  0.3695179E+04  0.7818609E-02  0.8069031E-01
       -2   -1    0    0    0  501  0.00000000000E+00  0.00000000000E+00  0.17082222466E+04  0.17082222466E+04  0.25500000920E-02 0.  1.
        2   -1    0    0  501    0  0.00000000000E+00  0.00000000000E+00 -0.19983271256E+04  0.19983271256E+04  0.25500000920E-02 0. -1.
    10030    2    1    2    0    0  0.00000000000E+00  0.00000000000E+00 -0.29010487896E+03  0.37065493722E+04  0.36951789413E+04 0.  0.
        2    1    3    3  502    0 -0.48596717216E+02  0.70092042659E+03 -0.18590924846E+04  0.19874294835E+04  0.25500000920E-02 0. -1.
       -2    1    3    3    0  502  0.48596717216E+02 -0.70092042659E+03  0.15689876057E+04  0.17191198888E+04  0.25500000920E-02 0.  1.
</event>
<event>
 5   0  0.5177000E-08  0.3661480E+04  0.7818609E-02  0.8076552E-01
       -1   -1    0    0    0  501  0.00000000000E+00  0.00000000000E+00  0.12677121626E+04  0.12677121626E+04  0.50400001928E-02 0. -1.
        1   -1    0    0  501    0  0.00000000000E+00  0.00000000000E+00 -0.26438248369E+04  0.26438248369E+04  0.50400001928E-02 0.  1.
    10030    2    1    2    0    0  0.00000000000E+00  0.00000000000E+00 -0.13761126743E+04  0.39115369996E+04  0.36614799749E+04 0.  0.
        1    1    3    3  502    0 -0.21585416668E+03  0.12510943988E+04  0.72103057888E+03  0.14600394898E+04  0.50400001928E-02 0. -1.
       -1    1    3    3    0  502  0.21585416668E+03 -0.12510943988E+04 -0.20971432532E+04  0.24514975098E+04  0.50400001928E-02 0.  1.
</event>
<event>
 5   0  0.1686284E-07  0.3702223E+04  0.7818609E-02  0.8067469E-01
       -2   -1    0    0    0  501  0.00000000000E+00  0.00000000000E+00  0.13597299199E+04  0.13597299199E+04  0.25500000920E-02 0. -1.
        2   -1    0    0  501    0  0.00000000000E+00  0.00000000000E+00 -0.25200693877E+04  0.25200693877E+04  0.25500000920E-02 0.  1.
    10030    2    1    2    0    0  0.00000000000E+00  0.00000000000E+00 -0.11603394678E+04  0.38797993077E+04  0.37022229791E+04 0.  0.
        5    1    3    3  502    0  0.75992925936E+03  0.16464860052E+04 -0.19061003898E+03  0.18233932438E+04  0.46999998093E+01 0. -1.
       -5    1    3    3    0  502 -0.75992925936E+03 -0.16464860052E+04 -0.96972942884E+03  0.20564060639E+04  0.46999998093E+01 0.  1.
</event>
<event>
 5   0  0.5177000E-08  0.3707536E+04  0.7818609E-02  0.8066294E-01
        1   -1    0    0  501    0  0.00000000000E+00  0.00000000000E+00  0.21466208347E+04  0.21466208347E+04  0.50400001928E-02 0. -1.
       -1   -1    0    0    0  501  0.00000000000E+00  0.00000000000E+00 -0.16008673492E+04  0.16008673493E+04  0.50400001928E-02 0.  1.
    10030    2    1    2    0    0  0.00000000000E+00  0.00000000000E+00  0.54575348545E+03  0.37474881840E+04  0.37075356805E+04 0.  0.
        3    1    3    3  502    0  0.12029828217E+04  0.42249140683E+03 -0.10872795065E+04  0.16756620762E+04  0.10100000352E+00 0.  1.
       -3    1    3    3    0  502 -0.12029828217E+04 -0.42249140683E+03  0.16330329919E+04  0.20718261078E+04  0.10100000352E+00 0. -1.
</event>
<event>
 5   0  0.1666189E-07  0.3726743E+04  0.7818609E-02  0.8062061E-01
        2   -1    0    0  501    0  0.00000000000E+00  0.00000000000E+00  0.17215860125E+04  0.17215860125E+04  0.25500000920E-02 0.  1.
       -2   -1    0    0    0  501  0.00000000000E+00  0.00000000000E+00 -0.20168338516E+04  0.20168338516E+04  0.25500000920E-02 0. -1.
    10030    2    1    2    0    0  0.00000000000E+00  0.00000000000E+00 -0.29524783909E+03  0.37384198640E+04  0.37267427860E+04 0.  0.
        4    1    3    3  502    0 -0.39252244435E+03  0.12515802474E+04 -0.14752602955E+04  0.19740621919E+04  0.12699999809E+01 0. -1.
       -4    1    3    3    0  502  0.39252244435E+03 -0.12515802474E+04  0.11800124564E+04  0.17643576721E+04  0.12699999809E+01 0.  1.
</event>
<event>
 5   0  0.1686284E-07  0.3710417E+04  0.7818609E-02  0.8065657E-01
       -2   -1    0    0    0  501  0.00000000000E+00  0.00000000000E+00  0.29819483689E+04  0.29819483689E+04  0.25500000920E-02 0. -1.
        2   -1    0    0  501    0  0.00000000000E+00  0.00000000000E+00 -0.11542115289E+04  0.11542115289E+04  0.25500000920E-02 0.  1.
    10030    2    1    2    0    0  0.00000000000E+00  0.00000000000E+00  0.18277368400E+04  0.41361598978E+04  0.37104173275E+04 0.  0.
        5    1    3    3  502    0  0.11577147129E+04  0.14389428175E+04  0.11098771403E+04  0.21546946756E+04  0.46999998093E+01 0.  1.
       -5    1    3    3    0  502 -0.11577147129E+04 -0.14389428175E+04  0.71785969968E+03  0.19814652222E+04  0.46999998093E+01 0. -1.
</event>
<event>
 5   0  0.5177000E-08  0.3700673E+04  0.7818609E-02  0.8067813E-01
        1   -1    0    0  501    0  0.00000000000E+00  0.00000000000E+00  0.22324901079E+04  0.22324901079E+04  0.50400001928E-02 0.  1.
       -1   -1    0    0    0  501  0.00000000000E+00  0.00000000000E+00 -0.15335992792E+04  0.15335992792E+04  0.50400001928E-02 0. -1.
    10030    2    1    2    0    0  0.00000000000E+00  0.00000000000E+00  0.69889082867E+03  0.37660893871E+04  0.37006730309E+04 0.  0.
        1    1    3    3  502    0  0.57408220482E+03  0.12317124973E+04  0.16274543843E+04  0.21202107978E+04  0.50400001928E-02 0.  1.
       -1    1    3    3    0  502 -0.57408220482E+03 -0.12317124973E+04 -0.92856355568E+03  0.16458785893E+04  0.50400001928E-02 0. -1.
</event>
<event>
 5   0  0.5177000E-08  0.3675229E+04  0.7818609E-02  0.8073474E-01
        1   -1    0    0  501    0  0.00000000000E+00  0.00000000000E+00  0.21792203204E+04  0.21792203204E+04  0.50400001928E-02 0. -1.
       -1   -1    0    0    0  501  0.00000000000E+00  0.00000000000E+00 -0.15495570647E+04  0.15495570647E+04  0.50400001928E-02 0.  1.
    10030    2    1    2    0    0  0.00000000000E+00  0.00000000000E+00  0.62966325567E+03  0.37287773851E+04  0.36752285605E+04 0.  0.
        1    1    3    3  502    0 -0.12766516366E+04  0.29936689979E+03 -0.99131326081E+03  0.16438253931E+04  0.50400001928E-02 0.  1.
       -1    1    3    3    0  502  0.12766516366E+04 -0.29936689979E+03  0.16209765165E+04  0.20849519920E+04  0.50400001928E-02 0. -1.
</event>
<event>
 5   0  0.5177000E-08  0.3714148E+04  0.7818609E-02  0.8064834E-01
       -1   -1    0    0    0  501  0.00000000000E+00  0.00000000000E+00  0.15662285394E+04  0.15662285394E+04  0.50400001928E-02 0. -1.
        1   -1    0    0  501    0  0.00000000000E+00  0.00000000000E+00 -0.22019286308E+04  0.22019286308E+04  0.50400001928E-02 0.  1.
    10030    2    1    2    0    0  0.00000000000E+00  0.00000000000E+00 -0.63570009134E+03  0.37681571702E+04  0.37141477964E+04 0.  0.
        3    1    3    3  502    0  0.11473658086E+04 -0.13294524480E+04  0.29494592125E+03  0.17806979578E+04  0.10100000352E+00 0. -1.
       -3    1    3    3    0  502 -0.11473658086E+04  0.13294524480E+04 -0.93064601259E+03  0.19874592124E+04  0.10100000352E+00 0.  1.
</event>
<event>
 5   0  0.1666189E-07  0.3710527E+04  0.7818609E-02  0.8065633E-01
        2   -1    0    0  501    0  0.00000000000E+00  0.00000000000E+00  0.21385721086E+04  0.21385721086E+04  0.25500000920E-02 0. -1.
       -2   -1    0    0    0  501  0.00000000000E+00  0.00000000000E+00 -0.16094859557E+04  0.16094859557E+04  0.25500000920E-02 0.  1.
    10030    2    1    2    0    0  0.00000000000E+00  0.00000000000E+00  0.52908615291E+03  0.37480580643E+04  0.37105265254E+04 0.  0.
        4    1    3    3  502    0 -0.70122468856E+03 -0.69951654451E+03 -0.13200695385E+04  0.16503407707E+04  0.12699999809E+01 0.  1.
       -4    1    3    3    0  502  0.70122468856E+03  0.69951654451E+03  0.18491556914E+04  0.20977172936E+04  0.12699999809E+01 0. -1.
</event>
<event>
 5   0  0.1558258E-07  0.3681646E+04  0.7818609E-02  0.8072042E-01
       -2   -1    0    0    0  501  0.00000000000E+00  0.00000000000E+00  0.12817308957E+04  0.12817308957E+04  0.25500000920E-02 0.  1.
        2   -1    0    0  501    0  0.00000000000E+00  0.00000000000E+00 -0.26437909980E+04  0.26437909980E+04  0.25500000920E-02 0. -1.
    10030    2    1    2    0    0  0.00000000000E+00  0.00000000000E+00 -0.13620601023E+04  0.39255218938E+04  0.36816456125E+04 0.  0.
        1    1    3    3  502    0 -0.96843077739E+03 -0.11921968251E+04 -0.17628508910E+04  0.23381263234E+04  0.50400001928E-02 0.  1.
       -1    1    3    3    0  502  0.96843077739E+03  0.11921968251E+04  0.40079078874E+03  0.15873955703E+04  0.50400001928E-02 0. -1.
</event>
<event>
 5   0  0.1686284E-07  0.3707040E+04  0.7818609E-02  0.8066404E-01
       -2   -1    0    0    0  501  0.00000000000E+00  0.00000000000E+00  0.16930331583E+04  0.16930331583E+04  0.25500000920E-02 0. -1.
        2   -1    0    0  501    0  0.00000000000E+00  0.00000000000E+00 -0.20292192848E+04  0.20292192848E+04  0.25500000920E-02 0.  1.
    10030    2    1    2    0    0  0.00000000000E+00  0.00000000000E+00 -0.33618612657E+03  0.37222524431E+04  0.37070395383E+04 0.  0.
        5    1    3    3  502    0 -0.85297570213E+03  0.37871503184E+03 -0.17760770527E+04  0.20063560030E+04  0.46999998093E+01 0.  1.
       -5    1    3    3    0  502  0.85297570213E+03 -0.37871503184E+03  0.14398909262E+04  0.17158964400E+04  0.46999998093E+01 0. -1.
</event>
<event>
 5   0  0.5177000E-08  0.3718032E+04  0.7818609E-02  0.8063977E-01
       -1   -1    0    0    0  501  0.00000000000E+00  0.00000000000E+00  0.18119069369E+04  0.18119069369E+04  0.50400001928E-02 0.  1.
        1   -1    0    0  501    0  0.00000000000E+00  0.00000000000E+00 -0.19073500242E+04  0.19073500243E+04  0.50400001928E-02 0. -1.
    10030    2    1    2    0    0  0.00000000000E+00  0.00000000000E+00 -0.95443087351E+02  0.37192569612E+04  0.37180321354E+04 0.  0.
        2    1    3    3  502    0  0.28412579239E+03 -0.79142394053E+03  0.16107937036E+04  0.18170678785E+04  0.25500000920E-02 0.  1.
       -2    1    3    3    0  502 -0.28412579239E+03  0.79142394053E+03 -0.17062367909E+04  0.19021890827E+04  0.25500000920E-02 0. -1.
</event>
<event>
 5   0  0.5177000E-08  0.3703852E+04  0.7818609E-02  0.8067109E-01
       -3   -1    0    0    0  501  0.00000000000E+00  0.00000000000E+00  0.10578765035E+04  0.10578765083E+04  0.10100000352E+00 0. -1.
        3   -1    0    0  501    0  0.00000000000E+00  0.00000000000E+00 -0.32419944657E+04  0.32419944672E+04  0.10100000352E+00 0.  1.
    10030    2    1    2    0    0  0.00000000000E+00  0.00000000000E+00 -0.21841179622E+04  0.42998709756E+04  0.37038519320E+04 0.  0.
        1    1    3    3  502    0  0.66297006462E+03  0.12393478748E+04 -0.24919735440E+04  0.28610216017E+04  0.50400001928E-02 0.  1.
       -1    1    3    3    0  502 -0.66297006462E+03 -0.12393478748E+04  0.30785558183E+03  0.14388493739E+04  0.50400001928E-02 0. -1.
</event>
<event>
 5   0  0.1666189E-07  0.3697688E+04  0.7818609E-02  0.8068474E-01
        2   -1    0    0  501    0  0.00000000000E+00  0.00000000000E+00  0.18785465206E+04  0.18785465206E+04  0.25500000920E-02 0.  1.
       -2   -1    0    0    0  501  0.00000000000E+00  0.00000000000E+00 -0.18196108050E+04  0.18196108050E+04  0.25500000920E-02 0. -1.
    10030    2    1    2    0    0  0.00000000000E+00  0.00000000000E+00  0.58935715585E+02  0.36981573256E+04  0.36976876810E+04 0.  0.
        4    1    3    3  502    0 -0.12459190785E+04  0.59574368615E+03  0.12588501794E+04  0.18686707246E+04  0.12699999809E+01 0.  1.
       -4    1    3    3    0  502  0.12459190785E+04 -0.59574368615E+03 -0.11999144638E+04  0.18294866010E+04  0.12699999809E+01 0. -1.
</event>
<event>
 5   0  0.5177000E-08  0.3698261E+04  0.7818609E-02  0.8068347E-01
       -1   -1    0    0    0  501  0.00000000000E+00  0.00000000000E+00  0.22716655231E+04  0.22716655231E+04  0.50400001928E-02 0.  1.
        1   -1    0    0  501    0  0.00000000000E+00  0.00000000000E+00 -0.15051882202E+04  0.15051882202E+04  0.50400001928E-02 0. -1.
    10030    2    1    2    0    0  0.00000000000E+00  0.00000000000E+00  0.76647730286E+03  0.37768537433E+04  0.36982613134E+04 0.  0.
        3    1    3    3  502    0  0.65471699852E+03  0.52355429620E+03 -0.12999743781E+04  0.15468344588E+04  0.10100000352E+00 0. -1.
       -3    1    3    3    0  502 -0.65471699852E+03 -0.52355429620E+03  0.20664516809E+04  0.22300192845E+04  0.10100000352E+00 0.  1.
</event>
<event>
 5   0  0.1666189E-07  0.3705656E+04  0.7818609E-02  0.8066709E-01
       -2   -1    0    0    0  501  0.00000000000E+00  0.00000000000E+00  0.15655913325E+04  0.15655913325E+04  0.25500000920E-02 0.  1.
        2   -1    0    0  501    0  0.00000000000E+00  0.00000000000E+00 -0.21927640020E+04  0.21927640020E+04  0.25500000920E-02 0. -1.
    10030    2    1    2    0    0  0.00000000000E+00  0.00000000000E+00 -0.62717266952E+03  0.37583553346E+04  0.37056563877E+04 0.  0.
        4    1    3    3  502    0 -0.12908941591E+04  0.19765847224E+03 -0.16466195733E+04  0.21016265686E+04  0.12699999809E+01 0. -1.
       -4    1    3    3    0  502  0.12908941591E+04 -0.19765847224E+03  0.10194469038E+04  0.16567287660E+04  0.12699999809E+01 0.  1.
</event>
<event>
 5   0  0.5177000E-08  0.3692529E+04  0.7818609E-02  0.8069620E-01
        1   -1    0    0  501    0  0.00000000000E+00  0.00000000000E+00  0.20624798939E+04  0.20624798939E+04  0.50400001928E-02 0.  1.
       -1   -1    0    0    0  501  0.00000000000E+00  0.00000000000E+00 -0.16527155158E+04  0.16527155158E+04  0.50400001928E-02 0. -1.
    10030    2    1    2    0    0  0.00000000000E+00  0.00000000000E+00  0.40976437807E+03  0.37151954098E+04  0.36925289555E+04 0.  0.
        3    1    3    3  502    0 -0.85742727329E+03  0.27596779448E+03  0.18264055899E+04  0.20364422755E+04  0.10100000352E+00 0.  1.
       -3    1    3    3    0  502  0.85742727329E+03 -0.27596779448E+03 -0.14166412118E+04  0.16787531343E+04  0.10100000352E+00 0. -1.
</event>
<event>
 5   0  0.5177000E-08  0.3687071E+04  0.7818609E-02  0.8070833E-01
       -1   -1    0    0    0  501  0.00000000000E+00  0.00000000000E+00  0.14342200163E+04  0.14342200163E+04  0.50400001928E-02 0.  1.
        1   -1    0    0  501    0  0.00000000000E+00  0.00000000000E+00 -0.23696665992E+04  0.23696665992E+04  0.50400001928E-02 0. -1.
    10030    2    1    2    0    0  0.00000000000E+00  0.00000000000E+00 -0.93544658295E+03  0.38038866155E+04  0.36870710699E+04 0.  0.
        3    1    3    3  502    0 -0.11985819212E+04 -0.13949256174E+04 -0.59906404242E+03  0.19342424452E+04  0.10100000352E+00 0. -1.
       -3    1    3    3    0  502  0.11985819212E+04  0.13949256174E+04 -0.33638254053E+03  0.18696441703E+04  0.10100000352E+00 0.  1.
</event>
<event>
 5   0  0.1666189E-07  0.3659394E+04  0.7818609E-02  0.8077021E-01
       -2   -1    0    0    0  501  0.00000000000E+00  0.00000000000E+00  0.20078630084E+04  0.20078630084E+04  0.25500000920E-02 0.  1.
        2   -1    0    0  501    0  0.00000000000E+00  0.00000000000E+00 -0.16673399446E+04  0.16673399446E+04  0.25500000920E-02 0. -1.
    10030    2    1    2    0    0  0.00000000000E+00  0.00000000000E+00  0.34052306374E+03  0.36752029530E+04  0.36593935001E+04 0.  0.
        4    1    3    3  502    0 -0.17416881431E+04 -0.85319160411E+02  0.72675975088E+03  0.18891633850E+04  0.12699999809E+01 0.  1.
       -4    1    3    3    0  502  0.17416881431E+04  0.85319160411E+02 -0.38623668714E+03  0.17860395680E+04  0.12699999809E+01 0. -1.
</event>
<event>
 5   0  0.1558258E-07  0.3694236E+04  0.7818609E-02  0.8069240E-01
       -2   -1    0    0    0  501  0.00000000000E+00  0.00000000000E+00  0.24639940020E+04  0.24639940020E+04  0.25500000920E-02 0. -1.
        2   -1    0    0  501    0  0.00000000000E+00  0.00000000000E+00 -0.13846807639E+04  0.13846807639E+04  0.25500000920E-02 0.  1.
    10030    2    1    2    0    0  0.00000000000E+00  0.00000000000E+00  0.10793132382E+04  0.38486747659E+04  0.36942361034E+04 0.  0.
        1    1    3    3  502    0 -0.17670331641E+04 -0.48274908627E+03  0.29225864680E+03  0.18549576814E+04  0.50400001928E-02 0. -1.
       -1    1    3    3    0  502  0.17670331641E+04  0.48274908627E+03  0.78705459135E+03  0.19937170845E+04  0.50400001928E-02 0.  1.
</event>
<event>
 5   0  0.1658770E-07  0.3728948E+04  0.7818609E-02  0.8061577E-01
       -2   -1    0    0    0  501  0.00000000000E+00  0.00000000000E+00  0.16203272128E+04  0.16203272129E+04  0.25500000920E-02 0.  1.
        2   -1    0    0  501    0  0.00000000000E+00  0.00000000000E+00 -0.21454085204E+04  0.21454085204E+04  0.25500000920E-02 0. -1.
    10030    2    1    2    0    0  0.00000000000E+00  0.00000000000E+00 -0.52508130754E+03  0.37657357332E+04  0.37289482744E+04 0.  0.
        2    1    3    3  502    0  0.11676948689E+04 -0.16500013203E+02  0.12052354371E+04  0.16782061900E+04  0.25500000920E-02 0.  1.
       -2    1    3    3    0  502 -0.11676948689E+04  0.16500013203E+02 -0.17303167446E+04  0.20875295433E+04  0.25500000920E-02 0. -1.
</event>
<event>
 5   0  0.1666189E-07  0.3700606E+04  0.7818609E-02  0.8067828E-01
        2   -1    0    0  501    0  0.00000000000E+00  0.00000000000E+00  0.10356706696E+04  0.10356706696E+04  0.25500000920E-02 0. -1.
       -2   -1    0    0    0  501  0.00000000000E+00  0.00000000000E+00 -0.33057046795E+04  0.33057046795E+04  0.25500000920E-02 0.  1.
    10030    2    1    2    0    0  0.00000000000E+00  0.00000000000E+00 -0.22700340099E+04  0.43413753491E+04  0.37006061011E+04 0.  0.
        4    1    3    3  502    0  0.10802179048E+04 -0.14912367609E+04 -0.92202611128E+03  0.20593182274E+04  0.12699999809E+01 0.  1.
       -4    1    3    3    0  502 -0.10802179048E+04  0.14912367609E+04 -0.13480078986E+04  0.22820571217E+04  0.12699999809E+01 0. -1.
</event>
<event>
 5   0  0.5177000E-08  0.3784019E+04  0.7818609E-02  0.8049593E-01
       -1   -1    0    0    0  501  0.00000000000E+00  0.00000000000E+00  0.18858197298E+04  0.18858197298E+04  0.50400001928E-02 0. -1.
        1   -1    0    0  501    0  0.00000000000E+00  0.00000000000E+00 -0.18982198371E+04  0.18982198371E+04  0.50400001928E-02 0.  1.
    10030    2    1    2    0    0  0.00000000000E+00  0.00000000000E+00 -0.12400107338E+02  0.37840395669E+04  0.37840192495E+04 0.  0.
        1    1    3    3  502    0 -0.51803608329E+03  0.14215981629E+04 -0.11421628862E+04  0.18957422765E+04  0.50400001928E-02 0.  1.
       -1    1    3    3    0  502  0.51803608329E+03 -0.14215981629E+04  0.11297627789E+04  0.18882972904E+04  0.50400001928E-02 0. -1.
</event>
<event>
 5   0  0.5177000E-08  0.3666081E+04  0.7818609E-02  0.8075521E-01
        1   -1    0    0  501    0  0.00000000000E+00  0.00000000000E+00  0.26998223287E+04  0.26998223287E+04  0.50400001928E-02 0.  1.
       -1   -1    0    0    0  501  0.00000000000E+00  0.00000000000E+00 -0.12445399599E+04  0.12445399599E+04  0.50400001928E-02 0. -1.
    10030    2    1    2    0    0  0.00000000000E+00  0.00000000000E+00  0.14552823687E+04  0.39443622886E+04  0.36660806171E+04 0.  0.
        3    1    3    3  502    0  0.30997897809E+03 -0.46484988574E+03 -0.11506918919E+04  0.12791654402E+04  0.10100000352E+00 0. -1.
       -3    1    3    3    0  502 -0.30997897809E+03  0.46484988574E+03  0.26059742607E+04  0.26651968484E+04  0.10100000352E+00 0.  1.
</event>
<event>
 5   0  0.1658770E-07  0.3698132E+04  0.7818609E-02  0.8068376E-01
        2   -1    0    0  501    0  0.00000000000E+00  0.00000000000E+00  0.17902348198E+04  0.17902348198E+04  0.25500000920E-02 0.  1.
       -2   -1    0    0    0  501  0.00000000000E+00  0.00000000000E+00 -0.19098300942E+04  0.19098300942E+04  0.25500000920E-02 0. -1.
    10030    2    1    2    0    0  0.00000000000E+00  0.00000000000E+00 -0.11959527440E+03  0.37000649139E+04  0.36981316009E+04 0.  0.
        2    1    3    3  502    0 -0.13832876041E+03 -0.13792603807E+04 -0.12841817606E+04  0.18896075884E+04  0.25500000920E-02 0. -1.
       -2    1    3    3    0  502  0.13832876041E+03  0.13792603807E+04  0.11645864862E+04  0.18104573255E+04  0.25500000920E-02 0.  1.
</event>
<event>
 5   0  0.5177000E-08  0.3688474E+04  0.7818609E-02  0.8070521E-01
        1   -1    0    0  501    0  0.00000000000E+00  0.00000000000E+00  0.25314028599E+04  0.25314028599E+04  0.50400001928E-02 0.  1.
       -1   -1    0    0    0  501  0.00000000000E+00  0.00000000000E+00 -0.13436066121E+04  0.13436066121E+04  0.50400001928E-02 0. -1.
    10030    2    1    2    0    0  0.00000000000E+00  0.00000000000E+00  0.11877962477E+04  0.38750094720E+04  0.36884737334E+04 0.  0.
        2    1    3    3  502    0 -0.10438259792E+04  0.60652914888E+03 -0.87079728289E+03  0.14885355862E+04  0.25500000920E-02 0. -1.
       -2    1    3    3    0  502  0.10438259792E+04 -0.60652914888E+03  0.20585935306E+04  0.23864738858E+04  0.25500000920E-02 0.  1.
</event>
<event>
 5   0  0.5177000E-08  0.3697087E+04  0.7818609E-02  0.8068608E-01
       -1   -1    0    0    0  501  0.00000000000E+00  0.00000000000E+00  0.13478811357E+04  0.13478811357E+04  0.50400001928E-02 0. -1.
        1   -1    0    0  501    0  0.00000000000E+00  0.00000000000E+00 -0.25351737357E+04  0.25351737357E+04  0.50400001928E-02 0.  1.
    10030    2    1    2    0    0  0.00000000000E+00  0.00000000000E+00 -0.11872926000E+04  0.38830548715E+04  0.36970868825E+04 0.  0.
        4    1    3    3  502    0  0.47378056358E+03  0.13141781601E+04  0.67785990829E+03  0.15527485073E+04  0.12699999809E+01 0. -1.
       -4    1    3    3    0  502 -0.47378056358E+03 -0.13141781601E+04 -0.18651525083E+04  0.23303063642E+04  0.12699999809E+01 0.  1.
</event>
<event>
 5   0  0.5177000E-08  0.3680717E+04  0.7818609E-02  0.8072249E-01
       -1   -1    0    0    0  501  0.00000000000E+00  0.00000000000E+00  0.33823106362E+04  0.33823106362E+04  0.50400001928E-02 0. -1.
        1   -1    0    0  501    0  0.00000000000E+00  0.00000000000E+00 -0.10013628599E+04  0.10013628599E+04  0.50400001928E-02 0.  1.
    10030    2    1    2    0    0  0.00000000000E+00  0.00000000000E+00  0.23809477763E+04  0.43836734961E+04  0.36807174582E+04 0.  0.
        4    1    3    3  502    0  0.11599857714E+04  0.13482721805E+04  0.17535380249E+04  0.24976593203E+04  0.12699999809E+01 0.  1.
       -4    1    3    3    0  502 -0.11599857714E+04 -0.13482721805E+04  0.62740975143E+03  0.18860141758E+04  0.12699999809E+01 0. -1.
</event>
<event>
 5   0  0.1658770E-07  0.3667834E+04  0.7818609E-02  0.8075128E-01
        2   -1    0    0  501    0  0.00000000000E+00  0.00000000000E+00  0.16998184961E+04  0.16998184961E+04  0.25500000920E-02 0.  1.
       -2   -1    0    0    0  501  0.00000000000E+00  0.00000000000E+00 -0.19785941950E+04  0.19785941950E+04  0.25500000920E-02 0. -1.
    10030    2    1    2    0    0  0.00000000000E+00  0.00000000000E+00 -0.27877569889E+03  0.36784126911E+04  0.36678336979E+04 0.  0.
        2    1    3    3  502    0  0.48075524176E+03  0.93332231059E+03  0.13686229311E+04  0.17249187996E+04  0.25500000920E-02 0.  1.
       -2    1    3    3    0  502 -0.48075524176E+03 -0.93332231059E+03 -0.16473986299E+04  0.19534938914E+04  0.25500000920E-02 0. -1.
</event>
<event>
 5   0  0.5177000E-08  0.3698218E+04  0.7818609E-02  0.8068357E-01
       -1   -1    0    0    0  501  0.00000000000E+00  0.00000000000E+00  0.20445391740E+04  0.20445391740E+04  0.50400001928E-02 0. -1.
        1   -1    0    0  501    0  0.00000000000E+00  0.00000000000E+00 -0.16723597392E+04  0.16723597392E+04  0.50400001928E-02 0.  1.
    10030    2    1    2    0    0  0.00000000000E+00  0.00000000000E+00  0.37217943478E+03  0.37168989132E+04  0.36982184899E+04 0.  0.
        1    1    3    3  502    0 -0.15739133561E+04  0.55877294204E+03  0.98368161999E+03  0.19383136957E+04  0.50400001928E-02 0. -1.
       -1    1    3    3    0  502  0.15739133561E+04 -0.55877294204E+03 -0.61150218521E+03  0.17785852175E+04  0.50400001928E-02 0.  1.
</event>
<event>
 5   0  0.1658770E-07  0.3715760E+04  0.7818609E-02  0.8064478E-01
       -2   -1    0    0    0  501  0.00000000000E+00  0.00000000000E+00  0.15380142735E+04  0.15380142735E+04  0.25500000920E-02 0. -1.
        2   -1    0    0  501    0  0.00000000000E+00  0.00000000000E+00 -0.22442689656E+04  0.22442689656E+04  0.25500000920E-02 0.  1.
    10030    2    1    2    0    0  0.00000000000E+00  0.00000000000E+00 -0.70625469202E+03  0.37822832391E+04  0.37157597892E+04 0.  0.
        2    1    3    3  502    0 -0.11944050997E+04 -0.13754489425E+04  0.18448215721E+02  0.18217584012E+04  0.25500000920E-02 0. -1.
       -2    1    3    3    0  502  0.11944050997E+04  0.13754489425E+04 -0.72470290774E+03  0.19605248379E+04  0.25500000920E-02 0.  1.
</event>
<event>
 5   0  0.1658770E-07  0.3707284E+04  0.7818609E-02  0.8066350E-01
       -2   -1    0    0    0  501  0.00000000000E+00  0.00000000000E+00  0.12036433575E+04  0.12036433575E+04  0.25500000920E-02 0.  1.
        2   -1    0    0  501    0  0.00000000000E+00  0.00000000000E+00 -0.28546569004E+04  0.28546569004E+04  0.25500000920E-02 0. -1.
    10030    2    1    2    0    0  0.00000000000E+00  0.00000000000E+00 -0.16510135429E+04  0.40583002579E+04  0.37072840820E+04 0.  0.
        2    1    3    3  502    0  0.17193209749E+04 -0.65234491700E+03 -0.10807588082E+04  0.21329927583E+04  0.25500000920E-02 0.  1.
       -2    1    3    3    0  502 -0.17193209749E+04  0.65234491700E+03 -0.57025473470E+03  0.19253074996E+04  0.25500000920E-02 0. -1.
</event>
<event>
 5   0  0.1658770E-07  0.3702591E+04  0.7818609E-02  0.8067388E-01
       -2   -1    0    0    0  501  0.00000000000E+00  0.00000000000E+00  0.15727305103E+04  0.15727305103E+04  0.25500000920E-02 0.  1.
        2   -1    0    0  501    0  0.00000000000E+00  0.00000000000E+00 -0.21792002924E+04  0.21792002924E+04  0.25500000920E-02 0. -1.
    10030    2    1    2    0    0  0.00000000000E+00  0.00000000000E+00 -0.60646978218E+03  0.37519308027E+04  0.37025908701E+04 0.  0.
        2    1    3    3  502    0 -0.11230724575E+04 -0.17175677551E+03  0.11779211436E+04  0.16365483052E+04  0.25500000920E-02 0.  1.
       -2    1    3    3    0  502  0.11230724575E+04  0.17175677551E+03 -0.17843909258E+04  0.21153824975E+04  0.25500000920E-02 0. -1.
</event>
<event>
 5   0  0.1558258E-07  0.3698915E+04  0.7818609E-02  0.8068202E-01
       -2   -1    0    0    0  501  0.00000000000E+00  0.00000000000E+00  0.13954940666E+04  0.13954940666E+04  0.25500000920E-02 0. -1.
        2   -1    0    0  501    0  0.00000000000E+00  0.00000000000E+00 -0.24510976848E+04  0.24510976848E+04  0.25500000920E-02 0.  1.
    10030    2    1    2    0    0  0.00000000000E+00  0.00000000000E+00 -0.10556036183E+04  0.38465917514E+04  0.36989145845E+04 0.  0.
        1    1    3    3  502    0 -0.36302191244E+03  0.12091947196E+04  0.87765734756E+03  0.15376017685E+04  0.50400001928E-02 0. -1.
       -1    1    3    3    0  502  0.36302191244E+03 -0.12091947196E+04 -0.19332609658E+04  0.23089899829E+04  0.50400001928E-02 0.  1.
</event>
<event>
 5   0  0.5177000E-08  0.3682042E+04  0.7818609E-02  0.8071953E-01
        1   -1    0    0  501    0  0.00000000000E+00  0.00000000000E+00  0.16778592494E+04  0.16778592494E+04  0.50400001928E-02 0.  1.
       -1   -1    0    0    0  501  0.00000000000E+00  0.00000000000E+00 -0.20200493278E+04  0.20200493278E+04  0.50400001928E-02 0. -1.
    10030    2    1    2    0    0  0.00000000000E+00  0.00000000000E+00 -0.34219007848E+03  0.36979085772E+04  0.36820420687E+04 0.  0.
        2    1    3    3  502    0  0.75914139304E+03  0.41037731660E+03 -0.18043417532E+04  0.20000885878E+04  0.25500000920E-02 0. -1.
       -2    1    3    3    0  502 -0.75914139304E+03 -0.41037731660E+03  0.14621516747E+04  0.16978199894E+04  0.25500000920E-02 0.  1.
</event>
<event>
 5   0  0.1666189E-07  0.3700273E+04  0.7818609E-02  0.8067901E-01
       -2   -1    0    0    0  501  0.00000000000E+00  0.00000000000E+00  0.27786040970E+04  0.27786040970E+04  0.25500000920E-02 0.  1.
        2   -1    0    0  501    0  0.00000000000E+00  0.00000000000E+00 -0.12319150607E+04  0.12319150607E+04  0.25500000920E-02 0. -1.
    10030    2    1    2    0    0  0.00000000000E+00  0.00000000000E+00  0.15466890363E+04  0.40105191578E+04  0.37002725494E+04 0.  0.
        4    1    3    3  502    0  0.12284966028E+04  0.10642271917E+04  0.17313176674E+04  0.23747096448E+04  0.12699999809E+01 0.  1.
       -4    1    3    3    0  502 -0.12284966028E+04 -0.10642271917E+04 -0.18462863107E+03  0.16358095130E+04  0.12699999809E+01 0. -1.
</event>
<event>
 5   0  0.1686284E-07  0.3710294E+04  0.7818609E-02  0.8065684E-01
       -2   -1    0    0    0  501  0.00000000000E+00  0.00000000000E+00  0.18967069733E+04  0.18967069733E+04  0.25500000920E-02 0. -1.
        2   -1    0    0  501    0  0.00000000000E+00  0.00000000000E+00 -0.18144978798E+04  0.18144978798E+04  0.25500000920E-02 0.  1.
    10030    2    1    2    0    0  0.00000000000E+00  0.00000000000E+00  0.82209093496E+02  0.37112048532E+04  0.37102942103E+04 0.  0.
        5    1    3    3  502    0  0.25705125565E+03  0.14804319532E+04  0.11293948299E+04  0.18797097883E+04  0.46999998093E+01 0. -1.
       -5    1    3    3    0  502 -0.25705125565E+03 -0.14804319532E+04 -0.10471857364E+04  0.18314950649E+04  0.46999998093E+01 0.  1.
</event>
<event>
 5   0  0.5181371E-08  0.3702719E+04  0.7818609E-02  0.8067360E-01
       -1   -1    0    0    0  501  0.00000000000E+00  0.00000000000E+00  0.14208002310E+04  0.14208002311E+04  0.50400001928E-02 0.  1.
        1   -1    0    0  501    0  0.00000000000E+00  0.00000000000E+00 -0.24123954114E+04  0.24123954114E+04  0.50400001928E-02 0. -1.
    10030    2    1    2    0    0  0.00000000000E+00  0.00000000000E+00 -0.99159518031E+03  0.38331956424E+04  0.37027189782E+04 0.  0.
        5    1    3    3  502    0 -0.14257119440E+04  0.25530593868E+03  0.69795095272E+03  0.16077914330E+04  0.46999998093E+01 0.  1.
       -5    1    3    3    0  502  0.14257119440E+04 -0.25530593868E+03 -0.16895461330E+04  0.22254042094E+04  0.46999998093E+01 0. -1.
</event>
<event>
 5   0  0.1686284E-07  0.3625813E+04  0.7818609E-02  0.8084604E-01
        2   -1    0    0  501    0  0.00000000000E+00  0.00000000000E+00  0.25238607461E+04  0.25238607461E+04  0.25500000920E-02 0.  1.
       -2   -1    0    0    0  501  0.00000000000E+00  0.00000000000E+00 -0.13022234550E+04  0.13022234550E+04  0.25500000920E-02 0. -1.
    10030    2    1    2    0    0  0.00000000000E+00  0.00000000000E+00  0.12216372911E+04  0.38260842011E+04  0.36258133767E+04 0.  0.
        5    1    3    3  502    0  0.98429068110E+03 -0.37325495544E+03 -0.94666676621E+03  0.14157497882E+04  0.46999998093E+01 0. -1.
       -5    1    3    3    0  502 -0.98429068110E+03  0.37325495544E+03  0.21683040573E+04  0.24103344128E+04  0.46999998093E+01 0.  1.
</event>
<event>
 5   0  0.5181371E-08  0.3706571E+04  0.7818609E-02  0.8066507E-01
       -1   -1    0    0    0  501  0.00000000000E+00  0.00000000000E+00  0.13159927380E+04  0.13159927381E+04  0.50400001928E-02 0. -1.
        1   -1    0    0  501    0  0.00000000000E+00  0.00000000000E+00 -0.26099434622E+04  0.26099434622E+04  0.50400001928E-02 0.  1.
    10030    2    1    2    0    0  0.00000000000E+00  0.00000000000E+00 -0.12939507242E+04  0.39259362003E+04  0.37065707294E+04 0.  0.
        5    1    3    3  502    0  0.10850043106E+04  0.93990622938E+03 -0.18885195333E+04  0.23721690901E+04  0.46999998093E+01 0.  1.
       -5    1    3    3    0  502 -0.10850043106E+04 -0.93990622938E+03  0.59456880915E+03  0.15537671102E+04  0.46999998093E+01 0. -1.
</event>
<event>
 5   0  0.1686284E-07  0.3702122E+04  0.7818609E-02  0.8067492E-01
        2   -1    0    0  501    0  0.00000000000E+00  0.00000000000E+00  0.23069548332E+04  0.23069548332E+04  0.25500000920E-02 0. -1.
       -2   -1    0    0    0  501  0.00000000000E+00  0.00000000000E+00 -0.14852593359E+04  0.14852593359E+04  0.25500000920E-02 0.  1.
    10030    2    1    2    0    0  0.00000000000E+00  0.00000000000E+00  0.82169549726E+03  0.37922141691E+04  0.37021216638E+04 0.  0.
        5    1    3    3  502    0 -0.37264686127E+03 -0.12294555889E+03  0.22638539631E+04  0.22976157533E+04  0.46999998093E+01 0. -1.
       -5    1    3    3    0  502  0.37264686127E+03  0.12294555889E+03 -0.14421584659E+04  0.14945984157E+04  0.46999998093E+01 0.  1.
</event>
<event>
 5   0  0.1658770E-07  0.3641973E+04  0.7818609E-02  0.8080944E-01
       -2   -1    0    0    0  501  0.00000000000E+00  0.00000000000E+00  0.12102260962E+04  0.12102260962E+04  0.25500000920E-02 0.  1.
        2   -1    0    0  501    0  0.00000000000E+00  0.00000000000E+00 -0.27399771411E+04  0.27399771411E+04  0.25500000920E-02 0. -1.
    10030    2    1    2    0    0  0.00000000000E+00  0.00000000000E+00 -0.15297510449E+04  0.39502032373E+04  0.36419730033E+04 0.  0.
        2    1    3    3  502    0 -0.10093036749E+04 -0.14539237237E+04 -0.12293766882E+04  0.21549837920E+04  0.25500000920E-02 0. -1.
       -2    1    3    3    0  502  0.10093036749E+04  0.14539237237E+04 -0.30037435674E+03  0.17952194453E+04  0.25500000920E-02 0.  1.
</event>
<event>
 5   0  0.5177000E-08  0.3682637E+04  0.7818609E-02  0.8071821E-01
        1   -1    0    0  501    0  0.00000000000E+00  0.00000000000E+00  0.23096823811E+04  0.23096823811E+04  0.50400001928E-02 0. -1.
       -1   -1    0    0    0  501  0.00000000000E+00  0.00000000000E+00 -0.14679304807E+04  0.14679304807E+04  0.50400001928E-02 0.  1.
    10030    2    1    2    0    0  0.00000000000E+00  0.00000000000E+00  0.84175190037E+03  0.37776128619E+04  0.36826366468E+04 0.  0.
        1    1    3    3  502    0  0.12519716115E+04 -0.13410848113E+04  0.26027577700E+03  0.18530204714E+04  0.50400001928E-02 0.  1.
       -1    1    3    3    0  502 -0.12519716115E+04  0.13410848113E+04  0.58147612337E+03  0.19245923905E+04  0.50400001928E-02 0. -1.
</event>
<event>
 5   0  0.5177000E-08  0.3690736E+04  0.7818609E-02  0.8070018E-01
       -1   -1    0    0    0  501  0.00000000000E+00  0.00000000000E+00  0.33912584938E+04  0.33912584938E+04  0.50400001928E-02 0.  1.
        1   -1    0    0  501    0  0.00000000000E+00  0.00000000000E+00 -0.10041650346E+04  0.10041650346E+04  0.50400001928E-02 0. -1.
    10030    2    1    2    0    0  0.00000000000E+00  0.00000000000E+00  0.23870934592E+04  0.43954235284E+04  0.36907360798E+04 0.  0.
        3    1    3    3  502    0 -0.10004833166E+04 -0.10671419363E+04 -0.14625384583E+03  0.14700846835E+04  0.10100000352E+00 0. -1.
       -3    1    3    3    0  502  0.10004833166E+04  0.10671419363E+04  0.25333473050E+04  0.29253388449E+04  0.10100000352E+00 0.  1.
</event>
<event>
 5   0  0.1666189E-07  0.3697982E+04  0.7818609E-02  0.8068409E-01
       -2   -1    0    0    0  501  0.00000000000E+00  0.00000000000E+00  0.22573605985E+04  0.22573605985E+04  0.25500000920E-02 0. -1.
        2   -1    0    0  501    0  0.00000000000E+00  0.00000000000E+00 -0.15144978208E+04  0.15144978208E+04  0.25500000920E-02 0.  1.
    10030    2    1    2    0    0  0.00000000000E+00  0.00000000000E+00  0.74286277772E+03  0.37718584193E+04  0.36979819941E+04 0.  0.
        4    1    3    3  502    0 -0.17197897163E+04  0.64548785201E+03  0.58643833589E+03  0.19282745578E+04  0.12699999809E+01 0.  1.
       -4    1    3    3    0  502  0.17197897163E+04 -0.64548785201E+03  0.15642444184E+03  0.18435838615E+04  0.12699999809E+01 0. -1.
</event>
<event>
 5   0  0.1666189E-07  0.3695599E+04  0.7818609E-02  0.8068938E-01
       -2   -1    0    0    0  501  0.00000000000E+00  0.00000000000E+00  0.13718516630E+04  0.13718516630E+04  0.25500000920E-02 0. -1.
        2   -1    0    0  501    0  0.00000000000E+00  0.00000000000E+00 -0.24888720890E+04  0.24888720890E+04  0.25500000920E-02 0.  1.
    10030    2    1    2    0    0  0.00000000000E+00  0.00000000000E+00 -0.11170204260E+04  0.38607237520E+04  0.36955991743E+04 0.  0.
        4    1    3    3  502    0 -0.17255321964E+04  0.32661989705E+03  0.41813377889E+02  0.17566706833E+04  0.12699999809E+01 0. -1.
       -4    1    3    3    0  502  0.17255321964E+04 -0.32661989705E+03 -0.11588338039E+04  0.21040530687E+04  0.12699999809E+01 0.  1.
</event>
<event>
 5   0  0.1558258E-07  0.3695784E+04  0.7818609E-02  0.8068897E-01
       -2   -1    0    0    0  501  0.00000000000E+00  0.00000000000E+00  0.18859717763E+04  0.18859717763E+04  0.25500000920E-02 0. -1.
        2   -1    0    0  501    0  0.00000000000E+00  0.00000000000E+00 -0.18105808234E+04  0.18105808234E+04  0.25500000920E-02 0.  1.
    10030    2    1    2    0    0  0.00000000000E+00  0.00000000000E+00  0.75390952845E+02  0.36965525997E+04  0.36957837229E+04 0.  0.
        1    1    3    3  502    0  0.59285520439E+03  0.15885519364E+04 -0.69712040483E+03  0.18332897771E+04  0.50400001928E-02 0. -1.
       -1    1    3    3    0  502 -0.59285520439E+03 -0.15885519364E+04  0.77251135767E+03  0.18632628225E+04  0.50400001928E-02 0.  1.
</event>
<event>
 5   0  0.1686284E-07  0.3682274E+04  0.7818609E-02  0.8071901E-01
        2   -1    0    0  501    0  0.00000000000E+00  0.00000000000E+00  0.18693452360E+04  0.18693452360E+04  0.25500000920E-02 0.  1.
       -2   -1    0    0    0  501  0.00000000000E+00  0.00000000000E+00 -0.18133547220E+04  0.18133547220E+04  0.25500000920E-02 0. -1.
    10030    2    1    2    0    0  0.00000000000E+00  0.00000000000E+00  0.55990514006E+02  0.36826999579E+04  0.36822743030E+04 0.  0.
        5    1    3    3  502    0 -0.14812021672E+04 -0.53719837742E+03 -0.92459684756E+03  0.18268670935E+04  0.46999998093E+01 0. -1.
       -5    1    3    3    0  502  0.14812021672E+04  0.53719837742E+03  0.98058736156E+03  0.18558328644E+04  0.46999998093E+01 0.  1.
</event>
<event>
 5   0  0.5177000E-08  0.3716732E+04  0.7818609E-02  0.8064264E-01
        1   -1    0    0  501    0  0.00000000000E+00  0.00000000000E+00  0.21283871562E+04  0.21283871562E+04  0.50400001928E-02 0. -1.
       -1   -1    0    0    0  501  0.00000000000E+00  0.00000000000E+00 -0.16226015937E+04  0.16226015937E+04  0.50400001928E-02 0.  1.
    10030    2    1    2    0    0  0.00000000000E+00  0.00000000000E+00  0.50578556244E+03  0.37509887499E+04  0.37167321085E+04 0.  0.
        3    1    3    3  502    0 -0.13943589798E+04  0.39282750453E+03  0.14276550192E+04  0.20339000165E+04  0.10100000352E+00 0.  1.
       -3    1    3    3    0  502  0.13943589798E+04 -0.39282750453E+03 -0.92186945677E+03  0.17170887334E+04  0.10100000352E+00 0. -1.
</event>
<event>
 5   0  0.5177000E-08  0.3712198E+04  0.7818609E-02  0.8065264E-01
        1   -1    0    0  501    0  0.00000000000E+00  0.00000000000E+00  0.24109425812E+04  0.24109425812E+04  0.50400001928E-02 0.  1.
       -1   -1    0    0    0  501  0.00000000000E+00  0.00000000000E+00 -0.14289448646E+04  0.14289448646E+04  0.50400001928E-02 0. -1.
    10030    2    1    2    0    0  0.00000000000E+00  0.00000000000E+00  0.98199771663E+03  0.38398874458E+04  0.37121982814E+04 0.  0.
        1    1    3    3  502    0 -0.18485680385E+04 -0.16678813284E+03  0.50036263758E+03  0.19223383790E+04  0.50400001928E-02 0. -1.
       -1    1    3    3    0  502  0.18485680385E+04  0.16678813284E+03  0.48163507905E+03  0.19175490668E+04  0.50400001928E-02 0.  1.
</event>
<event>
 5   0  0.1658770E-07  0.3716563E+04  0.7818609E-02  0.8064301E-01
        2   -1    0    0  501    0  0.00000000000E+00  0.00000000000E+00  0.10271530722E+04  0.10271530722E+04  0.25500000920E-02 0.  1.
       -2   -1    0    0    0  501  0.00000000000E+00  0.00000000000E+00 -0.33619238219E+04  0.33619238219E+04  0.25500000920E-02 0. -1.
    10030    2    1    2    0    0  0.00000000000E+00  0.00000000000E+00 -0.23347707497E+04  0.43890768941E+04  0.37165631339E+04 0.  0.
        2    1    3    3  502    0  0.39888130888E+02  0.92190354647E+03  0.73746725814E+03  0.11812515265E+04  0.25500000920E-02 0.  1.
       -2    1    3    3    0  502 -0.39888130888E+02 -0.92190354647E+03 -0.30722380079E+04  0.32078253676E+04  0.25500000920E-02 0. -1.
</event>
<event>
 5   0  0.5181371E-08  0.3690906E+04  0.7818609E-02  0.8069980E-01
        1   -1    0    0  501    0  0.00000000000E+00  0.00000000000E+00  0.24100410434E+04  0.24100410434E+04  0.50400001928E-02 0.  1.
       -1   -1    0    0    0  501  0.00000000000E+00  0.00000000000E+00 -0.14131284233E+04  0.14131284233E+04  0.50400001928E-02 0. -1.
    10030    2    1    2    0    0  0.00000000000E+00  0.00000000000E+00  0.99691262010E+03  0.38231694667E+04  0.36909063926E+04 0.  0.
        5    1    3    3  502    0 -0.41789302995E+03  0.26272182676E+03  0.23403844875E+04  0.23918777105E+04  0.46999998093E+01 0.  1.
       -5    1    3    3    0  502  0.41789302995E+03 -0.26272182676E+03 -0.13434718674E+04  0.14312917562E+04  0.46999998093E+01 0. -1.
</event>
<event>
 5   0  0.5177000E-08  0.3704625E+04  0.7818609E-02  0.8066938E-01
        1   -1    0    0  501    0  0.00000000000E+00  0.00000000000E+00  0.19858789485E+04  0.19858789485E+04  0.50400001928E-02 0. -1.
       -1   -1    0    0    0  501  0.00000000000E+00  0.00000000000E+00 -0.17277298184E+04  0.17277298184E+04  0.50400001928E-02 0.  1.
    10030    2    1    2    0    0  0.00000000000E+00  0.00000000000E+00  0.25814913009E+03  0.37136087669E+04  0.37046253657E+04 0.  0.
        3    1    3    3  502    0  0.20534748841E+03  0.42855231404E+03 -0.16655845369E+04  0.17320498078E+04  0.10100000352E+00 0.  1.
       -3    1    3    3    0  502 -0.20534748841E+03 -0.42855231404E+03  0.19237336670E+04  0.19815589591E+04  0.10100000352E+00 0. -1.
</event>
<event>
 5   0  0.5177000E-08  0.3707977E+04  0.7818609E-02  0.8066196E-01
       -1   -1    0    0    0  501  0.00000000000E+00  0.00000000000E+00  0.21574075625E+04  0.21574075625E+04  0.50400001928E-02 0.  1.
        1   -1    0    0  501    0  0.00000000000E+00  0.00000000000E+00 -0.15932420811E+04  0.15932420811E+04  0.50400001928E-02 0. -1.
    10030    2    1    2    0    0  0.00000000000E+00  0.00000000000E+00  0.56416548143E+03  0.37506496436E+04  0.37079765450E+04 0.  0.
        2    1    3    3  502    0 -0.13112879824E+03 -0.76902691381E+03 -0.14191395829E+04  0.16194302429E+04  0.25500000920E-02 0. -1.
       -2    1    3    3    0  502  0.13112879824E+03  0.76902691381E+03  0.19833050643E+04  0.21312194007E+04  0.25500000920E-02 0.  1.
</event>
<event>
 5   0  0.1658770E-07  0.3699018E+04  0.7818609E-02  0.8068179E-01
       -2   -1    0    0    0  501  0.00000000000E+00  0.00000000000E+00  0.18781929843E+04  0.18781929843E+04  0.25500000920E-02 0. -1.
        2   -1    0    0  501    0  0.00000000000E+00  0.00000000000E+00 -0.18212631591E+04  0.18212631591E+04  0.25500000920E-02 0.  1.
    10030    2    1    2    0    0  0.00000000000E+00  0.00000000000E+00  0.56929825144E+02  0.36994561434E+04  0.36990180795E+04 0.  0.
        2    1    3    3  502    0  0.93240195111E+03 -0.14615840932E+04  0.67280996606E+03  0.18596437052E+04  0.25500000920E-02 0. -1.
       -2    1    3    3    0  502 -0.93240195111E+03  0.14615840932E+04 -0.61588014091E+03  0.18398124382E+04  0.25500000920E-02 0.  1.
</event>
<event>
 5   0  0.1587026E-07  0.3712172E+04  0.7818609E-02  0.8065270E-01
        2   -1    0    0  501    0  0.00000000000E+00  0.00000000000E+00  0.28933575107E+04  0.28933575107E+04  0.25500000920E-02 0.  1.
       -2   -1    0    0    0  501  0.00000000000E+00  0.00000000000E+00 -0.11906773517E+04  0.11906773518E+04  0.25500000920E-02 0. -1.
    10030    2    1    2    0    0  0.00000000000E+00  0.00000000000E+00  0.17026801590E+04  0.40840348625E+04  0.37121720103E+04 0.  0.
        3    1    3    3  502    0 -0.16140393749E+03 -0.15310726486E+04  0.19919294815E+04  0.25175420067E+04  0.10100000352E+00 0.  1.
       -3    1    3    3    0  502  0.16140393749E+03  0.15310726486E+04 -0.28924932255E+03  0.15664928557E+04  0.10100000352E+00 0. -1.
</event>
<event>
 5   0  0.5181371E-08  0.3725375E+04  0.7818609E-02  0.8062362E-01
       -1   -1    0    0    0  501  0.00000000000E+00  0.00000000000E+00  0.14037876043E+04  0.14037876043E+04  0.50400001928E-02 0. -1.
        1   -1    0    0  501    0  0.00000000000E+00  0.00000000000E+00 -0.24716017807E+04  0.24716017807E+04  0.50400001928E-02 0.  1.
    10030    2    1    2    0    0  0.00000000000E+00  0.00000000000E+00 -0.10678141764E+04  0.38753893850E+04  0.37253745811E+04 0.  0.
        5    1    3    3  502    0  0.14587874620E+04  0.11137553666E+04 -0.20319011789E+03  0.18465698443E+04  0.46999998093E+01 0. -1.
       -5    1    3    3    0  502 -0.14587874620E+04 -0.11137553666E+04 -0.86462405853E+03  0.20288195407E+04  0.46999998093E+01 0.  1.
</event>
<event>
 5   0  0.5177000E-08  0.3697204E+04  0.7818609E-02  0.8068582E-01
       -1   -1    0    0    0  501  0.00000000000E+00  0.00000000000E+00  0.15455670029E+04  0.15455670030E+04  0.50400001928E-02 0. -1.
        1   -1    0    0  501    0  0.00000000000E+00  0.00000000000E+00 -0.22110522068E+04  0.22110522068E+04  0.50400001928E-02 0.  1.
    10030    2    1    2    0    0  0.00000000000E+00  0.00000000000E+00 -0.66548520388E+03  0.37566192098E+04  0.36972039882E+04 0.  0.
        1    1    3    3  502    0  0.95631335976E+03  0.11786841760E+03 -0.19357206844E+04  0.21622772195E+04  0.50400001928E-02 0.  1.
       -1    1    3    3    0  502 -0.95631335976E+03 -0.11786841760E+03  0.12702354805E+04  0.15943419903E+04  0.50400001928E-02 0. -1.
</event>
<event>
 5   0  0.5181371E-08  0.3632465E+04  0.7818609E-02  0.8083095E-01
       -1   -1    0    0    0  501  0.00000000000E+00  0.00000000000E+00  0.17189181428E+04  0.17189181428E+04  0.50400001928E-02 0.  1.
        1   -1    0    0  501    0  0.00000000000E+00  0.00000000000E+00 -0.19190559615E+04  0.19190559615E+04  0.50400001928E-02 0. -1.
    10030    2    1    2    0    0  0.00000000000E+00  0.00000000000E+00 -0.20013781868E+03  0.36379741044E+04  0.36324647882E+04 0.  0.
        5    1    3    3  502    0  0.12316540876E+04  0.92367129655E+03  0.86499912122E+03  0.17658952475E+04  0.46999998093E+01 0.  1.
       -5    1    3    3    0  502 -0.12316540876E+04 -0.92367129655E+03 -0.10651369399E+04  0.18720788568E+04  0.46999998093E+01 0. -1.
</event>
<event>
 5   0  0.1686284E-07  0.3684837E+04  0.7818609E-02  0.8071330E-01
       -2   -1    0    0    0  501  0.00000000000E+00  0.00000000000E+00  0.16604069720E+04  0.16604069720E+04  0.25500000920E-02 0. -1.
        2   -1    0    0  501    0  0.00000000000E+00  0.00000000000E+00 -0.20443821897E+04  0.20443821897E+04  0.25500000920E-02 0.  1.
    10030    2    1    2    0    0  0.00000000000E+00  0.00000000000E+00 -0.38397521766E+03  0.37047891617E+04  0.36848372779E+04 0.  0.
        5    1    3    3  502    0  0.10232715588E+04  0.67725599293E+03  0.11897622579E+04  0.17091859709E+04  0.46999998093E+01 0. -1.
       -5    1    3    3    0  502 -0.10232715588E+04 -0.67725599293E+03 -0.15737374755E+04  0.19956031907E+04  0.46999998093E+01 0.  1.
</event>
<event>
 5   0  0.1658770E-07  0.3717961E+04  0.7818609E-02  0.8063993E-01
        2   -1    0    0  501    0  0.00000000000E+00  0.00000000000E+00  0.20777608725E+04  0.20777608725E+04  0.25500000920E-02 0. -1.
       -2   -1    0    0    0  501  0.00000000000E+00  0.00000000000E+00 -0.16632368989E+04  0.16632368989E+04  0.25500000920E-02 0.  1.
    10030    2    1    2    0    0  0.00000000000E+00  0.00000000000E+00  0.41452397354E+03  0.37409977714E+04  0.37179610274E+04 0.  0.
        2    1    3    3  502    0 -0.17697508634E+03 -0.41186231467E+03 -0.16080389276E+04  0.16693531502E+04  0.25500000920E-02 0.  1.
       -2    1    3    3    0  502  0.17697508634E+03  0.41186231467E+03  0.20225629011E+04  0.20716446212E+04  0.25500000920E-02 0. -1.
</event>
<event>
 5   0  0.1658770E-07  0.3697004E+04  0.7818609E-02  0.8068626E-01
       -2   -1    0    0    0  501  0.00000000000E+00  0.00000000000E+00  0.20173496466E+04  0.20173496466E+04  0.25500000920E-02 0. -1.
        2   -1    0    0  501    0  0.00000000000E+00  0.00000000000E+00 -0.16937866491E+04  0.16937866491E+04  0.25500000920E-02 0.  1.
    10030    2    1    2    0    0  0.00000000000E+00  0.00000000000E+00  0.32356299754E+03  0.37111362957E+04  0.36970041374E+04 0.  0.
        2    1    3    3  502    0  0.10125283125E+04  0.22828987642E+03 -0.13736504148E+04  0.17216983805E+04  0.25500000920E-02 0.  1.
       -2    1    3    3    0  502 -0.10125283125E+04 -0.22828987642E+03  0.16972134124E+04  0.19894379152E+04  0.25500000920E-02 0. -1.
</event>
<event>
 5   0  0.1686284E-07  0.3728798E+04  0.7818609E-02  0.8061610E-01
        2   -1    0    0  501    0  0.00000000000E+00  0.00000000000E+00  0.23789432455E+04  0.23789432455E+04  0.25500000920E-02 0. -1.
       -2   -1    0    0    0  501  0.00000000000E+00  0.00000000000E+00 -0.14611461772E+04  0.14611461772E+04  0.25500000920E-02 0.  1.
    10030    2    1    2    0    0  0.00000000000E+00  0.00000000000E+00  0.91779706829E+03  0.38400894228E+04  0.37287981062E+04 0.  0.
        5    1    3    3  502    0  0.40321853963E+03 -0.72461783026E+03  0.21785587732E+04  0.23310505376E+04  0.46999998093E+01 0. -1.
       -5    1    3    3    0  502 -0.40321853963E+03  0.72461783026E+03 -0.12607617049E+04  0.15090388852E+04  0.46999998093E+01 0.  1.
</event>
<event>
 5   0  0.1558258E-07  0.3693962E+04  0.7818609E-02  0.8069301E-01
       -2   -1    0    0    0  501  0.00000000000E+00  0.00000000000E+00  0.15670196517E+04  0.15670196517E+04  0.25500000920E-02 0. -1.
        2   -1    0    0  501    0  0.00000000000E+00  0.00000000000E+00 -0.21769595482E+04  0.21769595482E+04  0.25500000920E-02 0.  1.
    10030    2    1    2    0    0  0.00000000000E+00  0.00000000000E+00 -0.60993989654E+03  0.37439791999E+04  0.36939617718E+04 0.  0.
        1    1    3    3  502    0  0.13036699980E+04  0.60703599064E+03 -0.14796672184E+04  0.20633621192E+04  0.50400001928E-02 0.  1.
       -1    1    3    3    0  502 -0.13036699980E+04 -0.60703599064E+03  0.86972732186E+03  0.16806170807E+04  0.50400001928E-02 0. -1.
</event>
<event>
 5   0  0.1658770E-07  0.3699177E+04  0.7818609E-02  0.8068144E-01
        2   -1    0    0  501    0  0.00000000000E+00  0.00000000000E+00  0.15093300950E+04  0.15093300950E+04  0.25500000920E-02 0.  1.
       -2   -1    0    0    0  501  0.00000000000E+00  0.00000000000E+00 -0.22665540945E+04  0.22665540945E+04  0.25500000920E-02 0. -1.
    10030    2    1    2    0    0  0.00000000000E+00  0.00000000000E+00 -0.75722399948E+03  0.37758841895E+04  0.36991773717E+04 0.  0.
        2    1    3    3  502    0  0.84175910422E+03  0.33309983380E+03 -0.20249630870E+04  0.22181049102E+04  0.25500000920E-02 0. -1.
       -2    1    3    3    0  502 -0.84175910422E+03 -0.33309983380E+03  0.12677390876E+04  0.15577792793E+04  0.25500000920E-02 0.  1.
</event>
<event>
 5   0  0.1558258E-07  0.3684399E+04  0.7818609E-02  0.8071428E-01
        2   -1    0    0  501    0  0.00000000000E+00  0.00000000000E+00  0.28821569042E+04  0.28821569042E+04  0.25500000920E-02 0.  1.
       -2   -1    0    0    0  501  0.00000000000E+00  0.00000000000E+00 -0.11774856758E+04  0.11774856758E+04  0.25500000920E-02 0. -1.
    10030    2    1    2    0    0  0.00000000000E+00  0.00000000000E+00  0.17046712284E+04  0.40596425800E+04  0.36843987135E+04 0.  0.
        1    1    3    3  502    0  0.14712213151E+04 -0.51758572136E+03 -0.22798635565E+03  0.15761868276E+04  0.50400001928E-02 0.  1.
       -1    1    3    3    0  502 -0.14712213151E+04  0.51758572136E+03  0.19326575840E+04  0.24834557524E+04  0.50400001928E-02 0. -1.
</event>
<event>
 5   0  0.5177000E-08  0.3701378E+04  0.7818609E-02  0.8067656E-01
        1   -1    0    0  501    0  0.00000000000E+00  0.00000000000E+00  0.23429690626E+04  0.23429690626E+04  0.50400001928E-02 0.  1.
       -1   -1    0    0    0  501  0.00000000000E+00  0.00000000000E+00 -0.14618417578E+04  0.14618417578E+04  0.50400001928E-02 0. -1.
    10030    2    1    2    0    0  0.00000000000E+00  0.00000000000E+00  0.88112730486E+03  0.38048108204E+04  0.37013781287E+04 0.  0.
        4    1    3    3  502    0  0.54888580856E+03 -0.13509262704E+04 -0.73091910785E+03  0.16311105953E+04  0.12699999809E+01 0. -1.
       -4    1    3    3    0  502 -0.54888580856E+03  0.13509262704E+04  0.16120464127E+04  0.21737002251E+04  0.12699999809E+01 0.  1.
</event>
<event>
 5   0  0.5177000E-08  0.3711062E+04  0.7818609E-02  0.8065515E-01
       -1   -1    0    0    0  501  0.00000000000E+00  0.00000000000E+00  0.15240438090E+04  0.15240438090E+04  0.50400001928E-02 0.  1.
        1   -1    0    0  501    0  0.00000000000E+00  0.00000000000E+00 -0.22591184217E+04  0.22591184217E+04  0.50400001928E-02 0. -1.
    10030    2    1    2    0    0  0.00000000000E+00  0.00000000000E+00 -0.73507461266E+03  0.37831622307E+04  0.37110620822E+04 0.  0.
        4    1    3    3  502    0  0.46198657228E+03 -0.11319388772E+04  0.10553878407E+04  0.16151044306E+04  0.12699999809E+01 0.  1.
       -4    1    3    3    0  502 -0.46198657228E+03  0.11319388772E+04 -0.17904624533E+04  0.21680578001E+04  0.12699999809E+01 0. -1.
</event>
<event>
 5   0  0.5177000E-08  0.3728820E+04  0.7818609E-02  0.8061605E-01
        1   -1    0    0  501    0  0.00000000000E+00  0.00000000000E+00  0.30882894393E+04  0.30882894393E+04  0.50400001928E-02 0.  1.
       -1   -1    0    0    0  501  0.00000000000E+00  0.00000000000E+00 -0.11255500848E+04  0.11255500848E+04  0.50400001928E-02 0. -1.
    10030    2    1    2    0    0  0.00000000000E+00  0.00000000000E+00  0.19627393545E+04  0.42138395241E+04  0.37288198886E+04 0.  0.
        4    1    3    3  502    0  0.10504214125E+04 -0.25658400547E+03 -0.73500372886E+03  0.13074603589E+04  0.12699999809E+01 0. -1.
       -4    1    3    3    0  502 -0.10504214125E+04  0.25658400547E+03  0.26977430834E+04  0.29063791653E+04  0.12699999809E+01 0.  1.
</event>
<event>
 5   0  0.1666189E-07  0.3702923E+04  0.7818609E-02  0.8067314E-01
        2   -1    0    0  501    0  0.00000000000E+00  0.00000000000E+00  0.13509914300E+04  0.13509914300E+04  0.25500000920E-02 0.  1.
       -2   -1    0    0    0  501  0.00000000000E+00  0.00000000000E+00 -0.25373294234E+04  0.25373294234E+04  0.25500000920E-02 0. -1.
    10030    2    1    2    0    0  0.00000000000E+00  0.00000000000E+00 -0.11863379935E+04  0.38883208534E+04  0.37029233349E+04 0.  0.
        4    1    3    3  502    0  0.82609359480E+03  0.96335088332E+03  0.82245069637E+03  0.15122507440E+04  0.12699999809E+01 0.  1.
       -4    1    3    3    0  502 -0.82609359480E+03 -0.96335088332E+03 -0.20087886898E+04  0.23760701095E+04  0.12699999809E+01 0. -1.
</event>
<event>
 5   0  0.5181371E-08  0.3702165E+04  0.7818609E-02  0.8067482E-01
        1   -1    0    0  501    0  0.00000000000E+00  0.00000000000E+00  0.13438269735E+04  0.13438269735E+04  0.50400001928E-02 0.  1.
       -1   -1    0    0    0  501  0.00000000000E+00  0.00000000000E+00 -0.25498118564E+04  0.25498118564E+04  0.50400001928E-02 0. -1.
    10030    2    1    2    0    0  0.00000000000E+00  0.00000000000E+00 -0.12059848829E+04  0.38936388299E+04  0.37021647451E+04 0.  0.
        5    1    3    3  502    0 -0.16146726544E+04  0.80483781664E+03 -0.10386026301E+04  0.20817418680E+04  0.46999998093E+01 0. -1.
       -5    1    3    3    0  502  0.16146726544E+04 -0.80483781664E+03 -0.16738225286E+03  0.18118969619E+04  0.46999998093E+01 0.  1.
</event>
<event>
 5   0  0.5177000E-08  0.3698949E+04  0.7818609E-02  0.8068195E-01
       -1   -1    0    0    0  501  0.00000000000E+00  0.00000000000E+00  0.16161938588E+04  0.16161938588E+04  0.50400001928E-02 0.  1.
        1   -1    0    0  501    0  0.00000000000E+00  0.00000000000E+00 -0.21164269071E+04  0.21164269071E+04  0.50400001928E-02 0. -1.
    10030    2    1    2    0    0  0.00000000000E+00  0.00000000000E+00 -0.50023304829E+03  0.37326207658E+04  0.36989491317E+04 0.  0.
        2    1    3    3  502    0  0.90322457995E+03  0.72581937842E+03  0.12045074172E+04  0.16713666654E+04  0.25500000920E-02 0.  1.
       -2    1    3    3    0  502 -0.90322457995E+03 -0.72581937842E+03 -0.17047404655E+04  0.20612541005E+04  0.25500000920E-02 0. -1.
</event>
<event>
 5   0  0.5177000E-08  0.3680212E+04  0.7818609E-02  0.8072361E-01
        1   -1    0    0  501    0  0.00000000000E+00  0.00000000000E+00  0.28179545432E+04  0.28179545432E+04  0.50400001928E-02 0.  1.
       -1   -1    0    0    0  501  0.00000000000E+00  0.00000000000E+00 -0.12015772527E+04  0.12015772528E+04  0.50400001928E-02 0. -1.
    10030    2    1    2    0    0  0.00000000000E+00  0.00000000000E+00  0.16163772905E+04  0.40195317960E+04  0.36802119931E+04 0.  0.
        4    1    3    3  502    0  0.54249881432E+03  0.15949288621E+04  0.16166281113E+04  0.23348642577E+04  0.12699999809E+01 0.  1.
       -4    1    3    3    0  502 -0.54249881432E+03 -0.15949288621E+04 -0.25082079594E+00  0.16846675383E+04  0.12699999809E+01 0. -1.
</event>
<event>
 5   0  0.5177000E-08  0.3702631E+04  0.7818609E-02  0.8067379E-01
        1   -1    0    0  501    0  0.00000000000E+00  0.00000000000E+00  0.15751996498E+04  0.15751996498E+04  0.50400001928E-02 0.  1.
       -1   -1    0    0    0  501  0.00000000000E+00  0.00000000000E+00 -0.21758310078E+04  0.21758310078E+04  0.50400001928E-02 0. -1.
    10030    2    1    2    0    0  0.00000000000E+00  0.00000000000E+00 -0.60063135801E+03  0.37510306576E+04  0.37026305467E+04 0.  0.
        4    1    3    3  502    0  0.78110128157E+03 -0.86953320909E+02  0.13978074183E+04  0.16036044661E+04  0.12699999809E+01 0.  1.
       -4    1    3    3    0  502 -0.78110128157E+03  0.86953320909E+02 -0.19984387763E+04  0.21474261914E+04  0.12699999809E+01 0. -1.
</event>
<event>
 5   0  0.1587026E-07  0.3714685E+04  0.7818609E-02  0.8064715E-01
        2   -1    0    0  501    0  0.00000000000E+00  0.00000000000E+00  0.25473796131E+04  0.25473796131E+04  0.25500000920E-02 0. -1.
       -2   -1    0    0    0  501  0.00000000000E+00  0.00000000000E+00 -0.13542233871E+04  0.13542233871E+04  0.25500000920E-02 0.  1.
    10030    2    1    2    0    0  0.00000000000E+00  0.00000000000E+00  0.11931562260E+04  0.39016030002E+04  0.37146849384E+04 0.  0.
        3    1    3    3  502    0  0.17334528764E+04  0.60351253200E+02 -0.10108961171E+03  0.17374464793E+04  0.10100000352E+00 0.  1.
       -3    1    3    3    0  502 -0.17334528764E+04 -0.60351253200E+02  0.12942458377E+04  0.21641565209E+04  0.10100000352E+00 0. -1.
</event>
<event>
 5   0  0.5177000E-08  0.3699421E+04  0.7818609E-02  0.8068090E-01
       -1   -1    0    0    0  501  0.00000000000E+00  0.00000000000E+00  0.14332216052E+04  0.14332216053E+04  0.50400001928E-02 0.  1.
        1   -1    0    0  501    0  0.00000000000E+00  0.00000000000E+00 -0.23872292045E+04  0.23872292045E+04  0.50400001928E-02 0. -1.
    10030    2    1    2    0    0  0.00000000000E+00  0.00000000000E+00 -0.95400759922E+03  0.38204508097E+04  0.36994207506E+04 0.  0.
        2    1    3    3  502    0 -0.16506376397E+04  0.46296016581E+03  0.24033748364E+03  0.17310975821E+04  0.25500000920E-02 0. -1.
       -2    1    3    3    0  502  0.16506376397E+04 -0.46296016581E+03 -0.11943450829E+04  0.20893532276E+04  0.25500000920E-02 0.  1.
</event>
<event>
 5   0  0.1587026E-07  0.3736786E+04  0.7818609E-02  0.8059858E-01
        2   -1    0    0  501    0  0.00000000000E+00  0.00000000000E+00  0.22904807610E+04  0.22904807610E+04  0.25500000920E-02 0.  1.
       -2   -1    0    0    0  501  0.00000000000E+00  0.00000000000E+00 -0.15240872602E+04  0.15240872602E+04  0.25500000920E-02 0. -1.
    10030    2    1    2    0    0  0.00000000000E+00  0.00000000000E+00  0.76639350085E+03  0.38145680212E+04  0.37367860777E+04 0.  0.
        3    1    3    3  502    0  0.58821992230E+03 -0.16738352270E+04 -0.21480015017E+03  0.17871390989E+04  0.10100000352E+00 0. -1.
       -3    1    3    3    0  502 -0.58821992230E+03  0.16738352270E+04  0.98119365102E+03  0.20274289223E+04  0.10100000352E+00 0.  1.
</event>
<event>
 5   0  0.5181371E-08  0.3708625E+04  0.7818609E-02  0.8066053E-01
        1   -1    0    0  501    0  0.00000000000E+00  0.00000000000E+00  0.18527747977E+04  0.18527747978E+04  0.50400001928E-02 0. -1.
       -1   -1    0    0    0  501  0.00000000000E+00  0.00000000000E+00 -0.18558512170E+04  0.18558512170E+04  0.50400001928E-02 0.  1.
    10030    2    1    2    0    0  0.00000000000E+00  0.00000000000E+00 -0.30764192172E+01  0.37086260147E+04  0.37086247387E+04 0.  0.
        5    1    3    3  502    0 -0.16606615967E+04 -0.82085503004E+03 -0.84317184810E+02  0.18543816751E+04  0.46999998093E+01 0. -1.
       -5    1    3    3    0  502  0.16606615967E+04  0.82085503004E+03  0.81240765593E+02  0.18542443397E+04  0.46999998093E+01 0.  1.
</event>
<event>
 5   0  0.1587026E-07  0.3770526E+04  0.7818609E-02  0.8052510E-01
        2   -1    0    0  501    0  0.00000000000E+00  0.00000000000E+00  0.21085660321E+04  0.21085660321E+04  0.25500000920E-02 0.  1.
       -2   -1    0    0    0  501  0.00000000000E+00  0.00000000000E+00 -0.16856084425E+04  0.16856084425E+04  0.25500000920E-02 0. -1.
    10030    2    1    2    0    0  0.00000000000E+00  0.00000000000E+00  0.42295758961E+03  0.37941744747E+04  0.37705260670E+04 0.  0.
        3    1    3    3  502    0  0.12538616403E+04 -0.13001512166E+04 -0.33195881123E+03  0.18365072452E+04  0.10100000352E+00 0.  1.
       -3    1    3    3    0  502 -0.12538616403E+04  0.13001512166E+04  0.75491640085E+03  0.19576672295E+04  0.10100000352E+00 0. -1.
</event>
<event>
 5   0  0.5177000E-08  0.3708151E+04  0.7818609E-02  0.8066158E-01
        1   -1    0    0  501    0  0.00000000000E+00  0.00000000000E+00  0.22953216202E+04  0.22953216202E+04  0.50400001928E-02 0.  1.
       -1   -1    0    0    0  501  0.00000000000E+00  0.00000000000E+00 -0.14976530403E+04  0.14976530403E+04  0.50400001928E-02 0. -1.
    10030    2    1    2    0    0  0.00000000000E+00  0.00000000000E+00  0.79766857992E+03  0.37929746605E+04  0.37081506997E+04 0.  0.
        3    1    3    3  502    0 -0.10801714536E+04 -0.11687389693E+04  0.13718428913E+04  0.21011125805E+04  0.10100000352E+00 0.  1.
       -3    1    3    3    0  502  0.10801714536E+04  0.11687389693E+04 -0.57417431133E+03  0.16918620799E+04  0.10100000352E+00 0. -1.
</event>
<event>
 5   0  0.5181371E-08  0.3691147E+04  0.7818609E-02  0.8069927E-01
       -1   -1    0    0    0  501  0.00000000000E+00  0.00000000000E+00  0.15965178437E+04  0.15965178437E+04  0.50400001928E-02 0. -1.
        1   -1    0    0  501    0  0.00000000000E+00  0.00000000000E+00 -0.21334814334E+04  0.21334814334E+04  0.50400001928E-02 0.  1.
    10030    2    1    2    0    0  0.00000000000E+00  0.00000000000E+00 -0.53696358976E+03  0.37299992771E+04  0.36911468016E+04 0.  0.
        5    1    3    3  502    0 -0.23098410930E+03 -0.17706150124E+04  0.20299962347E+03  0.17971260718E+04  0.46999998093E+01 0. -1.
       -5    1    3    3    0  502  0.23098410930E+03  0.17706150124E+04 -0.73996321323E+03  0.19328732053E+04  0.46999998093E+01 0.  1.
</event>
<event>
 5   0  0.1587026E-07  0.3690019E+04  0.7818609E-02  0.8070177E-01
        2   -1    0    0  501    0  0.00000000000E+00  0.00000000000E+00  0.19428206658E+04  0.19428206658E+04  0.25500000920E-02 0. -1.
       -2   -1    0    0    0  501  0.00000000000E+00  0.00000000000E+00 -0.17521223152E+04  0.17521223152E+04  0.25500000920E-02 0.  1.
    10030    2    1    2    0    0  0.00000000000E+00  0.00000000000E+00  0.19069835053E+03  0.36949429810E+04  0.36900186682E+04 0.  0.
        3    1    3    3  502    0 -0.12404246247E+04 -0.10929982520E+04 -0.72474377918E+03  0.18051459730E+04  0.10100000352E+00 0. -1.
       -3    1    3    3    0  502  0.12404246247E+04  0.10929982520E+04  0.91544212971E+03  0.18897970080E+04  0.10100000352E+00 0.  1.
</event>
<event>
 5   0  0.5177000E-08  0.3712249E+04  0.7818609E-02  0.8065253E-01
       -1   -1    0    0    0  501  0.00000000000E+00  0.00000000000E+00  0.11266722656E+04  0.11266722657E+04  0.50400001928E-02 0. -1.
        1   -1    0    0  501    0  0.00000000000E+00  0.00000000000E+00 -0.30578523495E+04  0.30578523495E+04  0.50400001928E-02 0.  1.
    10030    2    1    2    0    0  0.00000000000E+00  0.00000000000E+00 -0.19311800839E+04  0.41845246152E+04  0.37122486095E+04 0.  0.
        3    1    3    3  502    0  0.77179068160E+02 -0.14652447318E+04 -0.22470071739E+04  0.26836430430E+04  0.10100000352E+00 0.  1.
       -3    1    3    3    0  502 -0.77179068160E+02  0.14652447318E+04  0.31582709003E+03  0.15008815721E+04  0.10100000352E+00 0. -1.
</event>
<event>
 5   0  0.5177000E-08  0.3691025E+04  0.7818609E-02  0.8069954E-01
        1   -1    0    0  501    0  0.00000000000E+00  0.00000000000E+00  0.14998151679E+04  0.14998151680E+04  0.50400001928E-02 0.  1.
       -1   -1    0    0    0  501  0.00000000000E+00  0.00000000000E+00 -0.22708907909E+04  0.22708907909E+04  0.50400001928E-02 0. -1.
    10030    2    1    2    0    0  0.00000000000E+00  0.00000000000E+00 -0.77107562293E+03  0.37707059588E+04  0.36910250354E+04 0.  0.
        2    1    3    3  502    0 -0.25627723413E+03  0.18269384828E+04 -0.33411010341E+03  0.18748364734E+04  0.25500000920E-02 0. -1.
       -2    1    3    3    0  502  0.25627723413E+03 -0.18269384828E+04 -0.43696551952E+03  0.18958694855E+04  0.25500000920E-02 0.  1.
</event>
<event>
 5   0  0.1658770E-07  0.3697035E+04  0.7818609E-02  0.8068619E-01
       -2   -1    0    0    0  501  0.00000000000E+00  0.00000000000E+00  0.17675472188E+04  0.17675472188E+04  0.25500000920E-02 0.  1.
        2   -1    0    0  501    0  0.00000000000E+00  0.00000000000E+00 -0.19331968218E+04  0.19331968218E+04  0.25500000920E-02 0. -1.
    10030    2    1    2    0    0  0.00000000000E+00  0.00000000000E+00 -0.16564960304E+03  0.37007440407E+04  0.36970348475E+04 0.  0.
        2    1    3    3  502    0  0.46251482636E+03 -0.55543883218E+03 -0.17858795646E+04  0.19266027303E+04  0.25500000920E-02 0. -1.
       -2    1    3    3    0  502 -0.46251482636E+03  0.55543883218E+03  0.16202299616E+04  0.17741413104E+04  0.25500000920E-02 0.  1.
</event>
<event>
 5   0  0.1658770E-07  0.3698651E+04  0.7818609E-02  0.8068261E-01
        2   -1    0    0  501    0  0.00000000000E+00  0.00000000000E+00  0.21453137779E+04  0.21453137779E+04  0.25500000920E-02 0.  1.
       -2   -1    0    0    0  501  0.00000000000E+00  0.00000000000E+00 -0.15941748724E+04  0.15941748724E+04  0.25500000920E-02 0. -1.
    10030    2    1    2    0    0  0.00000000000E+00  0.00000000000E+00  0.55113890550E+03  0.37394886503E+04  0.36986512775E+04 0.  0.
        2    1    3    3  502    0  0.82999847691E+03  0.16521867616E+04  0.31321972461E+03  0.18752933538E+04  0.25500000920E-02 0.  1.
       -2    1    3    3    0  502 -0.82999847691E+03 -0.16521867616E+04  0.23791918089E+03  0.18641952965E+04  0.25500000920E-02 0. -1.
</event>
<event>
 5   0  0.1666189E-07  0.3687605E+04  0.7818609E-02  0.8070714E-01
        2   -1    0    0  501    0  0.00000000000E+00  0.00000000000E+00  0.22917671805E+04  0.22917671805E+04  0.25500000920E-02 0.  1.
       -2   -1    0    0    0  501  0.00000000000E+00  0.00000000000E+00 -0.14834000976E+04  0.14834000976E+04  0.25500000920E-02 0. -1.
    10030    2    1    2    0    0  0.00000000000E+00  0.00000000000E+00  0.80836708294E+03  0.37751672781E+04  0.36876050001E+04 0.  0.
        4    1    3    3  502    0 -0.62945971393E+03 -0.10408800017E+04 -0.10143426791E+04  0.15838381839E+04  0.12699999809E+01 0. -1.
       -4    1    3    3    0  502  0.62945971393E+03  0.10408800017E+04  0.18227097620E+04  0.21913290941E+04  0.12699999809E+01 0.  1.
</event>
<event>
 5   0  0.1558258E-07  0.3597429E+04  0.7818609E-02  0.8091081E-01
        2   -1    0    0  501    0  0.00000000000E+00  0.00000000000E+00  0.24947433178E+04  0.24947433178E+04  0.25500000920E-02 0. -1.
       -2   -1    0    0    0  501  0.00000000000E+00  0.00000000000E+00 -0.12968760984E+04  0.12968760984E+04  0.25500000920E-02 0.  1.
    10030    2    1    2    0    0  0.00000000000E+00  0.00000000000E+00  0.11978672194E+04  0.37916194162E+04  0.35974285152E+04 0.  0.
        1    1    3    3  502    0  0.89139437199E+03 -0.13300965870E+04  0.14627039664E+04  0.21686963251E+04  0.50400001928E-02 0. -1.
       -1    1    3    3    0  502 -0.89139437199E+03  0.13300965870E+04 -0.26483674697E+03  0.16229230911E+04  0.50400001928E-02 0.  1.
</event>
<event>
 5   0  0.5177000E-08  0.3700274E+04  0.7818609E-02  0.8067901E-01
       -4   -1    0    0    0  501  0.00000000000E+00  0.00000000000E+00  0.13702627762E+04  0.13702633647E+04  0.12699999809E+01 0.  1.
        4   -1    0    0  501    0  0.00000000000E+00  0.00000000000E+00 -0.24980647955E+04  0.24980651184E+04  0.12699999809E+01 0. -1.
    10030    2    1    2    0    0  0.00000000000E+00  0.00000000000E+00 -0.11278020194E+04  0.38683284831E+04  0.37002740248E+04 0.  0.
        2    1    3    3  502    0 -0.57905498836E+02 -0.11122802696E+04 -0.21083203924E+04  0.23844360595E+04  0.25500000920E-02 0. -1.
       -2    1    3    3    0  502  0.57905498836E+02  0.11122802696E+04  0.98051837305E+03  0.14838924236E+04  0.25500000920E-02 0.  1.
</event>
<event>
 5   0  0.1666189E-07  0.3697890E+04  0.7818609E-02  0.8068430E-01
        2   -1    0    0  501    0  0.00000000000E+00  0.00000000000E+00  0.11562527581E+04  0.11562527581E+04  0.25500000920E-02 0. -1.
       -2   -1    0    0    0  501  0.00000000000E+00  0.00000000000E+00 -0.29566176307E+04  0.29566176307E+04  0.25500000920E-02 0.  1.
    10030    2    1    2    0    0  0.00000000000E+00  0.00000000000E+00 -0.18003648725E+04  0.41128703888E+04  0.36978898254E+04 0.  0.
        4    1    3    3  502    0 -0.19015498463E+03 -0.58317295897E+03 -0.28401539912E+04  0.29056369224E+04  0.12699999809E+01 0.  1.
       -4    1    3    3    0  502  0.19015498463E+03  0.58317295897E+03  0.10397891186E+04  0.12072334664E+04  0.12699999809E+01 0. -1.
</event>
<event>
 5   0  0.1558258E-07  0.3678126E+04  0.7818609E-02  0.8072827E-01
        2   -1    0    0  501    0  0.00000000000E+00  0.00000000000E+00  0.22906422340E+04  0.22906422340E+04  0.25500000920E-02 0.  1.
       -2   -1    0    0    0  501  0.00000000000E+00  0.00000000000E+00 -0.14765083679E+04  0.14765083680E+04  0.25500000920E-02 0. -1.
    10030    2    1    2    0    0  0.00000000000E+00  0.00000000000E+00  0.81413386609E+03  0.37671506020E+04  0.36781258415E+04 0.  0.
        1    1    3    3  502    0 -0.81441089683E+03  0.14991074366E+04 -0.29625930197E+03  0.17315766773E+04  0.50400001928E-02 0. -1.
       -1    1    3    3    0  502  0.81441089683E+03 -0.14991074366E+04  0.11103931681E+04  0.20355739247E+04  0.50400001928E-02 0.  1.
</event>
<event>
 5   0  0.5177000E-08  0.3674922E+04  0.7818609E-02  0.8073542E-01
        1   -1    0    0  501    0  0.00000000000E+00  0.00000000000E+00  0.98795733989E+03  0.98795733990E+03  0.50400001928E-02 0.  1.
       -1   -1    0    0    0  501  0.00000000000E+00  0.00000000000E+00 -0.34174181558E+04  0.34174181558E+04  0.50400001928E-02 0. -1.
    10030    2    1    2    0    0  0.00000000000E+00  0.00000000000E+00 -0.24294608159E+04  0.44053754957E+04  0.36749222307E+04 0.  0.
        3    1    3    3  502    0  0.67513153691E+03  0.69124606234E+03 -0.30882769159E+04  0.32359045150E+04  0.10100000352E+00 0. -1.
       -3    1    3    3    0  502 -0.67513153691E+03 -0.69124606234E+03  0.65881610000E+03  0.11694709807E+04  0.10100000352E+00 0.  1.
</event>
<event>
 5   0  0.1686284E-07  0.3709415E+04  0.7818609E-02  0.8065879E-01
        2   -1    0    0  501    0  0.00000000000E+00  0.00000000000E+00  0.14143559664E+04  0.14143559664E+04  0.25500000920E-02 0.  1.
       -2   -1    0    0    0  501  0.00000000000E+00  0.00000000000E+00 -0.24321598473E+04  0.24321598473E+04  0.25500000920E-02 0. -1.
    10030    2    1    2    0    0  0.00000000000E+00  0.00000000000E+00 -0.10178038810E+04  0.38465158137E+04  0.37094149356E+04 0.  0.
        5    1    3    3  502    0  0.19944975836E+03  0.15560666814E+04  0.51700448608E+03  0.16517988532E+04  0.46999998093E+01 0.  1.
       -5    1    3    3    0  502 -0.19944975836E+03 -0.15560666814E+04 -0.15348083670E+04  0.21947169604E+04  0.46999998093E+01 0. -1.
</event>
<event>
 5   0  0.5177000E-08  0.3708463E+04  0.7818609E-02  0.8066089E-01
       -1   -1    0    0    0  501  0.00000000000E+00  0.00000000000E+00  0.12177428828E+04  0.12177428828E+04  0.50400001928E-02 0.  1.
        1   -1    0    0  501    0  0.00000000000E+00  0.00000000000E+00 -0.28233993279E+04  0.28233993279E+04  0.50400001928E-02 0. -1.
    10030    2    1    2    0    0  0.00000000000E+00  0.00000000000E+00 -0.16056564452E+04  0.40411422107E+04  0.37084629899E+04 0.  0.
        4    1    3    3  502    0  0.16612267953E+04  0.44516728655E+03 -0.47601184871E+02  0.17204987254E+04  0.12699999809E+01 0. -1.
       -4    1    3    3    0  502 -0.16612267953E+04 -0.44516728655E+03 -0.15580552603E+04  0.23206434852E+04  0.12699999809E+01 0.  1.
</event>
<event>
 5   0  0.1558258E-07  0.3696080E+04  0.7818609E-02  0.8068831E-01
        2   -1    0    0  501    0  0.00000000000E+00  0.00000000000E+00  0.16766096066E+04  0.16766096066E+04  0.25500000920E-02 0. -1.
       -2   -1    0    0    0  501  0.00000000000E+00  0.00000000000E+00 -0.20369989584E+04  0.20369989584E+04  0.25500000920E-02 0.  1.
    10030    2    1    2    0    0  0.00000000000E+00  0.00000000000E+00 -0.36038935184E+03  0.37136085650E+04  0.36960800978E+04 0.  0.
        1    1    3    3  502    0  0.10008423408E+04 -0.10499161038E+04 -0.13307203376E+04  0.19684577296E+04  0.50400001928E-02 0.  1.
       -1    1    3    3    0  502 -0.10008423408E+04  0.10499161038E+04  0.97033098577E+03  0.17451508354E+04  0.50400001928E-02 0. -1.
</event>
<event>
 5   0  0.1658770E-07  0.3682101E+04  0.7818609E-02  0.8071940E-01
        2   -1    0    0  501    0  0.00000000000E+00  0.00000000000E+00  0.23347153817E+04  0.23347153817E+04  0.25500000920E-02 0. -1.
       -2   -1    0    0    0  501  0.00000000000E+00  0.00000000000E+00 -0.14517691539E+04  0.14517691539E+04  0.25500000920E-02 0.  1.
    10030    2    1    2    0    0  0.00000000000E+00  0.00000000000E+00  0.88294622787E+03  0.37864845356E+04  0.36821014512E+04 0.  0.
        2    1    3    3  502    0  0.71774524793E+03 -0.63722469917E+03  0.20570788297E+04  0.22699750813E+04  0.25500000920E-02 0. -1.
       -2    1    3    3    0  502 -0.71774524793E+03  0.63722469917E+03 -0.11741326018E+04  0.15165094543E+04  0.25500000920E-02 0.  1.
</event>
<event>
 5   0  0.5181371E-08  0.3709713E+04  0.7818609E-02  0.8065813E-01
       -1   -1    0    0    0  501  0.00000000000E+00  0.00000000000E+00  0.11080508177E+04  0.11080508177E+04  0.50400001928E-02 0. -1.
        1   -1    0    0  501    0  0.00000000000E+00  0.00000000000E+00 -0.31049959501E+04  0.31049959501E+04  0.50400001928E-02 0.  1.
    10030    2    1    2    0    0  0.00000000000E+00  0.00000000000E+00 -0.19969451324E+04  0.42130467678E+04  0.37097133590E+04 0.  0.
        5    1    3    3  502    0  0.16589704755E+04  0.64800456329E+03 -0.15868142129E+04  0.23853918732E+04  0.46999998093E+01 0.  1.
       -5    1    3    3    0  502 -0.16589704755E+04 -0.64800456329E+03 -0.41013091948E+03  0.18276548946E+04  0.46999998093E+01 0. -1.
</event>
<event>
 5   0  0.1666189E-07  0.3688771E+04  0.7818609E-02  0.8070455E-01
        2   -1    0    0  501    0  0.00000000000E+00  0.00000000000E+00  0.26978942291E+04  0.26978942291E+04  0.25500000920E-02 0.  1.
       -2   -1    0    0    0  501  0.00000000000E+00  0.00000000000E+00 -0.12608934434E+04  0.12608934434E+04  0.25500000920E-02 0. -1.
    10030    2    1    2    0    0  0.00000000000E+00  0.00000000000E+00  0.14370007856E+04  0.39587876725E+04  0.36887706052E+04 0.  0.
        4    1    3    3  502    0  0.48376681259E+03  0.17794673871E+04  0.75600133008E+03  0.19930063057E+04  0.12699999809E+01 0.  1.
       -4    1    3    3    0  502 -0.48376681259E+03 -0.17794673871E+04  0.68099945556E+03  0.19657813668E+04  0.12699999809E+01 0. -1.
</event>
<event>
 5   0  0.1686284E-07  0.3692483E+04  0.7818609E-02  0.8069630E-01
        2   -1    0    0  501    0  0.00000000000E+00  0.00000000000E+00  0.14836595908E+04  0.14836595908E+04  0.25500000920E-02 0.  1.
       -2   -1    0    0    0  501  0.00000000000E+00  0.00000000000E+00 -0.22974323991E+04  0.22974323991E+04  0.25500000920E-02 0. -1.
    10030    2    1    2    0    0  0.00000000000E+00  0.00000000000E+00 -0.81377280830E+03  0.37810919899E+04  0.36924829658E+04 0.  0.
        5    1    3    3  502    0  0.48183745392E+02 -0.18127288121E+04 -0.76202022090E+03  0.19669784764E+04  0.46999998093E+01 0. -1.
       -5    1    3    3    0  502 -0.48183745392E+02  0.18127288121E+04 -0.51752587399E+02  0.18141135135E+04  0.46999998093E+01 0.  1.
</event>
<event>
 5   0  0.5177000E-08  0.3733652E+04  0.7818609E-02  0.8060545E-01
       -1   -1    0    0    0  501  0.00000000000E+00  0.00000000000E+00  0.29297772714E+04  0.29297772714E+04  0.50400001928E-02 0.  1.
        1   -1    0    0  501    0  0.00000000000E+00  0.00000000000E+00 -0.11895235950E+04  0.11895235950E+04  0.50400001928E-02 0. -1.
    10030    2    1    2    0    0  0.00000000000E+00  0.00000000000E+00  0.17402536764E+04  0.41193008665E+04  0.37336519348E+04 0.  0.
        4    1    3    3  502    0 -0.39482959775E+03  0.90189723571E+03 -0.87980677408E+03  0.13203676032E+04  0.12699999809E+01 0. -1.
       -4    1    3    3    0  502  0.39482959775E+03 -0.90189723571E+03  0.26200604505E+04  0.27989332632E+04  0.12699999809E+01 0.  1.
</event>
<event>
 5   0  0.1558258E-07  0.3689607E+04  0.7818609E-02  0.8070269E-01
       -2   -1    0    0    0  501  0.00000000000E+00  0.00000000000E+00  0.18542440962E+04  0.18542440962E+04  0.25500000920E-02 0.  1.
        2   -1    0    0  501    0  0.00000000000E+00  0.00000000000E+00 -0.18354111679E+04  0.18354111679E+04  0.25500000920E-02 0. -1.
    10030    2    1    2    0    0  0.00000000000E+00  0.00000000000E+00  0.18832928283E+02  0.36896552640E+04  0.36896071997E+04 0.  0.
        1    1    3    3  502    0 -0.13692721300E+03 -0.16559503251E+04 -0.79207995985E+03  0.18407365927E+04  0.50400001928E-02 0.  1.
       -1    1    3    3    0  502  0.13692721300E+03  0.16559503251E+04  0.81091288813E+03  0.18489186713E+04  0.50400001928E-02 0. -1.
</event>
<event>
 5   0  0.5177000E-08  0.3679800E+04  0.7818609E-02  0.8072453E-01
        3   -1    0    0  501    0  0.00000000000E+00  0.00000000000E+00  0.20107139421E+04  0.20107139446E+04  0.10100000352E+00 0.  1.
       -3   -1    0    0    0  501  0.00000000000E+00  0.00000000000E+00 -0.16835966542E+04  0.16835966572E+04  0.10100000352E+00 0. -1.
    10030    2    1    2    0    0  0.00000000000E+00  0.00000000000E+00  0.32711728794E+03  0.36943106018E+04  0.36797996009E+04 0.  0.
        4    1    3    3  502    0  0.24562557769E+03 -0.17992651935E+04  0.46060122871E+03  0.18734573029E+04  0.12699999809E+01 0. -1.
       -4    1    3    3    0  502 -0.24562557769E+03  0.17992651935E+04 -0.13348394077E+03  0.18208532990E+04  0.12699999809E+01 0.  1.
</event>
<event>
 5   0  0.5177000E-08  0.3703171E+04  0.7818609E-02  0.8067260E-01
        1   -1    0    0  501    0  0.00000000000E+00  0.00000000000E+00  0.29235277156E+04  0.29235277156E+04  0.50400001928E-02 0. -1.
       -1   -1    0    0    0  501  0.00000000000E+00  0.00000000000E+00 -0.11726818974E+04  0.11726818974E+04  0.50400001928E-02 0.  1.
    10030    2    1    2    0    0  0.00000000000E+00  0.00000000000E+00  0.17508458182E+04  0.40962096130E+04  0.37031705489E+04 0.  0.
        3    1    3    3  502    0 -0.14122384996E+03  0.46157940930E+03 -0.11018604858E+04  0.12029531442E+04  0.10100000352E+00 0.  1.
       -3    1    3    3    0  502  0.14122384996E+03 -0.46157940930E+03  0.28527063040E+04  0.28932564687E+04  0.10100000352E+00 0. -1.
</event>
<event>
 5   0  0.5177000E-08  0.3701191E+04  0.7818609E-02  0.8067698E-01
        1   -1    0    0  501    0  0.00000000000E+00  0.00000000000E+00  0.18708821886E+04  0.18708821886E+04  0.50400001928E-02 0. -1.
       -1   -1    0    0    0  501  0.00000000000E+00  0.00000000000E+00 -0.18305285773E+04  0.18305285773E+04  0.50400001928E-02 0.  1.
    10030    2    1    2    0    0  0.00000000000E+00  0.00000000000E+00  0.40353611270E+02  0.37014107659E+04  0.37011907873E+04 0.  0.
        3    1    3    3  502    0  0.10274389814E+04  0.10630616006E+04  0.11333343657E+04  0.18628412766E+04  0.10100000352E+00 0. -1.
       -3    1    3    3    0  502 -0.10274389814E+04 -0.10630616006E+04 -0.10929807544E+04  0.18385694893E+04  0.10100000352E+00 0.  1.
</event>
<event>
 5   0  0.5177000E-08  0.3681199E+04  0.7818609E-02  0.8072141E-01
        1   -1    0    0  501    0  0.00000000000E+00  0.00000000000E+00  0.18934662116E+04  0.18934662116E+04  0.50400001928E-02 0.  1.
       -1   -1    0    0    0  501  0.00000000000E+00  0.00000000000E+00 -0.17892089896E+04  0.17892089896E+04  0.50400001928E-02 0. -1.
    10030    2    1    2    0    0  0.00000000000E+00  0.00000000000E+00  0.10425722209E+03  0.36826752012E+04  0.36811991347E+04 0.  0.
        1    1    3    3  502    0 -0.58761926249E+03  0.37062430824E+01 -0.16928461879E+04  0.17919370385E+04  0.50400001928E-02 0. -1.
       -1    1    3    3    0  502  0.58761926249E+03 -0.37062430824E+01  0.17971034100E+04  0.18907381628E+04  0.50400001928E-02 0.  1.
</event>
<event>
 5   0  0.1587026E-07  0.3696276E+04  0.7818609E-02  0.8068788E-01
       -2   -1    0    0    0  501  0.00000000000E+00  0.00000000000E+00  0.14612074570E+04  0.14612074570E+04  0.25500000920E-02 0. -1.
        2   -1    0    0  501    0  0.00000000000E+00  0.00000000000E+00 -0.23375284394E+04  0.23375284394E+04  0.25500000920E-02 0.  1.
    10030    2    1    2    0    0  0.00000000000E+00  0.00000000000E+00 -0.87632098245E+03  0.37987358964E+04  0.36962759565E+04 0.  0.
        3    1    3    3  502    0  0.53942083801E+03  0.55581490621E+03  0.12863609253E+04  0.15015423706E+04  0.10100000352E+00 0. -1.
       -3    1    3    3    0  502 -0.53942083801E+03 -0.55581490621E+03 -0.21626819078E+04  0.22971935258E+04  0.10100000352E+00 0.  1.
</event>
<event>
 5   0  0.1587026E-07  0.3700114E+04  0.7818609E-02  0.8067937E-01
        2   -1    0    0  501    0  0.00000000000E+00  0.00000000000E+00  0.15329791831E+04  0.15329791831E+04  0.25500000920E-02 0. -1.
       -2   -1    0    0    0  501  0.00000000000E+00  0.00000000000E+00 -0.22327183374E+04  0.22327183374E+04  0.25500000920E-02 0.  1.
    10030    2    1    2    0    0  0.00000000000E+00  0.00000000000E+00 -0.69973915424E+03  0.37656975205E+04  0.37001139080E+04 0.  0.
        3    1    3    3  502    0  0.13921105759E+04 -0.98260217542E+03 -0.10832190652E+04  0.20191192248E+04  0.10100000352E+00 0.  1.
       -3    1    3    3    0  502 -0.13921105759E+04  0.98260217542E+03  0.38347991098E+03  0.17465782957E+04  0.10100000352E+00 0. -1.
</event>
<event>
 5   0  0.1686284E-07  0.3699077E+04  0.7818609E-02  0.8068166E-01
       -2   -1    0    0    0  501  0.00000000000E+00  0.00000000000E+00  0.12172488291E+04  0.12172488291E+04  0.25500000920E-02 0. -1.
        2   -1    0    0  501    0  0.00000000000E+00  0.00000000000E+00 -0.28102661234E+04  0.28102661234E+04  0.25500000920E-02 0.  1.
    10030    2    1    2    0    0  0.00000000000E+00  0.00000000000E+00 -0.15930172942E+04  0.40275149525E+04  0.36990772624E+04 0.  0.
        5    1    3    3  502    0 -0.41420753852E+03 -0.17696637412E+04 -0.11697162864E+04  0.21613736194E+04  0.46999998093E+01 0.  1.
       -5    1    3    3    0  502  0.41420753852E+03  0.17696637412E+04 -0.42330100779E+03  0.18661413331E+04  0.46999998093E+01 0. -1.
</event>
<event>
 5   0  0.5177000E-08  0.3705931E+04  0.7818609E-02  0.8066649E-01
        1   -1    0    0  501    0  0.00000000000E+00  0.00000000000E+00  0.21923426785E+04  0.21923426785E+04  0.50400001928E-02 0.  1.
       -1   -1    0    0    0  501  0.00000000000E+00  0.00000000000E+00 -0.15661241911E+04  0.15661241911E+04  0.50400001928E-02 0. -1.
    10030    2    1    2    0    0  0.00000000000E+00  0.00000000000E+00  0.62621848743E+03  0.37584668695E+04  0.37059308703E+04 0.  0.
        2    1    3    3  502    0 -0.99144481324E+03  0.24310084983E+03 -0.12552348284E+04  0.16179231488E+04  0.25500000920E-02 0. -1.
       -2    1    3    3    0  502  0.99144481324E+03 -0.24310084983E+03  0.18814533158E+04  0.21405437208E+04  0.25500000920E-02 0.  1.
</event>
<event>
 5   0  0.5177000E-08  0.3687065E+04  0.7818609E-02  0.8070834E-01
       -1   -1    0    0    0  501  0.00000000000E+00  0.00000000000E+00  0.13070721049E+04  0.13070721049E+04  0.50400001928E-02 0. -1.
        1   -1    0    0  501    0  0.00000000000E+00  0.00000000000E+00 -0.26001719263E+04  0.26001719263E+04  0.50400001928E-02 0.  1.
    10030    2    1    2    0    0  0.00000000000E+00  0.00000000000E+00 -0.12930998214E+04  0.39072440312E+04  0.36870650619E+04 0.  0.
        4    1    3    3  502    0  0.43941484091E+03  0.43819343575E+03  0.11930618419E+04  0.13448037258E+04  0.12699999809E+01 0. -1.
       -4    1    3    3    0  502 -0.43941484091E+03 -0.43819343575E+03 -0.24861616633E+04  0.25624403054E+04  0.12699999809E+01 0.  1.
</event>
<event>
 5   0  0.1658770E-07  0.3715162E+04  0.7818609E-02  0.8064610E-01
        2   -1    0    0  501    0  0.00000000000E+00  0.00000000000E+00  0.20338331490E+04  0.20338331490E+04  0.25500000920E-02 0.  1.
       -2   -1    0    0    0  501  0.00000000000E+00  0.00000000000E+00 -0.16966024550E+04  0.16966024550E+04  0.25500000920E-02 0. -1.
    10030    2    1    2    0    0  0.00000000000E+00  0.00000000000E+00  0.33723069405E+03  0.37304356040E+04  0.37151615382E+04 0.  0.
        2    1    3    3  502    0  0.77997883714E+03  0.58227041718E+03 -0.14200399053E+04  0.17216036587E+04  0.25500000920E-02 0. -1.
       -2    1    3    3    0  502 -0.77997883714E+03 -0.58227041718E+03  0.17572705993E+04  0.20088319453E+04  0.25500000920E-02 0.  1.
</event>
<event>
 5   0  0.1587026E-07  0.3726437E+04  0.7818609E-02  0.8062128E-01
        2   -1    0    0  501    0  0.00000000000E+00  0.00000000000E+00  0.28644854944E+04  0.28644854944E+04  0.25500000920E-02 0.  1.
       -2   -1    0    0    0  501  0.00000000000E+00  0.00000000000E+00 -0.12119392242E+04  0.12119392242E+04  0.25500000920E-02 0. -1.
    10030    2    1    2    0    0  0.00000000000E+00  0.00000000000E+00  0.16525462702E+04  0.40764247186E+04  0.37264365432E+04 0.  0.
        3    1    3    3  502    0 -0.19915314831E+03 -0.18256549630E+04  0.48224554236E+03  0.18987466376E+04  0.10100000352E+00 0. -1.
       -3    1    3    3    0  502  0.19915314831E+03  0.18256549630E+04  0.11703007279E+04  0.21776780810E+04  0.10100000352E+00 0.  1.
</event>
<event>
 5   0  0.5177000E-08  0.3688506E+04  0.7818609E-02  0.8070514E-01
       -1   -1    0    0    0  501  0.00000000000E+00  0.00000000000E+00  0.18056113901E+04  0.18056113901E+04  0.50400001928E-02 0.  1.
        1   -1    0    0  501    0  0.00000000000E+00  0.00000000000E+00 -0.18837219349E+04  0.18837219350E+04  0.50400001928E-02 0. -1.
    10030    2    1    2    0    0  0.00000000000E+00  0.00000000000E+00 -0.78110544827E+02  0.36893333251E+04  0.36885063544E+04 0.  0.
        1    1    3    3  502    0 -0.43002114185E+03 -0.92480951119E+03  0.14978695154E+04  0.18121268994E+04  0.50400001928E-02 0.  1.
       -1    1    3    3    0  502  0.43002114185E+03  0.92480951119E+03 -0.15759800602E+04  0.18772064257E+04  0.50400001928E-02 0. -1.
</event>
<event>
 5   0  0.1686284E-07  0.3710085E+04  0.7818609E-02  0.8065731E-01
       -2   -1    0    0    0  501  0.00000000000E+00  0.00000000000E+00  0.17834350967E+04  0.17834350967E+04  0.25500000920E-02 0. -1.
        2   -1    0    0  501    0  0.00000000000E+00  0.00000000000E+00 -0.19295247898E+04  0.19295247898E+04  0.25500000920E-02 0.  1.
    10030    2    1    2    0    0  0.00000000000E+00  0.00000000000E+00 -0.14608969311E+03  0.37129598865E+04  0.37100847592E+04 0.  0.
        5    1    3    3  502    0 -0.33451586244E+03 -0.39476440756E+03  0.17097453053E+04  0.17863344868E+04  0.46999998093E+01 0. -1.
       -5    1    3    3    0  502  0.33451586244E+03  0.39476440756E+03 -0.18558349984E+04  0.19266253998E+04  0.46999998093E+01 0.  1.
</event>
<event>
 5   0  0.5177000E-08  0.3731593E+04  0.7818609E-02  0.8060996E-01
       -1   -1    0    0    0  501  0.00000000000E+00  0.00000000000E+00  0.17811861757E+04  0.17811861757E+04  0.50400001928E-02 0.  1.
        1   -1    0    0  501    0  0.00000000000E+00  0.00000000000E+00 -0.19544258926E+04  0.19544258926E+04  0.50400001928E-02 0. -1.
    10030    2    1    2    0    0  0.00000000000E+00  0.00000000000E+00 -0.17323971690E+03  0.37356120682E+04  0.37315928938E+04 0.  0.
        4    1    3    3  502    0  0.18478620898E+04  0.25388570361E+03 -0.13295702029E+03  0.18699549288E+04  0.12699999809E+01 0.  1.
       -4    1    3    3    0  502 -0.18478620898E+04 -0.25388570361E+03 -0.40282696609E+02  0.18656571395E+04  0.12699999809E+01 0. -1.
</event>
<event>
 5   0  0.5181371E-08  0.3719129E+04  0.7818609E-02  0.8063736E-01
        1   -1    0    0  501    0  0.00000000000E+00  0.00000000000E+00  0.19585506512E+04  0.19585506512E+04  0.50400001928E-02 0.  1.
       -1   -1    0    0    0  501  0.00000000000E+00  0.00000000000E+00 -0.17655808518E+04  0.17655808518E+04  0.50400001928E-02 0. -1.
    10030    2    1    2    0    0  0.00000000000E+00  0.00000000000E+00  0.19296979941E+03  0.37241315030E+04  0.37191286760E+04 0.  0.
        5    1    3    3  502    0  0.15993539887E+04  0.61329197750E+02  0.10444700490E+04  0.19111866013E+04  0.46999998093E+01 0.  1.
       -5    1    3    3    0  502 -0.15993539887E+04 -0.61329197750E+02 -0.85150024958E+03  0.18129449017E+04  0.46999998093E+01 0. -1.
</event>
<event>
 5   0  0.1658770E-07  0.3696756E+04  0.7818609E-02  0.8068681E-01
       -2   -1    0    0    0  501  0.00000000000E+00  0.00000000000E+00  0.13353611546E+04  0.13353611546E+04  0.25500000920E-02 0. -1.
        2   -1    0    0  501    0  0.00000000000E+00  0.00000000000E+00 -0.25584841753E+04  0.25584841753E+04  0.25500000920E-02 0.  1.
    10030    2    1    2    0    0  0.00000000000E+00  0.00000000000E+00 -0.12231230206E+04  0.38938453299E+04  0.36967555410E+04 0.  0.
        2    1    3    3  502    0 -0.12589278086E+04 -0.32614897139E+02  0.81354482305E+03  0.14992725362E+04  0.25500000920E-02 0. -1.
       -2    1    3    3    0  502  0.12589278086E+04  0.32614897139E+02 -0.20366678437E+04  0.23945727937E+04  0.25500000920E-02 0.  1.
</event>
<event>
 5   0  0.5177000E-08  0.3710423E+04  0.7818609E-02  0.8065656E-01
        1   -1    0    0  501    0  0.00000000000E+00  0.00000000000E+00  0.15990942216E+04  0.15990942216E+04  0.50400001928E-02 0.  1.
       -1   -1    0    0    0  501  0.00000000000E+00  0.00000000000E+00 -0.21523493891E+04  0.21523493891E+04  0.50400001928E-02 0. -1.
    10030    2    1    2    0    0  0.00000000000E+00  0.00000000000E+00 -0.55325516752E+03  0.37514436107E+04  0.37104228713E+04 0.  0.
        1    1    3    3  502    0  0.13430500357E+04  0.67440782538E+03  0.82314812730E+03  0.17135291514E+04  0.50400001928E-02 0.  1.
       -1    1    3    3    0  502 -0.13430500357E+04 -0.67440782538E+03 -0.13764032948E+04  0.20379144593E+04  0.50400001928E-02 0. -1.
</event>
<event>
 5   0  0.5177000E-08  0.3694574E+04  0.7818609E-02  0.8069165E-01
        1   -1    0    0  501    0  0.00000000000E+00  0.00000000000E+00  0.12533376938E+04  0.12533376938E+04  0.50400001928E-02 0. -1.
       -1   -1    0    0    0  501  0.00000000000E+00  0.00000000000E+00 -0.27227058642E+04  0.27227058642E+04  0.50400001928E-02 0.  1.
    10030    2    1    2    0    0  0.00000000000E+00  0.00000000000E+00 -0.14693681704E+04  0.39760435581E+04  0.36945743402E+04 0.  0.
        2    1    3    3  502    0  0.14675287616E+04  0.27384393039E+03  0.43625147396E+03  0.15552962782E+04  0.25500000920E-02 0. -1.
       -2    1    3    3    0  502 -0.14675287616E+04 -0.27384393039E+03 -0.19056196443E+04  0.24207472799E+04  0.25500000920E-02 0.  1.
</event>
<event>
 5   0  0.1686284E-07  0.3702343E+04  0.7818609E-02  0.8067443E-01
        2   -1    0    0  501    0  0.00000000000E+00  0.00000000000E+00  0.14825179105E+04  0.14825179105E+04  0.25500000920E-02 0. -1.
       -2   -1    0    0    0  501  0.00000000000E+00  0.00000000000E+00 -0.23114970536E+04  0.23114970536E+04  0.25500000920E-02 0.  1.
    10030    2    1    2    0    0  0.00000000000E+00  0.00000000000E+00 -0.82897914306E+03  0.37940149641E+04  0.37023429242E+04 0.  0.
        5    1    3    3  502    0  0.82173811301E+03  0.80438905961E+03  0.10721262877E+04  0.15721870602E+04  0.46999998093E+01 0. -1.
       -5    1    3    3    0  502 -0.82173811301E+03 -0.80438905961E+03 -0.19011054308E+04  0.22218279039E+04  0.46999998093E+01 0.  1.
</event>
<event>
 5   0  0.1666189E-07  0.3690669E+04  0.7818609E-02  0.8070033E-01
        2   -1    0    0  501    0  0.00000000000E+00  0.00000000000E+00  0.12987199710E+04  0.12987199710E+04  0.25500000920E-02 0.  1.
       -2   -1    0    0    0  501  0.00000000000E+00  0.00000000000E+00 -0.26220116730E+04  0.26220116730E+04  0.25500000920E-02 0. -1.
    10030    2    1    2    0    0  0.00000000000E+00  0.00000000000E+00 -0.13232917020E+04  0.39207316439E+04  0.36906687328E+04 0.  0.
        4    1    3    3  502    0 -0.13964703799E+03  0.34652329490E+03  0.12581219685E+04  0.13124222604E+04  0.12699999809E+01 0.  1.
       -4    1    3    3    0  502  0.13964703799E+03 -0.34652329490E+03 -0.25814136705E+04  0.26083093835E+04  0.12699999809E+01 0. -1.
</event>
<event>
 5   0  0.5177000E-08  0.3615410E+04  0.7818609E-02  0.8086971E-01
        1   -1    0    0  501    0  0.00000000000E+00  0.00000000000E+00  0.19049080261E+04  0.19049080261E+04  0.50400001928E-02 0.  1.
       -1   -1    0    0    0  501  0.00000000000E+00  0.00000000000E+00 -0.17154616059E+04  0.17154616059E+04  0.50400001928E-02 0. -1.
    10030    2    1    2    0    0  0.00000000000E+00  0.00000000000E+00  0.18944642019E+03  0.36203696320E+04  0.36154095655E+04 0.  0.
        2    1    3    3  502    0  0.13848949910E+04 -0.32672497428E+03  0.12112027172E+04  0.18686078687E+04  0.25500000920E-02 0.  1.
       -2    1    3    3    0  502 -0.13848949910E+04  0.32672497428E+03 -0.10217562970E+04  0.17517617633E+04  0.25500000920E-02 0. -1.
</event>
<event>
 5   0  0.5177000E-08  0.3748551E+04  0.7818609E-02  0.8057287E-01
        1   -1    0    0  501    0  0.00000000000E+00  0.00000000000E+00  0.16283085491E+04  0.16283085492E+04  0.50400001928E-02 0.  1.
       -1   -1    0    0    0  501  0.00000000000E+00  0.00000000000E+00 -0.21573970565E+04  0.21573970565E+04  0.50400001928E-02 0. -1.
    10030    2    1    2    0    0  0.00000000000E+00  0.00000000000E+00 -0.52908850735E+03  0.37857056057E+04  0.37485506911E+04 0.  0.
        3    1    3    3  502    0 -0.92555441257E+03  0.11227681562E+04  0.92854110642E+03  0.17261077312E+04  0.10100000352E+00 0.  1.
       -3    1    3    3    0  502  0.92555441257E+03 -0.11227681562E+04 -0.14576296138E+04  0.20595978744E+04  0.10100000352E+00 0. -1.
</event>
<event>
 5   0  0.5177000E-08  0.3699331E+04  0.7818609E-02  0.8068110E-01
       -1   -1    0    0    0  501  0.00000000000E+00  0.00000000000E+00  0.25633456714E+04  0.25633456714E+04  0.50400001928E-02 0.  1.
        1   -1    0    0  501    0  0.00000000000E+00  0.00000000000E+00 -0.13346861799E+04  0.13346861799E+04  0.50400001928E-02 0. -1.
    10030    2    1    2    0    0  0.00000000000E+00  0.00000000000E+00  0.12286594915E+04  0.38980318513E+04  0.36993307729E+04 0.  0.
        2    1    3    3  502    0  0.17479980133E+04  0.59950033417E+03  0.53026792422E+03  0.19225196427E+04  0.25500000920E-02 0. -1.
       -2    1    3    3    0  502 -0.17479980133E+04 -0.59950033417E+03  0.69839156723E+03  0.19755122086E+04  0.25500000920E-02 0.  1.
</event>
<event>
 5   0  0.1587026E-07  0.3710575E+04  0.7818609E-02  0.8065622E-01
        2   -1    0    0  501    0  0.00000000000E+00  0.00000000000E+00  0.15910196952E+04  0.15910196952E+04  0.25500000920E-02 0. -1.
       -2   -1    0    0    0  501  0.00000000000E+00  0.00000000000E+00 -0.21634501539E+04  0.21634501539E+04  0.25500000920E-02 0.  1.
    10030    2    1    2    0    0  0.00000000000E+00  0.00000000000E+00 -0.57243045871E+03  0.37544698491E+04  0.37105750522E+04 0.  0.
        3    1    3    3  502    0 -0.14289284132E+04  0.96281565874E+03 -0.98227857084E+03  0.19833611884E+04  0.10100000352E+00 0.  1.
       -3    1    3    3    0  502  0.14289284132E+04 -0.96281565874E+03  0.40984811213E+03  0.17711086607E+04  0.10100000352E+00 0. -1.
</event>
<event>
 5   0  0.5177000E-08  0.3723836E+04  0.7818609E-02  0.8062700E-01
        3   -1    0    0  501    0  0.00000000000E+00  0.00000000000E+00  0.28810953746E+04  0.28810953764E+04  0.10100000352E+00 0. -1.
       -3   -1    0    0    0  501  0.00000000000E+00  0.00000000000E+00 -0.12032712845E+04  0.12032712887E+04  0.10100000352E+00 0.  1.
    10030    2    1    2    0    0  0.00000000000E+00  0.00000000000E+00  0.16778240901E+04  0.40843666651E+04  0.37238363790E+04 0.  0.
        1    1    3    3  502    0  0.73267040566E+03 -0.16657835461E+04  0.40695747871E+03  0.18647399645E+04  0.50400001928E-02 0.  1.
       -1    1    3    3    0  502 -0.73267040566E+03  0.16657835461E+04  0.12708666114E+04  0.22196267006E+04  0.50400001928E-02 0. -1.
</event>
<event>
 5   0  0.5177000E-08  0.3690171E+04  0.7818609E-02  0.8070144E-01
       -1   -1    0    0    0  501  0.00000000000E+00  0.00000000000E+00  0.20604674961E+04  0.20604674961E+04  0.50400001928E-02 0. -1.
        1   -1    0    0  501    0  0.00000000000E+00  0.00000000000E+00 -0.16522176068E+04  0.16522176068E+04  0.50400001928E-02 0.  1.
    10030    2    1    2    0    0  0.00000000000E+00  0.00000000000E+00  0.40824988938E+03  0.37126851029E+04  0.36901710938E+04 0.  0.
        4    1    3    3  502    0 -0.94188134686E+03 -0.31143162311E+02 -0.13918154534E+04  0.16808516405E+04  0.12699999809E+01 0.  1.
       -4    1    3    3    0  502  0.94188134686E+03  0.31143162311E+02  0.18000653427E+04  0.20318334625E+04  0.12699999809E+01 0. -1.
</event>
<event>
 5   0  0.5177000E-08  0.3693934E+04  0.7818609E-02  0.8069307E-01
        1   -1    0    0  501    0  0.00000000000E+00  0.00000000000E+00  0.11635064808E+04  0.11635064808E+04  0.50400001928E-02 0. -1.
       -1   -1    0    0    0  501  0.00000000000E+00  0.00000000000E+00 -0.29319018854E+04  0.29319018854E+04  0.50400001928E-02 0.  1.
    10030    2    1    2    0    0  0.00000000000E+00  0.00000000000E+00 -0.17683954046E+04  0.40954083661E+04  0.36939338622E+04 0.  0.
        3    1    3    3  502    0 -0.15794464385E+04  0.22480457006E+03 -0.19159888274E+04  0.24932311052E+04  0.10100000352E+00 0.  1.
       -3    1    3    3    0  502  0.15794464385E+04 -0.22480457006E+03  0.14759342281E+03  0.16021772610E+04  0.10100000352E+00 0. -1.
</event>
<event>
 5   0  0.1558258E-07  0.3705103E+04  0.7818609E-02  0.8066832E-01
       -2   -1    0    0    0  501  0.00000000000E+00  0.00000000000E+00  0.21061808380E+04  0.21061808380E+04  0.25500000920E-02 0.  1.
        2   -1    0    0  501    0  0.00000000000E+00  0.00000000000E+00 -0.16294646941E+04  0.16294646941E+04  0.25500000920E-02 0. -1.
    10030    2    1    2    0    0  0.00000000000E+00  0.00000000000E+00  0.47671614396E+03  0.37356455321E+04  0.37051031375E+04 0.  0.
        1    1    3    3  502    0  0.95147189583E+03  0.28579272825E+03 -0.13381718580E+04  0.16666373852E+04  0.50400001928E-02 0. -1.
       -1    1    3    3    0  502 -0.95147189583E+03 -0.28579272825E+03  0.18148880020E+04  0.20690081469E+04  0.50400001928E-02 0.  1.
</event>
<event>
 5   0  0.5177000E-08  0.3699511E+04  0.7818609E-02  0.8068070E-01
       -1   -1    0    0    0  501  0.00000000000E+00  0.00000000000E+00  0.14612077275E+04  0.14612077276E+04  0.50400001928E-02 0.  1.
        1   -1    0    0  501    0  0.00000000000E+00  0.00000000000E+00 -0.23416215837E+04  0.23416215837E+04  0.50400001928E-02 0. -1.
    10030    2    1    2    0    0  0.00000000000E+00  0.00000000000E+00 -0.88041385620E+03  0.38028293113E+04  0.36995110775E+04 0.  0.
        1    1    3    3  502    0  0.73703722933E+03 -0.92142551297E+03  0.10241286874E+04  0.15623982917E+04  0.50400001928E-02 0.  1.
       -1    1    3    3    0  502 -0.73703722933E+03  0.92142551297E+03 -0.19045425436E+04  0.22404310196E+04  0.50400001928E-02 0. -1.
</event>
<event>
 5   0  0.1587026E-07  0.3717144E+04  0.7818609E-02  0.8064173E-01
       -2   -1    0    0    0  501  0.00000000000E+00  0.00000000000E+00  0.22448620735E+04  0.22448620735E+04  0.25500000920E-02 0. -1.
        2   -1    0    0  501    0  0.00000000000E+00  0.00000000000E+00 -0.15387536613E+04  0.15387536613E+04  0.25500000920E-02 0.  1.
    10030    2    1    2    0    0  0.00000000000E+00  0.00000000000E+00  0.70610841214E+03  0.37836157348E+04  0.37171439223E+04 0.  0.
        3    1    3    3  502    0  0.46708564983E+02  0.18386277417E+04  0.62533741561E+03  0.19426220827E+04  0.10100000352E+00 0.  1.
       -3    1    3    3    0  502 -0.46708564983E+02 -0.18386277417E+04  0.80770996530E+02  0.18409936520E+04  0.10100000352E+00 0. -1.
</event>
<event>
 5   0  0.1587026E-07  0.3690173E+04  0.7818609E-02  0.8070143E-01
        2   -1    0    0  501    0  0.00000000000E+00  0.00000000000E+00  0.25344379873E+04  0.25344379873E+04  0.25500000920E-02 0.  1.
       -2   -1    0    0    0  501  0.00000000000E+00  0.00000000000E+00 -0.13432340487E+04  0.13432340487E+04  0.25500000920E-02 0. -1.
    10030    2    1    2    0    0  0.00000000000E+00  0.00000000000E+00  0.11912039385E+04  0.38776720360E+04  0.36901725699E+04 0.  0.
        3    1    3    3  502    0 -0.31204641294E+03  0.13899424754E+04  0.18278000809E+04  0.23173619041E+04  0.10100000352E+00 0.  1.
       -3    1    3    3    0  502  0.31204641294E+03 -0.13899424754E+04 -0.63659614237E+03  0.15603101319E+04  0.10100000352E+00 0. -1.
</event>
<event>
 5   0  0.1666189E-07  0.3692707E+04  0.7818609E-02  0.8069580E-01
       -2   -1    0    0    0  501  0.00000000000E+00  0.00000000000E+00  0.27204494166E+04  0.27204494166E+04  0.25500000920E-02 0.  1.
        2   -1    0    0  501    0  0.00000000000E+00  0.00000000000E+00 -0.12531093768E+04  0.12531093768E+04  0.25500000920E-02 0. -1.
    10030    2    1    2    0    0  0.00000000000E+00  0.00000000000E+00  0.14673400399E+04  0.39735587934E+04  0.36927066891E+04 0.  0.
        4    1    3    3  502    0 -0.94076341537E+03 -0.58196482581E+03 -0.85703767783E+03  0.13993691637E+04  0.12699999809E+01 0. -1.
       -4    1    3    3    0  502  0.94076341537E+03  0.58196482581E+03  0.23243777177E+04  0.25741896297E+04  0.12699999809E+01 0.  1.
</event>
<event>
 5   0  0.5181371E-08  0.3713306E+04  0.7818609E-02  0.8065019E-01
       -1   -1    0    0    0  501  0.00000000000E+00  0.00000000000E+00  0.15958561221E+04  0.15958561221E+04  0.50400001928E-02 0.  1.
        1   -1    0    0  501    0  0.00000000000E+00  0.00000000000E+00 -0.21600696377E+04  0.21600696377E+04  0.50400001928E-02 0. -1.
    10030    2    1    2    0    0  0.00000000000E+00  0.00000000000E+00 -0.56421351564E+03  0.37559257598E+04  0.37133059963E+04 0.  0.
        5    1    3    3  502    0  0.84444511704E+03 -0.47074315794E+02 -0.19539034843E+04  0.21290994488E+04  0.46999998093E+01 0. -1.
       -5    1    3    3    0  502 -0.84444511704E+03  0.47074315794E+02  0.13896899687E+04  0.16268263110E+04  0.46999998093E+01 0.  1.
</event>
<event>
 5   0  0.1666189E-07  0.3708732E+04  0.7818609E-02  0.8066029E-01
       -2   -1    0    0    0  501  0.00000000000E+00  0.00000000000E+00  0.18790533086E+04  0.18790533086E+04  0.25500000920E-02 0. -1.
        2   -1    0    0  501    0  0.00000000000E+00  0.00000000000E+00 -0.18300029897E+04  0.18300029897E+04  0.25500000920E-02 0.  1.
    10030    2    1    2    0    0  0.00000000000E+00  0.00000000000E+00  0.49050318978E+02  0.37090562983E+04  0.37087319518E+04 0.  0.
        4    1    3    3  502    0  0.15099841959E+03 -0.15924687875E+04  0.96264461347E+03  0.18669342856E+04  0.12699999809E+01 0.  1.
       -4    1    3    3    0  502 -0.15099841959E+03  0.15924687875E+04 -0.91359429449E+03  0.18421220127E+04  0.12699999809E+01 0. -1.
</event>
<event>
 5   0  0.5181371E-08  0.3711357E+04  0.7818609E-02  0.8065450E-01
       -1   -1    0    0    0  501  0.00000000000E+00  0.00000000000E+00  0.16638529857E+04  0.16638529857E+04  0.50400001928E-02 0.  1.
        1   -1    0    0  501    0  0.00000000000E+00  0.00000000000E+00 -0.20696194778E+04  0.20696194778E+04  0.50400001928E-02 0. -1.
    10030    2    1    2    0    0  0.00000000000E+00  0.00000000000E+00 -0.40576649215E+03  0.37334724635E+04  0.37113569203E+04 0.  0.
        5    1    3    3  502    0 -0.16484439581E+04 -0.65654382497E+03 -0.74935431557E+03  0.19261285672E+04  0.46999998093E+01 0. -1.
       -5    1    3    3    0  502  0.16484439581E+04  0.65654382497E+03  0.34358782343E+03  0.18073438963E+04  0.46999998093E+01 0.  1.
</event>
<event>
 5   0  0.1558258E-07  0.3697908E+04  0.7818609E-02  0.8068426E-01
       -2   -1    0    0    0  501  0.00000000000E+00  0.00000000000E+00  0.16785125879E+04  0.16785125879E+04  0.25500000920E-02 0. -1.
        2   -1    0    0  501    0  0.00000000000E+00  0.00000000000E+00 -0.20367028413E+04  0.20367028414E+04  0.25500000920E-02 0.  1.
    10030    2    1    2    0    0  0.00000000000E+00  0.00000000000E+00 -0.35819025350E+03  0.37152154292E+04  0.36979082503E+04 0.  0.
        1    1    3    3  502    0 -0.19426817150E+03 -0.15908880728E+04 -0.11053462390E+04  0.19469091635E+04  0.50400001928E-02 0.  1.
       -1    1    3    3    0  502  0.19426817150E+03  0.15908880728E+04  0.74715598547E+03  0.17683062657E+04  0.50400001928E-02 0. -1.
</event>
<event>
 5   0  0.5177000E-08  0.3693622E+04  0.7818609E-02  0.8069377E-01
       -1   -1    0    0    0  501  0.00000000000E+00  0.00000000000E+00  0.11696496103E+04  0.11696496103E+04  0.50400001928E-02 0. -1.
        1   -1    0    0  501    0  0.00000000000E+00  0.00000000000E+00 -0.29160109626E+04  0.29160109626E+04  0.50400001928E-02 0.  1.
    10030    2    1    2    0    0  0.00000000000E+00  0.00000000000E+00 -0.17463613523E+04  0.40856605730E+04  0.36936221172E+04 0.  0.
        2    1    3    3  502    0 -0.75210443471E+03  0.11029099591E+04  0.53845400765E+03  0.14394457881E+04  0.25500000920E-02 0. -1.
       -2    1    3    3    0  502  0.75210443471E+03 -0.11029099591E+04 -0.22848153599E+04  0.26462147849E+04  0.25500000920E-02 0.  1.
</event>
<event>
 5   0  0.1686284E-07  0.3724416E+04  0.7818609E-02  0.8062572E-01
       -2   -1    0    0    0  501  0.00000000000E+00  0.00000000000E+00  0.22832105751E+04  0.22832105751E+04  0.25500000920E-02 0.  1.
        2   -1    0    0  501    0  0.00000000000E+00  0.00000000000E+00 -0.15188345255E+04  0.15188345255E+04  0.25500000920E-02 0. -1.
    10030    2    1    2    0    0  0.00000000000E+00  0.00000000000E+00  0.76437604962E+03  0.38020451006E+04  0.37244162229E+04 0.  0.
        5    1    3    3  502    0  0.64072646000E+03  0.72021375167E+03  0.20086827568E+04  0.22280185709E+04  0.46999998093E+01 0.  1.
       -5    1    3    3    0  502 -0.64072646000E+03 -0.72021375167E+03 -0.12443067072E+04  0.15740265297E+04  0.46999998093E+01 0. -1.
</event>
<event>
 5   0  0.5177000E-08  0.3698011E+04  0.7818609E-02  0.8068403E-01
        1   -1    0    0  501    0  0.00000000000E+00  0.00000000000E+00  0.19237205165E+04  0.19237205165E+04  0.50400001928E-02 0.  1.
       -1   -1    0    0    0  501  0.00000000000E+00  0.00000000000E+00 -0.17771923820E+04  0.17771923820E+04  0.50400001928E-02 0. -1.
    10030    2    1    2    0    0  0.00000000000E+00  0.00000000000E+00  0.14652813450E+03  0.37009128984E+04  0.36980110583E+04 0.  0.
        3    1    3    3  502    0  0.90420553863E+03 -0.15786572262E+03 -0.15330849173E+04  0.17868571896E+04  0.10100000352E+00 0. -1.
       -3    1    3    3    0  502 -0.90420553863E+03  0.15786572262E+03  0.16796130518E+04  0.19140557088E+04  0.10100000352E+00 0.  1.
</event>
<event>
 5   0  0.5177000E-08  0.3730127E+04  0.7818609E-02  0.8061318E-01
       -1   -1    0    0    0  501  0.00000000000E+00  0.00000000000E+00  0.15538115313E+04  0.15538115313E+04  0.50400001928E-02 0.  1.
        1   -1    0    0  501    0  0.00000000000E+00  0.00000000000E+00 -0.22386643687E+04  0.22386643687E+04  0.50400001928E-02 0. -1.
    10030    2    1    2    0    0  0.00000000000E+00  0.00000000000E+00 -0.68485283746E+03  0.37924759000E+04  0.37301273494E+04 0.  0.
        3    1    3    3  502    0 -0.12645929636E+03 -0.88524833042E+03 -0.20064895445E+04  0.21967377774E+04  0.10100000352E+00 0. -1.
       -3    1    3    3    0  502  0.12645929636E+03  0.88524833042E+03  0.13216367071E+04  0.15957381226E+04  0.10100000352E+00 0.  1.
</event>
<event>
 5   0  0.5177000E-08  0.3695943E+04  0.7818609E-02  0.8068861E-01
       -1   -1    0    0    0  501  0.00000000000E+00  0.00000000000E+00  0.33113687014E+04  0.33113687014E+04  0.50400001928E-02 0. -1.
        1   -1    0    0  501    0  0.00000000000E+00  0.00000000000E+00 -0.10312954213E+04  0.10312954213E+04  0.50400001928E-02 0.  1.
    10030    2    1    2    0    0  0.00000000000E+00  0.00000000000E+00  0.22800732801E+04  0.43426641228E+04  0.36959433871E+04 0.  0.
        3    1    3    3  502    0  0.14738805029E+04 -0.11113890423E+04  0.12417253427E+04  0.22247227191E+04  0.10100000352E+00 0. -1.
       -3    1    3    3    0  502 -0.14738805029E+04  0.11113890423E+04  0.10383479374E+04  0.21179414036E+04  0.10100000352E+00 0.  1.
</event>
<event>
 5   0  0.5177000E-08  0.3698229E+04  0.7818609E-02  0.8068354E-01
        1   -1    0    0  501    0  0.00000000000E+00  0.00000000000E+00  0.27181752846E+04  0.27181752846E+04  0.50400001928E-02 0. -1.
       -1   -1    0    0    0  501  0.00000000000E+00  0.00000000000E+00 -0.12579115632E+04  0.12579115632E+04  0.50400001928E-02 0.  1.
    10030    2    1    2    0    0  0.00000000000E+00  0.00000000000E+00  0.14602637214E+04  0.39760868479E+04  0.36982288309E+04 0.  0.
        2    1    3    3  502    0  0.16355462699E+04  0.49794997058E+03 -0.27251909377E+02  0.17098855051E+04  0.25500000920E-02 0. -1.
       -2    1    3    3    0  502 -0.16355462699E+04 -0.49794997058E+03  0.14875156308E+04  0.22662013427E+04  0.25500000920E-02 0.  1.
</event>
<event>
 5   0  0.5181371E-08  0.3691522E+04  0.7818609E-02  0.8069843E-01
        1   -1    0    0  501    0  0.00000000000E+00  0.00000000000E+00  0.21243810451E+04  0.21243810451E+04  0.50400001928E-02 0. -1.
       -1   -1    0    0    0  501  0.00000000000E+00  0.00000000000E+00 -0.16036832005E+04  0.16036832006E+04  0.50400001928E-02 0.  1.
    10030    2    1    2    0    0  0.00000000000E+00  0.00000000000E+00  0.52069784458E+03  0.37280642457E+04  0.36915222842E+04 0.  0.
        5    1    3    3  502    0 -0.85875060342E+02 -0.17085036037E+04 -0.43965964379E+03  0.17662620933E+04  0.46999998093E+01 0.  1.
       -5    1    3    3    0  502  0.85875060342E+02  0.17085036037E+04  0.96035748838E+03  0.19618021524E+04  0.46999998093E+01 0. -1.
</event>
<event>
 5   0  0.1686284E-07  0.3698418E+04  0.7818609E-02  0.8068313E-01
       -2   -1    0    0    0  501  0.00000000000E+00  0.00000000000E+00  0.17264805401E+04  0.17264805401E+04  0.25500000920E-02 0.  1.
        2   -1    0    0  501    0  0.00000000000E+00  0.00000000000E+00 -0.19806615401E+04  0.19806615401E+04  0.25500000920E-02 0. -1.
    10030    2    1    2    0    0  0.00000000000E+00  0.00000000000E+00 -0.25418099998E+03  0.37071420803E+04  0.36984178269E+04 0.  0.
        5    1    3    3  502    0  0.27368989143E+03  0.79760826606E+03 -0.17767145688E+04  0.19666778718E+04  0.46999998093E+01 0. -1.
       -5    1    3    3    0  502 -0.27368989143E+03 -0.79760826606E+03  0.15225335688E+04  0.17404642084E+04  0.46999998093E+01 0.  1.
</event>
<event>
 5   0  0.5177000E-08  0.3698555E+04  0.7818609E-02  0.8068282E-01
        3   -1    0    0  501    0  0.00000000000E+00  0.00000000000E+00  0.12557718565E+04  0.12557718606E+04  0.10100000352E+00 0.  1.
       -3   -1    0    0    0  501  0.00000000000E+00  0.00000000000E+00 -0.27232865583E+04  0.27232865601E+04  0.10100000352E+00 0. -1.
    10030    2    1    2    0    0  0.00000000000E+00  0.00000000000E+00 -0.14675147018E+04  0.39790584207E+04  0.36985546522E+04 0.  0.
        1    1    3    3  502    0 -0.11435369203E+04  0.51007910917E+03  0.73032383548E+03  0.14495621030E+04  0.50400001928E-02 0.  1.
       -1    1    3    3    0  502  0.11435369203E+04 -0.51007910917E+03 -0.21978385372E+04  0.25294963177E+04  0.50400001928E-02 0. -1.
</event>
<event>
 5   0  0.1558258E-07  0.3698931E+04  0.7818609E-02  0.8068199E-01
        2   -1    0    0  501    0  0.00000000000E+00  0.00000000000E+00  0.18446495918E+04  0.18446495918E+04  0.25500000920E-02 0.  1.
       -2   -1    0    0    0  501  0.00000000000E+00  0.00000000000E+00 -0.18542940539E+04  0.18542940539E+04  0.25500000920E-02 0. -1.
    10030    2    1    2    0    0  0.00000000000E+00  0.00000000000E+00 -0.96444620990E+01  0.36989436457E+04  0.36989310724E+04 0.  0.
        1    1    3    3  502    0 -0.72621343584E+03  0.10200223956E+03  0.16930446531E+04  0.18450448798E+04  0.50400001928E-02 0.  1.
       -1    1    3    3    0  502  0.72621343584E+03 -0.10200223956E+03 -0.17026891152E+04  0.18538987659E+04  0.50400001928E-02 0. -1.
</event>
<event>
 5   0  0.5177000E-08  0.3713408E+04  0.7818609E-02  0.8064997E-01
       -1   -1    0    0    0  501  0.00000000000E+00  0.00000000000E+00  0.22252848178E+04  0.22252848178E+04  0.50400001928E-02 0.  1.
        1   -1    0    0  501    0  0.00000000000E+00  0.00000000000E+00 -0.15491726874E+04  0.15491726875E+04  0.50400001928E-02 0. -1.
    10030    2    1    2    0    0  0.00000000000E+00  0.00000000000E+00  0.67611213038E+03  0.37744575053E+04  0.37134083867E+04 0.  0.
        1    1    3    3  502    0  0.94569668541E+03 -0.75229318639E+03 -0.10947508430E+04  0.16305724968E+04  0.50400001928E-02 0. -1.
       -1    1    3    3    0  502 -0.94569668541E+03  0.75229318639E+03  0.17708629734E+04  0.21438850085E+04  0.50400001928E-02 0.  1.
</event>
<event>
 5   0  0.1666189E-07  0.3709074E+04  0.7818609E-02  0.8065954E-01
       -2   -1    0    0    0  501  0.00000000000E+00  0.00000000000E+00  0.22438699127E+04  0.22438699127E+04  0.25500000920E-02 0. -1.
        2   -1    0    0  501    0  0.00000000000E+00  0.00000000000E+00 -0.15327570017E+04  0.15327570017E+04  0.25500000920E-02 0.  1.
    10030    2    1    2    0    0  0.00000000000E+00  0.00000000000E+00  0.71111291096E+03  0.37766269144E+04  0.37090739112E+04 0.  0.
        4    1    3    3  502    0 -0.11304477921E+01  0.10517151034E+04 -0.11997449293E+04  0.15954608879E+04  0.12699999809E+01 0.  1.
       -4    1    3    3    0  502  0.11304477921E+01 -0.10517151034E+04  0.19108578403E+04  0.21811660265E+04  0.12699999809E+01 0. -1.
</event>
<event>
 5   0  0.1587026E-07  0.3661219E+04  0.7818609E-02  0.8076611E-01
        2   -1    0    0  501    0  0.00000000000E+00  0.00000000000E+00  0.23134179188E+04  0.23134179188E+04  0.25500000920E-02 0. -1.
       -2   -1    0    0    0  501  0.00000000000E+00  0.00000000000E+00 -0.14485629883E+04  0.14485629883E+04  0.25500000920E-02 0.  1.
    10030    2    1    2    0    0  0.00000000000E+00  0.00000000000E+00  0.86485493048E+03  0.37619809071E+04  0.36612192361E+04 0.  0.
        3    1    3    3  502    0 -0.31260499805E+03 -0.15338540302E+04  0.14075996221E+04  0.21051761868E+04  0.10100000352E+00 0. -1.
       -3    1    3    3    0  502  0.31260499805E+03  0.15338540302E+04 -0.54274469167E+03  0.16568047203E+04  0.10100000352E+00 0.  1.
</event>
<event>
 5   0  0.5177000E-08  0.3694848E+04  0.7818609E-02  0.8069105E-01
       -1   -1    0    0    0  501  0.00000000000E+00  0.00000000000E+00  0.10755382672E+04  0.10755382672E+04  0.50400001928E-02 0.  1.
        1   -1    0    0  501    0  0.00000000000E+00  0.00000000000E+00 -0.31732718080E+04  0.31732718080E+04  0.50400001928E-02 0. -1.
    10030    2    1    2    0    0  0.00000000000E+00  0.00000000000E+00 -0.20977335409E+04  0.42488100752E+04  0.36948479058E+04 0.  0.
        3    1    3    3  502    0  0.13779110794E+04 -0.10119765002E+03 -0.24591568011E+04  0.28206970929E+04  0.10100000352E+00 0. -1.
       -3    1    3    3    0  502 -0.13779110794E+04  0.10119765002E+03  0.36142326030E+03  0.14281129823E+04  0.10100000352E+00 0.  1.
</event>
<event>
 5   0  0.5181371E-08  0.3708259E+04  0.7818609E-02  0.8066134E-01
       -1   -1    0    0    0  501  0.00000000000E+00  0.00000000000E+00  0.18377744167E+04  0.18377744167E+04  0.50400001928E-02 0. -1.
        1   -1    0    0  501    0  0.00000000000E+00  0.00000000000E+00 -0.18706303045E+04  0.18706303045E+04  0.50400001928E-02 0.  1.
    10030    2    1    2    0    0  0.00000000000E+00  0.00000000000E+00 -0.32855887787E+02  0.37084047212E+04  0.37082591693E+04 0.  0.
        5    1    3    3  502    0  0.13376709893E+04  0.93022616617E+03 -0.90138642069E+03  0.18620429547E+04  0.46999998093E+01 0.  1.
       -5    1    3    3    0  502 -0.13376709893E+04 -0.93022616617E+03  0.86853053291E+03  0.18463617664E+04  0.46999998093E+01 0. -1.
</event>
<event>
 5   0  0.5177000E-08  0.3695850E+04  0.7818609E-02  0.8068882E-01
       -1   -1    0    0    0  501  0.00000000000E+00  0.00000000000E+00  0.18034779025E+04  0.18034779025E+04  0.50400001928E-02 0. -1.
        1   -1    0    0  501    0  0.00000000000E+00  0.00000000000E+00 -0.18934679898E+04  0.18934679898E+04  0.50400001928E-02 0.  1.
    10030    2    1    2    0    0  0.00000000000E+00  0.00000000000E+00 -0.89990087276E+02  0.36969458923E+04  0.36958504725E+04 0.  0.
        4    1    3    3  502    0  0.16784075256E+04  0.37976018677E+03 -0.71866064706E+03  0.18648711376E+04  0.12699999809E+01 0.  1.
       -4    1    3    3    0  502 -0.16784075256E+04 -0.37976018677E+03  0.62867055979E+03  0.18320747547E+04  0.12699999809E+01 0. -1.
</event>
<event>
 5   0  0.1587026E-07  0.3714927E+04  0.7818609E-02  0.8064662E-01
        2   -1    0    0  501    0  0.00000000000E+00  0.00000000000E+00  0.34026359680E+04  0.34026359680E+04  0.25500000920E-02 0.  1.
       -2   -1    0    0    0  501  0.00000000000E+00  0.00000000000E+00 -0.10139698757E+04  0.10139698757E+04  0.25500000920E-02 0. -1.
    10030    2    1    2    0    0  0.00000000000E+00  0.00000000000E+00  0.23886660923E+04  0.44166058437E+04  0.37149268469E+04 0.  0.
        3    1    3    3  502    0  0.94802113589E+03 -0.15593371934E+04  0.78267487159E+03  0.19856627411E+04  0.10100000352E+00 0.  1.
       -3    1    3    3    0  502 -0.94802113589E+03  0.15593371934E+04  0.16059912207E+04  0.24309431026E+04  0.10100000352E+00 0. -1.
</event>
<event>
 5   0  0.1658770E-07  0.3698061E+04  0.7818609E-02  0.8068392E-01
        2   -1    0    0  501    0  0.00000000000E+00  0.00000000000E+00  0.16557340839E+04  0.16557340839E+04  0.25500000920E-02 0.  1.
       -2   -1    0    0    0  501  0.00000000000E+00  0.00000000000E+00 -0.20648931488E+04  0.20648931488E+04  0.25500000920E-02 0. -1.
    10030    2    1    2    0    0  0.00000000000E+00  0.00000000000E+00 -0.40915906491E+03  0.37206272327E+04  0.36980610953E+04 0.  0.
        2    1    3    3  502    0 -0.18350026496E+04  0.15750171600E+03 -0.36950803740E+03  0.18784508789E+04  0.25500000920E-02 0. -1.
       -2    1    3    3    0  502  0.18350026496E+04 -0.15750171600E+03 -0.39651027507E+02  0.18421763538E+04  0.25500000920E-02 0.  1.
</event>
<event>
 5   0  0.1587026E-07  0.3660936E+04  0.7818609E-02  0.8076674E-01
        2   -1    0    0  501    0  0.00000000000E+00  0.00000000000E+00  0.17927377887E+04  0.17927377887E+04  0.25500000920E-02 0. -1.
       -2   -1    0    0    0  501  0.00000000000E+00  0.00000000000E+00 -0.18689919867E+04  0.18689919867E+04  0.25500000920E-02 0.  1.
    10030    2    1    2    0    0  0.00000000000E+00  0.00000000000E+00 -0.76254198009E+02  0.36617297755E+04  0.36609357063E+04 0.  0.
        3    1    3    3  502    0 -0.87369181486E+03 -0.10786618379E+04  0.11553474540E+04  0.18060112119E+04  0.10100000352E+00 0. -1.
       -3    1    3    3    0  502  0.87369181486E+03  0.10786618379E+04 -0.12316016520E+04  0.18557185636E+04  0.10100000352E+00 0.  1.
</event>
<event>
 5   0  0.1658770E-07  0.3695923E+04  0.7818609E-02  0.8068866E-01
       -2   -1    0    0    0  501  0.00000000000E+00  0.00000000000E+00  0.16928735321E+04  0.16928735321E+04  0.25500000920E-02 0.  1.
        2   -1    0    0  501    0  0.00000000000E+00  0.00000000000E+00 -0.20172572150E+04  0.20172572150E+04  0.25500000920E-02 0. -1.
    10030    2    1    2    0    0  0.00000000000E+00  0.00000000000E+00 -0.32438368290E+03  0.37101307471E+04  0.36959228058E+04 0.  0.
        2    1    3    3  502    0  0.50224421334E+03  0.69136280918E+03 -0.18070050896E+04  0.19988744777E+04  0.25500000920E-02 0. -1.
       -2    1    3    3    0  502 -0.50224421334E+03 -0.69136280918E+03  0.14826214067E+04  0.17112562694E+04  0.25500000920E-02 0.  1.
</event>
<event>
 5   0  0.1587026E-07  0.3702410E+04  0.7818609E-02  0.8067428E-01
        2   -1    0    0  501    0  0.00000000000E+00  0.00000000000E+00  0.13430053564E+04  0.13430053564E+04  0.25500000920E-02 0. -1.
       -2   -1    0    0    0  501  0.00000000000E+00  0.00000000000E+00 -0.25517091775E+04  0.25517091775E+04  0.25500000920E-02 0.  1.
    10030    2    1    2    0    0  0.00000000000E+00  0.00000000000E+00 -0.12087038212E+04  0.38947145339E+04  0.37024095361E+04 0.  0.
        3    1    3    3  502    0 -0.27440548653E+03  0.17524130065E+04 -0.47012662333E+02  0.17743900127E+04  0.10100000352E+00 0. -1.
       -3    1    3    3    0  502  0.27440548653E+03 -0.17524130065E+04 -0.11616911588E+04  0.21203245212E+04  0.10100000352E+00 0.  1.
</event>
<event>
 5   0  0.1686284E-07  0.3669569E+04  0.7818609E-02  0.8074739E-01
        2   -1    0    0  501    0  0.00000000000E+00  0.00000000000E+00  0.12748831515E+04  0.12748831515E+04  0.25500000920E-02 0. -1.
       -2   -1    0    0    0  501  0.00000000000E+00  0.00000000000E+00 -0.26405822919E+04  0.26405822919E+04  0.25500000920E-02 0.  1.
    10030    2    1    2    0    0  0.00000000000E+00  0.00000000000E+00 -0.13656991403E+04  0.39154654434E+04  0.36695688434E+04 0.  0.
        5    1    3    3  502    0 -0.63160531392E+03  0.12538110914E+04 -0.19432966087E+04  0.23973717536E+04  0.46999998093E+01 0.  1.
       -5    1    3    3    0  502  0.63160531392E+03 -0.12538110914E+04  0.57759746841E+03  0.15180936898E+04  0.46999998093E+01 0. -1.
</event>
<event>
 5   0  0.1666189E-07  0.3695735E+04  0.7818609E-02  0.8068908E-01
       -2   -1    0    0    0  501  0.00000000000E+00  0.00000000000E+00  0.16773473825E+04  0.16773473826E+04  0.25500000920E-02 0. -1.
        2   -1    0    0  501    0  0.00000000000E+00  0.00000000000E+00 -0.20357225230E+04  0.20357225230E+04  0.25500000920E-02 0.  1.
    10030    2    1    2    0    0  0.00000000000E+00  0.00000000000E+00 -0.35837514044E+03  0.37130699055E+04  0.36957347554E+04 0.  0.
        4    1    3    3  502    0 -0.71762078728E+03 -0.72559279229E+03 -0.17269158549E+04  0.20059173656E+04  0.12699999809E+01 0.  1.
       -4    1    3    3    0  502  0.71762078728E+03  0.72559279229E+03  0.13685407145E+04  0.17071525400E+04  0.12699999809E+01 0. -1.
</event>
<event>
 5   0  0.1666189E-07  0.3715228E+04  0.7818609E-02  0.8064596E-01
       -2   -1    0    0    0  501  0.00000000000E+00  0.00000000000E+00  0.15438509102E+04  0.15438509102E+04  0.25500000920E-02 0.  1.
        2   -1    0    0  501    0  0.00000000000E+00  0.00000000000E+00 -0.22351441931E+04  0.22351441931E+04  0.25500000920E-02 0. -1.
    10030    2    1    2    0    0  0.00000000000E+00  0.00000000000E+00 -0.69129328294E+03  0.37789951033E+04  0.37152277976E+04 0.  0.
        4    1    3    3  502    0 -0.98855457633E+03  0.10837495923E+04  0.81364094883E+03  0.16774285486E+04  0.12699999809E+01 0.  1.
       -4    1    3    3    0  502  0.98855457633E+03 -0.10837495923E+04 -0.15049342318E+04  0.21015665547E+04  0.12699999809E+01 0. -1.
</event>
<event>
 5   0  0.5177000E-08  0.3705016E+04  0.7818609E-02  0.8066851E-01
        1   -1    0    0  501    0  0.00000000000E+00  0.00000000000E+00  0.19438867324E+04  0.19438867325E+04  0.50400001928E-02 0. -1.
       -1   -1    0    0    0  501  0.00000000000E+00  0.00000000000E+00 -0.17654245341E+04  0.17654245341E+04  0.50400001928E-02 0.  1.
    10030    2    1    2    0    0  0.00000000000E+00  0.00000000000E+00  0.17846219833E+03  0.37093112666E+04  0.37050156971E+04 0.  0.
        1    1    3    3  502    0 -0.68365863078E+03  0.16597957366E+04  0.54744537888E+03  0.18767012158E+04  0.50400001928E-02 0.  1.
       -1    1    3    3    0  502  0.68365863078E+03 -0.16597957366E+04 -0.36898318055E+03  0.18326100508E+04  0.50400001928E-02 0. -1.
</event>
<event>
 5   0  0.1658770E-07  0.3732143E+04  0.7818609E-02  0.8060876E-01
       -2   -1    0    0    0  501  0.00000000000E+00  0.00000000000E+00  0.16423547354E+04  0.16423547354E+04  0.25500000920E-02 0. -1.
        2   -1    0    0  501    0  0.00000000000E+00  0.00000000000E+00 -0.21202623740E+04  0.21202623740E+04  0.25500000920E-02 0.  1.
    10030    2    1    2    0    0  0.00000000000E+00  0.00000000000E+00 -0.47790763858E+03  0.37626171095E+04  0.37321430575E+04 0.  0.
        2    1    3    3  502    0  0.28552416307E+03  0.18112711408E+04 -0.58818634789E+03  0.19256662154E+04  0.25500000920E-02 0.  1.
       -2    1    3    3    0  502 -0.28552416307E+03 -0.18112711408E+04  0.11027870931E+03  0.18369508940E+04  0.25500000920E-02 0. -1.
</event>
<event>
 5   0  0.5181371E-08  0.3703328E+04  0.7818609E-02  0.8067225E-01
        1   -1    0    0  501    0  0.00000000000E+00  0.00000000000E+00  0.10405431097E+04  0.10405431097E+04  0.50400001928E-02 0.  1.
       -1   -1    0    0    0  501  0.00000000000E+00  0.00000000000E+00 -0.32950665627E+04  0.32950665627E+04  0.50400001928E-02 0. -1.
    10030    2    1    2    0    0  0.00000000000E+00  0.00000000000E+00 -0.22545234531E+04  0.43356096724E+04  0.37033275889E+04 0.  0.
        5    1    3    3  502    0  0.18138100519E+03 -0.16799885824E+04 -0.20137598193E+04  0.26287851578E+04  0.46999998093E+01 0.  1.
       -5    1    3    3    0  502 -0.18138100519E+03  0.16799885824E+04 -0.24076363371E+03  0.17068245145E+04  0.46999998093E+01 0. -1.
</event>
<event>
 5   0  0.5177000E-08  0.3704913E+04  0.7818609E-02  0.8066874E-01
        1   -1    0    0  501    0  0.00000000000E+00  0.00000000000E+00  0.20918427414E+04  0.20918427414E+04  0.50400001928E-02 0. -1.
       -1   -1    0    0    0  501  0.00000000000E+00  0.00000000000E+00 -0.16404652974E+04  0.16404652974E+04  0.50400001928E-02 0.  1.
    10030    2    1    2    0    0  0.00000000000E+00  0.00000000000E+00  0.45137744398E+03  0.37323080388E+04  0.37049131838E+04 0.  0.
        1    1    3    3  502    0 -0.24103897472E+03  0.62512399008E+03 -0.15141354879E+04  0.16557433575E+04  0.50400001928E-02 0.  1.
       -1    1    3    3    0  502  0.24103897472E+03 -0.62512399008E+03  0.19655129318E+04  0.20765646813E+04  0.50400001928E-02 0. -1.
</event>
<event>
 5   0  0.5181371E-08  0.3696365E+04  0.7818609E-02  0.8068768E-01
       -1   -1    0    0    0  501  0.00000000000E+00  0.00000000000E+00  0.12069361230E+04  0.12069361230E+04  0.50400001928E-02 0.  1.
        1   -1    0    0  501    0  0.00000000000E+00  0.00000000000E+00 -0.28301230778E+04  0.28301230778E+04  0.50400001928E-02 0. -1.
    10030    2    1    2    0    0  0.00000000000E+00  0.00000000000E+00 -0.16231869548E+04  0.40370592008E+04  0.36963645789E+04 0.  0.
        5    1    3    3  502    0  0.77395541653E+03 -0.42840207162E+03  0.96069298721E+03  0.13059435009E+04  0.46999998093E+01 0.  1.
       -5    1    3    3    0  502 -0.77395541653E+03  0.42840207162E+03 -0.25838799420E+04  0.27311157000E+04  0.46999998093E+01 0. -1.
</event>
<event>
 5   0  0.1558258E-07  0.3702294E+04  0.7818609E-02  0.8067454E-01
       -2   -1    0    0    0  501  0.00000000000E+00  0.00000000000E+00  0.13034052475E+04  0.13034052475E+04  0.25500000920E-02 0. -1.
        2   -1    0    0  501    0  0.00000000000E+00  0.00000000000E+00 -0.26290714235E+04  0.26290714235E+04  0.25500000920E-02 0.  1.
    10030    2    1    2    0    0  0.00000000000E+00  0.00000000000E+00 -0.13256661760E+04  0.39324766710E+04  0.37022941479E+04 0.  0.
        1    1    3    3  502    0  0.84959806828E+02  0.12301653559E+04 -0.21293321996E+04  0.24606057360E+04  0.50400001928E-02 0.  1.
       -1    1    3    3    0  502 -0.84959806828E+02 -0.12301653559E+04  0.80366602364E+03  0.14718709350E+04  0.50400001928E-02 0. -1.
</event>
<event>
 5   0  0.1587026E-07  0.3699071E+04  0.7818609E-02  0.8068168E-01
        2   -1    0    0  501    0  0.00000000000E+00  0.00000000000E+00  0.20314385612E+04  0.20314385612E+04  0.25500000920E-02 0.  1.
       -2   -1    0    0    0  501  0.00000000000E+00  0.00000000000E+00 -0.16839206750E+04  0.16839206750E+04  0.25500000920E-02 0. -1.
    10030    2    1    2    0    0  0.00000000000E+00  0.00000000000E+00  0.34751788628E+03  0.37153592362E+04  0.36990709067E+04 0.  0.
        3    1    3    3  502    0  0.58692689290E+03  0.13898584986E+04 -0.90080787311E+03  0.17571695019E+04  0.10100000352E+00 0. -1.
       -3    1    3    3    0  502 -0.58692689290E+03 -0.13898584986E+04  0.12483257594E+04  0.19581897343E+04  0.10100000352E+00 0.  1.
</event>
<event>
 5   0  0.1686284E-07  0.3705914E+04  0.7818609E-02  0.8066652E-01
       -2   -1    0    0    0  501  0.00000000000E+00  0.00000000000E+00  0.19305105865E+04  0.19305105865E+04  0.25500000920E-02 0.  1.
        2   -1    0    0  501    0  0.00000000000E+00  0.00000000000E+00 -0.17785193045E+04  0.17785193045E+04  0.25500000920E-02 0. -1.
    10030    2    1    2    0    0  0.00000000000E+00  0.00000000000E+00  0.15199128200E+03  0.37090298910E+04  0.37059143787E+04 0.  0.
        5    1    3    3  502    0 -0.15062348049E+04 -0.12252144065E+03 -0.99713403759E+03  0.18105394693E+04  0.46999998093E+01 0. -1.
       -5    1    3    3    0  502  0.15062348049E+04  0.12252144065E+03  0.11491253196E+04  0.18984904217E+04  0.46999998093E+01 0.  1.
</event>
<event>
 5   0  0.5181371E-08  0.3868627E+04  0.7818609E-02  0.8031586E-01
       -1   -1    0    0    0  501  0.00000000000E+00  0.00000000000E+00  0.17692740469E+04  0.17692740469E+04  0.50400001928E-02 0.  1.
        1   -1    0    0  501    0  0.00000000000E+00  0.00000000000E+00 -0.21147478875E+04  0.21147478875E+04  0.50400001928E-02 0. -1.
    10030    2    1    2    0    0  0.00000000000E+00  0.00000000000E+00 -0.34547384059E+03  0.38840219344E+04  0.38686269156E+04 0.  0.
        5    1    3    3  502    0  0.50962782336E+03  0.13114120044E+04 -0.15054320055E+04  0.20605507945E+04  0.46999998093E+01 0. -1.
       -5    1    3    3    0  502 -0.50962782336E+03 -0.13114120044E+04  0.11599581649E+04  0.18234711399E+04  0.46999998093E+01 0.  1.
</event>
<event>
 5   0  0.1587026E-07  0.3719477E+04  0.7818609E-02  0.8063659E-01
       -2   -1    0    0    0  501  0.00000000000E+00  0.00000000000E+00  0.17257920006E+04  0.17257920006E+04  0.25500000920E-02 0.  1.
        2   -1    0    0  501    0  0.00000000000E+00  0.00000000000E+00 -0.20040808495E+04  0.20040808495E+04  0.25500000920E-02 0. -1.
    10030    2    1    2    0    0  0.00000000000E+00  0.00000000000E+00 -0.27828884887E+03  0.37298728501E+04  0.37194766829E+04 0.  0.
        3    1    3    3  502    0 -0.57279999313E+02  0.91842225357E+03 -0.17597823243E+04  0.19858535377E+04  0.10100000352E+00 0. -1.
       -3    1    3    3    0  502  0.57279999313E+02 -0.91842225357E+03  0.14814934754E+04  0.17440193124E+04  0.10100000352E+00 0.  1.
</event>
<event>
 5   0  0.1666189E-07  0.3705671E+04  0.7818609E-02  0.8066706E-01
        2   -1    0    0  501    0  0.00000000000E+00  0.00000000000E+00  0.21502172138E+04  0.21502172138E+04  0.25500000920E-02 0.  1.
       -2   -1    0    0    0  501  0.00000000000E+00  0.00000000000E+00 -0.15965827757E+04  0.15965827757E+04  0.25500000920E-02 0. -1.
    10030    2    1    2    0    0  0.00000000000E+00  0.00000000000E+00  0.55363443816E+03  0.37467999895E+04  0.37056712037E+04 0.  0.
        4    1    3    3  502    0  0.80760637253E+02  0.13088502181E+04 -0.10466748981E+04  0.16778382309E+04  0.12699999809E+01 0. -1.
       -4    1    3    3    0  502 -0.80760637253E+02 -0.13088502181E+04  0.16003093363E+04  0.20689617586E+04  0.12699999809E+01 0.  1.
</event>
<event>
 5   0  0.1686284E-07  0.3700028E+04  0.7818609E-02  0.8067956E-01
       -2   -1    0    0    0  501  0.00000000000E+00  0.00000000000E+00  0.14200221905E+04  0.14200221905E+04  0.25500000920E-02 0.  1.
        2   -1    0    0  501    0  0.00000000000E+00  0.00000000000E+00 -0.24102104177E+04  0.24102104177E+04  0.25500000920E-02 0. -1.
    10030    2    1    2    0    0  0.00000000000E+00  0.00000000000E+00 -0.99018822720E+03  0.38302326081E+04  0.37000282576E+04 0.  0.
        5    1    3    3  502    0  0.43059804976E+03 -0.69523161483E+03  0.12227502843E+04  0.14710207430E+04  0.46999998093E+01 0.  1.
       -5    1    3    3    0  502 -0.43059804976E+03  0.69523161483E+03 -0.22129385115E+04  0.23592118651E+04  0.46999998093E+01 0. -1.
</event>
<event>
 5   0  0.5181371E-08  0.3695962E+04  0.7818609E-02  0.8068857E-01
       -1   -1    0    0    0  501  0.00000000000E+00  0.00000000000E+00  0.30329880138E+04  0.30329880138E+04  0.50400001928E-02 0.  1.
        1   -1    0    0  501    0  0.00000000000E+00  0.00000000000E+00 -0.11259635942E+04  0.11259635942E+04  0.50400001928E-02 0. -1.
    10030    2    1    2    0    0  0.00000000000E+00  0.00000000000E+00  0.19070244196E+04  0.41589516081E+04  0.36959621672E+04 0.  0.
        5    1    3    3  502    0 -0.14628759465E+03 -0.71140658441E+03  0.28656460811E+04  0.29562558990E+04  0.46999998093E+01 0.  1.
       -5    1    3    3    0  502  0.14628759465E+03  0.71140658441E+03 -0.95862166144E+03  0.12026957090E+04  0.46999998093E+01 0. -1.
</event>
<event>
 5   0  0.1587026E-07  0.3668228E+04  0.7818609E-02  0.8075040E-01
        2   -1    0    0  501    0  0.00000000000E+00  0.00000000000E+00  0.17935329079E+04  0.17935329079E+04  0.25500000920E-02 0.  1.
       -2   -1    0    0    0  501  0.00000000000E+00  0.00000000000E+00 -0.18756134699E+04  0.18756134699E+04  0.25500000920E-02 0. -1.
    10030    2    1    2    0    0  0.00000000000E+00  0.00000000000E+00 -0.82080562083E+02  0.36691463778E+04  0.36682281722E+04 0.  0.
        3    1    3    3  502    0  0.51813166400E+03  0.69397919015E+03  0.15761225701E+04  0.17983964813E+04  0.10100000352E+00 0.  1.
       -3    1    3    3    0  502 -0.51813166400E+03 -0.69397919015E+03 -0.16582031322E+04  0.18707498965E+04  0.10100000352E+00 0. -1.
</event>
<event>
 5   0  0.1558258E-07  0.3692201E+04  0.7818609E-02  0.8069692E-01
       -2   -1    0    0    0  501  0.00000000000E+00  0.00000000000E+00  0.22757842975E+04  0.22757842975E+04  0.25500000920E-02 0. -1.
        2   -1    0    0  501    0  0.00000000000E+00  0.00000000000E+00 -0.14975440471E+04  0.14975440471E+04  0.25500000920E-02 0.  1.
    10030    2    1    2    0    0  0.00000000000E+00  0.00000000000E+00  0.77824025043E+03  0.37733283446E+04  0.36922010927E+04 0.  0.
        1    1    3    3  502    0  0.46221186711E+03 -0.16296610887E+04 -0.36093546385E+03  0.17319669406E+04  0.50400001928E-02 0.  1.
       -1    1    3    3    0  502 -0.46221186711E+03  0.16296610887E+04  0.11391757143E+04  0.20413614041E+04  0.50400001928E-02 0. -1.
</event>
<event>
 5   0  0.1666189E-07  0.3755180E+04  0.7818609E-02  0.8055842E-01
       -2   -1    0    0    0  501  0.00000000000E+00  0.00000000000E+00  0.18599692179E+04  0.18599692179E+04  0.25500000920E-02 0.  1.
        2   -1    0    0  501    0  0.00000000000E+00  0.00000000000E+00 -0.18953773528E+04  0.18953773528E+04  0.25500000920E-02 0. -1.
    10030    2    1    2    0    0  0.00000000000E+00  0.00000000000E+00 -0.35408134833E+02  0.37553465707E+04  0.37551796402E+04 0.  0.
        4    1    3    3  502    0  0.16289750588E+04 -0.56515668677E+03 -0.76095988359E+03  0.18846812410E+04  0.12699999809E+01 0. -1.
       -4    1    3    3    0  502 -0.16289750588E+04  0.56515668677E+03  0.72555174876E+03  0.18706653297E+04  0.12699999809E+01 0.  1.
</event>
<event>
 5   0  0.1558258E-07  0.3699129E+04  0.7818609E-02  0.8068155E-01
       -2   -1    0    0    0  501  0.00000000000E+00  0.00000000000E+00  0.20817110586E+04  0.20817110586E+04  0.25500000920E-02 0.  1.
        2   -1    0    0  501    0  0.00000000000E+00  0.00000000000E+00 -0.16433059550E+04  0.16433059550E+04  0.25500000920E-02 0. -1.
    10030    2    1    2    0    0  0.00000000000E+00  0.00000000000E+00  0.43840510365E+03  0.37250170136E+04  0.36991286429E+04 0.  0.
        1    1    3    3  502    0 -0.87703994623E+03  0.21927324848E+03 -0.14056600914E+04  0.16712749975E+04  0.50400001928E-02 0. -1.
       -1    1    3    3    0  502  0.87703994623E+03 -0.21927324848E+03  0.18440651951E+04  0.20537420160E+04  0.50400001928E-02 0.  1.
</event>
<event>
 5   0  0.1587026E-07  0.3709634E+04  0.7818609E-02  0.8065830E-01
       -2   -1    0    0    0  501  0.00000000000E+00  0.00000000000E+00  0.20327301076E+04  0.20327301076E+04  0.25500000920E-02 0.  1.
        2   -1    0    0  501    0  0.00000000000E+00  0.00000000000E+00 -0.16924752330E+04  0.16924752330E+04  0.25500000920E-02 0. -1.
    10030    2    1    2    0    0  0.00000000000E+00  0.00000000000E+00  0.34025487453E+03  0.37252053406E+04  0.37096336005E+04 0.  0.
        3    1    3    3  502    0 -0.12837331615E+04  0.12461287955E+04  0.66160760690E+03  0.19074937590E+04  0.10100000352E+00 0. -1.
       -3    1    3    3    0  502  0.12837331615E+04 -0.12461287955E+04 -0.32135273237E+03  0.18177115816E+04  0.10100000352E+00 0.  1.
</event>
<event>
 5   0  0.1658770E-07  0.3708035E+04  0.7818609E-02  0.8066184E-01
        2   -1    0    0  501    0  0.00000000000E+00  0.00000000000E+00  0.18334677907E+04  0.18334677907E+04  0.25500000920E-02 0.  1.
       -2   -1    0    0    0  501  0.00000000000E+00  0.00000000000E+00 -0.18747974894E+04  0.18747974894E+04  0.25500000920E-02 0. -1.
    10030    2    1    2    0    0  0.00000000000E+00  0.00000000000E+00 -0.41329698626E+02  0.37082652801E+04  0.37080349572E+04 0.  0.
        2    1    3    3  502    0  0.35850105578E+03  0.11871695251E+04 -0.13989689889E+04  0.18694942419E+04  0.25500000920E-02 0. -1.
       -2    1    3    3    0  502 -0.35850105578E+03 -0.11871695251E+04  0.13576392903E+04  0.18387710382E+04  0.25500000920E-02 0.  1.
</event>
<event>
 5   0  0.1558258E-07  0.3702072E+04  0.7818609E-02  0.8067503E-01
        2   -1    0    0  501    0  0.00000000000E+00  0.00000000000E+00  0.19606751193E+04  0.19606751193E+04  0.25500000920E-02 0.  1.
       -2   -1    0    0    0  501  0.00000000000E+00  0.00000000000E+00 -0.17475281219E+04  0.17475281219E+04  0.25500000920E-02 0. -1.
    10030    2    1    2    0    0  0.00000000000E+00  0.00000000000E+00  0.21314699743E+03  0.37082032412E+04  0.37020723434E+04 0.  0.
        1    1    3    3  502    0  0.99916592712E+03  0.12388583556E+04  0.10532483624E+04  0.19085163578E+04  0.50400001928E-02 0.  1.
       -1    1    3    3    0  502 -0.99916592712E+03 -0.12388583556E+04 -0.84010136492E+03  0.17996868835E+04  0.50400001928E-02 0. -1.
</event>
<event>
 5   0  0.1658770E-07  0.3684056E+04  0.7818609E-02  0.8071505E-01
       -2   -1    0    0    0  501  0.00000000000E+00  0.00000000000E+00  0.21322490781E+04  0.21322490781E+04  0.25500000920E-02 0. -1.
        2   -1    0    0  501    0  0.00000000000E+00  0.00000000000E+00 -0.15913086469E+04  0.15913086469E+04  0.25500000920E-02 0.  1.
    10030    2    1    2    0    0  0.00000000000E+00  0.00000000000E+00  0.54094043128E+03  0.37235577250E+04  0.36840555888E+04 0.  0.
        2    1    3    3  502    0 -0.14107917665E+04 -0.90116623437E+03 -0.50629639953E+03  0.17489339709E+04  0.25500000920E-02 0.  1.
       -2    1    3    3    0  502  0.14107917665E+04  0.90116623437E+03  0.10472368308E+04  0.19746237541E+04  0.25500000920E-02 0. -1.
</event>
<event>
 5   0  0.5177000E-08  0.3701805E+04  0.7818609E-02  0.8067562E-01
        1   -1    0    0  501    0  0.00000000000E+00  0.00000000000E+00  0.20142567816E+04  0.20142567816E+04  0.50400001928E-02 0. -1.
       -1   -1    0    0    0  501  0.00000000000E+00  0.00000000000E+00 -0.17007956517E+04  0.17007956517E+04  0.50400001928E-02 0.  1.
    10030    2    1    2    0    0  0.00000000000E+00  0.00000000000E+00  0.31346112990E+03  0.37150524333E+04  0.37018045197E+04 0.  0.
        1    1    3    3  502    0 -0.16414822185E+04 -0.84962577218E+03  0.58855394763E+02  0.18492679048E+04  0.50400001928E-02 0.  1.
       -1    1    3    3    0  502  0.16414822185E+04  0.84962577218E+03  0.25460573513E+03  0.18657845285E+04  0.50400001928E-02 0. -1.
</event>
<event>
 5   0  0.5177000E-08  0.3747902E+04  0.7818609E-02  0.8057428E-01
       -1   -1    0    0    0  501  0.00000000000E+00  0.00000000000E+00  0.21398896391E+04  0.21398896391E+04  0.50400001928E-02 0. -1.
        1   -1    0    0  501    0  0.00000000000E+00  0.00000000000E+00 -0.16410622126E+04  0.16410622126E+04  0.50400001928E-02 0.  1.
    10030    2    1    2    0    0  0.00000000000E+00  0.00000000000E+00  0.49882742652E+03  0.37809518516E+04  0.37479018268E+04 0.  0.
        2    1    3    3  502    0 -0.12321507664E+04 -0.33128332305E+03  0.16340137161E+04  0.20731485657E+04  0.25500000920E-02 0. -1.
       -2    1    3    3    0  502  0.12321507664E+04  0.33128332305E+03 -0.11351862896E+04  0.17078032859E+04  0.25500000920E-02 0.  1.
</event>
<event>
 5   0  0.5177000E-08  0.3702379E+04  0.7818609E-02  0.8067435E-01
        1   -1    0    0  501    0  0.00000000000E+00  0.00000000000E+00  0.25740546068E+04  0.25740546068E+04  0.50400001928E-02 0. -1.
       -1   -1    0    0    0  501  0.00000000000E+00  0.00000000000E+00 -0.13313250715E+04  0.13313250715E+04  0.50400001928E-02 0.  1.
    10030    2    1    2    0    0  0.00000000000E+00  0.00000000000E+00  0.12427295353E+04  0.39053796783E+04  0.37023794692E+04 0.  0.
        4    1    3    3  502    0 -0.35896586045E+03  0.59026108191E+03  0.24329827923E+04  0.25291641928E+04  0.12699999809E+01 0. -1.
       -4    1    3    3    0  502  0.35896586045E+03 -0.59026108191E+03 -0.11902532570E+04  0.13762154855E+04  0.12699999809E+01 0.  1.
</event>
<event>
 5   0  0.5177000E-08  0.3508195E+04  0.7818609E-02  0.8111851E-01
       -3   -1    0    0    0  501  0.00000000000E+00  0.00000000000E+00  0.16663462694E+04  0.16663462724E+04  0.10100000352E+00 0.  1.
        3   -1    0    0  501    0  0.00000000000E+00  0.00000000000E+00 -0.18464699418E+04  0.18464699445E+04  0.10100000352E+00 0. -1.
    10030    2    1    2    0    0  0.00000000000E+00  0.00000000000E+00 -0.18012367242E+03  0.35128162170E+04  0.35081951538E+04 0.  0.
        2    1    3    3  502    0  0.16789382469E+04 -0.43307405922E+03 -0.35587625805E+03  0.17700380472E+04  0.25500000920E-02 0. -1.
       -2    1    3    3    0  502 -0.16789382469E+04  0.43307405922E+03  0.17575258563E+03  0.17427781697E+04  0.25500000920E-02 0.  1.
</event>
<event>
 5   0  0.1587026E-07  0.3697677E+04  0.7818609E-02  0.8068477E-01
       -2   -1    0    0    0  501  0.00000000000E+00  0.00000000000E+00  0.11197125398E+04  0.11197125398E+04  0.25500000920E-02 0. -1.
        2   -1    0    0  501    0  0.00000000000E+00  0.00000000000E+00 -0.30527513265E+04  0.30527513265E+04  0.25500000920E-02 0.  1.
    10030    2    1    2    0    0  0.00000000000E+00  0.00000000000E+00 -0.19330387867E+04  0.41724638663E+04  0.36976770769E+04 0.  0.
        3    1    3    3  502    0 -0.14921635894E+04 -0.10471636420E+04 -0.61853962080E+03  0.19250182190E+04  0.10100000352E+00 0.  1.
       -3    1    3    3    0  502  0.14921635894E+04  0.10471636420E+04 -0.13144991659E+04  0.22474456474E+04  0.10100000352E+00 0. -1.
</event>
<event>
 5   0  0.1587026E-07  0.3693555E+04  0.7818609E-02  0.8069392E-01
        2   -1    0    0  501    0  0.00000000000E+00  0.00000000000E+00  0.28995437125E+04  0.28995437125E+04  0.25500000920E-02 0.  1.
       -2   -1    0    0    0  501  0.00000000000E+00  0.00000000000E+00 -0.11762493675E+04  0.11762493675E+04  0.25500000920E-02 0. -1.
    10030    2    1    2    0    0  0.00000000000E+00  0.00000000000E+00  0.17232943450E+04  0.40757930800E+04  0.36935546336E+04 0.  0.
        3    1    3    3  502    0 -0.17167982686E+04  0.50158705080E+03  0.35404201017E+03  0.18232749710E+04  0.10100000352E+00 0. -1.
       -3    1    3    3    0  502  0.17167982686E+04 -0.50158705080E+03  0.13692523348E+04  0.22525181090E+04  0.10100000352E+00 0.  1.
</event>
<event>
 5   0  0.5177000E-08  0.3699032E+04  0.7818609E-02  0.8068176E-01
       -1   -1    0    0    0  501  0.00000000000E+00  0.00000000000E+00  0.20207068145E+04  0.20207068145E+04  0.50400001928E-02 0.  1.
        1   -1    0    0  501    0  0.00000000000E+00  0.00000000000E+00 -0.16928285610E+04  0.16928285610E+04  0.50400001928E-02 0. -1.
    10030    2    1    2    0    0  0.00000000000E+00  0.00000000000E+00  0.32787825351E+03  0.37135353756E+04  0.36990324190E+04 0.  0.
        3    1    3    3  502    0 -0.10508680026E+04  0.34524167738E+03  0.16520445914E+04  0.19881566127E+04  0.10100000352E+00 0.  1.
       -3    1    3    3    0  502  0.10508680026E+04 -0.34524167738E+03 -0.13241663379E+04  0.17253787628E+04  0.10100000352E+00 0. -1.
</event>
<event>
 5   0  0.5177000E-08  0.3661867E+04  0.7818609E-02  0.8076466E-01
        1   -1    0    0  501    0  0.00000000000E+00  0.00000000000E+00  0.27284618053E+04  0.27284618053E+04  0.50400001928E-02 0. -1.
       -1   -1    0    0    0  501  0.00000000000E+00  0.00000000000E+00 -0.12286472776E+04  0.12286472776E+04  0.50400001928E-02 0.  1.
    10030    2    1    2    0    0  0.00000000000E+00  0.00000000000E+00  0.14998145276E+04  0.39571090829E+04  0.36618668295E+04 0.  0.
        4    1    3    3  502    0  0.48476952863E+03  0.72680348856E+03  0.24886984700E+04  0.26375872486E+04  0.12699999809E+01 0. -1.
       -4    1    3    3    0  502 -0.48476952863E+03 -0.72680348856E+03 -0.98888394232E+03  0.13195218343E+04  0.12699999809E+01 0.  1.
</event>
<event>
 5   0  0.5181371E-08  0.3709200E+04  0.7818609E-02  0.8065926E-01
        1   -1    0    0  501    0  0.00000000000E+00  0.00000000000E+00  0.22325254902E+04  0.22325254902E+04  0.50400001928E-02 0.  1.
       -1   -1    0    0    0  501  0.00000000000E+00  0.00000000000E+00 -0.15406500300E+04  0.15406500300E+04  0.50400001928E-02 0. -1.
    10030    2    1    2    0    0  0.00000000000E+00  0.00000000000E+00  0.69187546027E+03  0.37731755202E+04  0.37091996244E+04 0.  0.
        5    1    3    3  502    0 -0.14831593417E+02  0.13501347134E+04  0.16392573833E+04  0.21237397626E+04  0.46999998093E+01 0.  1.
       -5    1    3    3    0  502  0.14831593417E+02 -0.13501347134E+04 -0.94738192301E+03  0.16494357576E+04  0.46999998093E+01 0. -1.
</event>
<event>
 5   0  0.1666189E-07  0.3711165E+04  0.7818609E-02  0.8065492E-01
        2   -1    0    0  501    0  0.00000000000E+00  0.00000000000E+00  0.21514978795E+04  0.21514978795E+04  0.25500000920E-02 0. -1.
       -2   -1    0    0    0  501  0.00000000000E+00  0.00000000000E+00 -0.16003670862E+04  0.16003670862E+04  0.25500000920E-02 0.  1.
    10030    2    1    2    0    0  0.00000000000E+00  0.00000000000E+00  0.55113079322E+03  0.37518649657E+04  0.37111649882E+04 0.  0.
        4    1    3    3  502    0  0.10832794255E+04  0.51447065128E+03  0.17070782548E+04  0.20862147889E+04  0.12699999809E+01 0. -1.
       -4    1    3    3    0  502 -0.10832794255E+04 -0.51447065128E+03 -0.11559474615E+04  0.16656501768E+04  0.12699999809E+01 0.  1.
</event>
<event>
 5   0  0.1666189E-07  0.3722490E+04  0.7818609E-02  0.8062996E-01
        2   -1    0    0  501    0  0.00000000000E+00  0.00000000000E+00  0.20567511192E+04  0.20567511192E+04  0.25500000920E-02 0. -1.
       -2   -1    0    0    0  501  0.00000000000E+00  0.00000000000E+00 -0.16843228956E+04  0.16843228956E+04  0.25500000920E-02 0.  1.
    10030    2    1    2    0    0  0.00000000000E+00  0.00000000000E+00  0.37242822362E+03  0.37410740148E+04  0.37224900272E+04 0.  0.
        4    1    3    3  502    0  0.15676309412E+04  0.98783606514E+03  0.36300288918E+03  0.18881365337E+04  0.12699999809E+01 0.  1.
       -4    1    3    3    0  502 -0.15676309412E+04 -0.98783606514E+03  0.94253344392E+01  0.18529374812E+04  0.12699999809E+01 0. -1.
</event>
<event>
 5   0  0.1587026E-07  0.3807463E+04  0.7818609E-02  0.8044555E-01
        2   -1    0    0  501    0  0.00000000000E+00  0.00000000000E+00  0.28060381973E+04  0.28060381973E+04  0.25500000920E-02 0.  1.
       -2   -1    0    0    0  501  0.00000000000E+00  0.00000000000E+00 -0.12915693270E+04  0.12915693270E+04  0.25500000920E-02 0. -1.
    10030    2    1    2    0    0  0.00000000000E+00  0.00000000000E+00  0.15144688703E+04  0.40976075243E+04  0.38074626018E+04 0.  0.
        3    1    3    3  502    0 -0.94086454932E+03  0.83253651197E+03 -0.78209500687E+03  0.14798701814E+04  0.10100000352E+00 0. -1.
       -3    1    3    3    0  502  0.94086454932E+03 -0.83253651197E+03  0.22965638772E+04  0.26177373428E+04  0.10100000352E+00 0.  1.
</event>
<event>
 5   0  0.5177000E-08  0.3687702E+04  0.7818609E-02  0.8070693E-01
       -1   -1    0    0    0  501  0.00000000000E+00  0.00000000000E+00  0.15083874253E+04  0.15083874253E+04  0.50400001928E-02 0. -1.
        1   -1    0    0  501    0  0.00000000000E+00  0.00000000000E+00 -0.22539207289E+04  0.22539207289E+04  0.50400001928E-02 0.  1.
    10030    2    1    2    0    0  0.00000000000E+00  0.00000000000E+00 -0.74553330358E+03  0.37623081541E+04  0.36877015525E+04 0.  0.
        1    1    3    3  502    0 -0.67864448447E+03 -0.46532247193E+03  0.13106773729E+04  0.15475653508E+04  0.50400001928E-02 0. -1.
       -1    1    3    3    0  502  0.67864448447E+03  0.46532247193E+03 -0.20562106764E+04  0.22147428034E+04  0.50400001928E-02 0.  1.
</event>
<event>
 5   0  0.1666189E-07  0.3695200E+04  0.7818609E-02  0.8069026E-01
        2   -1    0    0  501    0  0.00000000000E+00  0.00000000000E+00  0.29810700571E+04  0.29810700571E+04  0.25500000920E-02 0.  1.
       -2   -1    0    0    0  501  0.00000000000E+00  0.00000000000E+00 -0.11451005649E+04  0.11451005649E+04  0.25500000920E-02 0. -1.
    10030    2    1    2    0    0  0.00000000000E+00  0.00000000000E+00  0.18359694922E+04  0.41261706221E+04  0.36951995922E+04 0.  0.
        4    1    3    3  502    0  0.52377993590E+02 -0.10933869612E+04  0.25799956785E+04  0.28026091085E+04  0.12699999809E+01 0.  1.
       -4    1    3    3    0  502 -0.52377993590E+02  0.10933869612E+04 -0.74402618634E+03  0.13235615135E+04  0.12699999809E+01 0. -1.
</event>
<event>
 5   0  0.5177000E-08  0.3655663E+04  0.7818609E-02  0.8077859E-01
        1   -1    0    0  501    0  0.00000000000E+00  0.00000000000E+00  0.22504789305E+04  0.22504789305E+04  0.50400001928E-02 0. -1.
       -1   -1    0    0    0  501  0.00000000000E+00  0.00000000000E+00 -0.14845590245E+04  0.14845590245E+04  0.50400001928E-02 0.  1.
    10030    2    1    2    0    0  0.00000000000E+00  0.00000000000E+00  0.76591990598E+03  0.37350379549E+04  0.36556634449E+04 0.  0.
        4    1    3    3  502    0  0.62604145542E+03 -0.91604235053E+03  0.18670502860E+04  0.21718517157E+04  0.12699999809E+01 0. -1.
       -4    1    3    3    0  502 -0.62604145542E+03  0.91604235053E+03 -0.11011303800E+04  0.15631862392E+04  0.12699999809E+01 0.  1.
</event>
<event>
 5   0  0.1558258E-07  0.3741153E+04  0.7818609E-02  0.8058903E-01
        2   -1    0    0  501    0  0.00000000000E+00  0.00000000000E+00  0.28580725065E+04  0.28580725065E+04  0.25500000920E-02 0.  1.
       -2   -1    0    0    0  501  0.00000000000E+00  0.00000000000E+00 -0.12242712860E+04  0.12242712860E+04  0.25500000920E-02 0. -1.
    10030    2    1    2    0    0  0.00000000000E+00  0.00000000000E+00  0.16338012205E+04  0.40823437925E+04  0.37411528186E+04 0.  0.
        1    1    3    3  502    0  0.30287265552E+03 -0.11921701148E+04  0.23547001525E+04  0.26566170661E+04  0.50400001928E-02 0.  1.
       -1    1    3    3    0  502 -0.30287265552E+03  0.11921701148E+04 -0.72089893195E+03  0.14257267263E+04  0.50400001928E-02 0. -1.
</event>
<event>
 5   0  0.1686284E-07  0.3697014E+04  0.7818609E-02  0.8068624E-01
       -2   -1    0    0    0  501  0.00000000000E+00  0.00000000000E+00  0.11211249681E+04  0.11211249681E+04  0.25500000920E-02 0. -1.
        2   -1    0    0  501    0  0.00000000000E+00  0.00000000000E+00 -0.30478115969E+04  0.30478115969E+04  0.25500000920E-02 0.  1.
    10030    2    1    2    0    0  0.00000000000E+00  0.00000000000E+00 -0.19266866289E+04  0.41689365650E+04  0.36970137567E+04 0.  0.
        5    1    3    3  502    0 -0.23334362218E+03 -0.87559557225E+02 -0.30287715274E+04  0.30390121713E+04  0.46999998093E+01 0.  1.
       -5    1    3    3    0  502  0.23334362218E+03  0.87559557225E+02  0.11020848985E+04  0.11299243937E+04  0.46999998093E+01 0. -1.
</event>
<event>
 5   0  0.5177000E-08  0.3705664E+04  0.7818609E-02  0.8066708E-01
        1   -1    0    0  501    0  0.00000000000E+00  0.00000000000E+00  0.25829835429E+04  0.25829835429E+04  0.50400001928E-02 0.  1.
       -1   -1    0    0    0  501  0.00000000000E+00  0.00000000000E+00 -0.13290778033E+04  0.13290778033E+04  0.50400001928E-02 0. -1.
    10030    2    1    2    0    0  0.00000000000E+00  0.00000000000E+00  0.12539057396E+04  0.39120613463E+04  0.37056638235E+04 0.  0.
        1    1    3    3  502    0 -0.81640352753E+03  0.16297955579E+04  0.97746651770E+03  0.20683783681E+04  0.50400001928E-02 0.  1.
       -1    1    3    3    0  502  0.81640352753E+03 -0.16297955579E+04  0.27643922190E+03  0.18436829781E+04  0.50400001928E-02 0. -1.
</event>
<event>
 5   0  0.5177000E-08  0.3702790E+04  0.7818609E-02  0.8067344E-01
        1   -1    0    0  501    0  0.00000000000E+00  0.00000000000E+00  0.12682154286E+04  0.12682154286E+04  0.50400001928E-02 0.  1.
       -1   -1    0    0    0  501  0.00000000000E+00  0.00000000000E+00 -0.27027451445E+04  0.27027451445E+04  0.50400001928E-02 0. -1.
    10030    2    1    2    0    0  0.00000000000E+00  0.00000000000E+00 -0.14345297159E+04  0.39709605731E+04  0.37027898087E+04 0.  0.
        1    1    3    3  502    0 -0.12449357543E+04  0.48799175531E+03  0.65596644700E+03  0.14893934890E+04  0.50400001928E-02 0.  1.
       -1    1    3    3    0  502  0.12449357543E+04 -0.48799175531E+03 -0.20904961629E+04  0.24815670840E+04  0.50400001928E-02 0. -1.
</event>
<event>
 5   0  0.5177000E-08  0.3693057E+04  0.7818609E-02  0.8069502E-01
       -1   -1    0    0    0  501  0.00000000000E+00  0.00000000000E+00  0.12217562355E+04  0.12217562355E+04  0.50400001928E-02 0. -1.
        1   -1    0    0  501    0  0.00000000000E+00  0.00000000000E+00 -0.27907925435E+04  0.27907925435E+04  0.50400001928E-02 0.  1.
    10030    2    1    2    0    0  0.00000000000E+00  0.00000000000E+00 -0.15690363080E+04  0.40125487790E+04  0.36930573740E+04 0.  0.
        4    1    3    3  502    0  0.86751291359E+03  0.45570769482E+03  0.91593926015E+03  0.13413405606E+04  0.12699999809E+01 0. -1.
       -4    1    3    3    0  502 -0.86751291359E+03 -0.45570769482E+03 -0.24849755682E+04  0.26712082183E+04  0.12699999809E+01 0.  1.
</event>
<event>
 5   0  0.1666189E-07  0.3704187E+04  0.7818609E-02  0.8067035E-01
        2   -1    0    0  501    0  0.00000000000E+00  0.00000000000E+00  0.33372659244E+04  0.33372659244E+04  0.25500000920E-02 0. -1.
       -2   -1    0    0    0  501  0.00000000000E+00  0.00000000000E+00 -0.10278623245E+04  0.10278623245E+04  0.25500000920E-02 0.  1.
    10030    2    1    2    0    0  0.00000000000E+00  0.00000000000E+00  0.23094035999E+04  0.43651282489E+04  0.37041867721E+04 0.  0.
        4    1    3    3  502    0 -0.14591066122E+04 -0.19496962844E+03  0.24791884577E+04  0.28832936520E+04  0.12699999809E+01 0. -1.
       -4    1    3    3    0  502  0.14591066122E+04  0.19496962844E+03 -0.16978485786E+03  0.14818345969E+04  0.12699999809E+01 0.  1.
</event>
<event>
 5   0  0.5177000E-08  0.3680110E+04  0.7818609E-02  0.8072384E-01
       -1   -1    0    0    0  501  0.00000000000E+00  0.00000000000E+00  0.14124019464E+04  0.14124019464E+04  0.50400001928E-02 0. -1.
        1   -1    0    0  501    0  0.00000000000E+00  0.00000000000E+00 -0.23971949301E+04  0.23971949301E+04  0.50400001928E-02 0.  1.
    10030    2    1    2    0    0  0.00000000000E+00  0.00000000000E+00 -0.98479298367E+03  0.38095968766E+04  0.36801102078E+04 0.  0.
        1    1    3    3  502    0 -0.23862576234E+01 -0.15615252407E+04  0.51521506925E+03  0.16443276253E+04  0.50400001928E-02 0. -1.
       -1    1    3    3    0  502  0.23862576234E+01  0.15615252407E+04 -0.15000080529E+04  0.21652692513E+04  0.50400001928E-02 0.  1.
</event>
<event>
 5   0  0.1558258E-07  0.3688692E+04  0.7818609E-02  0.8070473E-01
        2   -1    0    0  501    0  0.00000000000E+00  0.00000000000E+00  0.20197579701E+04  0.20197579701E+04  0.25500000920E-02 0.  1.
       -2   -1    0    0    0  501  0.00000000000E+00  0.00000000000E+00 -0.16841678207E+04  0.16841678207E+04  0.25500000920E-02 0. -1.
    10030    2    1    2    0    0  0.00000000000E+00  0.00000000000E+00  0.33559014939E+03  0.37039257908E+04  0.36886915722E+04 0.  0.
        1    1    3    3  502    0  0.12176258107E+04 -0.12426656918E+03  0.15531875639E+04  0.19774848682E+04  0.50400001928E-02 0.  1.
       -1    1    3    3    0  502 -0.12176258107E+04  0.12426656918E+03 -0.12175974145E+04  0.17264409226E+04  0.50400001928E-02 0. -1.
</event>
<event>
 5   0  0.5177000E-08  0.3708770E+04  0.7818609E-02  0.8066021E-01
       -3   -1    0    0    0  501  0.00000000000E+00  0.00000000000E+00  0.13959677910E+04  0.13959677946E+04  0.10100000352E+00 0.  1.
        3   -1    0    0  501    0  0.00000000000E+00  0.00000000000E+00 -0.24633396592E+04  0.24633396613E+04  0.10100000352E+00 0. -1.
    10030    2    1    2    0    0  0.00000000000E+00  0.00000000000E+00 -0.10673718682E+04  0.38593074559E+04  0.37087695175E+04 0.  0.
        4    1    3    3  502    0 -0.15747119914E+04 -0.34965586956E+03 -0.14855634379E+04  0.21929152797E+04  0.12699999809E+01 0.  1.
       -4    1    3    3    0  502  0.15747119914E+04  0.34965586956E+03  0.41819156968E+03  0.16663921762E+04  0.12699999809E+01 0. -1.
</event>
<event>
 5   0  0.1587026E-07  0.3689961E+04  0.7818609E-02  0.8070190E-01
        2   -1    0    0  501    0  0.00000000000E+00  0.00000000000E+00  0.25090796543E+04  0.25090796543E+04  0.25500000920E-02 0.  1.
       -2   -1    0    0    0  501  0.00000000000E+00  0.00000000000E+00 -0.13566542418E+04  0.13566542418E+04  0.25500000920E-02 0. -1.
    10030    2    1    2    0    0  0.00000000000E+00  0.00000000000E+00  0.11524254125E+04  0.38657338962E+04  0.36899612768E+04 0.  0.
        3    1    3    3  502    0 -0.16911188124E+03  0.14451959541E+04 -0.61217867047E+03  0.15785920654E+04  0.10100000352E+00 0. -1.
       -3    1    3    3    0  502  0.16911188124E+03 -0.14451959541E+04  0.17646040830E+04  0.22871418308E+04  0.10100000352E+00 0.  1.
</event>
<event>
 5   0  0.5177000E-08  0.3722328E+04  0.7818609E-02  0.8063032E-01
        1   -1    0    0  501    0  0.00000000000E+00  0.00000000000E+00  0.18924235557E+04  0.18924235557E+04  0.50400001928E-02 0.  1.
       -1   -1    0    0    0  501  0.00000000000E+00  0.00000000000E+00 -0.18304204016E+04  0.18304204016E+04  0.50400001928E-02 0. -1.
    10030    2    1    2    0    0  0.00000000000E+00  0.00000000000E+00  0.62003154170E+02  0.37228439573E+04  0.37223275970E+04 0.  0.
        1    1    3    3  502    0  0.10498762485E+04 -0.29623846107E+03  0.15391674315E+04  0.18865401520E+04  0.50400001928E-02 0.  1.
       -1    1    3    3    0  502 -0.10498762485E+04  0.29623846107E+03 -0.14771642773E+04  0.18363038053E+04  0.50400001928E-02 0. -1.
</event>
<event>
 5   0  0.5177000E-08  0.3756316E+04  0.7818609E-02  0.8055595E-01
       -3   -1    0    0    0  501  0.00000000000E+00  0.00000000000E+00  0.10879603678E+04  0.10879603725E+04  0.10100000352E+00 0. -1.
        3   -1    0    0  501    0  0.00000000000E+00  0.00000000000E+00 -0.32422845677E+04  0.32422845692E+04  0.10100000352E+00 0.  1.
    10030    2    1    2    0    0  0.00000000000E+00  0.00000000000E+00 -0.21543241998E+04  0.43302449418E+04  0.37563158144E+04 0.  0.
        4    1    3    3  502    0  0.12080310225E+04 -0.12435675134E+04 -0.24453419973E+03  0.17508848333E+04  0.12699999809E+01 0. -1.
       -4    1    3    3    0  502 -0.12080310225E+04  0.12435675134E+04 -0.19097900001E+04  0.25793601085E+04  0.12699999809E+01 0.  1.
</event>
<event>
 5   0  0.1686284E-07  0.3696075E+04  0.7818609E-02  0.8068832E-01
        2   -1    0    0  501    0  0.00000000000E+00  0.00000000000E+00  0.11407179915E+04  0.11407179915E+04  0.25500000920E-02 0. -1.
       -2   -1    0    0    0  501  0.00000000000E+00  0.00000000000E+00 -0.29939405362E+04  0.29939405362E+04  0.25500000920E-02 0.  1.
    10030    2    1    2    0    0  0.00000000000E+00  0.00000000000E+00 -0.18532225447E+04  0.41346585277E+04  0.36960745854E+04 0.  0.
        5    1    3    3  502    0 -0.11757803021E+04  0.12901250354E+04 -0.24768583960E+03  0.17630236218E+04  0.46999998093E+01 0. -1.
       -5    1    3    3    0  502  0.11757803021E+04 -0.12901250354E+04 -0.16055367051E+04  0.23716349060E+04  0.46999998093E+01 0.  1.
</event>
<event>
 5   0  0.5177000E-08  0.3688312E+04  0.7818609E-02  0.8070557E-01
       -1   -1    0    0    0  501  0.00000000000E+00  0.00000000000E+00  0.13532887381E+04  0.13532887382E+04  0.50400001928E-02 0. -1.
        1   -1    0    0  501    0  0.00000000000E+00  0.00000000000E+00 -0.25130713161E+04  0.25130713161E+04  0.50400001928E-02 0.  1.
    10030    2    1    2    0    0  0.00000000000E+00  0.00000000000E+00 -0.11597825779E+04  0.38663600542E+04  0.36883118687E+04 0.  0.
        1    1    3    3  502    0  0.71672726024E+03  0.14839868865E+04 -0.14474895992E+04  0.21934313723E+04  0.50400001928E-02 0. -1.
       -1    1    3    3    0  502 -0.71672726024E+03 -0.14839868865E+04  0.28770702131E+03  0.16729286820E+04  0.50400001928E-02 0.  1.
</event>
<event>
 5   0  0.5181371E-08  0.3705203E+04  0.7818609E-02  0.8066810E-01
       -1   -1    0    0    0  501  0.00000000000E+00  0.00000000000E+00  0.14912064517E+04  0.14912064517E+04  0.50400001928E-02 0.  1.
        1   -1    0    0  501    0  0.00000000000E+00  0.00000000000E+00 -0.23015811136E+04  0.23015811136E+04  0.50400001928E-02 0. -1.
    10030    2    1    2    0    0  0.00000000000E+00  0.00000000000E+00 -0.81037466193E+03  0.37927875653E+04  0.37052031554E+04 0.  0.
        5    1    3    3  502    0  0.69656803347E+02 -0.12204098085E+04 -0.18301631903E+04  0.22008570067E+04  0.46999998093E+01 0. -1.
       -5    1    3    3    0  502 -0.69656803347E+02  0.12204098085E+04  0.10197885284E+04  0.15919305586E+04  0.46999998093E+01 0.  1.
</event>
<event>
 5   0  0.5177000E-08  0.3661780E+04  0.7818609E-02  0.8076485E-01
       -1   -1    0    0    0  501  0.00000000000E+00  0.00000000000E+00  0.16941783846E+04  0.16941783846E+04  0.50400001928E-02 0.  1.
        1   -1    0    0  501    0  0.00000000000E+00  0.00000000000E+00 -0.19786330415E+04  0.19786330415E+04  0.50400001928E-02 0. -1.
    10030    2    1    2    0    0  0.00000000000E+00  0.00000000000E+00 -0.28445465697E+03  0.36728114261E+04  0.36617795291E+04 0.  0.
        3    1    3    3  502    0 -0.10441061202E+03  0.16016129875E+04 -0.10258420133E+04  0.19048405666E+04  0.10100000352E+00 0. -1.
       -3    1    3    3    0  502  0.10441061202E+03 -0.16016129875E+04  0.74138735633E+03  0.17679708595E+04  0.10100000352E+00 0.  1.
</event>
<event>
 5   0  0.1666189E-07  0.3690461E+04  0.7818609E-02  0.8070079E-01
        2   -1    0    0  501    0  0.00000000000E+00  0.00000000000E+00  0.26052681018E+04  0.26052681018E+04  0.25500000920E-02 0.  1.
       -2   -1    0    0    0  501  0.00000000000E+00  0.00000000000E+00 -0.13069194847E+04  0.13069194847E+04  0.25500000920E-02 0. -1.
    10030    2    1    2    0    0  0.00000000000E+00  0.00000000000E+00  0.12983486170E+04  0.39121875865E+04  0.36904610255E+04 0.  0.
        4    1    3    3  502    0 -0.87139360645E+03  0.14755373592E+04  0.13746421251E+04  0.21968568230E+04  0.12699999809E+01 0.  1.
       -4    1    3    3    0  502  0.87139360645E+03 -0.14755373592E+04 -0.76293508067E+02  0.17153307635E+04  0.12699999809E+01 0. -1.
</event>
<event>
 5   0  0.5177000E-08  0.3674159E+04  0.7818609E-02  0.8073713E-01
        1   -1    0    0  501    0  0.00000000000E+00  0.00000000000E+00  0.22936909402E+04  0.22936909402E+04  0.50400001928E-02 0. -1.
       -1   -1    0    0    0  501  0.00000000000E+00  0.00000000000E+00 -0.14713671446E+04  0.14713671447E+04  0.50400001928E-02 0.  1.
    10030    2    1    2    0    0  0.00000000000E+00  0.00000000000E+00  0.82232379555E+03  0.37650580848E+04  0.36741592178E+04 0.  0.
        2    1    3    3  502    0 -0.65992967666E+03  0.14244672652E+04 -0.56651063293E+03  0.16689962448E+04  0.25500000920E-02 0.  1.
       -2    1    3    3    0  502  0.65992967666E+03 -0.14244672652E+04  0.13888344285E+04  0.20960618401E+04  0.25500000920E-02 0. -1.
</event>
<event>
 5   0  0.1558258E-07  0.3699883E+04  0.7818609E-02  0.8067988E-01
        2   -1    0    0  501    0  0.00000000000E+00  0.00000000000E+00  0.18931683951E+04  0.18931683951E+04  0.25500000920E-02 0.  1.
       -2   -1    0    0    0  501  0.00000000000E+00  0.00000000000E+00 -0.18077018110E+04  0.18077018110E+04  0.25500000920E-02 0. -1.
    10030    2    1    2    0    0  0.00000000000E+00  0.00000000000E+00  0.85466584119E+02  0.37008702060E+04  0.36998832069E+04 0.  0.
        1    1    3    3  502    0  0.14700305557E+04  0.10445213496E+04 -0.37001373420E+03  0.18409032696E+04  0.50400001928E-02 0.  1.
       -1    1    3    3    0  502 -0.14700305557E+04 -0.10445213496E+04  0.45548031832E+03  0.18599669365E+04  0.50400001928E-02 0. -1.
</event>
<event>
 5   0  0.1666189E-07  0.3779910E+04  0.7818609E-02  0.8050480E-01
        2   -1    0    0  501    0  0.00000000000E+00  0.00000000000E+00  0.12918828977E+04  0.12918828977E+04  0.25500000920E-02 0.  1.
       -2   -1    0    0    0  501  0.00000000000E+00  0.00000000000E+00 -0.27649023492E+04  0.27649023492E+04  0.25500000920E-02 0. -1.
    10030    2    1    2    0    0  0.00000000000E+00  0.00000000000E+00 -0.14730194515E+04  0.40567852469E+04  0.37799100830E+04 0.  0.
        4    1    3    3  502    0 -0.54999765617E+03  0.18073263809E+04 -0.67770216401E+03  0.20070395872E+04  0.12699999809E+01 0. -1.
       -4    1    3    3    0  502  0.54999765617E+03 -0.18073263809E+04 -0.79531728748E+03  0.20497456597E+04  0.12699999809E+01 0.  1.
</event>
<event>
 5   0  0.1666189E-07  0.3696191E+04  0.7818609E-02  0.8068807E-01
        2   -1    0    0  501    0  0.00000000000E+00  0.00000000000E+00  0.32189421056E+04  0.32189421056E+04  0.25500000920E-02 0. -1.
       -2   -1    0    0    0  501  0.00000000000E+00  0.00000000000E+00 -0.10610493760E+04  0.10610493760E+04  0.25500000920E-02 0.  1.
    10030    2    1    2    0    0  0.00000000000E+00  0.00000000000E+00  0.21578927296E+04  0.42799914816E+04  0.36961907486E+04 0.  0.
        4    1    3    3  502    0  0.11765550784E+04 -0.11717660596E+04  0.20183382355E+04  0.26136197881E+04  0.12699999809E+01 0. -1.
       -4    1    3    3    0  502 -0.11765550784E+04  0.11717660596E+04  0.13955449412E+03  0.16663716935E+04  0.12699999809E+01 0.  1.
</event>
<event>
 5   0  0.1658770E-07  0.3700869E+04  0.7818609E-02  0.8067769E-01
       -2   -1    0    0    0  501  0.00000000000E+00  0.00000000000E+00  0.15981967541E+04  0.15981967541E+04  0.25500000920E-02 0.  1.
        2   -1    0    0  501    0  0.00000000000E+00  0.00000000000E+00 -0.21424820543E+04  0.21424820543E+04  0.25500000920E-02 0. -1.
    10030    2    1    2    0    0  0.00000000000E+00  0.00000000000E+00 -0.54428530022E+03  0.37406788083E+04  0.37008690141E+04 0.  0.
        2    1    3    3  502    0  0.16212709975E+04 -0.62667902258E+03 -0.91368399833E+03  0.19636865059E+04  0.25500000920E-02 0. -1.
       -2    1    3    3    0  502 -0.16212709975E+04  0.62667902258E+03  0.36939869811E+03  0.17769923024E+04  0.25500000920E-02 0.  1.
</event>
<event>
 5   0  0.1587026E-07  0.3686722E+04  0.7818609E-02  0.8070911E-01
       -2   -1    0    0    0  501  0.00000000000E+00  0.00000000000E+00  0.18250111923E+04  0.18250111923E+04  0.25500000920E-02 0.  1.
        2   -1    0    0  501    0  0.00000000000E+00  0.00000000000E+00 -0.18618949417E+04  0.18618949417E+04  0.25500000920E-02 0. -1.
    10030    2    1    2    0    0  0.00000000000E+00  0.00000000000E+00 -0.36883749360E+02  0.36869061341E+04  0.36867216372E+04 0.  0.
        3    1    3    3  502    0 -0.17412701356E+04  0.32139418484E+03 -0.53097429312E+03  0.18485804331E+04  0.10100000352E+00 0. -1.
       -3    1    3    3    0  502  0.17412701356E+04 -0.32139418484E+03  0.49409054376E+03  0.18383257010E+04  0.10100000352E+00 0.  1.
</event>
<event>
 5   0  0.5177000E-08  0.3581599E+04  0.7818609E-02  0.8094720E-01
        1   -1    0    0  501    0  0.00000000000E+00  0.00000000000E+00  0.95662380799E+03  0.95662380800E+03  0.50400001928E-02 0. -1.
       -1   -1    0    0    0  501  0.00000000000E+00  0.00000000000E+00 -0.33523761755E+04  0.33523761755E+04  0.50400001928E-02 0.  1.
    10030    2    1    2    0    0  0.00000000000E+00  0.00000000000E+00 -0.23957523675E+04  0.43089999835E+04  0.35815990076E+04 0.  0.
        3    1    3    3  502    0 -0.13333530916E+04 -0.55682194528E+03  0.74836668316E+02  0.14468868935E+04  0.10100000352E+00 0. -1.
       -3    1    3    3    0  502  0.13333530916E+04  0.55682194528E+03 -0.24705890358E+04  0.28621130899E+04  0.10100000352E+00 0.  1.
</event>
<event>
 5   0  0.5177000E-08  0.3689711E+04  0.7818609E-02  0.8070246E-01
        1   -1    0    0  501    0  0.00000000000E+00  0.00000000000E+00  0.19617596907E+04  0.19617596907E+04  0.50400001928E-02 0.  1.
       -1   -1    0    0    0  501  0.00000000000E+00  0.00000000000E+00 -0.17349176889E+04  0.17349176889E+04  0.50400001928E-02 0. -1.
    10030    2    1    2    0    0  0.00000000000E+00  0.00000000000E+00  0.22684200180E+03  0.36966773796E+04  0.36897108769E+04 0.  0.
        4    1    3    3  502    0 -0.28605831894E+03  0.71825294565E+03  0.17916279077E+04  0.19513197658E+04  0.12699999809E+01 0.  1.
       -4    1    3    3    0  502  0.28605831894E+03 -0.71825294565E+03 -0.15647859059E+04  0.17453576138E+04  0.12699999809E+01 0. -1.
</event>
<event>
 5   0  0.1587026E-07  0.3698900E+04  0.7818609E-02  0.8068206E-01
       -2   -1    0    0    0  501  0.00000000000E+00  0.00000000000E+00  0.33770959193E+04  0.33770959193E+04  0.25500000920E-02 0.  1.
        2   -1    0    0  501    0  0.00000000000E+00  0.00000000000E+00 -0.10128420580E+04  0.10128420580E+04  0.25500000920E-02 0. -1.
    10030    2    1    2    0    0  0.00000000000E+00  0.00000000000E+00  0.23642538613E+04  0.43899379773E+04  0.36988997180E+04 0.  0.
        3    1    3    3  502    0 -0.95220606597E+03  0.12596727536E+04  0.39448476038E+02  0.15795657728E+04  0.10100000352E+00 0. -1.
       -3    1    3    3    0  502  0.95220606597E+03 -0.12596727536E+04  0.23248053852E+04  0.28103722045E+04  0.10100000352E+00 0.  1.
</event>
<event>
 5   0  0.1658770E-07  0.3712164E+04  0.7818609E-02  0.8065272E-01
       -2   -1    0    0    0  501  0.00000000000E+00  0.00000000000E+00  0.15312564294E+04  0.15312564294E+04  0.25500000920E-02 0.  1.
        2   -1    0    0  501    0  0.00000000000E+00  0.00000000000E+00 -0.22498126940E+04  0.22498126940E+04  0.25500000920E-02 0. -1.
    10030    2    1    2    0    0  0.00000000000E+00  0.00000000000E+00 -0.71855626460E+03  0.37810691234E+04  0.37121638717E+04 0.  0.
        2    1    3    3  502    0 -0.13570877484E+04 -0.86551348222E+03  0.58212855391E+03  0.17116291649E+04  0.25500000920E-02 0.  1.
       -2    1    3    3    0  502  0.13570877484E+04  0.86551348222E+03 -0.13006848185E+04  0.20694399585E+04  0.25500000920E-02 0. -1.
</event>
<event>
 5   0  0.5177000E-08  0.3709577E+04  0.7818609E-02  0.8065843E-01
        1   -1    0    0  501    0  0.00000000000E+00  0.00000000000E+00  0.22503443929E+04  0.22503443929E+04  0.50400001928E-02 0.  1.
       -1   -1    0    0    0  501  0.00000000000E+00  0.00000000000E+00 -0.15287615186E+04  0.15287615186E+04  0.50400001928E-02 0. -1.
    10030    2    1    2    0    0  0.00000000000E+00  0.00000000000E+00  0.72158287433E+03  0.37791059115E+04  0.37095767476E+04 0.  0.
        1    1    3    3  502    0 -0.11012296729E+04  0.48357182571E+03 -0.10776549224E+04  0.16148958588E+04  0.50400001928E-02 0. -1.
       -1    1    3    3    0  502  0.11012296729E+04 -0.48357182571E+03  0.17992377967E+04  0.21642100527E+04  0.50400001928E-02 0.  1.
</event>
<event>
 5   0  0.1558258E-07  0.3699872E+04  0.7818609E-02  0.8067990E-01
        2   -1    0    0  501    0  0.00000000000E+00  0.00000000000E+00  0.21341823040E+04  0.21341823040E+04  0.25500000920E-02 0. -1.
       -2   -1    0    0    0  501  0.00000000000E+00  0.00000000000E+00 -0.16035475091E+04  0.16035475091E+04  0.25500000920E-02 0.  1.
    10030    2    1    2    0    0  0.00000000000E+00  0.00000000000E+00  0.53063479486E+03  0.37377298131E+04  0.36998717370E+04 0.  0.
        1    1    3    3  502    0 -0.12886598743E+04  0.13266677932E+04  0.30535896443E+03  0.18745494931E+04  0.50400001928E-02 0.  1.
       -1    1    3    3    0  502  0.12886598743E+04 -0.13266677932E+04  0.22527583043E+03  0.18631803200E+04  0.50400001928E-02 0. -1.
</event>
<event>
 5   0  0.5177000E-08  0.3714312E+04  0.7818609E-02  0.8064797E-01
       -1   -1    0    0    0  501  0.00000000000E+00  0.00000000000E+00  0.17309997901E+04  0.17309997901E+04  0.50400001928E-02 0. -1.
        1   -1    0    0  501    0  0.00000000000E+00  0.00000000000E+00 -0.19925069839E+04  0.19925069839E+04  0.50400001928E-02 0.  1.
    10030    2    1    2    0    0  0.00000000000E+00  0.00000000000E+00 -0.26150719375E+03  0.37235067740E+04  0.37143124106E+04 0.  0.
        2    1    3    3  502    0 -0.85083498890E+03  0.74642073289E+03  0.13452922950E+04  0.17580885779E+04  0.25500000920E-02 0. -1.
       -2    1    3    3    0  502  0.85083498890E+03 -0.74642073289E+03 -0.16067994887E+04  0.19654181961E+04  0.25500000920E-02 0.  1.
</event>
<event>
 5   0  0.1686284E-07  0.3683857E+04  0.7818609E-02  0.8071549E-01
        2   -1    0    0  501    0  0.00000000000E+00  0.00000000000E+00  0.27046550690E+04  0.27046550690E+04  0.25500000920E-02 0. -1.
       -2   -1    0    0    0  501  0.00000000000E+00  0.00000000000E+00 -0.12543930503E+04  0.12543930503E+04  0.25500000920E-02 0.  1.
    10030    2    1    2    0    0  0.00000000000E+00  0.00000000000E+00  0.14502620187E+04  0.39590481194E+04  0.36838569582E+04 0.  0.
        5    1    3    3  502    0 -0.10245823977E+04  0.13768725293E+04  0.14437614292E+04  0.22427697622E+04  0.46999998093E+01 0. -1.
       -5    1    3    3    0  502  0.10245823977E+04 -0.13768725293E+04  0.65005894421E+01  0.17162783572E+04  0.46999998093E+01 0.  1.
</event>
<event>
 5   0  0.5177000E-08  0.3690903E+04  0.7818609E-02  0.8069981E-01
        1   -1    0    0  501    0  0.00000000000E+00  0.00000000000E+00  0.30362021463E+04  0.30362021463E+04  0.50400001928E-02 0. -1.
       -1   -1    0    0    0  501  0.00000000000E+00  0.00000000000E+00 -0.11216946129E+04  0.11216946129E+04  0.50400001928E-02 0.  1.
    10030    2    1    2    0    0  0.00000000000E+00  0.00000000000E+00  0.19145075333E+04  0.41578967592E+04  0.36909031909E+04 0.  0.
        2    1    3    3  502    0 -0.48407220695E+03 -0.11659490615E+04 -0.55913854038E+03  0.13807240937E+04  0.25500000920E-02 0.  1.
       -2    1    3    3    0  502  0.48407220695E+03  0.11659490615E+04  0.24736460737E+04  0.27771726655E+04  0.25500000920E-02 0. -1.
</event>
<event>
 5   0  0.5177000E-08  0.3568511E+04  0.7818609E-02  0.8097743E-01
        1   -1    0    0  501    0  0.00000000000E+00  0.00000000000E+00  0.30726180989E+04  0.30726180989E+04  0.50400001928E-02 0. -1.
       -1   -1    0    0    0  501  0.00000000000E+00  0.00000000000E+00 -0.10361091988E+04  0.10361091988E+04  0.50400001928E-02 0.  1.
    10030    2    1    2    0    0  0.00000000000E+00  0.00000000000E+00  0.20365089002E+04  0.41087272977E+04  0.35685111050E+04 0.  0.
        3    1    3    3  502    0 -0.65090852264E+03 -0.16511939573E+04  0.12288176487E+04  0.21587302317E+04  0.10100000352E+00 0.  1.
       -3    1    3    3    0  502  0.65090852264E+03  0.16511939573E+04  0.80769125144E+03  0.19499970660E+04  0.10100000352E+00 0. -1.
</event>
<event>
 5   0  0.5181371E-08  0.3696287E+04  0.7818609E-02  0.8068785E-01
        1   -1    0    0  501    0  0.00000000000E+00  0.00000000000E+00  0.31174198053E+04  0.31174198053E+04  0.50400001928E-02 0.  1.
       -1   -1    0    0    0  501  0.00000000000E+00  0.00000000000E+00 -0.10956607455E+04  0.10956607455E+04  0.50400001928E-02 0. -1.
    10030    2    1    2    0    0  0.00000000000E+00  0.00000000000E+00  0.20217590597E+04  0.42130805508E+04  0.36962870602E+04 0.  0.
        5    1    3    3  502    0 -0.13036206506E+04 -0.11124217671E+04  0.22226034142E+03  0.17281003263E+04  0.46999998093E+01 0. -1.
       -5    1    3    3    0  502  0.13036206506E+04  0.11124217671E+04  0.17994987183E+04  0.24849802244E+04  0.46999998093E+01 0.  1.
</event>
<event>
 5   0  0.1558258E-07  0.3712560E+04  0.7818609E-02  0.8065184E-01
       -2   -1    0    0    0  501  0.00000000000E+00  0.00000000000E+00  0.14958256040E+04  0.14958256040E+04  0.25500000920E-02 0. -1.
        2   -1    0    0  501    0  0.00000000000E+00  0.00000000000E+00 -0.23035940067E+04  0.23035940067E+04  0.25500000920E-02 0.  1.
    10030    2    1    2    0    0  0.00000000000E+00  0.00000000000E+00 -0.80776840267E+03  0.37994196107E+04  0.37125597080E+04 0.  0.
        1    1    3    3  502    0 -0.10769236690E+04  0.37141985837E+02 -0.19507471062E+04  0.22285776604E+04  0.50400001928E-02 0.  1.
       -1    1    3    3    0  502  0.10769236690E+04 -0.37141985837E+02  0.11429787035E+04  0.15708419503E+04  0.50400001928E-02 0. -1.
</event>
<event>
 5   0  0.5177000E-08  0.3753407E+04  0.7818609E-02  0.8056228E-01
        1   -1    0    0  501    0  0.00000000000E+00  0.00000000000E+00  0.25366442884E+04  0.25366442884E+04  0.50400001928E-02 0.  1.
       -1   -1    0    0    0  501  0.00000000000E+00  0.00000000000E+00 -0.13884550974E+04  0.13884550974E+04  0.50400001928E-02 0. -1.
    10030    2    1    2    0    0  0.00000000000E+00  0.00000000000E+00  0.11481891910E+04  0.39250993858E+04  0.37534073547E+04 0.  0.
        3    1    3    3  502    0 -0.90069551453E+02  0.16086361233E+04  0.15805068919E+04  0.22569503200E+04  0.10100000352E+00 0.  1.
       -3    1    3    3    0  502  0.90069551453E+02 -0.16086361233E+04 -0.43231770095E+03  0.16681490659E+04  0.10100000352E+00 0. -1.
</event>
<event>
 5   0  0.1658770E-07  0.3692558E+04  0.7818609E-02  0.8069613E-01
        2   -1    0    0  501    0  0.00000000000E+00  0.00000000000E+00  0.24900221451E+04  0.24900221451E+04  0.25500000920E-02 0.  1.
       -2   -1    0    0    0  501  0.00000000000E+00  0.00000000000E+00 -0.13689621246E+04  0.13689621246E+04  0.25500000920E-02 0. -1.
    10030    2    1    2    0    0  0.00000000000E+00  0.00000000000E+00  0.11210600206E+04  0.38589842697E+04  0.36925579243E+04 0.  0.
        2    1    3    3  502    0 -0.10985739776E+04 -0.12221662639E+04 -0.31893961723E+03  0.16740004900E+04  0.25500000920E-02 0. -1.
       -2    1    3    3    0  502  0.10985739776E+04  0.12221662639E+04  0.14399996378E+04  0.21849837798E+04  0.25500000920E-02 0.  1.
</event>
<event>
 5   0  0.5177000E-08  0.3699797E+04  0.7818609E-02  0.8068007E-01
       -1   -1    0    0    0  501  0.00000000000E+00  0.00000000000E+00  0.12757164160E+04  0.12757164160E+04  0.50400001928E-02 0.  1.
        1   -1    0    0  501    0  0.00000000000E+00  0.00000000000E+00 -0.26825113624E+04  0.26825113624E+04  0.50400001928E-02 0. -1.
    10030    2    1    2    0    0  0.00000000000E+00  0.00000000000E+00 -0.14067949463E+04  0.39582277784E+04  0.36997966329E+04 0.  0.
        4    1    3    3  502    0  0.10296974729E+04 -0.12550706706E+04  0.24548350705E+03  0.16418718096E+04  0.12699999809E+01 0.  1.
       -4    1    3    3    0  502 -0.10296974729E+04  0.12550706706E+04 -0.16522784534E+04  0.23163559688E+04  0.12699999809E+01 0. -1.
</event>
<event>
 5   0  0.5181371E-08  0.3721277E+04  0.7818609E-02  0.8063263E-01
        1   -1    0    0  501    0  0.00000000000E+00  0.00000000000E+00  0.15230671838E+04  0.15230671838E+04  0.50400001928E-02 0.  1.
       -1   -1    0    0    0  501  0.00000000000E+00  0.00000000000E+00 -0.22730287279E+04  0.22730287279E+04  0.50400001928E-02 0. -1.
    10030    2    1    2    0    0  0.00000000000E+00  0.00000000000E+00 -0.74996154410E+03  0.37960959117E+04  0.37212769116E+04 0.  0.
        5    1    3    3  502    0  0.12511990643E+04 -0.58414602592E+03 -0.16471420695E+04  0.21493777624E+04  0.46999998093E+01 0. -1.
       -5    1    3    3    0  502 -0.12511990643E+04  0.58414602592E+03  0.89718052539E+03  0.16467181493E+04  0.46999998093E+01 0.  1.
</event>
<event>
 5   0  0.1686284E-07  0.3703083E+04  0.7818609E-02  0.8067279E-01
        2   -1    0    0  501    0  0.00000000000E+00  0.00000000000E+00  0.26444846623E+04  0.26444846623E+04  0.25500000920E-02 0.  1.
       -2   -1    0    0    0  501  0.00000000000E+00  0.00000000000E+00 -0.12963609421E+04  0.12963609421E+04  0.25500000920E-02 0. -1.
    10030    2    1    2    0    0  0.00000000000E+00  0.00000000000E+00  0.13481237202E+04  0.39408456043E+04  0.37030833791E+04 0.  0.
        5    1    3    3  502    0 -0.12792341958E+02 -0.28917147373E+03  0.26202511836E+04  0.26361946325E+04  0.46999998093E+01 0.  1.
       -5    1    3    3    0  502  0.12792341958E+02  0.28917147373E+03 -0.12721274634E+04  0.13046509718E+04  0.46999998093E+01 0. -1.
</event>
<event>
 5   0  0.5181371E-08  0.3704471E+04  0.7818609E-02  0.8066972E-01
       -1   -1    0    0    0  501  0.00000000000E+00  0.00000000000E+00  0.21493064817E+04  0.21493064817E+04  0.50400001928E-02 0.  1.
        1   -1    0    0  501    0  0.00000000000E+00  0.00000000000E+00 -0.15962251506E+04  0.15962251506E+04  0.50400001928E-02 0. -1.
    10030    2    1    2    0    0  0.00000000000E+00  0.00000000000E+00  0.55308133114E+03  0.37455316323E+04  0.37044713860E+04 0.  0.
        5    1    3    3  502    0  0.12273425369E+04 -0.40190474446E+03  0.16189837163E+04  0.20709967383E+04  0.46999998093E+01 0.  1.
       -5    1    3    3    0  502 -0.12273425369E+04  0.40190474446E+03 -0.10659023852E+04  0.16745348940E+04  0.46999998093E+01 0. -1.
</event>
<event>
 5   0  0.5177000E-08  0.3696594E+04  0.7818609E-02  0.8068717E-01
       -1   -1    0    0    0  501  0.00000000000E+00  0.00000000000E+00  0.20785284065E+04  0.20785284065E+04  0.50400001928E-02 0. -1.
        1   -1    0    0  501    0  0.00000000000E+00  0.00000000000E+00 -0.16435671377E+04  0.16435671377E+04  0.50400001928E-02 0.  1.
    10030    2    1    2    0    0  0.00000000000E+00  0.00000000000E+00  0.43496126873E+03  0.37220955442E+04  0.36965935582E+04 0.  0.
        2    1    3    3  502    0 -0.82421895385E+02  0.64099134834E+03  0.19610553877E+04  0.20648005984E+04  0.25500000920E-02 0. -1.
       -2    1    3    3    0  502  0.82421895385E+02 -0.64099134834E+03 -0.15260941190E+04  0.16572949458E+04  0.25500000920E-02 0.  1.
</event>
<event>
 5   0  0.1558258E-07  0.3667995E+04  0.7818609E-02  0.8075092E-01
       -2   -1    0    0    0  501  0.00000000000E+00  0.00000000000E+00  0.12589258184E+04  0.12589258184E+04  0.25500000920E-02 0. -1.
        2   -1    0    0  501    0  0.00000000000E+00  0.00000000000E+00 -0.26717589791E+04  0.26717589791E+04  0.25500000920E-02 0.  1.
    10030    2    1    2    0    0  0.00000000000E+00  0.00000000000E+00 -0.14128331606E+04  0.39306847975E+04  0.36679947434E+04 0.  0.
        1    1    3    3  502    0  0.11430700324E+04  0.12535267579E+04  0.40345743544E+02  0.16969284636E+04  0.50400001928E-02 0. -1.
       -1    1    3    3    0  502 -0.11430700324E+04 -0.12535267579E+04 -0.14531789042E+04  0.22337563339E+04  0.50400001928E-02 0.  1.
</event>
<event>
 5   0  0.5177000E-08  0.3708041E+04  0.7818609E-02  0.8066182E-01
        1   -1    0    0  501    0  0.00000000000E+00  0.00000000000E+00  0.11521061160E+04  0.11521061160E+04  0.50400001928E-02 0.  1.
       -1   -1    0    0    0  501  0.00000000000E+00  0.00000000000E+00 -0.29835728168E+04  0.29835728168E+04  0.50400001928E-02 0. -1.
    10030    2    1    2    0    0  0.00000000000E+00  0.00000000000E+00 -0.18314667008E+04  0.41356789327E+04  0.37080412563E+04 0.  0.
        4    1    3    3  502    0  0.95604150740E+03 -0.32918295774E+03 -0.26489868781E+04  0.28354029479E+04  0.12699999809E+01 0. -1.
       -4    1    3    3    0  502 -0.95604150740E+03  0.32918295774E+03  0.81752017732E+03  0.13002759848E+04  0.12699999809E+01 0.  1.
</event>
<event>
 5   0  0.1558258E-07  0.3701983E+04  0.7818609E-02  0.8067523E-01
        2   -1    0    0  501    0  0.00000000000E+00  0.00000000000E+00  0.31402696737E+04  0.31402696737E+04  0.25500000920E-02 0. -1.
       -2   -1    0    0    0  501  0.00000000000E+00  0.00000000000E+00 -0.10910429468E+04  0.10910429468E+04  0.25500000920E-02 0.  1.
    10030    2    1    2    0    0  0.00000000000E+00  0.00000000000E+00  0.20492267269E+04  0.42313126204E+04  0.37019827544E+04 0.  0.
        1    1    3    3  502    0  0.78947503619E+03  0.12983651858E+04 -0.18346667105E+03  0.15305825714E+04  0.50400001928E-02 0.  1.
       -1    1    3    3    0  502 -0.78947503619E+03 -0.12983651858E+04  0.22326933980E+04  0.27007300490E+04  0.50400001928E-02 0. -1.
</event>
<event>
 5   0  0.1558258E-07  0.3705192E+04  0.7818609E-02  0.8066812E-01
        2   -1    0    0  501    0  0.00000000000E+00  0.00000000000E+00  0.22973454206E+04  0.22973454206E+04  0.25500000920E-02 0.  1.
       -2   -1    0    0    0  501  0.00000000000E+00  0.00000000000E+00 -0.14939467740E+04  0.14939467740E+04  0.25500000920E-02 0. -1.
    10030    2    1    2    0    0  0.00000000000E+00  0.00000000000E+00  0.80339864659E+03  0.37912921947E+04  0.37051919141E+04 0.  0.
        1    1    3    3  502    0 -0.50141716378E+03  0.16621335900E+02  0.22265130415E+04  0.22823355943E+04  0.50400001928E-02 0.  1.
       -1    1    3    3    0  502  0.50141716378E+03 -0.16621335900E+02 -0.14231143949E+04  0.15089566004E+04  0.50400001928E-02 0. -1.
</event>
<event>
 5   0  0.5177000E-08  0.3667530E+04  0.7818609E-02  0.8075196E-01
        1   -1    0    0  501    0  0.00000000000E+00  0.00000000000E+00  0.19952471478E+04  0.19952471478E+04  0.50400001928E-02 0. -1.
       -1   -1    0    0    0  501  0.00000000000E+00  0.00000000000E+00 -0.16853518438E+04  0.16853518438E+04  0.50400001928E-02 0.  1.
    10030    2    1    2    0    0  0.00000000000E+00  0.00000000000E+00  0.30989530402E+03  0.36805989917E+04  0.36675296642E+04 0.  0.
        4    1    3    3  502    0 -0.19621075796E+03  0.15786016375E+04  0.10704539726E+04  0.19173823593E+04  0.12699999809E+01 0. -1.
       -4    1    3    3    0  502  0.19621075796E+03 -0.15786016375E+04 -0.76055866859E+03  0.17632166324E+04  0.12699999809E+01 0.  1.
</event>
<event>
 5   0  0.5181371E-08  0.3717115E+04  0.7818609E-02  0.8064179E-01
       -1   -1    0    0    0  501  0.00000000000E+00  0.00000000000E+00  0.18427920050E+04  0.18427920050E+04  0.50400001928E-02 0.  1.
        1   -1    0    0  501    0  0.00000000000E+00  0.00000000000E+00 -0.18744580363E+04  0.18744580363E+04  0.50400001928E-02 0. -1.
    10030    2    1    2    0    0  0.00000000000E+00  0.00000000000E+00 -0.31666031298E+02  0.37172500413E+04  0.37171151626E+04 0.  0.
        5    1    3    3  502    0  0.11959080116E+04 -0.12644250935E+04 -0.66796664077E+03  0.18641803326E+04  0.46999998093E+01 0. -1.
       -5    1    3    3    0  502 -0.11959080116E+04  0.12644250935E+04  0.63630060947E+03  0.18530697086E+04  0.46999998093E+01 0.  1.
</event>
<event>
 5   0  0.1666189E-07  0.3702336E+04  0.7818609E-02  0.8067444E-01
        2   -1    0    0  501    0  0.00000000000E+00  0.00000000000E+00  0.27106130672E+04  0.27106130672E+04  0.25500000920E-02 0.  1.
       -2   -1    0    0    0  501  0.00000000000E+00  0.00000000000E+00 -0.12642242232E+04  0.12642242232E+04  0.25500000920E-02 0. -1.
    10030    2    1    2    0    0  0.00000000000E+00  0.00000000000E+00  0.14463888439E+04  0.39748372904E+04  0.37023358569E+04 0.  0.
        4    1    3    3  502    0  0.17800975264E+04  0.33939885627E+03  0.31737506564E+03  0.18397465402E+04  0.12699999809E+01 0. -1.
       -4    1    3    3    0  502 -0.17800975264E+04 -0.33939885627E+03  0.11290137783E+04  0.21350907502E+04  0.12699999809E+01 0.  1.
</event>
<event>
 5   0  0.5177000E-08  0.3571104E+04  0.7818609E-02  0.8097143E-01
       -1   -1    0    0    0  501  0.00000000000E+00  0.00000000000E+00  0.11646271834E+04  0.11646271834E+04  0.50400001928E-02 0. -1.
        1   -1    0    0  501    0  0.00000000000E+00  0.00000000000E+00 -0.27375249179E+04  0.27375249179E+04  0.50400001928E-02 0.  1.
    10030    2    1    2    0    0  0.00000000000E+00  0.00000000000E+00 -0.15728977346E+04  0.39021521013E+04  0.35711039944E+04 0.  0.
        4    1    3    3  502    0  0.11131579430E+04  0.32345755471E+03 -0.22704526675E+04  0.25492552489E+04  0.12699999809E+01 0.  1.
       -4    1    3    3    0  502 -0.11131579430E+04 -0.32345755471E+03  0.69755493298E+03  0.13528968524E+04  0.12699999809E+01 0. -1.
</event>
<event>
 5   0  0.5177000E-08  0.3704512E+04  0.7818609E-02  0.8066963E-01
       -1   -1    0    0    0  501  0.00000000000E+00  0.00000000000E+00  0.25452912412E+04  0.25452912412E+04  0.50400001928E-02 0.  1.
        1   -1    0    0  501    0  0.00000000000E+00  0.00000000000E+00 -0.13479215757E+04  0.13479215757E+04  0.50400001928E-02 0. -1.
    10030    2    1    2    0    0  0.00000000000E+00  0.00000000000E+00  0.11973696654E+04  0.38932128169E+04  0.37045123731E+04 0.  0.
        1    1    3    3  502    0  0.12116207372E+04 -0.13205266593E+04  0.10905389867E+04  0.20978776776E+04  0.50400001928E-02 0.  1.
       -1    1    3    3    0  502 -0.12116207372E+04  0.13205266593E+04  0.10683067871E+03  0.17953351393E+04  0.50400001928E-02 0. -1.
</event>
<event>
 5   0  0.5181371E-08  0.3626747E+04  0.7818609E-02  0.8084392E-01
       -1   -1    0    0    0  501  0.00000000000E+00  0.00000000000E+00  0.17919689993E+04  0.17919689993E+04  0.50400001928E-02 0.  1.
        1   -1    0    0  501    0  0.00000000000E+00  0.00000000000E+00 -0.18350339989E+04  0.18350339989E+04  0.50400001928E-02 0. -1.
    10030    2    1    2    0    0  0.00000000000E+00  0.00000000000E+00 -0.43064999617E+02  0.36270029983E+04  0.36267473244E+04 0.  0.
        5    1    3    3  502    0 -0.14697718618E+04 -0.10293252069E+04  0.24032988481E+03  0.18103922920E+04  0.46999998093E+01 0.  1.
       -5    1    3    3    0  502  0.14697718618E+04  0.10293252069E+04 -0.28339488443E+03  0.18166107062E+04  0.46999998093E+01 0. -1.
</event>
<event>
 5   0  0.1666189E-07  0.3706608E+04  0.7818609E-02  0.8066499E-01
       -2   -1    0    0    0  501  0.00000000000E+00  0.00000000000E+00  0.11776787762E+04  0.11776787762E+04  0.25500000920E-02 0. -1.
        2   -1    0    0  501    0  0.00000000000E+00  0.00000000000E+00 -0.29165305842E+04  0.29165305842E+04  0.25500000920E-02 0.  1.
    10030    2    1    2    0    0  0.00000000000E+00  0.00000000000E+00 -0.17388518080E+04  0.40942093604E+04  0.37066082442E+04 0.  0.
        4    1    3    3  502    0 -0.14644600469E+04  0.10999065681E+04 -0.11824246978E+04  0.21800384094E+04  0.12699999809E+01 0.  1.
       -4    1    3    3    0  502  0.14644600469E+04 -0.10999065681E+04 -0.55642711018E+03  0.19141709509E+04  0.12699999809E+01 0. -1.
</event>
<event>
 5   0  0.1658770E-07  0.3646146E+04  0.7818609E-02  0.8080002E-01
       -2   -1    0    0    0  501  0.00000000000E+00  0.00000000000E+00  0.30447521238E+04  0.30447521238E+04  0.25500000920E-02 0.  1.
        2   -1    0    0  501    0  0.00000000000E+00  0.00000000000E+00 -0.10915817804E+04  0.10915817804E+04  0.25500000920E-02 0. -1.
    10030    2    1    2    0    0  0.00000000000E+00  0.00000000000E+00  0.19531703435E+04  0.41363339042E+04  0.36461464283E+04 0.  0.
        2    1    3    3  502    0 -0.57031201488E+03 -0.35543504298E+03 -0.94594941441E+03  0.11603491538E+04  0.25500000920E-02 0. -1.
       -2    1    3    3    0  502  0.57031201488E+03  0.35543504298E+03  0.28991197579E+04  0.29759847504E+04  0.25500000920E-02 0.  1.
</event>
<event>
 5   0  0.5181371E-08  0.3600053E+04  0.7818609E-02  0.8090480E-01
       -1   -1    0    0    0  501  0.00000000000E+00  0.00000000000E+00  0.19722272768E+04  0.19722272768E+04  0.50400001928E-02 0.  1.
        1   -1    0    0  501    0  0.00000000000E+00  0.00000000000E+00 -0.16428612307E+04  0.16428612307E+04  0.50400001928E-02 0. -1.
    10030    2    1    2    0    0  0.00000000000E+00  0.00000000000E+00  0.32936604606E+03  0.36150885075E+04  0.36000531836E+04 0.  0.
        5    1    3    3  502    0  0.14122886867E+04  0.35742089183E+03  0.12263423903E+04  0.19042706679E+04  0.46999998093E+01 0.  1.
       -5    1    3    3    0  502 -0.14122886867E+04 -0.35742089183E+03 -0.89697634423E+03  0.17108178396E+04  0.46999998093E+01 0. -1.
</event>
<event>
 5   0  0.5177000E-08  0.3681137E+04  0.7818609E-02  0.8072155E-01
       -1   -1    0    0    0  501  0.00000000000E+00  0.00000000000E+00  0.23040839611E+04  0.23040839611E+04  0.50400001928E-02 0. -1.
        1   -1    0    0  501    0  0.00000000000E+00  0.00000000000E+00 -0.14702986860E+04  0.14702986860E+04  0.50400001928E-02 0.  1.
    10030    2    1    2    0    0  0.00000000000E+00  0.00000000000E+00  0.83378527513E+03  0.37743826471E+04  0.36811365747E+04 0.  0.
        1    1    3    3  502    0  0.10745369378E+04 -0.26702048613E+03  0.19244295004E+04  0.22202158617E+04  0.50400001928E-02 0. -1.
       -1    1    3    3    0  502 -0.10745369378E+04  0.26702048613E+03 -0.10906442253E+04  0.15541667854E+04  0.50400001928E-02 0.  1.
</event>
<event>
 5   0  0.1587026E-07  0.3697119E+04  0.7818609E-02  0.8068601E-01
        2   -1    0    0  501    0  0.00000000000E+00  0.00000000000E+00  0.16580083058E+04  0.16580083058E+04  0.25500000920E-02 0. -1.
       -2   -1    0    0    0  501  0.00000000000E+00  0.00000000000E+00 -0.20610097739E+04  0.20610097739E+04  0.25500000920E-02 0.  1.
    10030    2    1    2    0    0  0.00000000000E+00  0.00000000000E+00 -0.40300146810E+03  0.37190180797E+04  0.36971185122E+04 0.  0.
        3    1    3    3  502    0 -0.10050686795E+03  0.53362715839E+03 -0.19789738807E+04  0.20521201733E+04  0.10100000352E+00 0.  1.
       -3    1    3    3    0  502  0.10050686795E+03 -0.53362715839E+03  0.15759724126E+04  0.16668979064E+04  0.10100000352E+00 0. -1.
</event>
<event>
 5   0  0.1666189E-07  0.3701904E+04  0.7818609E-02  0.8067540E-01
       -2   -1    0    0    0  501  0.00000000000E+00  0.00000000000E+00  0.13844916865E+04  0.13844916865E+04  0.25500000920E-02 0. -1.
        2   -1    0    0  501    0  0.00000000000E+00  0.00000000000E+00 -0.24745711991E+04  0.24745711991E+04  0.25500000920E-02 0.  1.
    10030    2    1    2    0    0  0.00000000000E+00  0.00000000000E+00 -0.10900795126E+04  0.38590628856E+04  0.37019039711E+04 0.  0.
        4    1    3    3  502    0 -0.13018690940E+04  0.13157241096E+04 -0.53946779552E+03  0.19279575166E+04  0.12699999809E+01 0. -1.
       -4    1    3    3    0  502  0.13018690940E+04 -0.13157241096E+04 -0.55061171706E+03  0.19311053690E+04  0.12699999809E+01 0.  1.
</event>
<event>
 5   0  0.1666189E-07  0.3702878E+04  0.7818609E-02  0.8067324E-01
       -2   -1    0    0    0  501  0.00000000000E+00  0.00000000000E+00  0.12233028920E+04  0.12233028921E+04  0.25500000920E-02 0.  1.
        2   -1    0    0  501    0  0.00000000000E+00  0.00000000000E+00 -0.28021082401E+04  0.28021082401E+04  0.25500000920E-02 0. -1.
    10030    2    1    2    0    0  0.00000000000E+00  0.00000000000E+00 -0.15788053480E+04  0.40254111321E+04  0.37028784014E+04 0.  0.
        4    1    3    3  502    0 -0.13704427335E+04  0.10982376889E+04 -0.15218377908E+03  0.17627821257E+04  0.12699999809E+01 0.  1.
       -4    1    3    3    0  502  0.13704427335E+04 -0.10982376889E+04 -0.14266215689E+04  0.22626290065E+04  0.12699999809E+01 0. -1.
</event>
<event>
 5   0  0.5177000E-08  0.3704889E+04  0.7818609E-02  0.8066879E-01
       -1   -1    0    0    0  501  0.00000000000E+00  0.00000000000E+00  0.12958563680E+04  0.12958563680E+04  0.50400001928E-02 0.  1.
        1   -1    0    0  501    0  0.00000000000E+00  0.00000000000E+00 -0.26480947228E+04  0.26480947228E+04  0.50400001928E-02 0. -1.
    10030    2    1    2    0    0  0.00000000000E+00  0.00000000000E+00 -0.13522383548E+04  0.39439510908E+04  0.37048888834E+04 0.  0.
        3    1    3    3  502    0 -0.17821990140E+04 -0.49612273329E+03 -0.57412830807E+03  0.19370065607E+04  0.10100000352E+00 0.  1.
       -3    1    3    3    0  502  0.17821990140E+04  0.49612273329E+03 -0.77811004671E+03  0.20069445301E+04  0.10100000352E+00 0. -1.
</event>
<event>
 5   0  0.5181371E-08  0.3716725E+04  0.7818609E-02  0.8064265E-01
       -1   -1    0    0    0  501  0.00000000000E+00  0.00000000000E+00  0.22580991988E+04  0.22580991988E+04  0.50400001928E-02 0.  1.
        1   -1    0    0  501    0  0.00000000000E+00  0.00000000000E+00 -0.15293885610E+04  0.15293885610E+04  0.50400001928E-02 0. -1.
    10030    2    1    2    0    0  0.00000000000E+00  0.00000000000E+00  0.72871063774E+03  0.37874877598E+04  0.37167249477E+04 0.  0.
        5    1    3    3  502    0  0.15393730661E+04  0.64178398501E+03  0.11996770116E+04  0.20544593309E+04  0.46999998093E+01 0.  1.
       -5    1    3    3    0  502 -0.15393730661E+04 -0.64178398501E+03 -0.47096637390E+03  0.17330284289E+04  0.46999998093E+01 0. -1.
</event>
<event>
 5   0  0.5177000E-08  0.3748425E+04  0.7818609E-02  0.8057314E-01
        1   -1    0    0  501    0  0.00000000000E+00  0.00000000000E+00  0.18280279414E+04  0.18280279414E+04  0.50400001928E-02 0. -1.
       -1   -1    0    0    0  501  0.00000000000E+00  0.00000000000E+00 -0.19215637218E+04  0.19215637218E+04  0.50400001928E-02 0.  1.
    10030    2    1    2    0    0  0.00000000000E+00  0.00000000000E+00 -0.93535780434E+02  0.37495916632E+04  0.37484248290E+04 0.  0.
        3    1    3    3  502    0  0.13046050889E+04 -0.72612398202E+03 -0.11800025691E+04  0.19030650405E+04  0.10100000352E+00 0.  1.
       -3    1    3    3    0  502 -0.13046050889E+04  0.72612398202E+03  0.10864667887E+04  0.18465266227E+04  0.10100000352E+00 0. -1.
</event>
<event>
 5   0  0.5177000E-08  0.3677172E+04  0.7818609E-02  0.8073040E-01
        1   -1    0    0  501    0  0.00000000000E+00  0.00000000000E+00  0.12825960723E+04  0.12825960724E+04  0.50400001928E-02 0.  1.
       -1   -1    0    0    0  501  0.00000000000E+00  0.00000000000E+00 -0.26355907208E+04  0.26355907208E+04  0.50400001928E-02 0. -1.
    10030    2    1    2    0    0  0.00000000000E+00  0.00000000000E+00 -0.13529946484E+04  0.39181867931E+04  0.36771719061E+04 0.  0.
        2    1    3    3  502    0 -0.15153150782E+04 -0.27919263129E+02  0.43260966586E+03  0.15761060860E+04  0.25500000920E-02 0.  1.
       -2    1    3    3    0  502  0.15153150782E+04  0.27919263129E+02 -0.17856043143E+04  0.23420807071E+04  0.25500000920E-02 0. -1.
</event>
<event>
 5   0  0.1587026E-07  0.3697942E+04  0.7818609E-02  0.8068418E-01
       -2   -1    0    0    0  501  0.00000000000E+00  0.00000000000E+00  0.99720303068E+03  0.99720303068E+03  0.25500000920E-02 0. -1.
        2   -1    0    0  501    0  0.00000000000E+00  0.00000000000E+00 -0.34282819821E+04  0.34282819821E+04  0.25500000920E-02 0.  1.
    10030    2    1    2    0    0  0.00000000000E+00  0.00000000000E+00 -0.24310789515E+04  0.44254850128E+04  0.36979416883E+04 0.  0.
        3    1    3    3  502    0 -0.60475385177E+03  0.17463974958E+04 -0.12817588097E+04  0.22491191812E+04  0.10100000352E+00 0.  1.
       -3    1    3    3    0  502  0.60475385177E+03 -0.17463974958E+04 -0.11493201418E+04  0.21763658317E+04  0.10100000352E+00 0. -1.
</event>
<event>
 5   0  0.1587026E-07  0.3681727E+04  0.7818609E-02  0.8072023E-01
       -2   -1    0    0    0  501  0.00000000000E+00  0.00000000000E+00  0.34730267484E+04  0.34730267484E+04  0.25500000920E-02 0. -1.
        2   -1    0    0  501    0  0.00000000000E+00  0.00000000000E+00 -0.97574207578E+03  0.97574207579E+03  0.25500000920E-02 0.  1.
    10030    2    1    2    0    0  0.00000000000E+00  0.00000000000E+00  0.24972846726E+04  0.44487688242E+04  0.36817269474E+04 0.  0.
        3    1    3    3  502    0  0.17323719800E+04  0.61281342299E+03  0.13816986247E+04  0.22990746113E+04  0.10100000352E+00 0. -1.
       -3    1    3    3    0  502 -0.17323719800E+04 -0.61281342299E+03  0.11155860480E+04  0.21496942129E+04  0.10100000352E+00 0.  1.
</event>
<event>
 5   0  0.5177000E-08  0.3700865E+04  0.7818609E-02  0.8067770E-01
        1   -1    0    0  501    0  0.00000000000E+00  0.00000000000E+00  0.20798138173E+04  0.20798138173E+04  0.50400001928E-02 0. -1.
       -1   -1    0    0    0  501  0.00000000000E+00  0.00000000000E+00 -0.16463499066E+04  0.16463499066E+04  0.50400001928E-02 0.  1.
    10030    2    1    2    0    0  0.00000000000E+00  0.00000000000E+00  0.43346391068E+03  0.37261637239E+04  0.37008654576E+04 0.  0.
        3    1    3    3  502    0  0.69851263998E+02 -0.15728353188E+04 -0.76223716478E+03  0.17491985721E+04  0.10100000352E+00 0.  1.
       -3    1    3    3    0  502 -0.69851263998E+02  0.15728353188E+04  0.11957010755E+04  0.19769651517E+04  0.10100000352E+00 0. -1.
</event>
<event>
 5   0  0.1658770E-07  0.3672275E+04  0.7818609E-02  0.8074134E-01
        2   -1    0    0  501    0  0.00000000000E+00  0.00000000000E+00  0.23265677808E+04  0.23265677808E+04  0.25500000920E-02 0. -1.
       -2   -1    0    0    0  501  0.00000000000E+00  0.00000000000E+00 -0.14490875909E+04  0.14490875909E+04  0.25500000920E-02 0.  1.
    10030    2    1    2    0    0  0.00000000000E+00  0.00000000000E+00  0.87748018994E+03  0.37756553717E+04  0.36722747722E+04 0.  0.
        2    1    3    3  502    0  0.11265354253E+04  0.10195245759E+04 -0.62124789541E+03  0.16414814568E+04  0.25500000920E-02 0.  1.
       -2    1    3    3    0  502 -0.11265354253E+04 -0.10195245759E+04  0.14987280853E+04  0.21341739149E+04  0.25500000920E-02 0. -1.
</event>
<event>
 5   0  0.1558258E-07  0.3646503E+04  0.7818609E-02  0.8079922E-01
       -2   -1    0    0    0  501  0.00000000000E+00  0.00000000000E+00  0.13950574509E+04  0.13950574509E+04  0.25500000920E-02 0. -1.
        2   -1    0    0  501    0  0.00000000000E+00  0.00000000000E+00 -0.23828742034E+04  0.23828742034E+04  0.25500000920E-02 0.  1.
    10030    2    1    2    0    0  0.00000000000E+00  0.00000000000E+00 -0.98781675254E+03  0.37779316544E+04  0.36465032083E+04 0.  0.
        1    1    3    3  502    0  0.34360212877E+03  0.65976781457E+03 -0.22185035743E+04  0.23398961731E+04  0.50400001928E-02 0.  1.
       -1    1    3    3    0  502 -0.34360212877E+03 -0.65976781457E+03  0.12306868217E+04  0.14380354812E+04  0.50400001928E-02 0. -1.
</event>
<event>
 5   0  0.1666189E-07  0.3695336E+04  0.7818609E-02  0.8068996E-01
        2   -1    0    0  501    0  0.00000000000E+00  0.00000000000E+00  0.20552124714E+04  0.20552124714E+04  0.25500000920E-02 0. -1.
       -2   -1    0    0    0  501  0.00000000000E+00  0.00000000000E+00 -0.16610823561E+04  0.16610823561E+04  0.25500000920E-02 0.  1.
    10030    2    1    2    0    0  0.00000000000E+00  0.00000000000E+00  0.39413011529E+03  0.37162948275E+04  0.36953360737E+04 0.  0.
        4    1    3    3  502    0 -0.12324908970E+04 -0.45853283587E+03  0.15023437533E+04  0.19965782075E+04  0.12699999809E+01 0. -1.
       -4    1    3    3    0  502  0.12324908970E+04  0.45853283587E+03 -0.11082136380E+04  0.17197166200E+04  0.12699999809E+01 0.  1.
</event>
<event>
 5   0  0.5181371E-08  0.3704370E+04  0.7818609E-02  0.8066994E-01
       -1   -1    0    0    0  501  0.00000000000E+00  0.00000000000E+00  0.17873027843E+04  0.17873027843E+04  0.50400001928E-02 0.  1.
        1   -1    0    0  501    0  0.00000000000E+00  0.00000000000E+00 -0.19194230036E+04  0.19194230036E+04  0.50400001928E-02 0. -1.
    10030    2    1    2    0    0  0.00000000000E+00  0.00000000000E+00 -0.13212021929E+03  0.37067257878E+04  0.37043704342E+04 0.  0.
        5    1    3    3  502    0 -0.14204742799E+04  0.77165186684E+03 -0.97072245507E+03  0.18856081136E+04  0.46999998093E+01 0. -1.
       -5    1    3    3    0  502  0.14204742799E+04 -0.77165186684E+03  0.83860223578E+03  0.18211176742E+04  0.46999998093E+01 0.  1.
</event>
<event>
 5   0  0.1558258E-07  0.3696883E+04  0.7818609E-02  0.8068653E-01
        2   -1    0    0  501    0  0.00000000000E+00  0.00000000000E+00  0.17579724843E+04  0.17579724843E+04  0.25500000920E-02 0.  1.
       -2   -1    0    0    0  501  0.00000000000E+00  0.00000000000E+00 -0.19435659656E+04  0.19435659656E+04  0.25500000920E-02 0. -1.
    10030    2    1    2    0    0  0.00000000000E+00  0.00000000000E+00 -0.18559348132E+03  0.37015384499E+04  0.36968827349E+04 0.  0.
        1    1    3    3  502    0  0.24625103048E+03  0.53125777432E+03  0.16626542502E+04  0.17627516979E+04  0.50400001928E-02 0.  1.
       -1    1    3    3    0  502 -0.24625103048E+03 -0.53125777432E+03 -0.18482477315E+04  0.19387867520E+04  0.50400001928E-02 0. -1.
</event>
<event>
 5   0  0.1587026E-07  0.3707350E+04  0.7818609E-02  0.8066335E-01
       -2   -1    0    0    0  501  0.00000000000E+00  0.00000000000E+00  0.13391054843E+04  0.13391054843E+04  0.25500000920E-02 0. -1.
        2   -1    0    0  501    0  0.00000000000E+00  0.00000000000E+00 -0.25659743208E+04  0.25659743209E+04  0.25500000920E-02 0.  1.
    10030    2    1    2    0    0  0.00000000000E+00  0.00000000000E+00 -0.12268688365E+04  0.39050798052E+04  0.37073496116E+04 0.  0.
        3    1    3    3  502    0  0.19268650144E+03 -0.68542916077E+02  0.13271854026E+04  0.13428504467E+04  0.10100000352E+00 0. -1.
       -3    1    3    3    0  502 -0.19268650144E+03  0.68542916077E+02 -0.25540542391E+04  0.25622293585E+04  0.10100000352E+00 0.  1.
</event>
<event>
 5   0  0.5177000E-08  0.3690267E+04  0.7818609E-02  0.8070122E-01
       -1   -1    0    0    0  501  0.00000000000E+00  0.00000000000E+00  0.14951525800E+04  0.14951525800E+04  0.50400001928E-02 0.  1.
        1   -1    0    0  501    0  0.00000000000E+00  0.00000000000E+00 -0.22770368537E+04  0.22770368537E+04  0.50400001928E-02 0. -1.
    10030    2    1    2    0    0  0.00000000000E+00  0.00000000000E+00 -0.78188427371E+03  0.37721894337E+04  0.36902669424E+04 0.  0.
        4    1    3    3  502    0 -0.56791918350E+03  0.13795545963E+04 -0.15007764260E+04  0.21161367103E+04  0.12699999809E+01 0. -1.
       -4    1    3    3    0  502  0.56791918350E+03 -0.13795545963E+04  0.71889215225E+03  0.16560527234E+04  0.12699999809E+01 0.  1.
</event>
<event>
 5   0  0.1686284E-07  0.3737651E+04  0.7818609E-02  0.8059669E-01
        2   -1    0    0  501    0  0.00000000000E+00  0.00000000000E+00  0.16527330804E+04  0.16527330804E+04  0.25500000920E-02 0. -1.
       -2   -1    0    0    0  501  0.00000000000E+00  0.00000000000E+00 -0.21131717552E+04  0.21131717552E+04  0.25500000920E-02 0.  1.
    10030    2    1    2    0    0  0.00000000000E+00  0.00000000000E+00 -0.46043867474E+03  0.37659048356E+04  0.37376510615E+04 0.  0.
        5    1    3    3  502    0  0.75124074498E+03 -0.17047602584E+04 -0.81057759774E+02  0.18647151648E+04  0.46999998093E+01 0.  1.
       -5    1    3    3    0  502 -0.75124074498E+03  0.17047602584E+04 -0.37938091496E+03  0.19011896708E+04  0.46999998093E+01 0. -1.
</event>
<event>
 5   0  0.1658770E-07  0.3698434E+04  0.7818609E-02  0.8068309E-01
       -2   -1    0    0    0  501  0.00000000000E+00  0.00000000000E+00  0.17512786878E+04  0.17512786878E+04  0.25500000920E-02 0. -1.
        2   -1    0    0  501    0  0.00000000000E+00  0.00000000000E+00 -0.19526328042E+04  0.19526328042E+04  0.25500000920E-02 0.  1.
    10030    2    1    2    0    0  0.00000000000E+00  0.00000000000E+00 -0.20135411639E+03  0.37039114919E+04  0.36984343795E+04 0.  0.
        2    1    3    3  502    0 -0.91431092141E+03 -0.40638106310E+03 -0.16581309797E+04  0.19366229306E+04  0.25500000920E-02 0.  1.
       -2    1    3    3    0  502  0.91431092141E+03  0.40638106310E+03  0.14567768633E+04  0.17672885613E+04  0.25500000920E-02 0. -1.
</event>
<event>
 5   0  0.1658770E-07  0.3701785E+04  0.7818609E-02  0.8067566E-01
       -2   -1    0    0    0  501  0.00000000000E+00  0.00000000000E+00  0.21924579326E+04  0.21924579326E+04  0.25500000920E-02 0.  1.
        2   -1    0    0  501    0  0.00000000000E+00  0.00000000000E+00 -0.15625401988E+04  0.15625401989E+04  0.25500000920E-02 0. -1.
    10030    2    1    2    0    0  0.00000000000E+00  0.00000000000E+00  0.62991773379E+03  0.37549981315E+04  0.37017853282E+04 0.  0.
        2    1    3    3  502    0 -0.15676605741E+04  0.73707281546E+03 -0.34630748978E+03  0.17665686764E+04  0.25500000920E-02 0. -1.
       -2    1    3    3    0  502  0.15676605741E+04 -0.73707281546E+03  0.97622522357E+03  0.19884294551E+04  0.25500000920E-02 0.  1.
</event>
<event>
 5   0  0.5177000E-08  0.3726725E+04  0.7818609E-02  0.8062065E-01
        1   -1    0    0  501    0  0.00000000000E+00  0.00000000000E+00  0.21833275994E+04  0.21833275994E+04  0.50400001928E-02 0. -1.
       -1   -1    0    0    0  501  0.00000000000E+00  0.00000000000E+00 -0.15902881365E+04  0.15902881365E+04  0.50400001928E-02 0.  1.
    10030    2    1    2    0    0  0.00000000000E+00  0.00000000000E+00  0.59303946291E+03  0.37736157358E+04  0.37267250928E+04 0.  0.
        3    1    3    3  502    0  0.81282247288E+03  0.94895960098E+03  0.16962715241E+04  0.21067847043E+04  0.10100000352E+00 0. -1.
       -3    1    3    3    0  502 -0.81282247288E+03 -0.94895960098E+03 -0.11032320612E+04  0.16668310315E+04  0.10100000352E+00 0.  1.
</event>
<event>
 5   0  0.5177000E-08  0.3651050E+04  0.7818609E-02  0.8078897E-01
        1   -1    0    0  501    0  0.00000000000E+00  0.00000000000E+00  0.22056719433E+04  0.22056719433E+04  0.50400001928E-02 0.  1.
       -1   -1    0    0    0  501  0.00000000000E+00  0.00000000000E+00 -0.15108959685E+04  0.15108959685E+04  0.50400001928E-02 0. -1.
    10030    2    1    2    0    0  0.00000000000E+00  0.00000000000E+00  0.69477597480E+03  0.37165679118E+04  0.36510496283E+04 0.  0.
        2    1    3    3  502    0 -0.66862025036E+02  0.82883397634E+03  0.20016988974E+04  0.21675411799E+04  0.25500000920E-02 0.  1.
       -2    1    3    3    0  502  0.66862025036E+02 -0.82883397634E+03 -0.13069229226E+04  0.15490267320E+04  0.25500000920E-02 0. -1.
</event>
<event>
 5   0  0.1558258E-07  0.3746742E+04  0.7818609E-02  0.8057681E-01
       -2   -1    0    0    0  501  0.00000000000E+00  0.00000000000E+00  0.16665437844E+04  0.16665437844E+04  0.25500000920E-02 0.  1.
        2   -1    0    0  501    0  0.00000000000E+00  0.00000000000E+00 -0.21058664382E+04  0.21058664382E+04  0.25500000920E-02 0. -1.
    10030    2    1    2    0    0  0.00000000000E+00  0.00000000000E+00 -0.43932265379E+03  0.37724102227E+04  0.37467418505E+04 0.  0.
        1    1    3    3  502    0  0.28252241419E+03 -0.10647018582E+04  0.13060116528E+04  0.17085301866E+04  0.50400001928E-02 0. -1.
       -1    1    3    3    0  502 -0.28252241419E+03  0.10647018582E+04 -0.17453343066E+04  0.20638800360E+04  0.50400001928E-02 0.  1.
</event>
<event>
 5   0  0.5177000E-08  0.3697740E+04  0.7818609E-02  0.8068463E-01
       -1   -1    0    0    0  501  0.00000000000E+00  0.00000000000E+00  0.13028391165E+04  0.13028391165E+04  0.50400001928E-02 0. -1.
        1   -1    0    0  501    0  0.00000000000E+00  0.00000000000E+00 -0.26237467307E+04  0.26237467307E+04  0.50400001928E-02 0.  1.
    10030    2    1    2    0    0  0.00000000000E+00  0.00000000000E+00 -0.13209076142E+04  0.39265858472E+04  0.36977397813E+04 0.  0.
        2    1    3    3  502    0  0.34748124292E+03  0.17979038004E+04 -0.93143005300E+03  0.20544496181E+04  0.25500000920E-02 0. -1.
       -2    1    3    3    0  502 -0.34748124292E+03 -0.17979038004E+04 -0.38947756116E+03  0.18721362291E+04  0.25500000920E-02 0.  1.
</event>
<event>
 5   0  0.5181371E-08  0.3698244E+04  0.7818609E-02  0.8068351E-01
       -1   -1    0    0    0  501  0.00000000000E+00  0.00000000000E+00  0.16816956404E+04  0.16816956405E+04  0.50400001928E-02 0.  1.
        1   -1    0    0  501    0  0.00000000000E+00  0.00000000000E+00 -0.20332167282E+04  0.20332167282E+04  0.50400001928E-02 0. -1.
    10030    2    1    2    0    0  0.00000000000E+00  0.00000000000E+00 -0.35152108777E+03  0.37149123687E+04  0.36982437496E+04 0.  0.
        5    1    3    3  502    0 -0.91398310786E+03 -0.69193933425E+03  0.12816697878E+04  0.17195478181E+04  0.46999998093E+01 0.  1.
       -5    1    3    3    0  502  0.91398310786E+03  0.69193933425E+03 -0.16331908756E+04  0.19953645506E+04  0.46999998093E+01 0. -1.
</event>
<event>
 5   0  0.1686284E-07  0.3703612E+04  0.7818609E-02  0.8067162E-01
       -2   -1    0    0    0  501  0.00000000000E+00  0.00000000000E+00  0.13433801731E+04  0.13433801731E+04  0.25500000920E-02 0. -1.
        2   -1    0    0  501    0  0.00000000000E+00  0.00000000000E+00 -0.25526538949E+04  0.25526538949E+04  0.25500000920E-02 0.  1.
    10030    2    1    2    0    0  0.00000000000E+00  0.00000000000E+00 -0.12092737218E+04  0.38960340681E+04  0.37036115516E+04 0.  0.
        5    1    3    3  502    0 -0.47124090885E+03 -0.22142571103E+03  0.12647873457E+04  0.13677742722E+04  0.46999998093E+01 0. -1.
       -5    1    3    3    0  502  0.47124090885E+03  0.22142571103E+03 -0.24740610675E+04  0.25282597959E+04  0.46999998093E+01 0.  1.
</event>
<event>
 5   0  0.5177000E-08  0.3697686E+04  0.7818609E-02  0.8068475E-01
       -1   -1    0    0    0  501  0.00000000000E+00  0.00000000000E+00  0.17257969666E+04  0.17257969666E+04  0.50400001928E-02 0. -1.
        1   -1    0    0  501    0  0.00000000000E+00  0.00000000000E+00 -0.19806623299E+04  0.19806623299E+04  0.50400001928E-02 0.  1.
    10030    2    1    2    0    0  0.00000000000E+00  0.00000000000E+00 -0.25486536325E+03  0.37064592965E+04  0.36976863257E+04 0.  0.
        2    1    3    3  502    0  0.15550113411E+04 -0.69966839850E+03  0.58884292834E+03  0.18039767551E+04  0.25500000920E-02 0. -1.
       -2    1    3    3    0  502 -0.15550113411E+04  0.69966839850E+03 -0.84370829159E+03  0.19024825414E+04  0.25500000920E-02 0.  1.
</event>
<event>
 5   0  0.5177000E-08  0.3699029E+04  0.7818609E-02  0.8068177E-01
        1   -1    0    0  501    0  0.00000000000E+00  0.00000000000E+00  0.17256185865E+04  0.17256185865E+04  0.50400001928E-02 0. -1.
       -1   -1    0    0    0  501  0.00000000000E+00  0.00000000000E+00 -0.19823063550E+04  0.19823063550E+04  0.50400001928E-02 0.  1.
    10030    2    1    2    0    0  0.00000000000E+00  0.00000000000E+00 -0.25668776843E+03  0.37079249415E+04  0.36990294351E+04 0.  0.
        3    1    3    3  502    0 -0.13929496914E+04 -0.27216509597E+03  0.10603924357E+04  0.17716700625E+04  0.10100000352E+00 0. -1.
       -3    1    3    3    0  502  0.13929496914E+04  0.27216509597E+03 -0.13170802041E+04  0.19362548791E+04  0.10100000352E+00 0.  1.
</event>
<event>
 5   0  0.5181371E-08  0.3617948E+04  0.7818609E-02  0.8086393E-01
        1   -1    0    0  501    0  0.00000000000E+00  0.00000000000E+00  0.26410462982E+04  0.26410462982E+04  0.50400001928E-02 0.  1.
       -1   -1    0    0    0  501  0.00000000000E+00  0.00000000000E+00 -0.12390493470E+04  0.12390493470E+04  0.50400001928E-02 0. -1.
    10030    2    1    2    0    0  0.00000000000E+00  0.00000000000E+00  0.14019969513E+04  0.38800956452E+04  0.36179478665E+04 0.  0.
        5    1    3    3  502    0 -0.16192876479E+04  0.19346205025E+03 -0.13856839047E+03  0.16366866959E+04  0.46999998093E+01 0. -1.
       -5    1    3    3    0  502  0.16192876479E+04 -0.19346205025E+03  0.15405653417E+04  0.22434089493E+04  0.46999998093E+01 0.  1.
</event>
<event>
 5   0  0.1658770E-07  0.3689905E+04  0.7818609E-02  0.8070203E-01
        2   -1    0    0  501    0  0.00000000000E+00  0.00000000000E+00  0.10803903590E+04  0.10803903591E+04  0.25500000920E-02 0.  1.
       -2   -1    0    0    0  501  0.00000000000E+00  0.00000000000E+00 -0.31505741914E+04  0.31505741914E+04  0.25500000920E-02 0. -1.
    10030    2    1    2    0    0  0.00000000000E+00  0.00000000000E+00 -0.20701838324E+04  0.42309645505E+04  0.36899051380E+04 0.  0.
        2    1    3    3  502    0  0.25462998504E+03  0.58538916337E+03 -0.30199032437E+04  0.30866377344E+04  0.25500000920E-02 0. -1.
       -2    1    3    3    0  502 -0.25462998504E+03 -0.58538916337E+03  0.94971941131E+03  0.11443268161E+04  0.25500000920E-02 0.  1.
</event>
<event>
 5   0  0.1558258E-07  0.3693200E+04  0.7818609E-02  0.8069470E-01
       -2   -1    0    0    0  501  0.00000000000E+00  0.00000000000E+00  0.13225406432E+04  0.13225406432E+04  0.25500000920E-02 0. -1.
        2   -1    0    0  501    0  0.00000000000E+00  0.00000000000E+00 -0.25783189230E+04  0.25783189230E+04  0.25500000920E-02 0.  1.
    10030    2    1    2    0    0  0.00000000000E+00  0.00000000000E+00 -0.12557782799E+04  0.39008595662E+04  0.36932000037E+04 0.  0.
        1    1    3    3  502    0  0.16730333343E+04 -0.28084310379E+03 -0.13982970355E+04  0.21984421725E+04  0.50400001928E-02 0.  1.
       -1    1    3    3    0  502 -0.16730333343E+04  0.28084310379E+03  0.14251875562E+03  0.17024173937E+04  0.50400001928E-02 0. -1.
</event>
<event>
 5   0  0.5177000E-08  0.3736557E+04  0.7818609E-02  0.8059908E-01
        1   -1    0    0  501    0  0.00000000000E+00  0.00000000000E+00  0.25887051760E+04  0.25887051760E+04  0.50400001928E-02 0.  1.
       -1   -1    0    0    0  501  0.00000000000E+00  0.00000000000E+00 -0.13483435618E+04  0.13483435619E+04  0.50400001928E-02 0. -1.
    10030    2    1    2    0    0  0.00000000000E+00  0.00000000000E+00  0.12403616142E+04  0.39370487379E+04  0.37365566810E+04 0.  0.
        3    1    3    3  502    0 -0.72946785170E+03 -0.14625650882E+04 -0.33350614639E+03  0.16680666485E+04  0.10100000352E+00 0. -1.
       -3    1    3    3    0  502  0.72946785170E+03  0.14625650882E+04  0.15738677606E+04  0.22689820894E+04  0.10100000352E+00 0.  1.
</event>
<event>
 5   0  0.1558258E-07  0.3708769E+04  0.7818609E-02  0.8066021E-01
       -2   -1    0    0    0  501  0.00000000000E+00  0.00000000000E+00  0.11300974370E+04  0.11300974370E+04  0.25500000920E-02 0.  1.
        2   -1    0    0  501    0  0.00000000000E+00  0.00000000000E+00 -0.30428724416E+04  0.30428724416E+04  0.25500000920E-02 0. -1.
    10030    2    1    2    0    0  0.00000000000E+00  0.00000000000E+00 -0.19127750046E+04  0.41729698786E+04  0.37087692554E+04 0.  0.
        1    1    3    3  502    0  0.10631756435E+04  0.56981694054E+03 -0.25411141787E+04  0.28128802079E+04  0.50400001928E-02 0. -1.
       -1    1    3    3    0  502 -0.10631756435E+04 -0.56981694054E+03  0.62833917411E+03  0.13600896707E+04  0.50400001928E-02 0.  1.
</event>
<event>
 5   0  0.1558258E-07  0.3688052E+04  0.7818609E-02  0.8070615E-01
        2   -1    0    0  501    0  0.00000000000E+00  0.00000000000E+00  0.18010378594E+04  0.18010378594E+04  0.25500000920E-02 0.  1.
       -2   -1    0    0    0  501  0.00000000000E+00  0.00000000000E+00 -0.18880400092E+04  0.18880400092E+04  0.25500000920E-02 0. -1.
    10030    2    1    2    0    0  0.00000000000E+00  0.00000000000E+00 -0.87002149770E+02  0.36890778685E+04  0.36880518090E+04 0.  0.
        1    1    3    3  502    0 -0.17574959965E+04  0.19224055636E+03  0.48074675654E+03  0.18321752244E+04  0.50400001928E-02 0.  1.
       -1    1    3    3    0  502  0.17574959965E+04 -0.19224055636E+03 -0.56774890631E+03  0.18569026441E+04  0.50400001928E-02 0. -1.
</event>
<event>
 5   0  0.1686284E-07  0.3701121E+04  0.7818609E-02  0.8067713E-01
        2   -1    0    0  501    0  0.00000000000E+00  0.00000000000E+00  0.10456514812E+04  0.10456514812E+04  0.25500000920E-02 0.  1.
       -2   -1    0    0    0  501  0.00000000000E+00  0.00000000000E+00 -0.32750628560E+04  0.32750628560E+04  0.25500000920E-02 0. -1.
    10030    2    1    2    0    0  0.00000000000E+00  0.00000000000E+00 -0.22294113748E+04  0.43207143372E+04  0.37011210876E+04 0.  0.
        5    1    3    3  502    0  0.10224197315E+04 -0.87688572349E+03  0.36669714098E+03  0.13959797859E+04  0.46999998093E+01 0.  1.
       -5    1    3    3    0  502 -0.10224197315E+04  0.87688572349E+03 -0.25961085158E+04  0.29247345513E+04  0.46999998093E+01 0. -1.
</event>
<event>
 5   0  0.1587026E-07  0.3705409E+04  0.7818609E-02  0.8066764E-01
        2   -1    0    0  501    0  0.00000000000E+00  0.00000000000E+00  0.19320265762E+04  0.19320265762E+04  0.25500000920E-02 0.  1.
       -2   -1    0    0    0  501  0.00000000000E+00  0.00000000000E+00 -0.17766388985E+04  0.17766388985E+04  0.25500000920E-02 0. -1.
    10030    2    1    2    0    0  0.00000000000E+00  0.00000000000E+00  0.15538767766E+03  0.37086654747E+04  0.37054087862E+04 0.  0.
        3    1    3    3  502    0  0.20854462524E+03 -0.21818919456E+03  0.19072545248E+04  0.19309886633E+04  0.10100000352E+00 0.  1.
       -3    1    3    3    0  502 -0.20854462524E+03  0.21818919456E+03 -0.17518668471E+04  0.17776768114E+04  0.10100000352E+00 0. -1.
</event>
<event>
 5   0  0.5177000E-08  0.3731512E+04  0.7818609E-02  0.8061014E-01
        1   -1    0    0  501    0  0.00000000000E+00  0.00000000000E+00  0.14940793977E+04  0.14940793977E+04  0.50400001928E-02 0.  1.
       -1   -1    0    0    0  501  0.00000000000E+00  0.00000000000E+00 -0.23298930713E+04  0.23298930713E+04  0.50400001928E-02 0. -1.
    10030    2    1    2    0    0  0.00000000000E+00  0.00000000000E+00 -0.83581367355E+03  0.38239724690E+04  0.37315118848E+04 0.  0.
        1    1    3    3  502    0  0.10823573615E+04 -0.98323028558E+03  0.76960121139E+03  0.16524301126E+04  0.50400001928E-02 0.  1.
       -1    1    3    3    0  502 -0.10823573615E+04  0.98323028558E+03 -0.16054148849E+04  0.21715423563E+04  0.50400001928E-02 0. -1.
</event>
<event>
 5   0  0.5177000E-08  0.3621309E+04  0.7818609E-02  0.8085628E-01
        1   -1    0    0  501    0  0.00000000000E+00  0.00000000000E+00  0.17390257977E+04  0.17390257977E+04  0.50400001928E-02 0. -1.
       -1   -1    0    0    0  501  0.00000000000E+00  0.00000000000E+00 -0.18852331883E+04  0.18852331883E+04  0.50400001928E-02 0.  1.
    10030    2    1    2    0    0  0.00000000000E+00  0.00000000000E+00 -0.14620739060E+03  0.36242589860E+04  0.36213086856E+04 0.  0.
        1    1    3    3  502    0  0.12131357042E+04 -0.50193625778E+03  0.11748407731E+04  0.17617857662E+04  0.50400001928E-02 0. -1.
       -1    1    3    3    0  502 -0.12131357042E+04  0.50193625778E+03 -0.13210481637E+04  0.18624732198E+04  0.50400001928E-02 0.  1.
</event>
<event>
 5   0  0.5177000E-08  0.3747967E+04  0.7818609E-02  0.8057414E-01
        1   -1    0    0  501    0  0.00000000000E+00  0.00000000000E+00  0.13171903740E+04  0.13171903741E+04  0.50400001928E-02 0. -1.
       -1   -1    0    0    0  501  0.00000000000E+00  0.00000000000E+00 -0.26661400666E+04  0.26661400666E+04  0.50400001928E-02 0.  1.
    10030    2    1    2    0    0  0.00000000000E+00  0.00000000000E+00 -0.13489496926E+04  0.39833304407E+04  0.37479669324E+04 0.  0.
        3    1    3    3  502    0 -0.17959301537E+04 -0.26341950346E+03 -0.11696280041E+04  0.21593481957E+04  0.10100000352E+00 0.  1.
       -3    1    3    3    0  502  0.17959301537E+04  0.26341950346E+03 -0.17932168844E+03  0.18239822450E+04  0.10100000352E+00 0. -1.
</event>
<event>
 5   0  0.1686284E-07  0.3695627E+04  0.7818609E-02  0.8068932E-01
        2   -1    0    0  501    0  0.00000000000E+00  0.00000000000E+00  0.24363877262E+04  0.24363877262E+04  0.25500000920E-02 0.  1.
       -2   -1    0    0    0  501  0.00000000000E+00  0.00000000000E+00 -0.14014252579E+04  0.14014252579E+04  0.25500000920E-02 0. -1.
    10030    2    1    2    0    0  0.00000000000E+00  0.00000000000E+00  0.10349624682E+04  0.38378129841E+04  0.36956273067E+04 0.  0.
        5    1    3    3  502    0 -0.47341825813E+03  0.17419721650E+04  0.92738436005E+03  0.20294471444E+04  0.46999998093E+01 0.  1.
       -5    1    3    3    0  502  0.47341825813E+03 -0.17419721650E+04  0.10757810815E+03  0.18083658397E+04  0.46999998093E+01 0. -1.
</event>
<event>
 5   0  0.1558258E-07  0.3688064E+04  0.7818609E-02  0.8070612E-01
        2   -1    0    0  501    0  0.00000000000E+00  0.00000000000E+00  0.21725842216E+04  0.21725842216E+04  0.25500000920E-02 0. -1.
       -2   -1    0    0    0  501  0.00000000000E+00  0.00000000000E+00 -0.15651655390E+04  0.15651655390E+04  0.25500000920E-02 0.  1.
    10030    2    1    2    0    0  0.00000000000E+00  0.00000000000E+00  0.60741868268E+03  0.37377497606E+04  0.36880639659E+04 0.  0.
        1    1    3    3  502    0 -0.63481940012E+03 -0.71871765912E+03 -0.12925986507E+04  0.16094601630E+04  0.50400001928E-02 0.  1.
       -1    1    3    3    0  502  0.63481940012E+03  0.71871765912E+03  0.19000173334E+04  0.21282895977E+04  0.50400001928E-02 0. -1.
</event>
<event>
 5   0  0.5181371E-08  0.3689395E+04  0.7818609E-02  0.8070316E-01
       -1   -1    0    0    0  501  0.00000000000E+00  0.00000000000E+00  0.26643072647E+04  0.26643072647E+04  0.50400001928E-02 0.  1.
        1   -1    0    0  501    0  0.00000000000E+00  0.00000000000E+00 -0.12772207738E+04  0.12772207739E+04  0.50400001928E-02 0. -1.
    10030    2    1    2    0    0  0.00000000000E+00  0.00000000000E+00  0.13870864909E+04  0.39415280386E+04  0.36893948482E+04 0.  0.
        5    1    3    3  502    0  0.16551221534E+04 -0.33129613036E+03  0.14885059530E+04  0.22505240569E+04  0.46999998093E+01 0.  1.
       -5    1    3    3    0  502 -0.16551221534E+04  0.33129613036E+03 -0.10141946209E+03  0.16910039817E+04  0.46999998093E+01 0. -1.
</event>
<event>
 5   0  0.5181371E-08  0.3704125E+04  0.7818609E-02  0.8067048E-01
        1   -1    0    0  501    0  0.00000000000E+00  0.00000000000E+00  0.17977696460E+04  0.17977696460E+04  0.50400001928E-02 0.  1.
       -1   -1    0    0    0  501  0.00000000000E+00  0.00000000000E+00 -0.19079950949E+04  0.19079950949E+04  0.50400001928E-02 0. -1.
    10030    2    1    2    0    0  0.00000000000E+00  0.00000000000E+00 -0.11022544894E+03  0.37057647409E+04  0.37041250877E+04 0.  0.
        5    1    3    3  502    0 -0.44836399764E+03  0.14376032685E+04  0.10235018690E+04  0.18207997138E+04  0.46999998093E+01 0.  1.
       -5    1    3    3    0  502  0.44836399764E+03 -0.14376032685E+04 -0.11337273179E+04  0.18849650271E+04  0.46999998093E+01 0. -1.
</event>
<event>
 5   0  0.1558258E-07  0.3713661E+04  0.7818609E-02  0.8064941E-01
        2   -1    0    0  501    0  0.00000000000E+00  0.00000000000E+00  0.17450261202E+04  0.17450261202E+04  0.25500000920E-02 0.  1.
       -2   -1    0    0    0  501  0.00000000000E+00  0.00000000000E+00 -0.19757977327E+04  0.19757977327E+04  0.25500000920E-02 0. -1.
    10030    2    1    2    0    0  0.00000000000E+00  0.00000000000E+00 -0.23077161244E+03  0.37208238529E+04  0.37136605401E+04 0.  0.
        1    1    3    3  502    0 -0.16792843930E+03 -0.13064099742E+04  0.11959212305E+04  0.17790825082E+04  0.50400001928E-02 0.  1.
       -1    1    3    3    0  502  0.16792843930E+03  0.13064099742E+04 -0.14266928429E+04  0.19417413447E+04  0.50400001928E-02 0. -1.
</event>
<event>
 5   0  0.5177000E-08  0.3703500E+04  0.7818609E-02  0.8067187E-01
        1   -1    0    0  501    0  0.00000000000E+00  0.00000000000E+00  0.24126778468E+04  0.24126778468E+04  0.50400001928E-02 0.  1.
       -1   -1    0    0    0  501  0.00000000000E+00  0.00000000000E+00 -0.14212335347E+04  0.14212335347E+04  0.50400001928E-02 0. -1.
    10030    2    1    2    0    0  0.00000000000E+00  0.00000000000E+00  0.99144431210E+03  0.38339113815E+04  0.37035003250E+04 0.  0.
        3    1    3    3  502    0 -0.16376101953E+04  0.85499963254E+03  0.36401340841E+03  0.18828959863E+04  0.10100000352E+00 0. -1.
       -3    1    3    3    0  502  0.16376101953E+04 -0.85499963254E+03  0.62743090369E+03  0.19510153952E+04  0.10100000352E+00 0.  1.
</event>
<event>
 5   0  0.5177000E-08  0.3691489E+04  0.7818609E-02  0.8069851E-01
       -1   -1    0    0    0  501  0.00000000000E+00  0.00000000000E+00  0.16263599985E+04  0.16263599985E+04  0.50400001928E-02 0. -1.
        1   -1    0    0  501    0  0.00000000000E+00  0.00000000000E+00 -0.20947224226E+04  0.20947224226E+04  0.50400001928E-02 0.  1.
    10030    2    1    2    0    0  0.00000000000E+00  0.00000000000E+00 -0.46836242411E+03  0.37210824211E+04  0.36914889983E+04 0.  0.
        2    1    3    3  502    0  0.47119577893E+02 -0.18096683588E+04  0.12877888604E+03  0.18148564199E+04  0.25500000920E-02 0. -1.
       -2    1    3    3    0  502 -0.47119577893E+02  0.18096683588E+04 -0.59714131015E+03  0.19062260012E+04  0.25500000920E-02 0.  1.
</event>
<event>
 5   0  0.5177000E-08  0.3712733E+04  0.7818609E-02  0.8065146E-01
        1   -1    0    0  501    0  0.00000000000E+00  0.00000000000E+00  0.14259513104E+04  0.14259513104E+04  0.50400001928E-02 0. -1.
       -1   -1    0    0    0  501  0.00000000000E+00  0.00000000000E+00 -0.24167005046E+04  0.24167005046E+04  0.50400001928E-02 0.  1.
    10030    2    1    2    0    0  0.00000000000E+00  0.00000000000E+00 -0.99074919415E+03  0.38426518150E+04  0.37127333604E+04 0.  0.
        4    1    3    3  502    0 -0.10246867794E+03 -0.64398285786E+03 -0.22942626886E+04  0.23851324174E+04  0.12699999809E+01 0.  1.
       -4    1    3    3    0  502  0.10246867794E+03  0.64398285786E+03  0.13035134945E+04  0.14575193976E+04  0.12699999809E+01 0. -1.
</event>
<event>
 5   0  0.5177000E-08  0.3689068E+04  0.7818609E-02  0.8070389E-01
       -1   -1    0    0    0  501  0.00000000000E+00  0.00000000000E+00  0.25311268942E+04  0.25311268942E+04  0.50400001928E-02 0.  1.
        1   -1    0    0  501    0  0.00000000000E+00  0.00000000000E+00 -0.13441859088E+04  0.13441859089E+04  0.50400001928E-02 0. -1.
    10030    2    1    2    0    0  0.00000000000E+00  0.00000000000E+00  0.11869409854E+04  0.38753128030E+04  0.36890676896E+04 0.  0.
        4    1    3    3  502    0 -0.32934957450E+03 -0.17175260775E+04 -0.22598409593E+02  0.17489651998E+04  0.12699999809E+01 0.  1.
       -4    1    3    3    0  502  0.32934957450E+03  0.17175260775E+04  0.12095393949E+04  0.21263476033E+04  0.12699999809E+01 0. -1.
</event>
<event>
 5   0  0.5177000E-08  0.3684421E+04  0.7818609E-02  0.8071423E-01
       -1   -1    0    0    0  501  0.00000000000E+00  0.00000000000E+00  0.13840264076E+04  0.13840264076E+04  0.50400001928E-02 0.  1.
        1   -1    0    0  501    0  0.00000000000E+00  0.00000000000E+00 -0.24520770535E+04  0.24520770535E+04  0.50400001928E-02 0. -1.
    10030    2    1    2    0    0  0.00000000000E+00  0.00000000000E+00 -0.10680506460E+04  0.38361034611E+04  0.36844209290E+04 0.  0.
        1    1    3    3  502    0 -0.10489070111E+04 -0.70308144365E+03 -0.19305930267E+04  0.23068851010E+04  0.50400001928E-02 0. -1.
       -1    1    3    3    0  502  0.10489070111E+04  0.70308144365E+03  0.86254238078E+03  0.15292183601E+04  0.50400001928E-02 0.  1.
</event>
<event>
 5   0  0.5177000E-08  0.3698733E+04  0.7818609E-02  0.8068243E-01
       -1   -1    0    0    0  501  0.00000000000E+00  0.00000000000E+00  0.15190353948E+04  0.15190353948E+04  0.50400001928E-02 0. -1.
        1   -1    0    0  501    0  0.00000000000E+00  0.00000000000E+00 -0.22515312205E+04  0.22515312205E+04  0.50400001928E-02 0.  1.
    10030    2    1    2    0    0  0.00000000000E+00  0.00000000000E+00 -0.73249582578E+03  0.37705666153E+04  0.36987325485E+04 0.  0.
        3    1    3    3  502    0  0.10312558596E+04 -0.69052330846E+03 -0.17639501300E+04  0.21568104133E+04  0.10100000352E+00 0.  1.
       -3    1    3    3    0  502 -0.10312558596E+04  0.69052330846E+03  0.10314543043E+04  0.16137562020E+04  0.10100000352E+00 0. -1.
</event>
<event>
 5   0  0.5177000E-08  0.3702073E+04  0.7818609E-02  0.8067503E-01
        1   -1    0    0  501    0  0.00000000000E+00  0.00000000000E+00  0.27023111521E+04  0.27023111521E+04  0.50400001928E-02 0. -1.
       -1   -1    0    0    0  501  0.00000000000E+00  0.00000000000E+00 -0.12679278971E+04  0.12679278972E+04  0.50400001928E-02 0.  1.
    10030    2    1    2    0    0  0.00000000000E+00  0.00000000000E+00  0.14343832549E+04  0.39702390493E+04  0.37020727689E+04 0.  0.
        4    1    3    3  502    0  0.53083375838E+03 -0.42219870153E+02 -0.11840083637E+04  0.12982466694E+04  0.12699999809E+01 0.  1.
       -4    1    3    3    0  502 -0.53083375838E+03  0.42219870153E+02  0.26183916186E+04  0.26719923798E+04  0.12699999809E+01 0. -1.
</event>
<event>
 5   0  0.1587026E-07  0.3663042E+04  0.7818609E-02  0.8076202E-01
        2   -1    0    0  501    0  0.00000000000E+00  0.00000000000E+00  0.24921303503E+04  0.24921303503E+04  0.25500000920E-02 0. -1.
       -2   -1    0    0    0  501  0.00000000000E+00  0.00000000000E+00 -0.13460248848E+04  0.13460248848E+04  0.25500000920E-02 0.  1.
    10030    2    1    2    0    0  0.00000000000E+00  0.00000000000E+00  0.11461054655E+04  0.38381552351E+04  0.36630421607E+04 0.  0.
        3    1    3    3  502    0  0.10523375524E+04 -0.67117980742E+03 -0.83138674492E+03  0.14997001660E+04  0.10100000352E+00 0.  1.
       -3    1    3    3    0  502 -0.10523375524E+04  0.67117980742E+03  0.19774922104E+04  0.23384550691E+04  0.10100000352E+00 0. -1.
</event>
<event>
 5   0  0.5177000E-08  0.3733630E+04  0.7818609E-02  0.8060550E-01
        1   -1    0    0  501    0  0.00000000000E+00  0.00000000000E+00  0.10425322298E+04  0.10425322298E+04  0.50400001928E-02 0. -1.
       -1   -1    0    0    0  501  0.00000000000E+00  0.00000000000E+00 -0.33428198750E+04  0.33428198750E+04  0.50400001928E-02 0.  1.
    10030    2    1    2    0    0  0.00000000000E+00  0.00000000000E+00 -0.23002876452E+04  0.43853521048E+04  0.37336295789E+04 0.  0.
        2    1    3    3  502    0 -0.65895934164E+03 -0.11306492018E+04 -0.27138473238E+04  0.30128993226E+04  0.25500000920E-02 0.  1.
       -2    1    3    3    0  502  0.65895934164E+03  0.11306492018E+04  0.41355967862E+03  0.13724527822E+04  0.25500000920E-02 0. -1.
</event>
<event>
 5   0  0.5177000E-08  0.3700913E+04  0.7818609E-02  0.8067760E-01
       -1   -1    0    0    0  501  0.00000000000E+00  0.00000000000E+00  0.19624443540E+04  0.19624443540E+04  0.50400001928E-02 0.  1.
        1   -1    0    0  501    0  0.00000000000E+00  0.00000000000E+00 -0.17448592165E+04  0.17448592165E+04  0.50400001928E-02 0. -1.
    10030    2    1    2    0    0  0.00000000000E+00  0.00000000000E+00  0.21758513746E+03  0.37073035705E+04  0.37009129241E+04 0.  0.
        3    1    3    3  502    0 -0.35376149378E+03  0.16612082076E+04  0.84451925651E+03  0.18968322774E+04  0.10100000352E+00 0.  1.
       -3    1    3    3    0  502  0.35376149378E+03 -0.16612082076E+04 -0.62693411904E+03  0.18104712932E+04  0.10100000352E+00 0. -1.
</event>
<event>
 5   0  0.5177000E-08  0.3696912E+04  0.7818609E-02  0.8068646E-01
        1   -1    0    0  501    0  0.00000000000E+00  0.00000000000E+00  0.24738429389E+04  0.24738429389E+04  0.50400001928E-02 0.  1.
       -1   -1    0    0    0  501  0.00000000000E+00  0.00000000000E+00 -0.13811670591E+04  0.13811670591E+04  0.50400001928E-02 0. -1.
    10030    2    1    2    0    0  0.00000000000E+00  0.00000000000E+00  0.10926758798E+04  0.38550099980E+04  0.36969124288E+04 0.  0.
        2    1    3    3  502    0 -0.13336196992E+04  0.42549677745E+02 -0.78760169352E+03  0.15494090502E+04  0.25500000920E-02 0. -1.
       -2    1    3    3    0  502  0.13336196992E+04 -0.42549677745E+02  0.18802775734E+04  0.23056009477E+04  0.25500000920E-02 0.  1.
</event>
<event>
 5   0  0.1558258E-07  0.3724008E+04  0.7818609E-02  0.8062662E-01
        2   -1    0    0  501    0  0.00000000000E+00  0.00000000000E+00  0.23944232437E+04  0.23944232437E+04  0.25500000920E-02 0.  1.
       -2   -1    0    0    0  501  0.00000000000E+00  0.00000000000E+00 -0.14479727321E+04  0.14479727321E+04  0.25500000920E-02 0. -1.
    10030    2    1    2    0    0  0.00000000000E+00  0.00000000000E+00  0.94645051161E+03  0.38423959759E+04  0.37240083599E+04 0.  0.
        1    1    3    3  502    0 -0.16299138840E+04 -0.26575633465E+03 -0.41424275037E+03  0.17025988238E+04  0.50400001928E-02 0.  1.
       -1    1    3    3    0  502  0.16299138840E+04  0.26575633465E+03  0.13606932620E+04  0.21397971520E+04  0.50400001928E-02 0. -1.
</event>
<event>
 5   0  0.5177000E-08  0.3677213E+04  0.7818609E-02  0.8073031E-01
       -1   -1    0    0    0  501  0.00000000000E+00  0.00000000000E+00  0.18108310049E+04  0.18108310049E+04  0.50400001928E-02 0.  1.
        1   -1    0    0  501    0  0.00000000000E+00  0.00000000000E+00 -0.18668075367E+04  0.18668075367E+04  0.50400001928E-02 0. -1.
    10030    2    1    2    0    0  0.00000000000E+00  0.00000000000E+00 -0.55976531789E+02  0.36776385415E+04  0.36772125136E+04 0.  0.
        1    1    3    3  502    0  0.86762411752E+03  0.47665561255E+03 -0.15775227261E+04  0.18624043958E+04  0.50400001928E-02 0. -1.
       -1    1    3    3    0  502 -0.86762411752E+03 -0.47665561255E+03  0.15215461943E+04  0.18152341457E+04  0.50400001928E-02 0.  1.
</event>
<event>
 5   0  0.1658770E-07  0.3650899E+04  0.7818609E-02  0.8078931E-01
       -2   -1    0    0    0  501  0.00000000000E+00  0.00000000000E+00  0.11730696979E+04  0.11730696979E+04  0.25500000920E-02 0. -1.
        2   -1    0    0  501    0  0.00000000000E+00  0.00000000000E+00 -0.28406370285E+04  0.28406370285E+04  0.25500000920E-02 0.  1.
    10030    2    1    2    0    0  0.00000000000E+00  0.00000000000E+00 -0.16675673307E+04  0.40137067264E+04  0.36508986405E+04 0.  0.
        2    1    3    3  502    0  0.94321913750E+03 -0.38978457902E+03 -0.24976836055E+04  0.26981508024E+04  0.25500000920E-02 0.  1.
       -2    1    3    3    0  502 -0.94321913750E+03  0.38978457902E+03  0.83011627482E+03  0.13155559240E+04  0.25500000920E-02 0. -1.
</event>
<event>
 5   0  0.5177000E-08  0.3596328E+04  0.7818609E-02  0.8091333E-01
       -3   -1    0    0    0  501  0.00000000000E+00  0.00000000000E+00  0.18305131634E+04  0.18305131662E+04  0.10100000352E+00 0. -1.
        3   -1    0    0  501    0  0.00000000000E+00  0.00000000000E+00 -0.17663868946E+04  0.17663868975E+04  0.10100000352E+00 0.  1.
    10030    2    1    2    0    0  0.00000000000E+00  0.00000000000E+00  0.64126268785E+02  0.35969000637E+04  0.35963283902E+04 0.  0.
        3    1    3    3  502    0 -0.89009473331E+03  0.15576912182E+04 -0.89298218926E+02  0.17962863769E+04  0.10100000352E+00 0.  1.
       -3    1    3    3    0  502  0.89009473331E+03 -0.15576912182E+04  0.15342448771E+03  0.18006136868E+04  0.10100000352E+00 0. -1.
</event>
<event>
 5   0  0.5177000E-08  0.3709553E+04  0.7818609E-02  0.8065848E-01
        1   -1    0    0  501    0  0.00000000000E+00  0.00000000000E+00  0.31422520866E+04  0.31422520866E+04  0.50400001928E-02 0.  1.
       -1   -1    0    0    0  501  0.00000000000E+00  0.00000000000E+00 -0.10948186573E+04  0.10948186574E+04  0.50400001928E-02 0. -1.
    10030    2    1    2    0    0  0.00000000000E+00  0.00000000000E+00  0.20474334293E+04  0.42370707440E+04  0.37095531863E+04 0.  0.
        1    1    3    3  502    0 -0.15251470304E+04  0.15150124998E+02 -0.18177961718E+03  0.15360165429E+04  0.50400001928E-02 0. -1.
       -1    1    3    3    0  502  0.15251470304E+04 -0.15150124998E+02  0.22292130465E+04  0.27010542011E+04  0.50400001928E-02 0.  1.
</event>
<event>
 5   0  0.5177000E-08  0.3697547E+04  0.7818609E-02  0.8068506E-01
        1   -1    0    0  501    0  0.00000000000E+00  0.00000000000E+00  0.10522061432E+04  0.10522061432E+04  0.50400001928E-02 0. -1.
       -1   -1    0    0    0  501  0.00000000000E+00  0.00000000000E+00 -0.32483775539E+04  0.32483775539E+04  0.50400001928E-02 0.  1.
    10030    2    1    2    0    0  0.00000000000E+00  0.00000000000E+00 -0.21961714108E+04  0.43005836971E+04  0.36975466556E+04 0.  0.
        3    1    3    3  502    0  0.15309811820E+03  0.12393869910E+04  0.48749532550E+03  0.13405860098E+04  0.10100000352E+00 0. -1.
       -3    1    3    3    0  502 -0.15309811820E+03 -0.12393869910E+04 -0.26836667363E+04  0.29599976873E+04  0.10100000352E+00 0.  1.
</event>
<event>
 5   0  0.1587026E-07  0.3703283E+04  0.7818609E-02  0.8067235E-01
        2   -1    0    0  501    0  0.00000000000E+00  0.00000000000E+00  0.24951176555E+04  0.24951176555E+04  0.25500000920E-02 0.  1.
       -2   -1    0    0    0  501  0.00000000000E+00  0.00000000000E+00 -0.13741142932E+04  0.13741142932E+04  0.25500000920E-02 0. -1.
    10030    2    1    2    0    0  0.00000000000E+00  0.00000000000E+00  0.11210033623E+04  0.38692319487E+04  0.37032833182E+04 0.  0.
        3    1    3    3  502    0 -0.98726470360E+03 -0.14987867277E+04  0.84540487730E+02  0.17967193310E+04  0.10100000352E+00 0.  1.
       -3    1    3    3    0  502  0.98726470360E+03  0.14987867277E+04  0.10364628746E+04  0.20725126177E+04  0.10100000352E+00 0. -1.
</event>
<event>
 5   0  0.1666189E-07  0.3705457E+04  0.7818609E-02  0.8066754E-01
       -2   -1    0    0    0  501  0.00000000000E+00  0.00000000000E+00  0.11789543424E+04  0.11789543424E+04  0.25500000920E-02 0.  1.
        2   -1    0    0  501    0  0.00000000000E+00  0.00000000000E+00 -0.29115651189E+04  0.29115651189E+04  0.25500000920E-02 0. -1.
    10030    2    1    2    0    0  0.00000000000E+00  0.00000000000E+00 -0.17326107765E+04  0.40905194614E+04  0.37054567007E+04 0.  0.
        4    1    3    3  502    0 -0.16676067555E+04 -0.55459645724E+01  0.24835721765E+02  0.16678013895E+04  0.12699999809E+01 0. -1.
       -4    1    3    3    0  502  0.16676067555E+04  0.55459645724E+01 -0.17574464982E+04  0.24227180719E+04  0.12699999809E+01 0.  1.
</event>
<event>
 5   0  0.5177000E-08  0.3664110E+04  0.7818609E-02  0.8075962E-01
        1   -1    0    0  501    0  0.00000000000E+00  0.00000000000E+00  0.22780226283E+04  0.22780226283E+04  0.50400001928E-02 0. -1.
       -1   -1    0    0    0  501  0.00000000000E+00  0.00000000000E+00 -0.14733941865E+04  0.14733941865E+04  0.50400001928E-02 0.  1.
    10030    2    1    2    0    0  0.00000000000E+00  0.00000000000E+00  0.80462844175E+03  0.37514168148E+04  0.36641098768E+04 0.  0.
        1    1    3    3  502    0 -0.24750647197E+03  0.11644828161E+04 -0.10233985617E+04  0.15699121946E+04  0.50400001928E-02 0.  1.
       -1    1    3    3    0  502  0.24750647197E+03 -0.11644828161E+04  0.18280270034E+04  0.21815046202E+04  0.50400001928E-02 0. -1.
</event>
<event>
 5   0  0.5181371E-08  0.3722513E+04  0.7818609E-02  0.8062991E-01
        1   -1    0    0  501    0  0.00000000000E+00  0.00000000000E+00  0.22729255898E+04  0.22729255898E+04  0.50400001928E-02 0.  1.
       -1   -1    0    0    0  501  0.00000000000E+00  0.00000000000E+00 -0.15241482680E+04  0.15241482680E+04  0.50400001928E-02 0. -1.
    10030    2    1    2    0    0  0.00000000000E+00  0.00000000000E+00  0.74877732178E+03  0.37970738578E+04  0.37225129152E+04 0.  0.
        5    1    3    3  502    0  0.44364351234E+03 -0.14722436319E+04  0.14441721115E+04  0.21094966355E+04  0.46999998093E+01 0.  1.
       -5    1    3    3    0  502 -0.44364351234E+03  0.14722436319E+04 -0.69539478974E+03  0.16875772223E+04  0.46999998093E+01 0. -1.
</event>
<event>
 5   0  0.1587026E-07  0.3700671E+04  0.7818609E-02  0.8067813E-01
        2   -1    0    0  501    0  0.00000000000E+00  0.00000000000E+00  0.18762263408E+04  0.18762263408E+04  0.25500000920E-02 0.  1.
       -2   -1    0    0    0  501  0.00000000000E+00  0.00000000000E+00 -0.18248017938E+04  0.18248017938E+04  0.25500000920E-02 0. -1.
    10030    2    1    2    0    0  0.00000000000E+00  0.00000000000E+00  0.51424546960E+02  0.37010281345E+04  0.37006708539E+04 0.  0.
        3    1    3    3  502    0  0.17336897398E+04 -0.64588777112E+03 -0.41243986996E+01  0.18500994967E+04  0.10100000352E+00 0. -1.
       -3    1    3    3    0  502 -0.17336897398E+04  0.64588777112E+03  0.55548945660E+02  0.18509286378E+04  0.10100000352E+00 0.  1.
</event>
<event>
 5   0  0.5177000E-08  0.3743171E+04  0.7818609E-02  0.8058461E-01
        1   -1    0    0  501    0  0.00000000000E+00  0.00000000000E+00  0.25613660259E+04  0.25613660259E+04  0.50400001928E-02 0. -1.
       -1   -1    0    0    0  501  0.00000000000E+00  0.00000000000E+00 -0.13675638917E+04  0.13675638917E+04  0.50400001928E-02 0.  1.
    10030    2    1    2    0    0  0.00000000000E+00  0.00000000000E+00  0.11938021342E+04  0.39289299176E+04  0.37431706830E+04 0.  0.
        4    1    3    3  502    0 -0.60073098218E+03 -0.13057934540E+04  0.18550766339E+04  0.23467605732E+04  0.12699999809E+01 0. -1.
       -4    1    3    3    0  502  0.60073098218E+03  0.13057934540E+04 -0.66127449973E+03  0.15821693444E+04  0.12699999809E+01 0.  1.
</event>
<event>
 5   0  0.1587026E-07  0.3583253E+04  0.7818609E-02  0.8094339E-01
        2   -1    0    0  501    0  0.00000000000E+00  0.00000000000E+00  0.27189580209E+04  0.27189580209E+04  0.25500000920E-02 0. -1.
       -2   -1    0    0    0  501  0.00000000000E+00  0.00000000000E+00 -0.11805721444E+04  0.11805721444E+04  0.25500000920E-02 0.  1.
    10030    2    1    2    0    0  0.00000000000E+00  0.00000000000E+00  0.15383858765E+04  0.38995301652E+04  0.35832533269E+04 0.  0.
        3    1    3    3  502    0  0.17689798267E+03 -0.16102559220E+04  0.16020601067E+04  0.22783357141E+04  0.10100000352E+00 0. -1.
       -3    1    3    3    0  502 -0.17689798267E+03  0.16102559220E+04 -0.63674230199E+02  0.16211944511E+04  0.10100000352E+00 0.  1.
</event>
<event>
 5   0  0.5177000E-08  0.3706222E+04  0.7818609E-02  0.8066584E-01
       -3   -1    0    0    0  501  0.00000000000E+00  0.00000000000E+00  0.11006395099E+04  0.11006395145E+04  0.10100000352E+00 0. -1.
        3   -1    0    0  501    0  0.00000000000E+00  0.00000000000E+00 -0.31200226445E+04  0.31200226461E+04  0.10100000352E+00 0.  1.
    10030    2    1    2    0    0  0.00000000000E+00  0.00000000000E+00 -0.20193831346E+04  0.42206621606E+04  0.37062219078E+04 0.  0.
        4    1    3    3  502    0  0.64712277067E+03  0.16212681602E+04 -0.17178963710E+04  0.24491728975E+04  0.12699999809E+01 0. -1.
       -4    1    3    3    0  502 -0.64712277067E+03 -0.16212681602E+04 -0.30148676360E+03  0.17714892631E+04  0.12699999809E+01 0.  1.
</event>
<event>
 5   0  0.5177000E-08  0.3707825E+04  0.7818609E-02  0.8066230E-01
       -1   -1    0    0    0  501  0.00000000000E+00  0.00000000000E+00  0.28260385802E+04  0.28260385802E+04  0.50400001928E-02 0. -1.
        1   -1    0    0  501    0  0.00000000000E+00  0.00000000000E+00 -0.12161871619E+04  0.12161871619E+04  0.50400001928E-02 0.  1.
    10030    2    1    2    0    0  0.00000000000E+00  0.00000000000E+00  0.16098514183E+04  0.40422257420E+04  0.37078251524E+04 0.  0.
        2    1    3    3  502    0  0.10493217017E+04  0.10622287828E+04  0.20029353679E+04  0.24982305956E+04  0.25500000920E-02 0. -1.
       -2    1    3    3    0  502 -0.10493217017E+04 -0.10622287828E+04 -0.39308394959E+03  0.15439951464E+04  0.25500000920E-02 0.  1.
</event>
<event>
 5   0  0.1686284E-07  0.3701690E+04  0.7818609E-02  0.8067587E-01
       -2   -1    0    0    0  501  0.00000000000E+00  0.00000000000E+00  0.24968955120E+04  0.24968955120E+04  0.25500000920E-02 0.  1.
        2   -1    0    0  501    0  0.00000000000E+00  0.00000000000E+00 -0.13719548709E+04  0.13719548709E+04  0.25500000920E-02 0. -1.
    10030    2    1    2    0    0  0.00000000000E+00  0.00000000000E+00  0.11249406412E+04  0.38688503829E+04  0.37016904030E+04 0.  0.
        5    1    3    3  502    0 -0.21921337635E+03 -0.45691265223E+03  0.24229633037E+04  0.24753983391E+04  0.46999998093E+01 0.  1.
       -5    1    3    3    0  502  0.21921337635E+03  0.45691265223E+03 -0.12980226625E+04  0.13934520439E+04  0.46999998093E+01 0. -1.
</event>
<event>
 5   0  0.5177000E-08  0.3699241E+04  0.7818609E-02  0.8068130E-01
       -1   -1    0    0    0  501  0.00000000000E+00  0.00000000000E+00  0.22205823547E+04  0.22205823547E+04  0.50400001928E-02 0. -1.
        1   -1    0    0  501    0  0.00000000000E+00  0.00000000000E+00 -0.15406297651E+04  0.15406297652E+04  0.50400001928E-02 0.  1.
    10030    2    1    2    0    0  0.00000000000E+00  0.00000000000E+00  0.67995258956E+03  0.37612121199E+04  0.36992406094E+04 0.  0.
        1    1    3    3  502    0 -0.15396673871E+04  0.43609303398E+02  0.13811516202E+04  0.20688299187E+04  0.50400001928E-02 0. -1.
       -1    1    3    3    0  502  0.15396673871E+04 -0.43609303398E+02 -0.70119903065E+03  0.16923822012E+04  0.50400001928E-02 0.  1.
</event>
<event>
 5   0  0.5177000E-08  0.3697174E+04  0.7818609E-02  0.8068588E-01
        1   -1    0    0  501    0  0.00000000000E+00  0.00000000000E+00  0.12843399090E+04  0.12843399090E+04  0.50400001928E-02 0. -1.
       -1   -1    0    0    0  501  0.00000000000E+00  0.00000000000E+00 -0.26607238106E+04  0.26607238107E+04  0.50400001928E-02 0.  1.
    10030    2    1    2    0    0  0.00000000000E+00  0.00000000000E+00 -0.13763839017E+04  0.39450637196E+04  0.36971739352E+04 0.  0.
        1    1    3    3  502    0 -0.63457439820E+02 -0.17764263557E+04 -0.14666477501E+03  0.17835997309E+04  0.50400001928E-02 0. -1.
       -1    1    3    3    0  502  0.63457439820E+02  0.17764263557E+04 -0.12297191267E+04  0.21614639887E+04  0.50400001928E-02 0.  1.
</event>
<event>
 5   0  0.1587026E-07  0.3569801E+04  0.7818609E-02  0.8097444E-01
        2   -1    0    0  501    0  0.00000000000E+00  0.00000000000E+00  0.11604564751E+04  0.11604564751E+04  0.25500000920E-02 0. -1.
       -2   -1    0    0    0  501  0.00000000000E+00  0.00000000000E+00 -0.27453586303E+04  0.27453586303E+04  0.25500000920E-02 0.  1.
    10030    2    1    2    0    0  0.00000000000E+00  0.00000000000E+00 -0.15849021552E+04  0.39058151054E+04  0.35698006661E+04 0.  0.
        3    1    3    3  502    0 -0.55873663215E+03 -0.15216591324E+04 -0.16099301695E+04  0.22846243236E+04  0.10100000352E+00 0.  1.
       -3    1    3    3    0  502  0.55873663215E+03  0.15216591324E+04  0.25028014320E+02  0.16211907818E+04  0.10100000352E+00 0. -1.
</event>
<event>
 5   0  0.5177000E-08  0.3718451E+04  0.7818609E-02  0.8063885E-01
        1   -1    0    0  501    0  0.00000000000E+00  0.00000000000E+00  0.23754113082E+04  0.23754113082E+04  0.50400001928E-02 0. -1.
       -1   -1    0    0    0  501  0.00000000000E+00  0.00000000000E+00 -0.14552085201E+04  0.14552085201E+04  0.50400001928E-02 0.  1.
    10030    2    1    2    0    0  0.00000000000E+00  0.00000000000E+00  0.92020278813E+03  0.38306198284E+04  0.37184506314E+04 0.  0.
        4    1    3    3  502    0  0.15515134736E+04  0.78614534061E+03 -0.21659947022E+03  0.17527508376E+04  0.12699999809E+01 0.  1.
       -4    1    3    3    0  502 -0.15515134736E+04 -0.78614534061E+03  0.11368022584E+04  0.20778689908E+04  0.12699999809E+01 0. -1.
</event>
<event>
 5   0  0.5177000E-08  0.3675367E+04  0.7818609E-02  0.8073443E-01
        1   -1    0    0  501    0  0.00000000000E+00  0.00000000000E+00  0.11300863243E+04  0.11300863243E+04  0.50400001928E-02 0.  1.
       -1   -1    0    0    0  501  0.00000000000E+00  0.00000000000E+00 -0.29883381905E+04  0.29883381906E+04  0.50400001928E-02 0. -1.
    10030    2    1    2    0    0  0.00000000000E+00  0.00000000000E+00 -0.18582518662E+04  0.41184245149E+04  0.36753667146E+04 0.  0.
        1    1    3    3  502    0 -0.60379937601E+03 -0.12125720535E+04  0.46241929112E+03  0.14313407254E+04  0.50400001928E-02 0.  1.
       -1    1    3    3    0  502  0.60379937601E+03  0.12125720535E+04 -0.23206711573E+04  0.26870837895E+04  0.50400001928E-02 0. -1.
</event>
<event>
 5   0  0.1686284E-07  0.3698541E+04  0.7818609E-02  0.8068285E-01
        2   -1    0    0  501    0  0.00000000000E+00  0.00000000000E+00  0.19897825241E+04  0.19897825241E+04  0.25500000920E-02 0.  1.
       -2   -1    0    0    0  501  0.00000000000E+00  0.00000000000E+00 -0.17186813731E+04  0.17186813731E+04  0.25500000920E-02 0. -1.
    10030    2    1    2    0    0  0.00000000000E+00  0.00000000000E+00  0.27110115106E+03  0.37084638972E+04  0.36985414210E+04 0.  0.
        5    1    3    3  502    0 -0.13336363953E+04 -0.48864384328E+03 -0.10518651805E+04  0.17674278736E+04  0.46999998093E+01 0. -1.
       -5    1    3    3    0  502  0.13336363953E+04  0.48864384328E+03  0.13229663315E+04  0.19410360236E+04  0.46999998093E+01 0.  1.
</event>
<event>
 5   0  0.5181371E-08  0.3828906E+04  0.7818609E-02  0.8039980E-01
       -1   -1    0    0    0  501  0.00000000000E+00  0.00000000000E+00  0.15506605039E+04  0.15506605039E+04  0.50400001928E-02 0.  1.
        1   -1    0    0  501    0  0.00000000000E+00  0.00000000000E+00 -0.23635929958E+04  0.23635929958E+04  0.50400001928E-02 0. -1.
    10030    2    1    2    0    0  0.00000000000E+00  0.00000000000E+00 -0.81293249197E+03  0.39142534997E+04  0.38289060087E+04 0.  0.
        5    1    3    3  502    0  0.53370659428E+03  0.15894695785E+04 -0.13511045014E+04  0.21533141279E+04  0.46999998093E+01 0. -1.
       -5    1    3    3    0  502 -0.53370659428E+03 -0.15894695785E+04  0.53817200939E+03  0.17609393718E+04  0.46999998093E+01 0.  1.
</event>
<event>
 5   0  0.1587026E-07  0.3699361E+04  0.7818609E-02  0.8068103E-01
        2   -1    0    0  501    0  0.00000000000E+00  0.00000000000E+00  0.22391466031E+04  0.22391466031E+04  0.25500000920E-02 0.  1.
       -2   -1    0    0    0  501  0.00000000000E+00  0.00000000000E+00 -0.15279560794E+04  0.15279560794E+04  0.25500000920E-02 0. -1.
    10030    2    1    2    0    0  0.00000000000E+00  0.00000000000E+00  0.71119052376E+03  0.37671026825E+04  0.36993608447E+04 0.  0.
        3    1    3    3  502    0  0.50412912049E+03 -0.16409387149E+04 -0.34585201782E+03  0.17511252567E+04  0.10100000352E+00 0. -1.
       -3    1    3    3    0  502 -0.50412912049E+03  0.16409387149E+04  0.10570425416E+04  0.20159774258E+04  0.10100000352E+00 0.  1.
</event>
<event>
 5   0  0.5177000E-08  0.3692240E+04  0.7818609E-02  0.8069684E-01
       -1   -1    0    0    0  501  0.00000000000E+00  0.00000000000E+00  0.15481899067E+04  0.15481899067E+04  0.50400001928E-02 0.  1.
        1   -1    0    0  501    0  0.00000000000E+00  0.00000000000E+00 -0.22013834366E+04  0.22013834366E+04  0.50400001928E-02 0. -1.
    10030    2    1    2    0    0  0.00000000000E+00  0.00000000000E+00 -0.65319352987E+03  0.37495733433E+04  0.36922403049E+04 0.  0.
        2    1    3    3  502    0 -0.11275465202E+04  0.10132415826E+04  0.74339580389E+03  0.16883888714E+04  0.25500000920E-02 0.  1.
       -2    1    3    3    0  502  0.11275465202E+04 -0.10132415826E+04 -0.13965893338E+04  0.20611844719E+04  0.25500000920E-02 0. -1.
</event>
<event>
 5   0  0.5177000E-08  0.3711355E+04  0.7818609E-02  0.8065450E-01
       -1   -1    0    0    0  501  0.00000000000E+00  0.00000000000E+00  0.15349451349E+04  0.15349451349E+04  0.50400001928E-02 0.  1.
        1   -1    0    0  501    0  0.00000000000E+00  0.00000000000E+00 -0.22434280567E+04  0.22434280567E+04  0.50400001928E-02 0. -1.
    10030    2    1    2    0    0  0.00000000000E+00  0.00000000000E+00 -0.70848292180E+03  0.37783731917E+04  0.37113549985E+04 0.  0.
        4    1    3    3  502    0 -0.50340396261E+02  0.92760609106E+03 -0.19896584526E+04  0.21958437072E+04  0.12699999809E+01 0. -1.
       -4    1    3    3    0  502  0.50340396261E+02 -0.92760609106E+03  0.12811755308E+04  0.15825294845E+04  0.12699999809E+01 0.  1.
</event>
<event>
 5   0  0.5177000E-08  0.3702926E+04  0.7818609E-02  0.8067314E-01
        1   -1    0    0  501    0  0.00000000000E+00  0.00000000000E+00  0.19721592256E+04  0.19721592256E+04  0.50400001928E-02 0. -1.
       -1   -1    0    0    0  501  0.00000000000E+00  0.00000000000E+00 -0.17381532048E+04  0.17381532048E+04  0.50400001928E-02 0.  1.
    10030    2    1    2    0    0  0.00000000000E+00  0.00000000000E+00  0.23400602073E+03  0.37103124304E+04  0.37029258045E+04 0.  0.
        1    1    3    3  502    0  0.20463568308E+03  0.56038920440E+03  0.18732123919E+04  0.19659187390E+04  0.50400001928E-02 0. -1.
       -1    1    3    3    0  502 -0.20463568308E+03 -0.56038920440E+03 -0.16392063712E+04  0.17443936914E+04  0.50400001928E-02 0.  1.
</event>
<event>
 5   0  0.5177000E-08  0.3712473E+04  0.7818609E-02  0.8065203E-01
        1   -1    0    0  501    0  0.00000000000E+00  0.00000000000E+00  0.16172029313E+04  0.16172029314E+04  0.50400001928E-02 0. -1.
       -1   -1    0    0    0  501  0.00000000000E+00  0.00000000000E+00 -0.21306008914E+04  0.21306008914E+04  0.50400001928E-02 0.  1.
    10030    2    1    2    0    0  0.00000000000E+00  0.00000000000E+00 -0.51339796004E+03  0.37478038227E+04  0.37124730340E+04 0.  0.
        4    1    3    3  502    0  0.12415256390E+04 -0.67464020664E+03 -0.14719354185E+04  0.20403727135E+04  0.12699999809E+01 0.  1.
       -4    1    3    3    0  502 -0.12415256390E+04  0.67464020664E+03  0.95853745848E+03  0.17074311093E+04  0.12699999809E+01 0. -1.
</event>
<event>
 5   0  0.1658770E-07  0.3683271E+04  0.7818609E-02  0.8071679E-01
       -2   -1    0    0    0  501  0.00000000000E+00  0.00000000000E+00  0.15928194797E+04  0.15928194797E+04  0.25500000920E-02 0. -1.
        2   -1    0    0  501    0  0.00000000000E+00  0.00000000000E+00 -0.21293198017E+04  0.21293198017E+04  0.25500000920E-02 0.  1.
    10030    2    1    2    0    0  0.00000000000E+00  0.00000000000E+00 -0.53650032195E+03  0.37221392815E+04  0.36832714039E+04 0.  0.
        2    1    3    3  502    0  0.50543294122E+03 -0.14272906459E+04  0.79114490357E+03  0.17083709505E+04  0.25500000920E-02 0. -1.
       -2    1    3    3    0  502 -0.50543294122E+03  0.14272906459E+04 -0.13276452255E+04  0.20137683310E+04  0.25500000920E-02 0.  1.
</event>
<event>
 5   0  0.1558258E-07  0.3748289E+04  0.7818609E-02  0.8057344E-01
       -2   -1    0    0    0  501  0.00000000000E+00  0.00000000000E+00  0.24326598241E+04  0.24326598241E+04  0.25500000920E-02 0.  1.
        2   -1    0    0  501    0  0.00000000000E+00  0.00000000000E+00 -0.14438593084E+04  0.14438593084E+04  0.25500000920E-02 0. -1.
    10030    2    1    2    0    0  0.00000000000E+00  0.00000000000E+00  0.98880051568E+03  0.38765191326E+04  0.37482894933E+04 0.  0.
        1    1    3    3  502    0  0.18338325386E+04  0.23429158381E+03  0.17633362176E+03  0.18571289326E+04  0.50400001928E-02 0. -1.
       -1    1    3    3    0  502 -0.18338325386E+04 -0.23429158381E+03  0.81246689392E+03  0.20193902000E+04  0.50400001928E-02 0.  1.
</event>
<event>
 5   0  0.1587026E-07  0.3553624E+04  0.7818609E-02  0.8101198E-01
       -2   -1    0    0    0  501  0.00000000000E+00  0.00000000000E+00  0.12223673345E+04  0.12223673345E+04  0.25500000920E-02 0. -1.
        2   -1    0    0  501    0  0.00000000000E+00  0.00000000000E+00 -0.25827426080E+04  0.25827426080E+04  0.25500000920E-02 0.  1.
    10030    2    1    2    0    0  0.00000000000E+00  0.00000000000E+00 -0.13603752735E+04  0.38051099425E+04  0.35536236139E+04 0.  0.
        3    1    3    3  502    0  0.48617226081E+03 -0.79801930021E+03  0.93800679995E+03  0.13240298477E+04  0.10100000352E+00 0. -1.
       -3    1    3    3    0  502 -0.48617226081E+03  0.79801930021E+03 -0.22983820735E+04  0.24810800948E+04  0.10100000352E+00 0.  1.
</event>
<event>
 5   0  0.1558258E-07  0.3711401E+04  0.7818609E-02  0.8065440E-01
       -2   -1    0    0    0  501  0.00000000000E+00  0.00000000000E+00  0.18262196305E+04  0.18262196305E+04  0.25500000920E-02 0.  1.
        2   -1    0    0  501    0  0.00000000000E+00  0.00000000000E+00 -0.18856573423E+04  0.18856573423E+04  0.25500000920E-02 0. -1.
    10030    2    1    2    0    0  0.00000000000E+00  0.00000000000E+00 -0.59437711737E+02  0.37118769728E+04  0.37114010589E+04 0.  0.
        1    1    3    3  502    0 -0.12344733036E+04  0.97013678793E+03 -0.10190548463E+04  0.18717805706E+04  0.50400001928E-02 0. -1.
       -1    1    3    3    0  502  0.12344733036E+04 -0.97013678793E+03  0.95961713452E+03  0.18400964022E+04  0.50400001928E-02 0.  1.
</event>
<event>
 5   0  0.1666189E-07  0.3689059E+04  0.7818609E-02  0.8070391E-01
       -2   -1    0    0    0  501  0.00000000000E+00  0.00000000000E+00  0.27140525341E+04  0.27140525341E+04  0.25500000920E-02 0.  1.
        2   -1    0    0  501    0  0.00000000000E+00  0.00000000000E+00 -0.12535826449E+04  0.12535826449E+04  0.25500000920E-02 0. -1.
    10030    2    1    2    0    0  0.00000000000E+00  0.00000000000E+00  0.14604698891E+04  0.39676351790E+04  0.36890590422E+04 0.  0.
        4    1    3    3  502    0  0.90123673108E+03  0.15243432100E+04  0.12853895449E+04  0.21881676723E+04  0.12699999809E+01 0.  1.
       -4    1    3    3    0  502 -0.90123673108E+03 -0.15243432100E+04  0.17508034427E+03  0.17794675066E+04  0.12699999809E+01 0. -1.
</event>
<event>
 5   0  0.5177000E-08  0.3556676E+04  0.7818609E-02  0.8100488E-01
       -1   -1    0    0    0  501  0.00000000000E+00  0.00000000000E+00  0.14813033079E+04  0.14813033079E+04  0.50400001928E-02 0.  1.
        1   -1    0    0  501    0  0.00000000000E+00  0.00000000000E+00 -0.21349353386E+04  0.21349353386E+04  0.50400001928E-02 0. -1.
    10030    2    1    2    0    0  0.00000000000E+00  0.00000000000E+00 -0.65363203076E+03  0.36162386465E+04  0.35566764144E+04 0.  0.
        3    1    3    3  502    0 -0.89223021557E+03  0.15369289609E+04 -0.39318847176E+03  0.18201160877E+04  0.10100000352E+00 0.  1.
       -3    1    3    3    0  502  0.89223021557E+03 -0.15369289609E+04 -0.26044355900E+03  0.17961225587E+04  0.10100000352E+00 0. -1.
</event>
<event>
 5   0  0.5177000E-08  0.3691677E+04  0.7818609E-02  0.8069809E-01
       -1   -1    0    0    0  501  0.00000000000E+00  0.00000000000E+00  0.14310130254E+04  0.14310130254E+04  0.50400001928E-02 0. -1.
        1   -1    0    0  501    0  0.00000000000E+00  0.00000000000E+00 -0.23809143750E+04  0.23809143750E+04  0.50400001928E-02 0.  1.
    10030    2    1    2    0    0  0.00000000000E+00  0.00000000000E+00 -0.94990134958E+03  0.38119274004E+04  0.36916768455E+04 0.  0.
        1    1    3    3  502    0 -0.15911793579E+04 -0.83513557258E+03 -0.91036903606E+03  0.20144664196E+04  0.50400001928E-02 0.  1.
       -1    1    3    3    0  502  0.15911793579E+04  0.83513557258E+03 -0.39532313526E+02  0.17974609808E+04  0.50400001928E-02 0. -1.
</event>
<event>
 5   0  0.5177000E-08  0.3694863E+04  0.7818609E-02  0.8069101E-01
        3   -1    0    0  501    0  0.00000000000E+00  0.00000000000E+00  0.32359649268E+04  0.32359649284E+04  0.10100000352E+00 0. -1.
       -3   -1    0    0    0  501  0.00000000000E+00  0.00000000000E+00 -0.10547095761E+04  0.10547095809E+04  0.10100000352E+00 0.  1.
    10030    2    1    2    0    0  0.00000000000E+00  0.00000000000E+00  0.21812553507E+04  0.42906745094E+04  0.36948630340E+04 0.  0.
        3    1    3    3  502    0 -0.26443018237E+03 -0.12327594967E+04  0.26587007018E+04  0.29425004214E+04  0.10100000352E+00 0. -1.
       -3    1    3    3    0  502  0.26443018237E+03  0.12327594967E+04 -0.47744535105E+03  0.13481740880E+04  0.10100000352E+00 0.  1.
</event>
<event>
 5   0  0.5177000E-08  0.3641815E+04  0.7818609E-02  0.8080980E-01
       -1   -1    0    0    0  501  0.00000000000E+00  0.00000000000E+00  0.26418164560E+04  0.26418164560E+04  0.50400001928E-02 0. -1.
        1   -1    0    0  501    0  0.00000000000E+00  0.00000000000E+00 -0.12550846696E+04  0.12550846696E+04  0.50400001928E-02 0.  1.
    10030    2    1    2    0    0  0.00000000000E+00  0.00000000000E+00  0.13867317864E+04  0.38969011257E+04  0.36418145664E+04 0.  0.
        1    1    3    3  502    0  0.14773704048E+04 -0.56533674651E+03 -0.27173673652E+03  0.16050139575E+04  0.50400001928E-02 0.  1.
       -1    1    3    3    0  502 -0.14773704048E+04  0.56533674651E+03  0.16584685229E+04  0.22918871681E+04  0.50400001928E-02 0. -1.
</event>
<event>
 5   0  0.5177000E-08  0.3674323E+04  0.7818609E-02  0.8073676E-01
       -1   -1    0    0    0  501  0.00000000000E+00  0.00000000000E+00  0.36053003453E+04  0.36053003453E+04  0.50400001928E-02 0. -1.
        1   -1    0    0  501    0  0.00000000000E+00  0.00000000000E+00 -0.93616661254E+03  0.93616661255E+03  0.50400001928E-02 0.  1.
    10030    2    1    2    0    0  0.00000000000E+00  0.00000000000E+00  0.26691337327E+04  0.45414669578E+04  0.36743226921E+04 0.  0.
        4    1    3    3  502    0 -0.16656431592E+04 -0.46636208352E+03  0.56934393801E+03  0.18209928224E+04  0.12699999809E+01 0.  1.
       -4    1    3    3    0  502  0.16656431592E+04  0.46636208352E+03  0.20997897947E+04  0.27204741354E+04  0.12699999809E+01 0. -1.
</event>
<event>
 5   0  0.5177000E-08  0.3699944E+04  0.7818609E-02  0.8067974E-01
        1   -1    0    0  501    0  0.00000000000E+00  0.00000000000E+00  0.27215585942E+04  0.27215585942E+04  0.50400001928E-02 0. -1.
       -1   -1    0    0    0  501  0.00000000000E+00  0.00000000000E+00 -0.12575137160E+04  0.12575137160E+04  0.50400001928E-02 0.  1.
    10030    2    1    2    0    0  0.00000000000E+00  0.00000000000E+00  0.14640448782E+04  0.39790723102E+04  0.36999444650E+04 0.  0.
        3    1    3    3  502    0  0.60249057873E+03 -0.36229053685E+03 -0.11082542801E+04  0.13124316706E+04  0.10100000352E+00 0.  1.
       -3    1    3    3    0  502 -0.60249057873E+03  0.36229053685E+03  0.25722991583E+04  0.26666406396E+04  0.10100000352E+00 0. -1.
</event>
<event>
 5   0  0.1666189E-07  0.3621665E+04  0.7818609E-02  0.8085547E-01
        2   -1    0    0  501    0  0.00000000000E+00  0.00000000000E+00  0.24622780837E+04  0.24622780837E+04  0.25500000920E-02 0. -1.
       -2   -1    0    0    0  501  0.00000000000E+00  0.00000000000E+00 -0.13317402260E+04  0.13317402260E+04  0.25500000920E-02 0.  1.
    10030    2    1    2    0    0  0.00000000000E+00  0.00000000000E+00  0.11305378577E+04  0.37940183097E+04  0.36216652367E+04 0.  0.
        4    1    3    3  502    0  0.12088756294E+04  0.12926782313E+04  0.96653242468E+03  0.20165772581E+04  0.12699999809E+01 0. -1.
       -4    1    3    3    0  502 -0.12088756294E+04 -0.12926782313E+04  0.16400543298E+03  0.17774410516E+04  0.12699999809E+01 0.  1.
</event>
<event>
 5   0  0.5177000E-08  0.3698030E+04  0.7818609E-02  0.8068399E-01
       -1   -1    0    0    0  501  0.00000000000E+00  0.00000000000E+00  0.15088299925E+04  0.15088299926E+04  0.50400001928E-02 0. -1.
        1   -1    0    0  501    0  0.00000000000E+00  0.00000000000E+00 -0.22658988970E+04  0.22658988970E+04  0.50400001928E-02 0.  1.
    10030    2    1    2    0    0  0.00000000000E+00  0.00000000000E+00 -0.75706890447E+03  0.37747288896E+04  0.36980298625E+04 0.  0.
        2    1    3    3  502    0 -0.84849844204E+02 -0.12959406924E+04  0.96489130736E+03  0.16179236723E+04  0.25500000920E-02 0. -1.
       -2    1    3    3    0  502  0.84849844204E+02  0.12959406924E+04 -0.17219602118E+04  0.21568052173E+04  0.25500000920E-02 0.  1.
</event>
<event>
 5   0  0.5177000E-08  0.3696003E+04  0.7818609E-02  0.8068848E-01
       -1   -1    0    0    0  501  0.00000000000E+00  0.00000000000E+00  0.13082656661E+04  0.13082656661E+04  0.50400001928E-02 0.  1.
        1   -1    0    0  501    0  0.00000000000E+00  0.00000000000E+00 -0.26104093033E+04  0.26104093033E+04  0.50400001928E-02 0. -1.
    10030    2    1    2    0    0  0.00000000000E+00  0.00000000000E+00 -0.13021436372E+04  0.39186749694E+04  0.36960026331E+04 0.  0.
        3    1    3    3  502    0 -0.17544424362E+04  0.56380854562E+03 -0.79783279369E+03  0.20081049562E+04  0.10100000352E+00 0.  1.
       -3    1    3    3    0  502  0.17544424362E+04 -0.56380854562E+03 -0.50431084354E+03  0.19105700132E+04  0.10100000352E+00 0. -1.
</event>
<event>
 5   0  0.1686284E-07  0.3707876E+04  0.7818609E-02  0.8066219E-01
       -2   -1    0    0    0  501  0.00000000000E+00  0.00000000000E+00  0.19007707053E+04  0.19007707053E+04  0.25500000920E-02 0.  1.
        2   -1    0    0  501    0  0.00000000000E+00  0.00000000000E+00 -0.18082596359E+04  0.18082596359E+04  0.25500000920E-02 0. -1.
    10030    2    1    2    0    0  0.00000000000E+00  0.00000000000E+00  0.92511069399E+02  0.37090303412E+04  0.37078764508E+04 0.  0.
        5    1    3    3  502    0 -0.88664481371E+02 -0.64792178196E+03  0.17815578626E+04  0.18977972846E+04  0.46999998093E+01 0.  1.
       -5    1    3    3    0  502  0.88664481371E+02  0.64792178196E+03 -0.16890467932E+04  0.18112330566E+04  0.46999998093E+01 0. -1.
</event>
<event>
 5   0  0.5177000E-08  0.3746138E+04  0.7818609E-02  0.8057813E-01
       -1   -1    0    0    0  501  0.00000000000E+00  0.00000000000E+00  0.14111747166E+04  0.14111747166E+04  0.50400001928E-02 0. -1.
        1   -1    0    0  501    0  0.00000000000E+00  0.00000000000E+00 -0.24861471691E+04  0.24861471691E+04  0.50400001928E-02 0.  1.
    10030    2    1    2    0    0  0.00000000000E+00  0.00000000000E+00 -0.10749724525E+04  0.38973218857E+04  0.37461382925E+04 0.  0.
        2    1    3    3  502    0  0.18244931526E+04  0.34437260813E+03 -0.28049426945E+03  0.18777765555E+04  0.25500000920E-02 0. -1.
       -2    1    3    3    0  502 -0.18244931526E+04 -0.34437260813E+03 -0.79447818308E+03  0.20195453302E+04  0.25500000920E-02 0.  1.
</event>
<event>
 5   0  0.5181371E-08  0.3794050E+04  0.7818609E-02  0.8047433E-01
        1   -1    0    0  501    0  0.00000000000E+00  0.00000000000E+00  0.13799502496E+04  0.13799502496E+04  0.50400001928E-02 0. -1.
       -1   -1    0    0    0  501  0.00000000000E+00  0.00000000000E+00 -0.26078510501E+04  0.26078510501E+04  0.50400001928E-02 0.  1.
    10030    2    1    2    0    0  0.00000000000E+00  0.00000000000E+00 -0.12279008005E+04  0.39878012997E+04  0.37940504517E+04 0.  0.
        5    1    3    3  502    0 -0.25998848437E+03  0.14779038589E+04 -0.18337718841E+04  0.23695010532E+04  0.46999998093E+01 0.  1.
       -5    1    3    3    0  502  0.25998848437E+03 -0.14779038589E+04  0.60587108357E+03  0.16183002466E+04  0.46999998093E+01 0. -1.
</event>
<event>
 5   0  0.5181371E-08  0.3681309E+04  0.7818609E-02  0.8072117E-01
       -1   -1    0    0    0  501  0.00000000000E+00  0.00000000000E+00  0.18127683225E+04  0.18127683225E+04  0.50400001928E-02 0. -1.
        1   -1    0    0  501    0  0.00000000000E+00  0.00000000000E+00 -0.18689701442E+04  0.18689701442E+04  0.50400001928E-02 0.  1.
    10030    2    1    2    0    0  0.00000000000E+00  0.00000000000E+00 -0.56201821633E+02  0.36817384667E+04  0.36813094807E+04 0.  0.
        5    1    3    3  502    0  0.36164903453E+03  0.76656382534E+03  0.16059737120E+04  0.18159250470E+04  0.46999998093E+01 0. -1.
       -5    1    3    3    0  502 -0.36164903453E+03 -0.76656382534E+03 -0.16621755337E+04  0.18658134197E+04  0.46999998093E+01 0.  1.
</event>
<event>
 5   0  0.1658770E-07  0.3600627E+04  0.7818609E-02  0.8090348E-01
        2   -1    0    0  501    0  0.00000000000E+00  0.00000000000E+00  0.19956986120E+04  0.19956986120E+04  0.25500000920E-02 0.  1.
       -2   -1    0    0    0  501  0.00000000000E+00  0.00000000000E+00 -0.16240576306E+04  0.16240576306E+04  0.25500000920E-02 0. -1.
    10030    2    1    2    0    0  0.00000000000E+00  0.00000000000E+00  0.37164098140E+03  0.36197562425E+04  0.36006274781E+04 0.  0.
        2    1    3    3  502    0  0.50599591972E+03 -0.16338992713E+04 -0.37883136374E+03  0.17519052205E+04  0.25500000920E-02 0. -1.
       -2    1    3    3    0  502 -0.50599591972E+03  0.16338992713E+04  0.75047234514E+03  0.18678510220E+04  0.25500000920E-02 0.  1.
</event>
<event>
 5   0  0.1658770E-07  0.3708836E+04  0.7818609E-02  0.8066007E-01
       -2   -1    0    0    0  501  0.00000000000E+00  0.00000000000E+00  0.11135294807E+04  0.11135294807E+04  0.25500000920E-02 0. -1.
        2   -1    0    0  501    0  0.00000000000E+00  0.00000000000E+00 -0.30882572099E+04  0.30882572099E+04  0.25500000920E-02 0.  1.
    10030    2    1    2    0    0  0.00000000000E+00  0.00000000000E+00 -0.19747277292E+04  0.42017866906E+04  0.37088356379E+04 0.  0.
        2    1    3    3  502    0 -0.91914691575E+03 -0.15755338372E+04 -0.13660474651E+04  0.22788645422E+04  0.25500000920E-02 0.  1.
       -2    1    3    3    0  502  0.91914691575E+03  0.15755338372E+04 -0.60868026419E+03  0.19229221484E+04  0.25500000920E-02 0. -1.
</event>
<event>
 5   0  0.1587026E-07  0.3718351E+04  0.7818609E-02  0.8063907E-01
        2   -1    0    0  501    0  0.00000000000E+00  0.00000000000E+00  0.28245838835E+04  0.28245838835E+04  0.25500000920E-02 0.  1.
       -2   -1    0    0    0  501  0.00000000000E+00  0.00000000000E+00 -0.12237317216E+04  0.12237317216E+04  0.25500000920E-02 0. -1.
    10030    2    1    2    0    0  0.00000000000E+00  0.00000000000E+00  0.16008521619E+04  0.40483156051E+04  0.37183506551E+04 0.  0.
        3    1    3    3  502    0 -0.11631997181E+03 -0.12383673259E+04 -0.70402490012E+03  0.14292428205E+04  0.10100000352E+00 0. -1.
       -3    1    3    3    0  502  0.11631997181E+03  0.12383673259E+04  0.23048770620E+04  0.26190727846E+04  0.10100000352E+00 0.  1.
</event>
<event>
 5   0  0.1666189E-07  0.3710642E+04  0.7818609E-02  0.8065607E-01
        2   -1    0    0  501    0  0.00000000000E+00  0.00000000000E+00  0.23828058398E+04  0.23828058398E+04  0.25500000920E-02 0.  1.
       -2   -1    0    0    0  501  0.00000000000E+00  0.00000000000E+00 -0.14446064388E+04  0.14446064388E+04  0.25500000920E-02 0. -1.
    10030    2    1    2    0    0  0.00000000000E+00  0.00000000000E+00  0.93819940094E+03  0.38274122786E+04  0.37106423480E+04 0.  0.
        4    1    3    3  502    0 -0.14341639451E+04  0.50835828360E+03  0.15640906533E+04  0.21821172174E+04  0.12699999809E+01 0.  1.
       -4    1    3    3    0  502  0.14341639451E+04 -0.50835828360E+03 -0.62589125235E+03  0.16452950612E+04  0.12699999809E+01 0. -1.
</event>
<event>
 5   0  0.5177000E-08  0.3700214E+04  0.7818609E-02  0.8067914E-01
        1   -1    0    0  501    0  0.00000000000E+00  0.00000000000E+00  0.12665295519E+04  0.12665295519E+04  0.50400001928E-02 0.  1.
       -1   -1    0    0    0  501  0.00000000000E+00  0.00000000000E+00 -0.27025792012E+04  0.27025792012E+04  0.50400001928E-02 0. -1.
    10030    2    1    2    0    0  0.00000000000E+00  0.00000000000E+00 -0.14360496493E+04  0.39691087531E+04  0.37002142775E+04 0.  0.
        1    1    3    3  502    0  0.64238219280E+03 -0.92088347205E+03 -0.22953294597E+04  0.25552335665E+04  0.50400001928E-02 0. -1.
       -1    1    3    3    0  502 -0.64238219280E+03  0.92088347205E+03  0.85927981045E+03  0.14138751866E+04  0.50400001928E-02 0.  1.
</event>
<event>
 5   0  0.1666189E-07  0.3674443E+04  0.7818609E-02  0.8073649E-01
       -2   -1    0    0    0  501  0.00000000000E+00  0.00000000000E+00  0.17542466029E+04  0.17542466029E+04  0.25500000920E-02 0.  1.
        2   -1    0    0  501    0  0.00000000000E+00  0.00000000000E+00 -0.19241210480E+04  0.19241210480E+04  0.25500000920E-02 0. -1.
    10030    2    1    2    0    0  0.00000000000E+00  0.00000000000E+00 -0.16987444507E+03  0.36783676509E+04  0.36744429847E+04 0.  0.
        4    1    3    3  502    0  0.17700063848E+04 -0.42105182914E+03  0.17062735374E+03  0.18273813373E+04  0.12699999809E+01 0. -1.
       -4    1    3    3    0  502 -0.17700063848E+04  0.42105182914E+03 -0.34050179881E+03  0.18509863136E+04  0.12699999809E+01 0.  1.
</event>
<event>
 5   0  0.5177000E-08  0.3703405E+04  0.7818609E-02  0.8067208E-01
       -1   -1    0    0    0  501  0.00000000000E+00  0.00000000000E+00  0.13500754190E+04  0.13500754190E+04  0.50400001928E-02 0.  1.
        1   -1    0    0  501    0  0.00000000000E+00  0.00000000000E+00 -0.25397112326E+04  0.25397112326E+04  0.50400001928E-02 0. -1.
    10030    2    1    2    0    0  0.00000000000E+00  0.00000000000E+00 -0.11896358137E+04  0.38897866516E+04  0.37034047613E+04 0.  0.
        4    1    3    3  502    0 -0.77780906559E+03  0.16669831042E+04 -0.81757762041E+03  0.20130212096E+04  0.12699999809E+01 0.  1.
       -4    1    3    3    0  502  0.77780906559E+03 -0.16669831042E+04 -0.37205819327E+03  0.18767654420E+04  0.12699999809E+01 0. -1.
</event>
<event>
 5   0  0.1558258E-07  0.3697632E+04  0.7818609E-02  0.8068487E-01
       -2   -1    0    0    0  501  0.00000000000E+00  0.00000000000E+00  0.18854734321E+04  0.18854734321E+04  0.25500000920E-02 0. -1.
        2   -1    0    0  501    0  0.00000000000E+00  0.00000000000E+00 -0.18128711063E+04  0.18128711063E+04  0.25500000920E-02 0.  1.
    10030    2    1    2    0    0  0.00000000000E+00  0.00000000000E+00  0.72602325745E+02  0.36983445384E+04  0.36976318404E+04 0.  0.
        1    1    3    3  502    0 -0.95166740800E+02  0.16757258865E+04  0.81169658144E+03  0.18643940827E+04  0.50400001928E-02 0. -1.
       -1    1    3    3    0  502  0.95166740800E+02 -0.16757258865E+04 -0.73909425569E+03  0.18339504557E+04  0.50400001928E-02 0.  1.
</event>
<event>
 5   0  0.5177000E-08  0.3705135E+04  0.7818609E-02  0.8066825E-01
       -1   -1    0    0    0  501  0.00000000000E+00  0.00000000000E+00  0.19632786556E+04  0.19632786556E+04  0.50400001928E-02 0.  1.
        1   -1    0    0  501    0  0.00000000000E+00  0.00000000000E+00 -0.17480992486E+04  0.17480992486E+04  0.50400001928E-02 0. -1.
    10030    2    1    2    0    0  0.00000000000E+00  0.00000000000E+00  0.21517940697E+03  0.37113779042E+04  0.37051347844E+04 0.  0.
        3    1    3    3  502    0  0.12066834116E+04 -0.11962166693E+04 -0.63188639479E+03  0.18128153800E+04  0.10100000352E+00 0. -1.
       -3    1    3    3    0  502 -0.12066834116E+04  0.11962166693E+04  0.84706580176E+03  0.18985625243E+04  0.10100000352E+00 0.  1.
</event>
<event>
 5   0  0.1587026E-07  0.3703195E+04  0.7818609E-02  0.8067254E-01
        2   -1    0    0  501    0  0.00000000000E+00  0.00000000000E+00  0.21499005404E+04  0.21499005404E+04  0.25500000920E-02 0. -1.
       -2   -1    0    0    0  501  0.00000000000E+00  0.00000000000E+00 -0.15946847757E+04  0.15946847757E+04  0.25500000920E-02 0.  1.
    10030    2    1    2    0    0  0.00000000000E+00  0.00000000000E+00  0.55521576469E+03  0.37445853161E+04  0.37031951939E+04 0.  0.
        3    1    3    3  502    0  0.58171305126E+03 -0.15529819964E+03  0.20481511599E+04  0.21348139940E+04  0.10100000352E+00 0. -1.
       -3    1    3    3    0  502 -0.58171305126E+03  0.15529819964E+03 -0.14929353952E+04  0.16097713221E+04  0.10100000352E+00 0.  1.
</event>
<event>
 5   0  0.5181371E-08  0.3725962E+04  0.7818609E-02  0.8062233E-01
       -1   -1    0    0    0  501  0.00000000000E+00  0.00000000000E+00  0.17571968920E+04  0.17571968920E+04  0.50400001928E-02 0. -1.
        1   -1    0    0  501    0  0.00000000000E+00  0.00000000000E+00 -0.19751335108E+04  0.19751335108E+04  0.50400001928E-02 0.  1.
    10030    2    1    2    0    0  0.00000000000E+00  0.00000000000E+00 -0.21793661874E+03  0.37323304028E+04  0.37259621396E+04 0.  0.
        5    1    3    3  502    0 -0.16781758626E+04  0.40787046809E+03  0.59082705149E+03  0.18253030541E+04  0.46999998093E+01 0. -1.
       -5    1    3    3    0  502  0.16781758626E+04 -0.40787046809E+03 -0.80876367024E+03  0.19070273487E+04  0.46999998093E+01 0.  1.
</event>
<event>
 5   0  0.1558258E-07  0.3703589E+04  0.7818609E-02  0.8067167E-01
       -2   -1    0    0    0  501  0.00000000000E+00  0.00000000000E+00  0.17553649652E+04  0.17553649652E+04  0.25500000920E-02 0.  1.
        2   -1    0    0  501    0  0.00000000000E+00  0.00000000000E+00 -0.19535214617E+04  0.19535214617E+04  0.25500000920E-02 0. -1.
    10030    2    1    2    0    0  0.00000000000E+00  0.00000000000E+00 -0.19815649653E+03  0.37088864268E+04  0.37035891416E+04 0.  0.
        1    1    3    3  502    0  0.43171070710E+03  0.12228799583E+04  0.12246799026E+04  0.17837181366E+04  0.50400001928E-02 0.  1.
       -1    1    3    3    0  502 -0.43171070710E+03 -0.12228799583E+04 -0.14228363991E+04  0.19251682902E+04  0.50400001928E-02 0. -1.
</event>
<event>
 5   0  0.1587026E-07  0.3700568E+04  0.7818609E-02  0.8067836E-01
       -2   -1    0    0    0  501  0.00000000000E+00  0.00000000000E+00  0.11870208336E+04  0.11870208336E+04  0.25500000920E-02 0. -1.
        2   -1    0    0  501    0  0.00000000000E+00  0.00000000000E+00 -0.28841533765E+04  0.28841533765E+04  0.25500000920E-02 0.  1.
    10030    2    1    2    0    0  0.00000000000E+00  0.00000000000E+00 -0.16971325430E+04  0.40711742101E+04  0.37005676025E+04 0.  0.
        3    1    3    3  502    0 -0.92814660084E+02 -0.18382504503E+04 -0.10566394060E+04  0.21223256403E+04  0.10100000352E+00 0.  1.
       -3    1    3    3    0  502  0.92814660084E+02  0.18382504503E+04 -0.64049313699E+03  0.19488485698E+04  0.10100000352E+00 0. -1.
</event>
<event>
 5   0  0.5177000E-08  0.3679877E+04  0.7818609E-02  0.8072436E-01
       -3   -1    0    0    0  501  0.00000000000E+00  0.00000000000E+00  0.18695767610E+04  0.18695767638E+04  0.10100000352E+00 0. -1.
        3   -1    0    0  501    0  0.00000000000E+00  0.00000000000E+00 -0.18107703639E+04  0.18107703667E+04  0.10100000352E+00 0.  1.
    10030    2    1    2    0    0  0.00000000000E+00  0.00000000000E+00  0.58806397162E+02  0.36803471305E+04  0.36798772817E+04 0.  0.
        3    1    3    3  502    0 -0.53592924905E+03 -0.17094967209E+04 -0.38990561621E+03  0.18334736427E+04  0.10100000352E+00 0. -1.
       -3    1    3    3    0  502  0.53592924905E+03  0.17094967209E+04  0.44871201337E+03  0.18468734878E+04  0.10100000352E+00 0.  1.
</event>
<event>
 5   0  0.5177000E-08  0.3685415E+04  0.7818609E-02  0.8071202E-01
       -1   -1    0    0    0  501  0.00000000000E+00  0.00000000000E+00  0.22342692034E+04  0.22342692034E+04  0.50400001928E-02 0. -1.
        1   -1    0    0  501    0  0.00000000000E+00  0.00000000000E+00 -0.15197679366E+04  0.15197679366E+04  0.50400001928E-02 0.  1.
    10030    2    1    2    0    0  0.00000000000E+00  0.00000000000E+00  0.71450126673E+03  0.37540371400E+04  0.36854148733E+04 0.  0.
        4    1    3    3  502    0  0.76695791341E+03  0.78267160063E+03 -0.11518099290E+04  0.15898009312E+04  0.12699999809E+01 0.  1.
       -4    1    3    3    0  502 -0.76695791341E+03 -0.78267160063E+03  0.18663111957E+04  0.21642362088E+04  0.12699999809E+01 0. -1.
</event>
<event>
 5   0  0.5177000E-08  0.3700785E+04  0.7818609E-02  0.8067788E-01
        1   -1    0    0  501    0  0.00000000000E+00  0.00000000000E+00  0.24629612015E+04  0.24629612015E+04  0.50400001928E-02 0. -1.
       -1   -1    0    0    0  501  0.00000000000E+00  0.00000000000E+00 -0.13901773031E+04  0.13901773032E+04  0.50400001928E-02 0.  1.
    10030    2    1    2    0    0  0.00000000000E+00  0.00000000000E+00  0.10727838984E+04  0.38531385047E+04  0.37007851928E+04 0.  0.
        2    1    3    3  502    0 -0.14728973191E+04 -0.74867714329E+03  0.14037596107E+04  0.21680601980E+04  0.25500000920E-02 0. -1.
       -2    1    3    3    0  502  0.14728973191E+04  0.74867714329E+03 -0.33097571230E+03  0.16850783067E+04  0.25500000920E-02 0.  1.
</event>
<event>
 5   0  0.1666189E-07  0.3507356E+04  0.7818609E-02  0.8112049E-01
        2   -1    0    0  501    0  0.00000000000E+00  0.00000000000E+00  0.21997809355E+04  0.21997809355E+04  0.25500000920E-02 0.  1.
       -2   -1    0    0    0  501  0.00000000000E+00  0.00000000000E+00 -0.13980421857E+04  0.13980421857E+04  0.25500000920E-02 0. -1.
    10030    2    1    2    0    0  0.00000000000E+00  0.00000000000E+00  0.80173874985E+03  0.35978231212E+04  0.35073560110E+04 0.  0.
        4    1    3    3  502    0  0.13556929115E+04  0.54532774085E+03  0.13954656461E+04  0.20205473509E+04  0.12699999809E+01 0.  1.
       -4    1    3    3    0  502 -0.13556929115E+04 -0.54532774085E+03 -0.59372689621E+03  0.15772757702E+04  0.12699999809E+01 0. -1.
</event>
<event>
 5   0  0.1558258E-07  0.3666736E+04  0.7818609E-02  0.8075374E-01
        2   -1    0    0  501    0  0.00000000000E+00  0.00000000000E+00  0.18901557675E+04  0.18901557675E+04  0.25500000920E-02 0. -1.
       -2   -1    0    0    0  501  0.00000000000E+00  0.00000000000E+00 -0.17782861077E+04  0.17782861077E+04  0.25500000920E-02 0.  1.
    10030    2    1    2    0    0  0.00000000000E+00  0.00000000000E+00  0.11186965978E+03  0.36684418752E+04  0.36667357378E+04 0.  0.
        1    1    3    3  502    0 -0.44408589701E+03 -0.17494923123E+04  0.37749083371E+03  0.18440268339E+04  0.50400001928E-02 0. -1.
       -1    1    3    3    0  502  0.44408589701E+03  0.17494923123E+04 -0.26562117394E+03  0.18244150413E+04  0.50400001928E-02 0.  1.
</event>
<event>
 5   0  0.5177000E-08  0.3712351E+04  0.7818609E-02  0.8065230E-01
        1   -1    0    0  501    0  0.00000000000E+00  0.00000000000E+00  0.16265299083E+04  0.16265299083E+04  0.50400001928E-02 0.  1.
       -1   -1    0    0    0  501  0.00000000000E+00  0.00000000000E+00 -0.21182444416E+04  0.21182444416E+04  0.50400001928E-02 0. -1.
    10030    2    1    2    0    0  0.00000000000E+00  0.00000000000E+00 -0.49171453328E+03  0.37447743499E+04  0.37123512427E+04 0.  0.
        1    1    3    3  502    0 -0.67925131291E+03  0.88871370315E+02  0.14943496814E+04  0.16438860779E+04  0.50400001928E-02 0.  1.
       -1    1    3    3    0  502  0.67925131291E+03 -0.88871370315E+02 -0.19860642147E+04  0.21008882720E+04  0.50400001928E-02 0. -1.
</event>
<event>
 5   0  0.1686284E-07  0.3706693E+04  0.7818609E-02  0.8066480E-01
        2   -1    0    0  501    0  0.00000000000E+00  0.00000000000E+00  0.30498523848E+04  0.30498523848E+04  0.25500000920E-02 0. -1.
       -2   -1    0    0    0  501  0.00000000000E+00  0.00000000000E+00 -0.11262490845E+04  0.11262490845E+04  0.25500000920E-02 0.  1.
    10030    2    1    2    0    0  0.00000000000E+00  0.00000000000E+00  0.19236033003E+04  0.41761014692E+04  0.37066931117E+04 0.  0.
        5    1    3    3  502    0  0.92149131258E+03 -0.64241821936E+03  0.26225990979E+04  0.28530502144E+04  0.46999998093E+01 0. -1.
       -5    1    3    3    0  502 -0.92149131258E+03  0.64241821936E+03 -0.69899579763E+03  0.13230512548E+04  0.46999998093E+01 0.  1.
</event>
<event>
 5   0  0.5177000E-08  0.3709414E+04  0.7818609E-02  0.8065879E-01
       -1   -1    0    0    0  501  0.00000000000E+00  0.00000000000E+00  0.29681755301E+04  0.29681755301E+04  0.50400001928E-02 0. -1.
        1   -1    0    0  501    0  0.00000000000E+00  0.00000000000E+00 -0.11589404893E+04  0.11589404893E+04  0.50400001928E-02 0.  1.
    10030    2    1    2    0    0  0.00000000000E+00  0.00000000000E+00  0.18092350408E+04  0.41271160194E+04  0.37094144019E+04 0.  0.
        4    1    3    3  502    0 -0.18085053551E+04  0.71541280953E+02  0.45387151419E+03  0.18659610764E+04  0.12699999809E+01 0.  1.
       -4    1    3    3    0  502  0.18085053551E+04 -0.71541280953E+02  0.13553635266E+04  0.22611549430E+04  0.12699999809E+01 0. -1.
</event>
<event>
 5   0  0.5181371E-08  0.3710872E+04  0.7818609E-02  0.8065557E-01
        1   -1    0    0  501    0  0.00000000000E+00  0.00000000000E+00  0.26659071782E+04  0.26659071782E+04  0.50400001928E-02 0. -1.
       -1   -1    0    0    0  501  0.00000000000E+00  0.00000000000E+00 -0.12913588362E+04  0.12913588362E+04  0.50400001928E-02 0.  1.
    10030    2    1    2    0    0  0.00000000000E+00  0.00000000000E+00  0.13745483420E+04  0.39572660144E+04  0.37108720221E+04 0.  0.
        5    1    3    3  502    0 -0.11477324255E+04 -0.12637783566E+04 -0.87752257626E+02  0.17094291456E+04  0.46999998093E+01 0.  1.
       -5    1    3    3    0  502  0.11477324255E+04  0.12637783566E+04  0.14623005996E+04  0.22478368688E+04  0.46999998093E+01 0. -1.
</event>
<event>
 5   0  0.5177000E-08  0.3610996E+04  0.7818609E-02  0.8087978E-01
       -1   -1    0    0    0  501  0.00000000000E+00  0.00000000000E+00  0.14329562068E+04  0.14329562068E+04  0.50400001928E-02 0. -1.
        1   -1    0    0  501    0  0.00000000000E+00  0.00000000000E+00 -0.22748932249E+04  0.22748932249E+04  0.50400001928E-02 0.  1.
    10030    2    1    2    0    0  0.00000000000E+00  0.00000000000E+00 -0.84193701814E+03  0.37078494317E+04  0.36109956336E+04 0.  0.
        2    1    3    3  502    0 -0.23269453409E+03 -0.17343066343E+04 -0.87770937318E+03  0.19576363277E+04  0.25500000920E-02 0.  1.
       -2    1    3    3    0  502  0.23269453409E+03  0.17343066343E+04  0.35772355043E+02  0.17502131040E+04  0.25500000920E-02 0. -1.
</event>
<event>
 5   0  0.1666189E-07  0.3707124E+04  0.7818609E-02  0.8066385E-01
       -2   -1    0    0    0  501  0.00000000000E+00  0.00000000000E+00  0.17448214871E+04  0.17448214871E+04  0.25500000920E-02 0. -1.
        2   -1    0    0  501    0  0.00000000000E+00  0.00000000000E+00 -0.19690798563E+04  0.19690798563E+04  0.25500000920E-02 0.  1.
    10030    2    1    2    0    0  0.00000000000E+00  0.00000000000E+00 -0.22425836921E+03  0.37139013434E+04  0.37071244075E+04 0.  0.
        4    1    3    3  502    0  0.22950966414E+02  0.40988200919E+03  0.16987041685E+04  0.17476062123E+04  0.12699999809E+01 0. -1.
       -4    1    3    3    0  502 -0.22950966414E+02 -0.40988200919E+03 -0.19229625377E+04  0.19662951311E+04  0.12699999809E+01 0.  1.
</event>
<event>
 5   0  0.5177000E-08  0.3699713E+04  0.7818609E-02  0.8068025E-01
        1   -1    0    0  501    0  0.00000000000E+00  0.00000000000E+00  0.25233400802E+04  0.25233400802E+04  0.50400001928E-02 0.  1.
       -1   -1    0    0    0  501  0.00000000000E+00  0.00000000000E+00 -0.13561266778E+04  0.13561266778E+04  0.50400001928E-02 0. -1.
    10030    2    1    2    0    0  0.00000000000E+00  0.00000000000E+00  0.11672134024E+04  0.38794667580E+04  0.36997128536E+04 0.  0.
        1    1    3    3  502    0 -0.11270476165E+04 -0.10167327940E+04  0.16923279552E+04  0.22733138394E+04  0.50400001928E-02 0.  1.
       -1    1    3    3    0  502  0.11270476165E+04  0.10167327940E+04 -0.52511455282E+03  0.16061529186E+04  0.50400001928E-02 0. -1.
</event>
<event>
 5   0  0.5177000E-08  0.3711078E+04  0.7818609E-02  0.8065511E-01
       -1   -1    0    0    0  501  0.00000000000E+00  0.00000000000E+00  0.16967303522E+04  0.16967303522E+04  0.50400001928E-02 0. -1.
        1   -1    0    0  501    0  0.00000000000E+00  0.00000000000E+00 -0.20292119441E+04  0.20292119441E+04  0.50400001928E-02 0.  1.
    10030    2    1    2    0    0  0.00000000000E+00  0.00000000000E+00 -0.33248159184E+03  0.37259422963E+04  0.37110782782E+04 0.  0.
        3    1    3    3  502    0 -0.12513640152E+04 -0.11356358097E+04 -0.93576020264E+03  0.19316386199E+04  0.10100000352E+00 0.  1.
       -3    1    3    3    0  502  0.12513640152E+04  0.11356358097E+04  0.60327861080E+03  0.17943036764E+04  0.10100000352E+00 0. -1.
</event>
<event>
 5   0  0.1658770E-07  0.3702745E+04  0.7818609E-02  0.8067354E-01
        2   -1    0    0  501    0  0.00000000000E+00  0.00000000000E+00  0.13679926819E+04  0.13679926819E+04  0.25500000920E-02 0.  1.
       -2   -1    0    0    0  501  0.00000000000E+00  0.00000000000E+00 -0.25055545196E+04  0.25055545196E+04  0.25500000920E-02 0. -1.
    10030    2    1    2    0    0  0.00000000000E+00  0.00000000000E+00 -0.11375618377E+04  0.38735472014E+04  0.37027450610E+04 0.  0.
        2    1    3    3  502    0  0.20053624100E+03  0.18248140365E+04 -0.81945740073E+03  0.20103908783E+04  0.25500000920E-02 0.  1.
       -2    1    3    3    0  502 -0.20053624100E+03 -0.18248140365E+04 -0.31810443698E+03  0.18631563232E+04  0.25500000920E-02 0. -1.
</event>
<event>
 5   0  0.1666189E-07  0.3694988E+04  0.7818609E-02  0.8069073E-01
        2   -1    0    0  501    0  0.00000000000E+00  0.00000000000E+00  0.19073348928E+04  0.19073348928E+04  0.25500000920E-02 0.  1.
       -2   -1    0    0    0  501  0.00000000000E+00  0.00000000000E+00 -0.17895308640E+04  0.17895308640E+04  0.25500000920E-02 0. -1.
    10030    2    1    2    0    0  0.00000000000E+00  0.00000000000E+00  0.11780402878E+03  0.36968657568E+04  0.36949883132E+04 0.  0.
        4    1    3    3  502    0  0.36882371545E+03  0.16826159528E+04 -0.60927387487E+03  0.18271408389E+04  0.12699999809E+01 0. -1.
       -4    1    3    3    0  502 -0.36882371545E+03 -0.16826159528E+04  0.72707790365E+03  0.18697249179E+04  0.12699999809E+01 0.  1.
</event>
<event>
 5   0  0.5181371E-08  0.3694233E+04  0.7818609E-02  0.8069241E-01
        1   -1    0    0  501    0  0.00000000000E+00  0.00000000000E+00  0.21437400191E+04  0.21437400191E+04  0.50400001928E-02 0. -1.
       -1   -1    0    0    0  501  0.00000000000E+00  0.00000000000E+00 -0.15915357778E+04  0.15915357779E+04  0.50400001928E-02 0.  1.
    10030    2    1    2    0    0  0.00000000000E+00  0.00000000000E+00  0.55220424124E+03  0.37352757970E+04  0.36942327695E+04 0.  0.
        5    1    3    3  502    0  0.74794384660E+02 -0.14528404803E+04  0.14269377588E+04  0.20377716061E+04  0.46999998093E+01 0. -1.
       -5    1    3    3    0  502 -0.74794384660E+02  0.14528404803E+04 -0.87473351759E+03  0.16975041908E+04  0.46999998093E+01 0.  1.
</event>
<event>
 5   0  0.1666189E-07  0.3692129E+04  0.7818609E-02  0.8069708E-01
        2   -1    0    0  501    0  0.00000000000E+00  0.00000000000E+00  0.26496694324E+04  0.26496694324E+04  0.25500000920E-02 0. -1.
       -2   -1    0    0    0  501  0.00000000000E+00  0.00000000000E+00 -0.12861809599E+04  0.12861809599E+04  0.25500000920E-02 0.  1.
    10030    2    1    2    0    0  0.00000000000E+00  0.00000000000E+00  0.13634884726E+04  0.39358503923E+04  0.36921291277E+04 0.  0.
        4    1    3    3  502    0 -0.14658193141E+04 -0.96223291206E+03  0.66189252990E+02  0.17546797624E+04  0.12699999809E+01 0.  1.
       -4    1    3    3    0  502  0.14658193141E+04  0.96223291206E+03  0.12972992196E+04  0.21811706299E+04  0.12699999809E+01 0. -1.
</event>
<event>
 5   0  0.5177000E-08  0.3697778E+04  0.7818609E-02  0.8068454E-01
        1   -1    0    0  501    0  0.00000000000E+00  0.00000000000E+00  0.22276224641E+04  0.22276224641E+04  0.50400001928E-02 0.  1.
       -1   -1    0    0    0  501  0.00000000000E+00  0.00000000000E+00 -0.15345469709E+04  0.15345469709E+04  0.50400001928E-02 0. -1.
    10030    2    1    2    0    0  0.00000000000E+00  0.00000000000E+00  0.69307549316E+03  0.37621694350E+04  0.36977784166E+04 0.  0.
        2    1    3    3  502    0 -0.95997778893E+03  0.11213001754E+04  0.14792620361E+04  0.20897577874E+04  0.25500000920E-02 0.  1.
       -2    1    3    3    0  502  0.95997778893E+03 -0.11213001754E+04 -0.78618654299E+03  0.16724116476E+04  0.25500000920E-02 0. -1.
</event>
<event>
 5   0  0.1686284E-07  0.3705799E+04  0.7818609E-02  0.8066678E-01
        2   -1    0    0  501    0  0.00000000000E+00  0.00000000000E+00  0.14384596137E+04  0.14384596137E+04  0.25500000920E-02 0.  1.
       -2   -1    0    0    0  501  0.00000000000E+00  0.00000000000E+00 -0.23867454251E+04  0.23867454251E+04  0.25500000920E-02 0. -1.
    10030    2    1    2    0    0  0.00000000000E+00  0.00000000000E+00 -0.94828581136E+03  0.38252050388E+04  0.37057991862E+04 0.  0.
        5    1    3    3  502    0  0.11517158661E+04 -0.14039880384E+04 -0.94062571377E+02  0.18183788674E+04  0.46999998093E+01 0. -1.
       -5    1    3    3    0  502 -0.11517158661E+04  0.14039880384E+04 -0.85422323998E+03  0.20068261713E+04  0.46999998093E+01 0.  1.
</event>
<event>
 5   0  0.5177000E-08  0.3626897E+04  0.7818609E-02  0.8084358E-01
        1   -1    0    0  501    0  0.00000000000E+00  0.00000000000E+00  0.26806344308E+04  0.26806344308E+04  0.50400001928E-02 0. -1.
       -1   -1    0    0    0  501  0.00000000000E+00  0.00000000000E+00 -0.12267971039E+04  0.12267971039E+04  0.50400001928E-02 0.  1.
    10030    2    1    2    0    0  0.00000000000E+00  0.00000000000E+00  0.14538373269E+04  0.39074315347E+04  0.36268965005E+04 0.  0.
        4    1    3    3  502    0 -0.22588673375E+03  0.14534344395E+04  0.18696683037E+04  0.23788984142E+04  0.12699999809E+01 0. -1.
       -4    1    3    3    0  502  0.22588673375E+03 -0.14534344395E+04 -0.41583097682E+03  0.15285331205E+04  0.12699999809E+01 0.  1.
</event>
<event>
 5   0  0.1587026E-07  0.3708082E+04  0.7818609E-02  0.8066173E-01
        2   -1    0    0  501    0  0.00000000000E+00  0.00000000000E+00  0.99728233868E+03  0.99728233868E+03  0.25500000920E-02 0. -1.
       -2   -1    0    0    0  501  0.00000000000E+00  0.00000000000E+00 -0.34468348588E+04  0.34468348588E+04  0.25500000920E-02 0.  1.
    10030    2    1    2    0    0  0.00000000000E+00  0.00000000000E+00 -0.24495525201E+04  0.44441171975E+04  0.37080817300E+04 0.  0.
        3    1    3    3  502    0 -0.46040480501E+03  0.17760451828E+04 -0.90507126336E+03  0.20458404331E+04  0.10100000352E+00 0. -1.
       -3    1    3    3    0  502  0.46040480501E+03 -0.17760451828E+04 -0.15444812568E+04  0.23982767644E+04  0.10100000352E+00 0.  1.
</event>
<event>
 5   0  0.5177000E-08  0.3697949E+04  0.7818609E-02  0.8068417E-01
        1   -1    0    0  501    0  0.00000000000E+00  0.00000000000E+00  0.26895598469E+04  0.26895598469E+04  0.50400001928E-02 0. -1.
       -1   -1    0    0    0  501  0.00000000000E+00  0.00000000000E+00 -0.12711023711E+04  0.12711023711E+04  0.50400001928E-02 0.  1.
    10030    2    1    2    0    0  0.00000000000E+00  0.00000000000E+00  0.14184574758E+04  0.39606622180E+04  0.36979485657E+04 0.  0.
        2    1    3    3  502    0 -0.38076169897E+03 -0.75957399048E+03 -0.10496228603E+04  0.13504222552E+04  0.25500000920E-02 0.  1.
       -2    1    3    3    0  502  0.38076169897E+03  0.75957399048E+03  0.24680803361E+04  0.26102399629E+04  0.25500000920E-02 0. -1.
</event>
<event>
 5   0  0.1658770E-07  0.3695224E+04  0.7818609E-02  0.8069021E-01
        2   -1    0    0  501    0  0.00000000000E+00  0.00000000000E+00  0.16696252666E+04  0.16696252666E+04  0.25500000920E-02 0.  1.
       -2   -1    0    0    0  501  0.00000000000E+00  0.00000000000E+00 -0.20445730865E+04  0.20445730865E+04  0.25500000920E-02 0. -1.
    10030    2    1    2    0    0  0.00000000000E+00  0.00000000000E+00 -0.37494781995E+03  0.37141983531E+04  0.36952244233E+04 0.  0.
        2    1    3    3  502    0 -0.37179692862E+02 -0.10832904093E+04  0.13164610531E+04  0.17052771460E+04  0.25500000920E-02 0.  1.
       -2    1    3    3    0  502  0.37179692862E+02  0.10832904093E+04 -0.16914088730E+04  0.20089212071E+04  0.25500000920E-02 0. -1.
</event>
<event>
 5   0  0.1666189E-07  0.3686870E+04  0.7818609E-02  0.8070878E-01
        2   -1    0    0  501    0  0.00000000000E+00  0.00000000000E+00  0.27031639042E+04  0.27031639042E+04  0.25500000920E-02 0.  1.
       -2   -1    0    0    0  501  0.00000000000E+00  0.00000000000E+00 -0.12571386608E+04  0.12571386608E+04  0.25500000920E-02 0. -1.
    10030    2    1    2    0    0  0.00000000000E+00  0.00000000000E+00  0.14460252435E+04  0.39603025650E+04  0.36868695938E+04 0.  0.
        4    1    3    3  502    0  0.77115731851E+03  0.15585373597E+04  0.13803868791E+04  0.22201783398E+04  0.12699999809E+01 0.  1.
       -4    1    3    3    0  502 -0.77115731851E+03 -0.15585373597E+04  0.65638364359E+02  0.17401242252E+04  0.12699999809E+01 0. -1.
</event>
<event>
 5   0  0.1686284E-07  0.3702872E+04  0.7818609E-02  0.8067326E-01
       -2   -1    0    0    0  501  0.00000000000E+00  0.00000000000E+00  0.21069361974E+04  0.21069361974E+04  0.25500000920E-02 0.  1.
        2   -1    0    0  501    0  0.00000000000E+00  0.00000000000E+00 -0.16269195454E+04  0.16269195454E+04  0.25500000920E-02 0. -1.
    10030    2    1    2    0    0  0.00000000000E+00  0.00000000000E+00  0.48001665207E+03  0.37338557428E+04  0.37028722260E+04 0.  0.
        5    1    3    3  502    0 -0.18317726012E+04  0.16399418421E+03  0.45512086017E+03  0.18945822870E+04  0.46999998093E+01 0. -1.
       -5    1    3    3    0  502  0.18317726012E+04 -0.16399418421E+03  0.24895791896E+02  0.18392734558E+04  0.46999998093E+01 0.  1.
</event>
<event>
 5   0  0.5177000E-08  0.3721939E+04  0.7818609E-02  0.8063117E-01
        1   -1    0    0  501    0  0.00000000000E+00  0.00000000000E+00  0.11911615458E+04  0.11911615458E+04  0.50400001928E-02 0.  1.
       -1   -1    0    0    0  501  0.00000000000E+00  0.00000000000E+00 -0.29074208725E+04  0.29074208725E+04  0.50400001928E-02 0. -1.
    10030    2    1    2    0    0  0.00000000000E+00  0.00000000000E+00 -0.17162593267E+04  0.40985824183E+04  0.37219392477E+04 0.  0.
        1    1    3    3  502    0 -0.15612984752E+04  0.79676866734E+03 -0.15464558149E+04  0.23375240802E+04  0.50400001928E-02 0. -1.
       -1    1    3    3    0  502  0.15612984752E+04 -0.79676866734E+03 -0.16980351184E+03  0.17610583382E+04  0.50400001928E-02 0.  1.
</event>
<event>
 5   0  0.5177000E-08  0.3715666E+04  0.7818609E-02  0.8064499E-01
       -1   -1    0    0    0  501  0.00000000000E+00  0.00000000000E+00  0.19952925473E+04  0.19952925473E+04  0.50400001928E-02 0.  1.
        1   -1    0    0  501    0  0.00000000000E+00  0.00000000000E+00 -0.17298430041E+04  0.17298430041E+04  0.50400001928E-02 0. -1.
    10030    2    1    2    0    0  0.00000000000E+00  0.00000000000E+00  0.26544954319E+03  0.37251355514E+04  0.37156656761E+04 0.  0.
        2    1    3    3  502    0  0.97367395714E+03 -0.78949857899E+03  0.15074210804E+04  0.19605273002E+04  0.25500000920E-02 0.  1.
       -2    1    3    3    0  502 -0.97367395714E+03  0.78949857899E+03 -0.12419715372E+04  0.17646082512E+04  0.25500000920E-02 0. -1.
</event>
<event>
 5   0  0.1686284E-07  0.3649456E+04  0.7818609E-02  0.8079256E-01
        2   -1    0    0  501    0  0.00000000000E+00  0.00000000000E+00  0.20267451001E+04  0.20267451001E+04  0.25500000920E-02 0. -1.
       -2   -1    0    0    0  501  0.00000000000E+00  0.00000000000E+00 -0.16428466852E+04  0.16428466852E+04  0.25500000920E-02 0.  1.
    10030    2    1    2    0    0  0.00000000000E+00  0.00000000000E+00  0.38389841491E+03  0.36695917853E+04  0.36494555591E+04 0.  0.
        5    1    3    3  502    0 -0.65298464837E+03 -0.25513133965E+03  0.18859191397E+04  0.20120124361E+04  0.46999998093E+01 0. -1.
       -5    1    3    3    0  502  0.65298464837E+03  0.25513133965E+03 -0.15020207248E+04  0.16575793493E+04  0.46999998093E+01 0.  1.
</event>
<event>
 5   0  0.5177000E-08  0.3714594E+04  0.7818609E-02  0.8064735E-01
       -1   -1    0    0    0  501  0.00000000000E+00  0.00000000000E+00  0.17572461385E+04  0.17572461385E+04  0.50400001928E-02 0. -1.
        1   -1    0    0  501    0  0.00000000000E+00  0.00000000000E+00 -0.19630440137E+04  0.19630440137E+04  0.50400001928E-02 0.  1.
    10030    2    1    2    0    0  0.00000000000E+00  0.00000000000E+00 -0.20579787520E+03  0.37202901522E+04  0.37145936590E+04 0.  0.
        3    1    3    3  502    0  0.35751080816E+03  0.43152847533E+03 -0.18763546016E+04  0.19582485553E+04  0.10100000352E+00 0.  1.
       -3    1    3    3    0  502 -0.35751080816E+03 -0.43152847533E+03  0.16705567264E+04  0.17620415970E+04  0.10100000352E+00 0. -1.
</event>
<event>
 5   0  0.1558258E-07  0.3700872E+04  0.7818609E-02  0.8067769E-01
        2   -1    0    0  501    0  0.00000000000E+00  0.00000000000E+00  0.17589383359E+04  0.17589383359E+04  0.25500000920E-02 0. -1.
       -2   -1    0    0    0  501  0.00000000000E+00  0.00000000000E+00 -0.19466935987E+04  0.19466935987E+04  0.25500000920E-02 0.  1.
    10030    2    1    2    0    0  0.00000000000E+00  0.00000000000E+00 -0.18775526276E+03  0.37056319346E+04  0.37008723291E+04 0.  0.
        1    1    3    3  502    0 -0.11781153915E+04 -0.24517777913E+03 -0.15014045198E+04  0.19241318955E+04  0.50400001928E-02 0.  1.
       -1    1    3    3    0  502  0.11781153915E+04  0.24517777913E+03  0.13136492570E+04  0.17815000392E+04  0.50400001928E-02 0. -1.
</event>
<event>
 5   0  0.5177000E-08  0.3698151E+04  0.7818609E-02  0.8068372E-01
       -1   -1    0    0    0  501  0.00000000000E+00  0.00000000000E+00  0.13190866313E+04  0.13190866313E+04  0.50400001928E-02 0.  1.
        1   -1    0    0  501    0  0.00000000000E+00  0.00000000000E+00 -0.25920057746E+04  0.25920057746E+04  0.50400001928E-02 0. -1.
    10030    2    1    2    0    0  0.00000000000E+00  0.00000000000E+00 -0.12729191433E+04  0.39110924059E+04  0.36981509788E+04 0.  0.
        1    1    3    3  502    0 -0.10684230753E+04  0.14240706832E+04 -0.10811899235E+03  0.17835904505E+04  0.50400001928E-02 0.  1.
       -1    1    3    3    0  502  0.10684230753E+04 -0.14240706832E+04 -0.11648001510E+04  0.21275019554E+04  0.50400001928E-02 0. -1.
</event>
<event>
 5   0  0.1558258E-07  0.3708180E+04  0.7818609E-02  0.8066151E-01
       -2   -1    0    0    0  501  0.00000000000E+00  0.00000000000E+00  0.15525939523E+04  0.15525939523E+04  0.25500000920E-02 0. -1.
        2   -1    0    0  501    0  0.00000000000E+00  0.00000000000E+00 -0.22141331178E+04  0.22141331178E+04  0.25500000920E-02 0.  1.
    10030    2    1    2    0    0  0.00000000000E+00  0.00000000000E+00 -0.66153916551E+03  0.37667270700E+04  0.37081799784E+04 0.  0.
        1    1    3    3  502    0  0.78842988213E+03  0.12455119883E+03 -0.20306653820E+04  0.21819112205E+04  0.50400001928E-02 0.  1.
       -1    1    3    3    0  502 -0.78842988213E+03 -0.12455119883E+03  0.13691262165E+04  0.15848158496E+04  0.50400001928E-02 0. -1.
</event>
<event>
 5   0  0.1558258E-07  0.3833206E+04  0.7818609E-02  0.8039066E-01
        2   -1    0    0  501    0  0.00000000000E+00  0.00000000000E+00  0.26444951758E+04  0.26444951758E+04  0.25500000920E-02 0. -1.
       -2   -1    0    0    0  501  0.00000000000E+00  0.00000000000E+00 -0.13890614262E+04  0.13890614262E+04  0.25500000920E-02 0.  1.
    10030    2    1    2    0    0  0.00000000000E+00  0.00000000000E+00  0.12554337496E+04  0.40335566021E+04  0.38332055727E+04 0.  0.
        1    1    3    3  502    0  0.18770391483E+04 -0.38641913516E+03  0.59850762707E+03  0.20076870005E+04  0.50400001928E-02 0.  1.
       -1    1    3    3    0  502 -0.18770391483E+04  0.38641913516E+03  0.65692612255E+03  0.20258696016E+04  0.50400001928E-02 0. -1.
</event>
<event>
 5   0  0.1686284E-07  0.3706590E+04  0.7818609E-02  0.8066503E-01
       -2   -1    0    0    0  501  0.00000000000E+00  0.00000000000E+00  0.28773564219E+04  0.28773564219E+04  0.25500000920E-02 0.  1.
        2   -1    0    0  501    0  0.00000000000E+00  0.00000000000E+00 -0.11937007544E+04  0.11937007544E+04  0.25500000920E-02 0. -1.
    10030    2    1    2    0    0  0.00000000000E+00  0.00000000000E+00  0.16836556675E+04  0.40710571763E+04  0.37065900942E+04 0.  0.
        5    1    3    3  502    0 -0.67869614547E+03  0.16674158952E+04  0.35834297612E+03  0.18355751153E+04  0.46999998093E+01 0. -1.
       -5    1    3    3    0  502  0.67869614547E+03 -0.16674158952E+04  0.13253126914E+04  0.22354820610E+04  0.46999998093E+01 0.  1.
</event>
<event>
 5   0  0.1587026E-07  0.3698555E+04  0.7818609E-02  0.8068282E-01
       -2   -1    0    0    0  501  0.00000000000E+00  0.00000000000E+00  0.21196658998E+04  0.21196658998E+04  0.25500000920E-02 0.  1.
        2   -1    0    0  501    0  0.00000000000E+00  0.00000000000E+00 -0.16133803414E+04  0.16133803414E+04  0.25500000920E-02 0. -1.
    10030    2    1    2    0    0  0.00000000000E+00  0.00000000000E+00  0.50628555840E+03  0.37330462412E+04  0.36985550114E+04 0.  0.
        3    1    3    3  502    0 -0.14596987988E+04 -0.10605436448E+04 -0.15604368955E+03  0.18110281745E+04  0.10100000352E+00 0. -1.
       -3    1    3    3    0  502  0.14596987988E+04  0.10605436448E+04  0.66232924795E+03  0.19220180667E+04  0.10100000352E+00 0.  1.
</event>
<event>
 5   0  0.5177000E-08  0.3707836E+04  0.7818609E-02  0.8066227E-01
        1   -1    0    0  501    0  0.00000000000E+00  0.00000000000E+00  0.17646444760E+04  0.17646444760E+04  0.50400001928E-02 0.  1.
       -1   -1    0    0    0  501  0.00000000000E+00  0.00000000000E+00 -0.19477080653E+04  0.19477080653E+04  0.50400001928E-02 0. -1.
    10030    2    1    2    0    0  0.00000000000E+00  0.00000000000E+00 -0.18306358934E+03  0.37123525413E+04  0.37078361767E+04 0.  0.
        2    1    3    3  502    0  0.37452815824E+03 -0.14167153128E+04  0.10454828642E+04  0.18001077851E+04  0.25500000920E-02 0.  1.
       -2    1    3    3    0  502 -0.37452815824E+03  0.14167153128E+04 -0.12285464536E+04  0.19122447561E+04  0.25500000920E-02 0. -1.
</event>
<event>
 5   0  0.5177000E-08  0.3493926E+04  0.7818609E-02  0.8115231E-01
        1   -1    0    0  501    0  0.00000000000E+00  0.00000000000E+00  0.16710248854E+04  0.16710248854E+04  0.50400001928E-02 0.  1.
       -1   -1    0    0    0  501  0.00000000000E+00  0.00000000000E+00 -0.18263516420E+04  0.18263516420E+04  0.50400001928E-02 0. -1.
    10030    2    1    2    0    0  0.00000000000E+00  0.00000000000E+00 -0.15532675660E+03  0.34973765273E+04  0.34939256106E+04 0.  0.
        3    1    3    3  502    0 -0.25339214702E+02  0.43378471850E+03 -0.17713948261E+04  0.18239108799E+04  0.10100000352E+00 0. -1.
       -3    1    3    3    0  502  0.25339214702E+02 -0.43378471850E+03  0.16160680695E+04  0.16734656474E+04  0.10100000352E+00 0.  1.
</event>
<event>
 5   0  0.5177000E-08  0.3674430E+04  0.7818609E-02  0.8073652E-01
        1   -1    0    0  501    0  0.00000000000E+00  0.00000000000E+00  0.29522158461E+04  0.29522158461E+04  0.50400001928E-02 0. -1.
       -1   -1    0    0    0  501  0.00000000000E+00  0.00000000000E+00 -0.11433307438E+04  0.11433307438E+04  0.50400001928E-02 0.  1.
    10030    2    1    2    0    0  0.00000000000E+00  0.00000000000E+00  0.18088851024E+04  0.40955465899E+04  0.36744300996E+04 0.  0.
        2    1    3    3  502    0  0.15751846665E+04  0.50126947086E+02 -0.14804405558E+03  0.15829202402E+04  0.25500000920E-02 0.  1.
       -2    1    3    3    0  502 -0.15751846665E+04 -0.50126947086E+02  0.19569291579E+04  0.25126263498E+04  0.25500000920E-02 0. -1.
</event>
<event>
 5   0  0.5177000E-08  0.3694316E+04  0.7818609E-02  0.8069223E-01
       -1   -1    0    0    0  501  0.00000000000E+00  0.00000000000E+00  0.10733978245E+04  0.10733978245E+04  0.50400001928E-02 0.  1.
        1   -1    0    0  501    0  0.00000000000E+00  0.00000000000E+00 -0.31786848045E+04  0.31786848046E+04  0.50400001928E-02 0. -1.
    10030    2    1    2    0    0  0.00000000000E+00  0.00000000000E+00 -0.21052869801E+04  0.42520826290E+04  0.36943163665E+04 0.  0.
        1    1    3    3  502    0 -0.77783271514E+03 -0.16185289098E+04 -0.55447566971E+03  0.18793889520E+04  0.50400001928E-02 0.  1.
       -1    1    3    3    0  502  0.77783271514E+03  0.16185289098E+04 -0.15508113104E+04  0.23726936770E+04  0.50400001928E-02 0. -1.
</event>
<event>
 5   0  0.1558258E-07  0.3718680E+04  0.7818609E-02  0.8063835E-01
        2   -1    0    0  501    0  0.00000000000E+00  0.00000000000E+00  0.33841031569E+04  0.33841031569E+04  0.25500000920E-02 0. -1.
       -2   -1    0    0    0  501  0.00000000000E+00  0.00000000000E+00 -0.10215838506E+04  0.10215838506E+04  0.25500000920E-02 0.  1.
    10030    2    1    2    0    0  0.00000000000E+00  0.00000000000E+00  0.23625193063E+04  0.44056870076E+04  0.37186799453E+04 0.  0.
        1    1    3    3  502    0 -0.16939234044E+04 -0.25513863546E+02  0.27346542563E+03  0.17160451032E+04  0.50400001928E-02 0.  1.
       -1    1    3    3    0  502  0.16939234044E+04  0.25513863546E+02  0.20890538807E+04  0.26896419043E+04  0.50400001928E-02 0. -1.
</event>
<event>
 5   0  0.5177000E-08  0.3698779E+04  0.7818609E-02  0.8068232E-01
       -1   -1    0    0    0  501  0.00000000000E+00  0.00000000000E+00  0.19083824812E+04  0.19083824812E+04  0.50400001928E-02 0.  1.
        1   -1    0    0  501    0  0.00000000000E+00  0.00000000000E+00 -0.17922201536E+04  0.17922201536E+04  0.50400001928E-02 0. -1.
    10030    2    1    2    0    0  0.00000000000E+00  0.00000000000E+00  0.11616232761E+03  0.37006026348E+04  0.36987790113E+04 0.  0.
        3    1    3    3  502    0 -0.89441046587E+03  0.17305264088E+03  0.16683231023E+04  0.19008469906E+04  0.10100000352E+00 0.  1.
       -3    1    3    3    0  502  0.89441046587E+03 -0.17305264088E+03 -0.15521607747E+04  0.17997556441E+04  0.10100000352E+00 0. -1.
</event>
<event>
 5   0  0.1658770E-07  0.3701197E+04  0.7818609E-02  0.8067697E-01
       -2   -1    0    0    0  501  0.00000000000E+00  0.00000000000E+00  0.15245723306E+04  0.15245723306E+04  0.25500000920E-02 0. -1.
        2   -1    0    0  501    0  0.00000000000E+00  0.00000000000E+00 -0.22463445967E+04  0.22463445967E+04  0.25500000920E-02 0.  1.
    10030    2    1    2    0    0  0.00000000000E+00  0.00000000000E+00 -0.72177226611E+03  0.37709169274E+04  0.37011970049E+04 0.  0.
        2    1    3    3  502    0 -0.18267919012E+04  0.25267469839E+03 -0.20403264602E+03  0.18554359257E+04  0.25500000920E-02 0. -1.
       -2    1    3    3    0  502  0.18267919012E+04 -0.25267469839E+03 -0.51773962009E+03  0.19154810017E+04  0.25500000920E-02 0.  1.
</event>
<event>
 5   0  0.5181371E-08  0.3693494E+04  0.7818609E-02  0.8069405E-01
       -1   -1    0    0    0  501  0.00000000000E+00  0.00000000000E+00  0.15378474962E+04  0.15378474962E+04  0.50400001928E-02 0. -1.
        1   -1    0    0  501    0  0.00000000000E+00  0.00000000000E+00 -0.22176938101E+04  0.22176938101E+04  0.50400001928E-02 0.  1.
    10030    2    1    2    0    0  0.00000000000E+00  0.00000000000E+00 -0.67984631389E+03  0.37555413064E+04  0.36934942119E+04 0.  0.
        5    1    3    3  502    0  0.15151155862E+02 -0.13082942326E+02  0.15377310951E+04  0.15378685677E+04  0.46999998093E+01 0. -1.
       -5    1    3    3    0  502 -0.15151155862E+02  0.13082942326E+02 -0.22175774090E+04  0.22176727386E+04  0.46999998093E+01 0.  1.
</event>
<event>
 5   0  0.1666189E-07  0.3661296E+04  0.7818609E-02  0.8076594E-01
       -2   -1    0    0    0  501  0.00000000000E+00  0.00000000000E+00  0.16898439300E+04  0.16898439300E+04  0.25500000920E-02 0. -1.
        2   -1    0    0  501    0  0.00000000000E+00  0.00000000000E+00 -0.19831844496E+04  0.19831844496E+04  0.25500000920E-02 0.  1.
    10030    2    1    2    0    0  0.00000000000E+00  0.00000000000E+00 -0.29334051957E+03  0.36730283796E+04  0.36612960570E+04 0.  0.
        4    1    3    3  502    0 -0.22239009320E+03 -0.81579915664E+03 -0.17755372161E+04  0.19666010364E+04  0.12699999809E+01 0.  1.
       -4    1    3    3    0  502  0.22239009320E+03  0.81579915664E+03  0.14821966966E+04  0.17064273432E+04  0.12699999809E+01 0. -1.
</event>
<event>
 5   0  0.1558258E-07  0.3708047E+04  0.7818609E-02  0.8066181E-01
       -2   -1    0    0    0  501  0.00000000000E+00  0.00000000000E+00  0.22427817556E+04  0.22427817556E+04  0.25500000920E-02 0.  1.
        2   -1    0    0  501    0  0.00000000000E+00  0.00000000000E+00 -0.15326520269E+04  0.15326520269E+04  0.25500000920E-02 0. -1.
    10030    2    1    2    0    0  0.00000000000E+00  0.00000000000E+00  0.71012972868E+03  0.37754337825E+04  0.37080474666E+04 0.  0.
        1    1    3    3  502    0  0.63909863212E+03 -0.75912393209E+02 -0.14152666446E+04  0.15547313043E+04  0.50400001928E-02 0. -1.
       -1    1    3    3    0  502 -0.63909863212E+03  0.75912393209E+02  0.21253963733E+04  0.22207024782E+04  0.50400001928E-02 0.  1.
</event>
<event>
 5   0  0.1558258E-07  0.3713679E+04  0.7818609E-02  0.8064937E-01
       -2   -1    0    0    0  501  0.00000000000E+00  0.00000000000E+00  0.13835859413E+04  0.13835859413E+04  0.25500000920E-02 0.  1.
        2   -1    0    0  501    0  0.00000000000E+00  0.00000000000E+00 -0.24919682530E+04  0.24919682530E+04  0.25500000920E-02 0. -1.
    10030    2    1    2    0    0  0.00000000000E+00  0.00000000000E+00 -0.11083823117E+04  0.38755541942E+04  0.37136786295E+04 0.  0.
        1    1    3    3  502    0 -0.15324961562E+04  0.53789786105E+03 -0.14934059929E+04  0.22063861940E+04  0.50400001928E-02 0. -1.
       -1    1    3    3    0  502  0.15324961562E+04 -0.53789786105E+03  0.38502368117E+03  0.16691680002E+04  0.50400001928E-02 0.  1.
</event>
<event>
 5   0  0.5177000E-08  0.3692609E+04  0.7818609E-02  0.8069602E-01
        1   -1    0    0  501    0  0.00000000000E+00  0.00000000000E+00  0.17419016910E+04  0.17419016910E+04  0.50400001928E-02 0. -1.
       -1   -1    0    0    0  501  0.00000000000E+00  0.00000000000E+00 -0.19569647331E+04  0.19569647331E+04  0.50400001928E-02 0.  1.
    10030    2    1    2    0    0  0.00000000000E+00  0.00000000000E+00 -0.21506304202E+03  0.36988664241E+04  0.36926089302E+04 0.  0.
        4    1    3    3  502    0 -0.21125005872E+02 -0.18358884271E+04 -0.30255603782E+03  0.18607725147E+04  0.12699999809E+01 0.  1.
       -4    1    3    3    0  502  0.21125005872E+02  0.18358884271E+04  0.87492995797E+02  0.18380939094E+04  0.12699999809E+01 0. -1.
</event>
<event>
 5   0  0.1666189E-07  0.3710478E+04  0.7818609E-02  0.8065644E-01
        2   -1    0    0  501    0  0.00000000000E+00  0.00000000000E+00  0.98224248958E+03  0.98224248959E+03  0.25500000920E-02 0. -1.
       -2   -1    0    0    0  501  0.00000000000E+00  0.00000000000E+00 -0.35041366454E+04  0.35041366454E+04  0.25500000920E-02 0.  1.
    10030    2    1    2    0    0  0.00000000000E+00  0.00000000000E+00 -0.25218941558E+04  0.44863791350E+04  0.37104780837E+04 0.  0.
        4    1    3    3  502    0  0.18320187640E+04  0.69139859753E+02 -0.91717406568E+03  0.20499470607E+04  0.12699999809E+01 0.  1.
       -4    1    3    3    0  502 -0.18320187640E+04 -0.69139859753E+02 -0.16047200901E+04  0.24364320743E+04  0.12699999809E+01 0. -1.
</event>
<event>
 5   0  0.1666189E-07  0.3688837E+04  0.7818609E-02  0.8070440E-01
        2   -1    0    0  501    0  0.00000000000E+00  0.00000000000E+00  0.15257587359E+04  0.15257587359E+04  0.25500000920E-02 0.  1.
       -2   -1    0    0    0  501  0.00000000000E+00  0.00000000000E+00 -0.22296319261E+04  0.22296319261E+04  0.25500000920E-02 0. -1.
    10030    2    1    2    0    0  0.00000000000E+00  0.00000000000E+00 -0.70387319019E+03  0.37553906620E+04  0.36888374261E+04 0.  0.
        4    1    3    3  502    0  0.40529312697E+03  0.14350999756E+04  0.75305119788E+03  0.16705873753E+04  0.12699999809E+01 0.  1.
       -4    1    3    3    0  502 -0.40529312697E+03 -0.14350999756E+04 -0.14569243881E+04  0.20848032867E+04  0.12699999809E+01 0. -1.
</event>
<event>
 5   0  0.5177000E-08  0.3690722E+04  0.7818609E-02  0.8070021E-01
        1   -1    0    0  501    0  0.00000000000E+00  0.00000000000E+00  0.16152847787E+04  0.16152847787E+04  0.50400001928E-02 0.  1.
       -1   -1    0    0    0  501  0.00000000000E+00  0.00000000000E+00 -0.21082091353E+04  0.21082091353E+04  0.50400001928E-02 0. -1.
    10030    2    1    2    0    0  0.00000000000E+00  0.00000000000E+00 -0.49292435662E+03  0.37234939140E+04  0.36907224911E+04 0.  0.
        2    1    3    3  502    0 -0.41807736958E+03 -0.19106603064E+03 -0.20495256300E+04  0.21004404831E+04  0.25500000920E-02 0. -1.
       -2    1    3    3    0  502  0.41807736958E+03  0.19106603064E+03  0.15566012734E+04  0.16230534309E+04  0.25500000920E-02 0.  1.
</event>
<event>
 5   0  0.1558258E-07  0.3711501E+04  0.7818609E-02  0.8065418E-01
        2   -1    0    0  501    0  0.00000000000E+00  0.00000000000E+00  0.24069286579E+04  0.24069286579E+04  0.25500000920E-02 0.  1.
       -2   -1    0    0    0  501  0.00000000000E+00  0.00000000000E+00 -0.14307901131E+04  0.14307901131E+04  0.25500000920E-02 0. -1.
    10030    2    1    2    0    0  0.00000000000E+00  0.00000000000E+00  0.97613854479E+03  0.38377187710E+04  0.37115008968E+04 0.  0.
        1    1    3    3  502    0 -0.38676318275E+03 -0.57307639129E+03 -0.12926483229E+04  0.14659270093E+04  0.50400001928E-02 0. -1.
       -1    1    3    3    0  502  0.38676318275E+03  0.57307639129E+03  0.22687868677E+04  0.23717917617E+04  0.50400001928E-02 0.  1.
</event>
<event>
 5   0  0.5181371E-08  0.3688734E+04  0.7818609E-02  0.8070463E-01
        1   -1    0    0  501    0  0.00000000000E+00  0.00000000000E+00  0.23770932007E+04  0.23770932007E+04  0.50400001928E-02 0. -1.
       -1   -1    0    0    0  501  0.00000000000E+00  0.00000000000E+00 -0.14310294766E+04  0.14310294766E+04  0.50400001928E-02 0.  1.
    10030    2    1    2    0    0  0.00000000000E+00  0.00000000000E+00  0.94606372409E+03  0.38081226773E+04  0.36887344382E+04 0.  0.
        5    1    3    3  502    0 -0.18403482083E+04 -0.71428276791E+02  0.57462850722E+03  0.19293013082E+04  0.46999998093E+01 0. -1.
       -5    1    3    3    0  502  0.18403482083E+04  0.71428276791E+02  0.37143521688E+03  0.18788213691E+04  0.46999998093E+01 0.  1.
</event>
<event>
 5   0  0.5181371E-08  0.3687613E+04  0.7818609E-02  0.8070713E-01
        1   -1    0    0  501    0  0.00000000000E+00  0.00000000000E+00  0.21382782992E+04  0.21382782992E+04  0.50400001928E-02 0.  1.
       -1   -1    0    0    0  501  0.00000000000E+00  0.00000000000E+00 -0.15898875180E+04  0.15898875180E+04  0.50400001928E-02 0. -1.
    10030    2    1    2    0    0  0.00000000000E+00  0.00000000000E+00  0.54839078118E+03  0.37281658173E+04  0.36876127660E+04 0.  0.
        5    1    3    3  502    0  0.83567812844E+03 -0.96621597869E+03  0.16183534444E+04  0.20618004784E+04  0.46999998093E+01 0.  1.
       -5    1    3    3    0  502 -0.83567812844E+03  0.96621597869E+03 -0.10699626632E+04  0.16663653388E+04  0.46999998093E+01 0. -1.
</event>
<event>
 5   0  0.5181371E-08  0.3701148E+04  0.7818609E-02  0.8067707E-01
        1   -1    0    0  501    0  0.00000000000E+00  0.00000000000E+00  0.24338582295E+04  0.24338582295E+04  0.50400001928E-02 0.  1.
       -1   -1    0    0    0  501  0.00000000000E+00  0.00000000000E+00 -0.14070764799E+04  0.14070764799E+04  0.50400001928E-02 0. -1.
    10030    2    1    2    0    0  0.00000000000E+00  0.00000000000E+00  0.10267817496E+04  0.38409347094E+04  0.37011482922E+04 0.  0.
        5    1    3    3  502    0 -0.17427194618E+03 -0.63517693327E+03  0.23080948610E+04  0.24002384100E+04  0.46999998093E+01 0.  1.
       -5    1    3    3    0  502  0.17427194618E+03  0.63517693327E+03 -0.12813131113E+04  0.14406962994E+04  0.46999998093E+01 0. -1.
</event>
<event>
 5   0  0.5177000E-08  0.3688640E+04  0.7818609E-02  0.8070484E-01
        1   -1    0    0  501    0  0.00000000000E+00  0.00000000000E+00  0.21396437616E+04  0.21396437616E+04  0.50400001928E-02 0.  1.
       -1   -1    0    0    0  501  0.00000000000E+00  0.00000000000E+00 -0.15897578117E+04  0.15897578117E+04  0.50400001928E-02 0. -1.
    10030    2    1    2    0    0  0.00000000000E+00  0.00000000000E+00  0.54988594992E+03  0.37294015734E+04  0.36886395239E+04 0.  0.
        2    1    3    3  502    0 -0.13661387416E+04  0.12359474937E+04  0.36316614819E+03  0.18777089550E+04  0.25500000920E-02 0.  1.
       -2    1    3    3    0  502  0.13661387416E+04 -0.12359474937E+04  0.18671980173E+03  0.18516926184E+04  0.25500000920E-02 0. -1.
</event>
<event>
 5   0  0.1587026E-07  0.3701702E+04  0.7818609E-02  0.8067585E-01
        2   -1    0    0  501    0  0.00000000000E+00  0.00000000000E+00  0.19277595616E+04  0.19277595616E+04  0.25500000920E-02 0. -1.
       -2   -1    0    0    0  501  0.00000000000E+00  0.00000000000E+00 -0.17770109929E+04  0.17770109930E+04  0.25500000920E-02 0.  1.
    10030    2    1    2    0    0  0.00000000000E+00  0.00000000000E+00  0.15074856869E+03  0.37047705546E+04  0.37017022748E+04 0.  0.
        3    1    3    3  502    0  0.89444205375E+03  0.15129977507E+04 -0.50515921754E+03  0.18287631411E+04  0.10100000352E+00 0.  1.
       -3    1    3    3    0  502 -0.89444205375E+03 -0.15129977507E+04  0.65590778624E+03  0.18760074135E+04  0.10100000352E+00 0. -1.
</event>
<event>
 5   0  0.1686284E-07  0.3707765E+04  0.7818609E-02  0.8066243E-01
       -2   -1    0    0    0  501  0.00000000000E+00  0.00000000000E+00  0.15391904315E+04  0.15391904315E+04  0.25500000920E-02 0. -1.
        2   -1    0    0  501    0  0.00000000000E+00  0.00000000000E+00 -0.22329148019E+04  0.22329148019E+04  0.25500000920E-02 0.  1.
    10030    2    1    2    0    0  0.00000000000E+00  0.00000000000E+00 -0.69372437039E+03  0.37721052335E+04  0.37077654174E+04 0.  0.
        5    1    3    3  502    0 -0.94689947658E+02  0.17243494942E+04  0.33901136823E+03  0.17599142485E+04  0.46999998093E+01 0. -1.
       -5    1    3    3    0  502  0.94689947658E+02 -0.17243494942E+04 -0.10327357386E+04  0.20121909850E+04  0.46999998093E+01 0.  1.
</event>
<event>
 5   0  0.1658770E-07  0.3694478E+04  0.7818609E-02  0.8069187E-01
        2   -1    0    0  501    0  0.00000000000E+00  0.00000000000E+00  0.20242326242E+04  0.20242326242E+04  0.25500000920E-02 0. -1.
       -2   -1    0    0    0  501  0.00000000000E+00  0.00000000000E+00 -0.16857216262E+04  0.16857216262E+04  0.25500000920E-02 0.  1.
    10030    2    1    2    0    0  0.00000000000E+00  0.00000000000E+00  0.33851099796E+03  0.37099542504E+04  0.36944784266E+04 0.  0.
        2    1    3    3  502    0 -0.13858926546E+04  0.10205943797E+04  0.84287195406E+03  0.19164405728E+04  0.25500000920E-02 0. -1.
       -2    1    3    3    0  502  0.13858926546E+04 -0.10205943797E+04 -0.50436095610E+03  0.17935136777E+04  0.25500000920E-02 0.  1.
</event>
<event>
 5   0  0.5177000E-08  0.3725724E+04  0.7818609E-02  0.8062285E-01
        1   -1    0    0  501    0  0.00000000000E+00  0.00000000000E+00  0.21718803235E+04  0.21718803235E+04  0.50400001928E-02 0. -1.
       -1   -1    0    0    0  501  0.00000000000E+00  0.00000000000E+00 -0.15978109634E+04  0.15978109634E+04  0.50400001928E-02 0.  1.
    10030    2    1    2    0    0  0.00000000000E+00  0.00000000000E+00  0.57406936008E+03  0.37696912869E+04  0.37257236571E+04 0.  0.
        4    1    3    3  502    0  0.49818259553E+03  0.50947340070E+03 -0.14544697556E+04  0.16196397524E+04  0.12699999809E+01 0.  1.
       -4    1    3    3    0  502 -0.49818259553E+03 -0.50947340070E+03  0.20285391157E+04  0.21500515346E+04  0.12699999809E+01 0. -1.
</event>
<event>
 5   0  0.1558258E-07  0.3719567E+04  0.7818609E-02  0.8063639E-01
        2   -1    0    0  501    0  0.00000000000E+00  0.00000000000E+00  0.12139562949E+04  0.12139562949E+04  0.25500000920E-02 0.  1.
       -2   -1    0    0    0  501  0.00000000000E+00  0.00000000000E+00 -0.28491922361E+04  0.28491922361E+04  0.25500000920E-02 0. -1.
    10030    2    1    2    0    0  0.00000000000E+00  0.00000000000E+00 -0.16352359412E+04  0.40631485310E+04  0.37195670987E+04 0.  0.
        1    1    3    3  502    0  0.52565204306E+03 -0.64631873311E+03  0.99872883464E+03  0.13005757419E+04  0.50400001928E-02 0.  1.
       -1    1    3    3    0  502 -0.52565204306E+03  0.64631873311E+03 -0.26339647758E+04  0.27625727892E+04  0.50400001928E-02 0. -1.
</event>
<event>
 5   0  0.5177000E-08  0.3699260E+04  0.7818609E-02  0.8068126E-01
        1   -1    0    0  501    0  0.00000000000E+00  0.00000000000E+00  0.12651250964E+04  0.12651250964E+04  0.50400001928E-02 0.  1.
       -1   -1    0    0    0  501  0.00000000000E+00  0.00000000000E+00 -0.27041837043E+04  0.27041837043E+04  0.50400001928E-02 0. -1.
    10030    2    1    2    0    0  0.00000000000E+00  0.00000000000E+00 -0.14390586079E+04  0.39693088008E+04  0.36992597474E+04 0.  0.
        2    1    3    3  502    0 -0.15976853695E+04 -0.68901179599E+03 -0.46188256763E+02  0.17405370292E+04  0.25500000920E-02 0.  1.
       -2    1    3    3    0  502  0.15976853695E+04  0.68901179599E+03 -0.13928703511E+04  0.22287717716E+04  0.25500000920E-02 0. -1.
</event>
<event>
 5   0  0.5177000E-08  0.3710085E+04  0.7818609E-02  0.8065731E-01
       -1   -1    0    0    0  501  0.00000000000E+00  0.00000000000E+00  0.14702230956E+04  0.14702230956E+04  0.50400001928E-02 0.  1.
        1   -1    0    0  501    0  0.00000000000E+00  0.00000000000E+00 -0.23405849679E+04  0.23405849680E+04  0.50400001928E-02 0. -1.
    10030    2    1    2    0    0  0.00000000000E+00  0.00000000000E+00 -0.87036187234E+03  0.38108080636E+04  0.37100846767E+04 0.  0.
        1    1    3    3  502    0  0.32219421822E+03 -0.18158746798E+04 -0.64053901396E+03  0.19523063785E+04  0.50400001928E-02 0. -1.
       -1    1    3    3    0  502 -0.32219421822E+03  0.18158746798E+04 -0.22982285839E+03  0.18585016851E+04  0.50400001928E-02 0.  1.
</event>
<event>
 5   0  0.5177000E-08  0.3701202E+04  0.7818609E-02  0.8067695E-01
        1   -1    0    0  501    0  0.00000000000E+00  0.00000000000E+00  0.21176421682E+04  0.21176421682E+04  0.50400001928E-02 0.  1.
       -1   -1    0    0    0  501  0.00000000000E+00  0.00000000000E+00 -0.16172347527E+04  0.16172347527E+04  0.50400001928E-02 0. -1.
    10030    2    1    2    0    0  0.00000000000E+00  0.00000000000E+00  0.50040741549E+03  0.37348769209E+04  0.37012022416E+04 0.  0.
        3    1    3    3  502    0 -0.15926897579E+04  0.91306914173E+03  0.48549586741E+03  0.18989634462E+04  0.10100000352E+00 0.  1.
       -3    1    3    3    0  502  0.15926897579E+04 -0.91306914173E+03  0.14911548074E+02  0.18359134748E+04  0.10100000352E+00 0. -1.
</event>
<event>
 5   0  0.5177000E-08  0.3674873E+04  0.7818609E-02  0.8073553E-01
       -1   -1    0    0    0  501  0.00000000000E+00  0.00000000000E+00  0.23088801594E+04  0.23088801594E+04  0.50400001928E-02 0.  1.
        1   -1    0    0  501    0  0.00000000000E+00  0.00000000000E+00 -0.14622559001E+04  0.14622559001E+04  0.50400001928E-02 0. -1.
    10030    2    1    2    0    0  0.00000000000E+00  0.00000000000E+00  0.84662425927E+03  0.37711360595E+04  0.36748734050E+04 0.  0.
        2    1    3    3  502    0  0.67722922532E+03  0.52451760832E+03  0.20914439709E+04  0.22600654921E+04  0.25500000920E-02 0.  1.
       -2    1    3    3    0  502 -0.67722922532E+03 -0.52451760832E+03 -0.12448197117E+04  0.15110705674E+04  0.25500000920E-02 0. -1.
</event>
<event>
 5   0  0.5177000E-08  0.3706738E+04  0.7818609E-02  0.8066470E-01
       -1   -1    0    0    0  501  0.00000000000E+00  0.00000000000E+00  0.24572779291E+04  0.24572779291E+04  0.50400001928E-02 0.  1.
        1   -1    0    0  501    0  0.00000000000E+00  0.00000000000E+00 -0.13978789089E+04  0.13978789089E+04  0.50400001928E-02 0. -1.
    10030    2    1    2    0    0  0.00000000000E+00  0.00000000000E+00  0.10593990202E+04  0.38551568381E+04  0.37067381837E+04 0.  0.
        3    1    3    3  502    0  0.10337985904E+04  0.46245828718E+03  0.20555380594E+04  0.23468796127E+04  0.10100000352E+00 0.  1.
       -3    1    3    3    0  502 -0.10337985904E+04 -0.46245828718E+03 -0.99613903921E+03  0.15082772253E+04  0.10100000352E+00 0. -1.
</event>
<event>
 5   0  0.5177000E-08  0.3699445E+04  0.7818609E-02  0.8068085E-01
       -1   -1    0    0    0  501  0.00000000000E+00  0.00000000000E+00  0.16589796318E+04  0.16589796318E+04  0.50400001928E-02 0.  1.
        1   -1    0    0  501    0  0.00000000000E+00  0.00000000000E+00 -0.20623963398E+04  0.20623963398E+04  0.50400001928E-02 0. -1.
    10030    2    1    2    0    0  0.00000000000E+00  0.00000000000E+00 -0.40341670796E+03  0.37213759716E+04  0.36994451046E+04 0.  0.
        1    1    3    3  502    0  0.27193127359E+03  0.90616682277E+03  0.13971759446E+04  0.16873605271E+04  0.50400001928E-02 0.  1.
       -1    1    3    3    0  502 -0.27193127359E+03 -0.90616682277E+03 -0.18005926525E+04  0.20340154445E+04  0.50400001928E-02 0. -1.
</event>
<event>
 5   0  0.5177000E-08  0.3697871E+04  0.7818609E-02  0.8068434E-01
       -1   -1    0    0    0  501  0.00000000000E+00  0.00000000000E+00  0.26696993870E+04  0.26696993871E+04  0.50400001928E-02 0.  1.
        1   -1    0    0  501    0  0.00000000000E+00  0.00000000000E+00 -0.12805049210E+04  0.12805049210E+04  0.50400001928E-02 0. -1.
    10030    2    1    2    0    0  0.00000000000E+00  0.00000000000E+00  0.13891944660E+04  0.39502043081E+04  0.36978713892E+04 0.  0.
        2    1    3    3  502    0  0.11449881552E+04 -0.12341613110E+04  0.15112304022E+04  0.22622929399E+04  0.25500000920E-02 0.  1.
       -2    1    3    3    0  502 -0.11449881552E+04  0.12341613110E+04 -0.12203593622E+03  0.16879113682E+04  0.25500000920E-02 0. -1.
</event>
<event>
 5   0  0.1658770E-07  0.3664485E+04  0.7818609E-02  0.8075878E-01
        2   -1    0    0  501    0  0.00000000000E+00  0.00000000000E+00  0.10915973468E+04  0.10915973468E+04  0.25500000920E-02 0. -1.
       -2   -1    0    0    0  501  0.00000000000E+00  0.00000000000E+00 -0.30754125908E+04  0.30754125908E+04  0.25500000920E-02 0.  1.
    10030    2    1    2    0    0  0.00000000000E+00  0.00000000000E+00 -0.19838152440E+04  0.41670099376E+04  0.36644848065E+04 0.  0.
        2    1    3    3  502    0 -0.94022217238E+03  0.66043749052E+03 -0.26148319002E+04  0.28561409766E+04  0.25500000920E-02 0.  1.
       -2    1    3    3    0  502  0.94022217238E+03 -0.66043749052E+03  0.63101665615E+03  0.13108689609E+04  0.25500000920E-02 0. -1.
</event>
<event>
 5   0  0.5177000E-08  0.3700746E+04  0.7818609E-02  0.8067796E-01
       -1   -1    0    0    0  501  0.00000000000E+00  0.00000000000E+00  0.11338446625E+04  0.11338446625E+04  0.50400001928E-02 0.  1.
        1   -1    0    0  501    0  0.00000000000E+00  0.00000000000E+00 -0.30197087243E+04  0.30197087243E+04  0.50400001928E-02 0. -1.
    10030    2    1    2    0    0  0.00000000000E+00  0.00000000000E+00 -0.18858640619E+04  0.41535533868E+04  0.37007462054E+04 0.  0.
        2    1    3    3  502    0  0.18845560592E+03 -0.17657647446E+04 -0.15266000993E+04  0.23417831907E+04  0.25500000920E-02 0. -1.
       -2    1    3    3    0  502 -0.18845560592E+03  0.17657647446E+04 -0.35926396254E+03  0.18117701961E+04  0.25500000920E-02 0.  1.
</event>
<event>
 5   0  0.5181371E-08  0.3705670E+04  0.7818609E-02  0.8066706E-01
        1   -1    0    0  501    0  0.00000000000E+00  0.00000000000E+00  0.19023527409E+04  0.19023527409E+04  0.50400001928E-02 0.  1.
       -1   -1    0    0    0  501  0.00000000000E+00  0.00000000000E+00 -0.18046060472E+04  0.18046060472E+04  0.50400001928E-02 0. -1.
    10030    2    1    2    0    0  0.00000000000E+00  0.00000000000E+00  0.97746693672E+02  0.37069587881E+04  0.37056698504E+04 0.  0.
        5    1    3    3  502    0  0.41396554354E+03 -0.11547712495E+04 -0.13401740237E+04  0.18168523918E+04  0.46999998093E+01 0. -1.
       -5    1    3    3    0  502 -0.41396554354E+03  0.11547712495E+04  0.14379207174E+04  0.18901063963E+04  0.46999998093E+01 0.  1.
</event>
<event>
 5   0  0.1587026E-07  0.3671851E+04  0.7818609E-02  0.8074229E-01
       -2   -1    0    0    0  501  0.00000000000E+00  0.00000000000E+00  0.17287310682E+04  0.17287310682E+04  0.25500000920E-02 0.  1.
        2   -1    0    0  501    0  0.00000000000E+00  0.00000000000E+00 -0.19497663820E+04  0.19497663820E+04  0.25500000920E-02 0. -1.
    10030    2    1    2    0    0  0.00000000000E+00  0.00000000000E+00 -0.22103531375E+03  0.36784974502E+04  0.36718506071E+04 0.  0.
        3    1    3    3  502    0 -0.53473754282E+03 -0.15694055977E+04  0.67935334239E+03  0.17917865788E+04  0.10100000352E+00 0.  1.
       -3    1    3    3    0  502  0.53473754282E+03  0.15694055977E+04 -0.90038865614E+03  0.18867108714E+04  0.10100000352E+00 0. -1.
</event>
<event>
 5   0  0.1587026E-07  0.3688129E+04  0.7818609E-02  0.8070598E-01
       -2   -1    0    0    0  501  0.00000000000E+00  0.00000000000E+00  0.10731215625E+04  0.10731215625E+04  0.25500000920E-02 0.  1.
        2   -1    0    0  501    0  0.00000000000E+00  0.00000000000E+00 -0.31688614294E+04  0.31688614294E+04  0.25500000920E-02 0. -1.
    10030    2    1    2    0    0  0.00000000000E+00  0.00000000000E+00 -0.20957398669E+04  0.42419829918E+04  0.36881288092E+04 0.  0.
        3    1    3    3  502    0 -0.71158542917E+03 -0.12615750183E+04  0.26486308498E+03  0.14724394092E+04  0.10100000352E+00 0.  1.
       -3    1    3    3    0  502  0.71158542917E+03  0.12615750183E+04 -0.23606029519E+04  0.27695435827E+04  0.10100000352E+00 0. -1.
</event>
<event>
 5   0  0.1666189E-07  0.3689956E+04  0.7818609E-02  0.8070191E-01
       -2   -1    0    0    0  501  0.00000000000E+00  0.00000000000E+00  0.17628691698E+04  0.17628691698E+04  0.25500000920E-02 0. -1.
        2   -1    0    0  501    0  0.00000000000E+00  0.00000000000E+00 -0.19309112364E+04  0.19309112364E+04  0.25500000920E-02 0.  1.
    10030    2    1    2    0    0  0.00000000000E+00  0.00000000000E+00 -0.16804206658E+03  0.36937804061E+04  0.36899560367E+04 0.  0.
        4    1    3    3  502    0  0.12996497861E+04 -0.59681088733E+03 -0.12508488937E+04  0.18999729918E+04  0.12699999809E+01 0.  1.
       -4    1    3    3    0  502 -0.12996497861E+04  0.59681088733E+03  0.10828068272E+04  0.17938074143E+04  0.12699999809E+01 0. -1.
</event>
<event>
 5   0  0.1587026E-07  0.3687422E+04  0.7818609E-02  0.8070755E-01
       -2   -1    0    0    0  501  0.00000000000E+00  0.00000000000E+00  0.24731597960E+04  0.24731597960E+04  0.25500000920E-02 0.  1.
        2   -1    0    0  501    0  0.00000000000E+00  0.00000000000E+00 -0.13744642045E+04  0.13744642045E+04  0.25500000920E-02 0. -1.
    10030    2    1    2    0    0  0.00000000000E+00  0.00000000000E+00  0.10986955915E+04  0.38476240005E+04  0.36874216529E+04 0.  0.
        3    1    3    3  502    0 -0.66946047533E+03 -0.60843248812E+03  0.22256626592E+04  0.24024865667E+04  0.10100000352E+00 0.  1.
       -3    1    3    3    0  502  0.66946047533E+03  0.60843248812E+03 -0.11269670677E+04  0.14451374338E+04  0.10100000352E+00 0. -1.
</event>
<event>
 5   0  0.1558258E-07  0.3705664E+04  0.7818609E-02  0.8066708E-01
       -2   -1    0    0    0  501  0.00000000000E+00  0.00000000000E+00  0.12211489992E+04  0.12211489992E+04  0.25500000920E-02 0. -1.
        2   -1    0    0  501    0  0.00000000000E+00  0.00000000000E+00 -0.28112760138E+04  0.28112760138E+04  0.25500000920E-02 0.  1.
    10030    2    1    2    0    0  0.00000000000E+00  0.00000000000E+00 -0.15901270146E+04  0.40324250129E+04  0.37056642539E+04 0.  0.
        1    1    3    3  502    0 -0.11790875120E+04  0.12901480589E+04 -0.14643221907E+04  0.22801247451E+04  0.50400001928E-02 0. -1.
       -1    1    3    3    0  502  0.11790875120E+04 -0.12901480589E+04 -0.12580482388E+03  0.17523002678E+04  0.50400001928E-02 0.  1.
</event>
<event>
 5   0  0.1587026E-07  0.3697377E+04  0.7818609E-02  0.8068543E-01
        2   -1    0    0  501    0  0.00000000000E+00  0.00000000000E+00  0.24031698388E+04  0.24031698388E+04  0.25500000920E-02 0.  1.
       -2   -1    0    0    0  501  0.00000000000E+00  0.00000000000E+00 -0.14221420044E+04  0.14221420045E+04  0.25500000920E-02 0. -1.
    10030    2    1    2    0    0  0.00000000000E+00  0.00000000000E+00  0.98102783435E+03  0.38253118433E+04  0.36973767845E+04 0.  0.
        3    1    3    3  502    0  0.79671370031E+03  0.15078861824E+04  0.12287696021E+04  0.21019867280E+04  0.10100000352E+00 0.  1.
       -3    1    3    3    0  502 -0.79671370031E+03 -0.15078861824E+04 -0.24774176771E+03  0.17233251153E+04  0.10100000352E+00 0. -1.
</event>
<event>
 5   0  0.1686284E-07  0.3704314E+04  0.7818609E-02  0.8067007E-01
        2   -1    0    0  501    0  0.00000000000E+00  0.00000000000E+00  0.21133907585E+04  0.21133907585E+04  0.25500000920E-02 0.  1.
       -2   -1    0    0    0  501  0.00000000000E+00  0.00000000000E+00 -0.16232138952E+04  0.16232138952E+04  0.25500000920E-02 0. -1.
    10030    2    1    2    0    0  0.00000000000E+00  0.00000000000E+00  0.49017686324E+03  0.37366046537E+04  0.37043138340E+04 0.  0.
        5    1    3    3  502    0 -0.83648719178E+03 -0.11042805327E+04  0.14851611050E+04  0.20309780685E+04  0.46999998093E+01 0.  1.
       -5    1    3    3    0  502  0.83648719178E+03  0.11042805327E+04 -0.99498424175E+03  0.17056265852E+04  0.46999998093E+01 0. -1.
</event>
<event>
 5   0  0.5177000E-08  0.3690417E+04  0.7818609E-02  0.8070089E-01
       -1   -1    0    0    0  501  0.00000000000E+00  0.00000000000E+00  0.11502209188E+04  0.11502209188E+04  0.50400001928E-02 0. -1.
        1   -1    0    0  501    0  0.00000000000E+00  0.00000000000E+00 -0.29601216513E+04  0.29601216513E+04  0.50400001928E-02 0.  1.
    10030    2    1    2    0    0  0.00000000000E+00  0.00000000000E+00 -0.18099007325E+04  0.41103425701E+04  0.36904166950E+04 0.  0.
        3    1    3    3  502    0  0.19804901504E+03  0.18056593854E+04 -0.54375895542E+03  0.18961284345E+04  0.10100000352E+00 0.  1.
       -3    1    3    3    0  502 -0.19804901504E+03 -0.18056593854E+04 -0.12661417771E+04  0.22142141356E+04  0.10100000352E+00 0. -1.
</event>
<event>
 5   0  0.5177000E-08  0.3726092E+04  0.7818609E-02  0.8062204E-01
       -1   -1    0    0    0  501  0.00000000000E+00  0.00000000000E+00  0.22789854191E+04  0.22789854191E+04  0.50400001928E-02 0. -1.
        1   -1    0    0  501    0  0.00000000000E+00  0.00000000000E+00 -0.15230201922E+04  0.15230201922E+04  0.50400001928E-02 0.  1.
    10030    2    1    2    0    0  0.00000000000E+00  0.00000000000E+00  0.75596522683E+03  0.38020056113E+04  0.37260922217E+04 0.  0.
        1    1    3    3  502    0  0.85662672199E+03 -0.10007536242E+04 -0.96628870958E+03  0.16337169362E+04  0.50400001928E-02 0.  1.
       -1    1    3    3    0  502 -0.85662672199E+03  0.10007536242E+04  0.17222539364E+04  0.21682886751E+04  0.50400001928E-02 0. -1.
</event>
<event>
 5   0  0.5177000E-08  0.3698217E+04  0.7818609E-02  0.8068357E-01
        1   -1    0    0  501    0  0.00000000000E+00  0.00000000000E+00  0.17062741136E+04  0.17062741136E+04  0.50400001928E-02 0. -1.
       -1   -1    0    0    0  501  0.00000000000E+00  0.00000000000E+00 -0.20039002741E+04  0.20039002741E+04  0.50400001928E-02 0.  1.
    10030    2    1    2    0    0  0.00000000000E+00  0.00000000000E+00 -0.29762616050E+03  0.37101743877E+04  0.36982174971E+04 0.  0.
        3    1    3    3  502    0 -0.35210200399E+03  0.17187593133E+04  0.43710750775E+03  0.18080852805E+04  0.10100000352E+00 0. -1.
       -3    1    3    3    0  502  0.35210200399E+03 -0.17187593133E+04 -0.73473366825E+03  0.19020891072E+04  0.10100000352E+00 0.  1.
</event>
<event>
 5   0  0.5177000E-08  0.3631450E+04  0.7818609E-02  0.8083325E-01
        1   -1    0    0  501    0  0.00000000000E+00  0.00000000000E+00  0.17591456787E+04  0.17591456787E+04  0.50400001928E-02 0. -1.
       -1   -1    0    0    0  501  0.00000000000E+00  0.00000000000E+00 -0.18741239767E+04  0.18741239768E+04  0.50400001928E-02 0.  1.
    10030    2    1    2    0    0  0.00000000000E+00  0.00000000000E+00 -0.11497829802E+03  0.36332696555E+04  0.36314499006E+04 0.  0.
        1    1    3    3  502    0 -0.82960773900E+03  0.15372045459E+03 -0.16660815402E+04  0.18675402746E+04  0.50400001928E-02 0.  1.
       -1    1    3    3    0  502  0.82960773900E+03 -0.15372045459E+03  0.15511032421E+04  0.17657293809E+04  0.50400001928E-02 0. -1.
</event>
<event>
 5   0  0.5177000E-08  0.3692397E+04  0.7818609E-02  0.8069649E-01
       -1   -1    0    0    0  501  0.00000000000E+00  0.00000000000E+00  0.14049372853E+04  0.14049372853E+04  0.50400001928E-02 0.  1.
        1   -1    0    0  501    0  0.00000000000E+00  0.00000000000E+00 -0.24260511616E+04  0.24260511616E+04  0.50400001928E-02 0. -1.
    10030    2    1    2    0    0  0.00000000000E+00  0.00000000000E+00 -0.10211138763E+04  0.38309884469E+04  0.36923974505E+04 0.  0.
        4    1    3    3  502    0 -0.17930949749E+04  0.43571518848E+03 -0.57115111584E+03  0.19316450306E+04  0.12699999809E+01 0. -1.
       -4    1    3    3    0  502  0.17930949749E+04 -0.43571518848E+03 -0.44996276042E+03  0.18993434163E+04  0.12699999809E+01 0.  1.
</event>
<event>
 5   0  0.1666189E-07  0.3690444E+04  0.7818609E-02  0.8070083E-01
       -2   -1    0    0    0  501  0.00000000000E+00  0.00000000000E+00  0.12490076113E+04  0.12490076113E+04  0.25500000920E-02 0.  1.
        2   -1    0    0  501    0  0.00000000000E+00  0.00000000000E+00 -0.27260390662E+04  0.27260390662E+04  0.25500000920E-02 0. -1.
    10030    2    1    2    0    0  0.00000000000E+00  0.00000000000E+00 -0.14770314549E+04  0.39750466776E+04  0.36904436278E+04 0.  0.
        4    1    3    3  502    0  0.43894323836E+03  0.14232471906E+04 -0.19118034303E+04  0.24234887458E+04  0.12699999809E+01 0. -1.
       -4    1    3    3    0  502 -0.43894323836E+03 -0.14232471906E+04  0.43477197538E+03  0.15515579318E+04  0.12699999809E+01 0.  1.
</event>
<event>
 5   0  0.1686284E-07  0.3691608E+04  0.7818609E-02  0.8069824E-01
       -2   -1    0    0    0  501  0.00000000000E+00  0.00000000000E+00  0.16792966357E+04  0.16792966357E+04  0.25500000920E-02 0. -1.
        2   -1    0    0  501    0  0.00000000000E+00  0.00000000000E+00 -0.20288209374E+04  0.20288209374E+04  0.25500000920E-02 0.  1.
    10030    2    1    2    0    0  0.00000000000E+00  0.00000000000E+00 -0.34952430162E+03  0.37081175731E+04  0.36916078744E+04 0.  0.
        5    1    3    3  502    0  0.94255976319E+03 -0.13700056832E+04 -0.97936610026E+03  0.19299001341E+04  0.46999998093E+01 0.  1.
       -5    1    3    3    0  502 -0.94255976319E+03  0.13700056832E+04  0.62984179864E+03  0.17782174390E+04  0.46999998093E+01 0. -1.
</event>
<event>
 5   0  0.5177000E-08  0.3742525E+04  0.7818609E-02  0.8058603E-01
        1   -1    0    0  501    0  0.00000000000E+00  0.00000000000E+00  0.15779566849E+04  0.15779566849E+04  0.50400001928E-02 0. -1.
       -1   -1    0    0    0  501  0.00000000000E+00  0.00000000000E+00 -0.22190871048E+04  0.22190871048E+04  0.50400001928E-02 0.  1.
    10030    2    1    2    0    0  0.00000000000E+00  0.00000000000E+00 -0.64113041993E+03  0.37970437897E+04  0.37425249933E+04 0.  0.
        1    1    3    3  502    0  0.12465276283E+04  0.13112569459E+04 -0.80543653183E+03  0.19803923634E+04  0.50400001928E-02 0.  1.
       -1    1    3    3    0  502 -0.12465276283E+04 -0.13112569459E+04  0.16430611190E+03  0.18166514263E+04  0.50400001928E-02 0. -1.
</event>
<event>
 5   0  0.1587026E-07  0.3734118E+04  0.7818609E-02  0.8060443E-01
        2   -1    0    0  501    0  0.00000000000E+00  0.00000000000E+00  0.18671692284E+04  0.18671692284E+04  0.25500000920E-02 0.  1.
       -2   -1    0    0    0  501  0.00000000000E+00  0.00000000000E+00 -0.18669491173E+04  0.18669491173E+04  0.25500000920E-02 0. -1.
    10030    2    1    2    0    0  0.00000000000E+00  0.00000000000E+00  0.22011116678E+00  0.37341183457E+04  0.37341183392E+04 0.  0.
        3    1    3    3  502    0  0.11905167368E+04 -0.11715911156E+04 -0.83412857467E+03  0.18670099978E+04  0.10100000352E+00 0. -1.
       -3    1    3    3    0  502 -0.11905167368E+04  0.11715911156E+04  0.83434868584E+03  0.18671083478E+04  0.10100000352E+00 0.  1.
</event>
<event>
 5   0  0.1558258E-07  0.3732936E+04  0.7818609E-02  0.8060702E-01
       -2   -1    0    0    0  501  0.00000000000E+00  0.00000000000E+00  0.14270137774E+04  0.14270137774E+04  0.25500000920E-02 0. -1.
        2   -1    0    0  501    0  0.00000000000E+00  0.00000000000E+00 -0.24412544383E+04  0.24412544383E+04  0.25500000920E-02 0.  1.
    10030    2    1    2    0    0  0.00000000000E+00  0.00000000000E+00 -0.10142406609E+04  0.38682682157E+04  0.37329364943E+04 0.  0.
        1    1    3    3  502    0 -0.11233478499E+04  0.40739211921E+02 -0.20511496276E+04  0.23389708998E+04  0.50400001928E-02 0.  1.
       -1    1    3    3    0  502  0.11233478499E+04 -0.40739211921E+02  0.10369089667E+04  0.15292973159E+04  0.50400001928E-02 0. -1.
</event>
<event>
 5   0  0.1658770E-07  0.3626279E+04  0.7818609E-02  0.8084499E-01
        2   -1    0    0  501    0  0.00000000000E+00  0.00000000000E+00  0.20328847555E+04  0.20328847555E+04  0.25500000920E-02 0.  1.
       -2   -1    0    0    0  501  0.00000000000E+00  0.00000000000E+00 -0.16171474055E+04  0.16171474055E+04  0.25500000920E-02 0. -1.
    10030    2    1    2    0    0  0.00000000000E+00  0.00000000000E+00  0.41573735002E+03  0.36500321610E+04  0.36262787030E+04 0.  0.
        2    1    3    3  502    0 -0.17044103155E+04 -0.39150956853E+03 -0.27399468997E+03  0.17701320166E+04  0.25500000920E-02 0. -1.
       -2    1    3    3    0  502  0.17044103155E+04  0.39150956853E+03  0.68973204000E+03  0.18799001444E+04  0.25500000920E-02 0.  1.
</event>
<event>
 5   0  0.5177000E-08  0.3695498E+04  0.7818609E-02  0.8068960E-01
       -1   -1    0    0    0  501  0.00000000000E+00  0.00000000000E+00  0.18589497899E+04  0.18589497899E+04  0.50400001928E-02 0.  1.
        1   -1    0    0  501    0  0.00000000000E+00  0.00000000000E+00 -0.18366159015E+04  0.18366159015E+04  0.50400001928E-02 0. -1.
    10030    2    1    2    0    0  0.00000000000E+00  0.00000000000E+00  0.22333888450E+02  0.36955656914E+04  0.36954982042E+04 0.  0.
        2    1    3    3  502    0 -0.23384530376E+02 -0.49359178103E+03 -0.17693141267E+04  0.18370226350E+04  0.25500000920E-02 0. -1.
       -2    1    3    3    0  502  0.23384530376E+02  0.49359178103E+03  0.17916480151E+04  0.18585430564E+04  0.25500000920E-02 0.  1.
</event>
<event>
 5   0  0.5177000E-08  0.3696273E+04  0.7818609E-02  0.8068788E-01
       -1   -1    0    0    0  501  0.00000000000E+00  0.00000000000E+00  0.21395697799E+04  0.21395697799E+04  0.50400001928E-02 0.  1.
        1   -1    0    0  501    0  0.00000000000E+00  0.00000000000E+00 -0.15963999953E+04  0.15963999953E+04  0.50400001928E-02 0. -1.
    10030    2    1    2    0    0  0.00000000000E+00  0.00000000000E+00  0.54316978458E+03  0.37359697752E+04  0.36962733592E+04 0.  0.
        4    1    3    3  502    0 -0.13611743649E+04 -0.11015807396E+04  0.86897541767E+03  0.19548390386E+04  0.12699999809E+01 0.  1.
       -4    1    3    3    0  502  0.13611743649E+04  0.11015807396E+04 -0.32580563308E+03  0.17811307366E+04  0.12699999809E+01 0. -1.
</event>
<event>
 5   0  0.1686284E-07  0.3706796E+04  0.7818609E-02  0.8066457E-01
        2   -1    0    0  501    0  0.00000000000E+00  0.00000000000E+00  0.23636333958E+04  0.23636333958E+04  0.25500000920E-02 0.  1.
       -2   -1    0    0    0  501  0.00000000000E+00  0.00000000000E+00 -0.14533065165E+04  0.14533065165E+04  0.25500000920E-02 0. -1.
    10030    2    1    2    0    0  0.00000000000E+00  0.00000000000E+00  0.91032687930E+03  0.38169399123E+04  0.37067958221E+04 0.  0.
        5    1    3    3  502    0  0.16059742765E+04 -0.89366378082E+03  0.70159318509E+03  0.19672425924E+04  0.46999998093E+01 0.  1.
       -5    1    3    3    0  502 -0.16059742765E+04  0.89366378082E+03  0.20873369420E+03  0.18496973199E+04  0.46999998093E+01 0. -1.
</event>
<event>
 5   0  0.5177000E-08  0.3667594E+04  0.7818609E-02  0.8075182E-01
       -1   -1    0    0    0  501  0.00000000000E+00  0.00000000000E+00  0.27180735685E+04  0.27180735685E+04  0.50400001928E-02 0.  1.
        1   -1    0    0  501    0  0.00000000000E+00  0.00000000000E+00 -0.12372037073E+04  0.12372037074E+04  0.50400001928E-02 0. -1.
    10030    2    1    2    0    0  0.00000000000E+00  0.00000000000E+00  0.14808698611E+04  0.39552772758E+04  0.36675935957E+04 0.  0.
        2    1    3    3  502    0 -0.67886863275E+03  0.81360053128E+03 -0.87362611353E+03  0.13733284499E+04  0.25500000920E-02 0. -1.
       -2    1    3    3    0  502  0.67886863275E+03 -0.81360053128E+03  0.23544959747E+04  0.25819488259E+04  0.25500000920E-02 0.  1.
</event>
<event>
 5   0  0.5181371E-08  0.3751047E+04  0.7818609E-02  0.8056742E-01
       -1   -1    0    0    0  501  0.00000000000E+00  0.00000000000E+00  0.15537251334E+04  0.15537251335E+04  0.50400001928E-02 0.  1.
        1   -1    0    0  501    0  0.00000000000E+00  0.00000000000E+00 -0.22639708545E+04  0.22639708545E+04  0.50400001928E-02 0. -1.
    10030    2    1    2    0    0  0.00000000000E+00  0.00000000000E+00 -0.71024572105E+03  0.38176959879E+04  0.37510470101E+04 0.  0.
        5    1    3    3  502    0  0.12390617951E+03 -0.11919076180E+04 -0.18235226904E+04  0.21820296981E+04  0.46999998093E+01 0. -1.
       -5    1    3    3    0  502 -0.12390617951E+03  0.11919076180E+04  0.11132769694E+04  0.16356662898E+04  0.46999998093E+01 0.  1.
</event>
<event>
 5   0  0.5177000E-08  0.3709318E+04  0.7818609E-02  0.8065900E-01
       -1   -1    0    0    0  501  0.00000000000E+00  0.00000000000E+00  0.11271491938E+04  0.11271491939E+04  0.50400001928E-02 0. -1.
        1   -1    0    0  501    0  0.00000000000E+00  0.00000000000E+00 -0.30517347396E+04  0.30517347396E+04  0.50400001928E-02 0.  1.
    10030    2    1    2    0    0  0.00000000000E+00  0.00000000000E+00 -0.19245855458E+04  0.41788839335E+04  0.37093181862E+04 0.  0.
        4    1    3    3  502    0  0.28466479067E+03  0.40306930674E+03  0.10518361153E+04  0.11618346421E+04  0.12699999809E+01 0. -1.
       -4    1    3    3    0  502 -0.28466479067E+03 -0.40306930674E+03 -0.29764216611E+04  0.30170492914E+04  0.12699999809E+01 0.  1.
</event>
<event>
 5   0  0.5177000E-08  0.3687579E+04  0.7818609E-02  0.8070720E-01
        1   -1    0    0  501    0  0.00000000000E+00  0.00000000000E+00  0.24400313326E+04  0.24400313326E+04  0.50400001928E-02 0.  1.
       -1   -1    0    0    0  501  0.00000000000E+00  0.00000000000E+00 -0.13932445844E+04  0.13932445844E+04  0.50400001928E-02 0. -1.
    10030    2    1    2    0    0  0.00000000000E+00  0.00000000000E+00  0.10467867482E+04  0.38332759170E+04  0.36875793903E+04 0.  0.
        3    1    3    3  502    0  0.87988699295E+03  0.67657747567E+03  0.20538410847E+04  0.23345709268E+04  0.10100000352E+00 0.  1.
       -3    1    3    3    0  502 -0.87988699295E+03 -0.67657747567E+03 -0.10070543365E+04  0.14987049903E+04  0.10100000352E+00 0. -1.
</event>
<event>
 5   0  0.5181371E-08  0.3691266E+04  0.7818609E-02  0.8069900E-01
       -1   -1    0    0    0  501  0.00000000000E+00  0.00000000000E+00  0.16771090417E+04  0.16771090417E+04  0.50400001928E-02 0.  1.
        1   -1    0    0  501    0  0.00000000000E+00  0.00000000000E+00 -0.20310912544E+04  0.20310912544E+04  0.50400001928E-02 0. -1.
    10030    2    1    2    0    0  0.00000000000E+00  0.00000000000E+00 -0.35398221277E+03  0.37082002961E+04  0.36912661824E+04 0.  0.
        5    1    3    3  502    0 -0.43996155450E+03 -0.17519594648E+04  0.20344302930E+03  0.18177841709E+04  0.46999998093E+01 0.  1.
       -5    1    3    3    0  502  0.43996155450E+03  0.17519594648E+04 -0.55742524207E+03  0.18904161252E+04  0.46999998093E+01 0. -1.
</event>
<event>
 5   0  0.5177000E-08  0.3704038E+04  0.7818609E-02  0.8067068E-01
       -1   -1    0    0    0  501  0.00000000000E+00  0.00000000000E+00  0.20578668062E+04  0.20578668062E+04  0.50400001928E-02 0. -1.
        1   -1    0    0  501    0  0.00000000000E+00  0.00000000000E+00 -0.16667620657E+04  0.16667620657E+04  0.50400001928E-02 0.  1.
    10030    2    1    2    0    0  0.00000000000E+00  0.00000000000E+00  0.39110474054E+03  0.37246288719E+04  0.37040379744E+04 0.  0.
        1    1    3    3  502    0 -0.63075597159E+03  0.15869888506E+04  0.91618653656E+03  0.19379846432E+04  0.50400001928E-02 0. -1.
       -1    1    3    3    0  502  0.63075597159E+03 -0.15869888506E+04 -0.52508179602E+03  0.17866442287E+04  0.50400001928E-02 0.  1.
</event>
<event>
 5   0  0.1558258E-07  0.3701526E+04  0.7818609E-02  0.8067624E-01
       -2   -1    0    0    0  501  0.00000000000E+00  0.00000000000E+00  0.19166291086E+04  0.19166291086E+04  0.25500000920E-02 0. -1.
        2   -1    0    0  501    0  0.00000000000E+00  0.00000000000E+00 -0.17871601110E+04  0.17871601110E+04  0.25500000920E-02 0.  1.
    10030    2    1    2    0    0  0.00000000000E+00  0.00000000000E+00  0.12946899757E+03  0.37037892196E+04  0.37015256803E+04 0.  0.
        1    1    3    3  502    0  0.15441040264E+04 -0.32630695171E+03  0.10320674304E+04  0.18857085278E+04  0.50400001928E-02 0. -1.
       -1    1    3    3    0  502 -0.15441040264E+04  0.32630695171E+03 -0.90259843282E+03  0.18180806918E+04  0.50400001928E-02 0.  1.
</event>
<event>
 5   0  0.5177000E-08  0.3687383E+04  0.7818609E-02  0.8070764E-01
        1   -1    0    0  501    0  0.00000000000E+00  0.00000000000E+00  0.18208907602E+04  0.18208907602E+04  0.50400001928E-02 0.  1.
       -1   -1    0    0    0  501  0.00000000000E+00  0.00000000000E+00 -0.18667779145E+04  0.18667779145E+04  0.50400001928E-02 0. -1.
    10030    2    1    2    0    0  0.00000000000E+00  0.00000000000E+00 -0.45887154310E+02  0.36876686747E+04  0.36873831674E+04 0.  0.
        1    1    3    3  502    0  0.72844739523E+03  0.11226581043E+03 -0.17130328400E+04  0.18648648023E+04  0.50400001928E-02 0. -1.
       -1    1    3    3    0  502 -0.72844739523E+03 -0.11226581043E+03  0.16671456857E+04  0.18228038724E+04  0.50400001928E-02 0.  1.
</event>
<event>
 5   0  0.1666189E-07  0.3707967E+04  0.7818609E-02  0.8066198E-01
       -2   -1    0    0    0  501  0.00000000000E+00  0.00000000000E+00  0.10375554027E+04  0.10375554027E+04  0.25500000920E-02 0.  1.
        2   -1    0    0  501    0  0.00000000000E+00  0.00000000000E+00 -0.33128404789E+04  0.33128404789E+04  0.25500000920E-02 0. -1.
    10030    2    1    2    0    0  0.00000000000E+00  0.00000000000E+00 -0.22752850763E+04  0.43503958816E+04  0.37079673877E+04 0.  0.
        4    1    3    3  502    0  0.61804144507E+03 -0.50700532214E+03 -0.31002531157E+04  0.32016559182E+04  0.12699999809E+01 0. -1.
       -4    1    3    3    0  502 -0.61804144507E+03  0.50700532214E+03  0.82496803940E+03  0.11487399634E+04  0.12699999809E+01 0.  1.
</event>
<event>
 5   0  0.1686284E-07  0.3703647E+04  0.7818609E-02  0.8067154E-01
       -2   -1    0    0    0  501  0.00000000000E+00  0.00000000000E+00  0.19123427984E+04  0.19123427984E+04  0.25500000920E-02 0.  1.
        2   -1    0    0  501    0  0.00000000000E+00  0.00000000000E+00 -0.17932195251E+04  0.17932195251E+04  0.25500000920E-02 0. -1.
    10030    2    1    2    0    0  0.00000000000E+00  0.00000000000E+00  0.11912327326E+03  0.37055623235E+04  0.37036470916E+04 0.  0.
        5    1    3    3  502    0  0.79866149045E+03 -0.70070799952E+03 -0.14579218844E+04  0.18039983891E+04  0.46999998093E+01 0. -1.
       -5    1    3    3    0  502 -0.79866149045E+03  0.70070799952E+03  0.15770451577E+04  0.19015639343E+04  0.46999998093E+01 0.  1.
</event>
<event>
 5   0  0.5177000E-08  0.3692863E+04  0.7818609E-02  0.8069545E-01
       -1   -1    0    0    0  501  0.00000000000E+00  0.00000000000E+00  0.12206386602E+04  0.12206386603E+04  0.50400001928E-02 0. -1.
        1   -1    0    0  501    0  0.00000000000E+00  0.00000000000E+00 -0.27930530160E+04  0.27930530160E+04  0.50400001928E-02 0.  1.
    10030    2    1    2    0    0  0.00000000000E+00  0.00000000000E+00 -0.15724143558E+04  0.40136916763E+04  0.36928625707E+04 0.  0.
        2    1    3    3  502    0  0.62280206224E+03  0.16894337632E+04 -0.34172896544E+03  0.18327158903E+04  0.25500000920E-02 0.  1.
       -2    1    3    3    0  502 -0.62280206224E+03 -0.16894337632E+04 -0.12306853904E+04  0.21809757860E+04  0.25500000920E-02 0. -1.
</event>
<event>
 5   0  0.5177000E-08  0.3704550E+04  0.7818609E-02  0.8066954E-01
        1   -1    0    0  501    0  0.00000000000E+00  0.00000000000E+00  0.19603325329E+04  0.19603325329E+04  0.50400001928E-02 0.  1.
       -1   -1    0    0    0  501  0.00000000000E+00  0.00000000000E+00 -0.17501740035E+04  0.17501740035E+04  0.50400001928E-02 0. -1.
    10030    2    1    2    0    0  0.00000000000E+00  0.00000000000E+00  0.21015852936E+03  0.37105065364E+04  0.37045501953E+04 0.  0.
        1    1    3    3  502    0  0.53579243054E+03  0.18813365701E+03 -0.16608366727E+04  0.17552339601E+04  0.50400001928E-02 0. -1.
       -1    1    3    3    0  502 -0.53579243054E+03 -0.18813365701E+03  0.18709952020E+04  0.19552725763E+04  0.50400001928E-02 0.  1.
</event>
<event>
 5   0  0.1658770E-07  0.3710338E+04  0.7818609E-02  0.8065675E-01
       -2   -1    0    0    0  501  0.00000000000E+00  0.00000000000E+00  0.15094153453E+04  0.15094153453E+04  0.25500000920E-02 0.  1.
        2   -1    0    0  501    0  0.00000000000E+00  0.00000000000E+00 -0.22801225847E+04  0.22801225847E+04  0.25500000920E-02 0. -1.
    10030    2    1    2    0    0  0.00000000000E+00  0.00000000000E+00 -0.77070723942E+03  0.37895379301E+04  0.37103380000E+04 0.  0.
        2    1    3    3  502    0 -0.18053799044E+04  0.41941721458E+03 -0.46670699458E+03  0.19113144215E+04  0.25500000920E-02 0. -1.
       -2    1    3    3    0  502  0.18053799044E+04 -0.41941721458E+03 -0.30400024484E+03  0.18782235085E+04  0.25500000920E-02 0.  1.
</event>
<event>
 5   0  0.5177000E-08  0.3704451E+04  0.7818609E-02  0.8066976E-01
       -1   -1    0    0    0  501  0.00000000000E+00  0.00000000000E+00  0.21321297525E+04  0.21321297525E+04  0.50400001928E-02 0. -1.
        1   -1    0    0  501    0  0.00000000000E+00  0.00000000000E+00 -0.16090670641E+04  0.16090670641E+04  0.50400001928E-02 0.  1.
    10030    2    1    2    0    0  0.00000000000E+00  0.00000000000E+00  0.52306268842E+03  0.37411968165E+04  0.37044512474E+04 0.  0.
        3    1    3    3  502    0 -0.38690191446E+03 -0.27231788740E+03  0.20700736778E+04  0.21234535938E+04  0.10100000352E+00 0. -1.
       -3    1    3    3    0  502  0.38690191446E+03  0.27231788740E+03 -0.15470109894E+04  0.16177432227E+04  0.10100000352E+00 0.  1.
</event>
<event>
 5   0  0.5177000E-08  0.3700155E+04  0.7818609E-02  0.8067928E-01
        1   -1    0    0  501    0  0.00000000000E+00  0.00000000000E+00  0.20618711050E+04  0.20618711050E+04  0.50400001928E-02 0. -1.
       -1   -1    0    0    0  501  0.00000000000E+00  0.00000000000E+00 -0.16600389998E+04  0.16600389998E+04  0.50400001928E-02 0.  1.
    10030    2    1    2    0    0  0.00000000000E+00  0.00000000000E+00  0.40183210517E+03  0.37219101048E+04  0.37001548329E+04 0.  0.
        3    1    3    3  502    0 -0.77399085517E+03  0.52498838269E+03 -0.14047499821E+04  0.16876010098E+04  0.10100000352E+00 0.  1.
       -3    1    3    3    0  502  0.77399085517E+03 -0.52498838269E+03  0.18065820873E+04  0.20343090950E+04  0.10100000352E+00 0. -1.
</event>
<event>
 5   0  0.1658770E-07  0.3701498E+04  0.7818609E-02  0.8067630E-01
        2   -1    0    0  501    0  0.00000000000E+00  0.00000000000E+00  0.34164164570E+04  0.34164164570E+04  0.25500000920E-02 0.  1.
       -2   -1    0    0    0  501  0.00000000000E+00  0.00000000000E+00 -0.10025922100E+04  0.10025922100E+04  0.25500000920E-02 0. -1.
    10030    2    1    2    0    0  0.00000000000E+00  0.00000000000E+00  0.24138242470E+04  0.44190086671E+04  0.37014983594E+04 0.  0.
        2    1    3    3  502    0  0.83544375279E+03  0.10117818712E+04 -0.35131794448E+03  0.13583420472E+04  0.25500000920E-02 0. -1.
       -2    1    3    3    0  502 -0.83544375279E+03 -0.10117818712E+04  0.27651421915E+04  0.30606666199E+04  0.25500000920E-02 0.  1.
</event>
<event>
 5   0  0.5181371E-08  0.3702503E+04  0.7818609E-02  0.8067407E-01
       -1   -1    0    0    0  501  0.00000000000E+00  0.00000000000E+00  0.14157249987E+04  0.14157249987E+04  0.50400001928E-02 0.  1.
        1   -1    0    0  501    0  0.00000000000E+00  0.00000000000E+00 -0.24207608773E+04  0.24207608773E+04  0.50400001928E-02 0. -1.
    10030    2    1    2    0    0  0.00000000000E+00  0.00000000000E+00 -0.10050358786E+04  0.38364858761E+04  0.37025027698E+04 0.  0.
        5    1    3    3  502    0 -0.14947343469E+03 -0.16378875366E+04  0.37799226036E+03  0.16875775920E+04  0.46999998093E+01 0.  1.
       -5    1    3    3    0  502  0.14947343469E+03  0.16378875366E+04 -0.13830281390E+04  0.21489082841E+04  0.46999998093E+01 0. -1.
</event>
<event>
 5   0  0.1587026E-07  0.3700094E+04  0.7818609E-02  0.8067941E-01
        2   -1    0    0  501    0  0.00000000000E+00  0.00000000000E+00  0.22512349760E+04  0.22512349760E+04  0.25500000920E-02 0.  1.
       -2   -1    0    0    0  501  0.00000000000E+00  0.00000000000E+00 -0.15203536979E+04  0.15203536979E+04  0.25500000920E-02 0. -1.
    10030    2    1    2    0    0  0.00000000000E+00  0.00000000000E+00  0.73088127814E+03  0.37715886739E+04  0.37000937397E+04 0.  0.
        3    1    3    3  502    0 -0.83715792841E+03  0.96377080384E+03  0.17303381045E+04  0.21502924279E+04  0.10100000352E+00 0.  1.
       -3    1    3    3    0  502  0.83715792841E+03 -0.96377080384E+03 -0.99945682633E+03  0.16212962460E+04  0.10100000352E+00 0. -1.
</event>
<event>
 5   0  0.1587026E-07  0.3707190E+04  0.7818609E-02  0.8066370E-01
       -2   -1    0    0    0  501  0.00000000000E+00  0.00000000000E+00  0.13162362843E+04  0.13162362843E+04  0.25500000920E-02 0. -1.
        2   -1    0    0  501    0  0.00000000000E+00  0.00000000000E+00 -0.26103319943E+04  0.26103319943E+04  0.25500000920E-02 0.  1.
    10030    2    1    2    0    0  0.00000000000E+00  0.00000000000E+00 -0.12940957100E+04  0.39265682785E+04  0.37071896012E+04 0.  0.
        3    1    3    3  502    0 -0.81917021170E+03  0.31039656038E+03  0.10831512575E+04  0.13930551020E+04  0.10100000352E+00 0. -1.
       -3    1    3    3    0  502  0.81917021170E+03 -0.31039656038E+03 -0.23772469675E+04  0.25335131765E+04  0.10100000352E+00 0.  1.
</event>
<event>
 5   0  0.1658770E-07  0.3697529E+04  0.7818609E-02  0.8068510E-01
       -2   -1    0    0    0  501  0.00000000000E+00  0.00000000000E+00  0.27415402271E+04  0.27415402271E+04  0.25500000920E-02 0.  1.
        2   -1    0    0  501    0  0.00000000000E+00  0.00000000000E+00 -0.12467188822E+04  0.12467188822E+04  0.25500000920E-02 0. -1.
    10030    2    1    2    0    0  0.00000000000E+00  0.00000000000E+00  0.14948213449E+04  0.39882591093E+04  0.36975288870E+04 0.  0.
        2    1    3    3  502    0  0.13036810605E+04  0.44222410498E+03  0.20784499510E+04  0.24930103620E+04  0.25500000920E-02 0.  1.
       -2    1    3    3    0  502 -0.13036810605E+04 -0.44222410498E+03 -0.58362860604E+03  0.14952487473E+04  0.25500000920E-02 0. -1.
</event>
<event>
 5   0  0.5177000E-08  0.3712536E+04  0.7818609E-02  0.8065189E-01
        1   -1    0    0  501    0  0.00000000000E+00  0.00000000000E+00  0.13743866692E+04  0.13743866692E+04  0.50400001928E-02 0.  1.
       -1   -1    0    0    0  501  0.00000000000E+00  0.00000000000E+00 -0.25071046153E+04  0.25071046153E+04  0.50400001928E-02 0. -1.
    10030    2    1    2    0    0  0.00000000000E+00  0.00000000000E+00 -0.11327179461E+04  0.38814912844E+04  0.37125361474E+04 0.  0.
        4    1    3    3  502    0 -0.14493823953E+04  0.11334417907E+04 -0.82315856402E+03  0.20156862988E+04  0.12699999809E+01 0.  1.
       -4    1    3    3    0  502  0.14493823953E+04 -0.11334417907E+04 -0.30955938208E+03  0.18658049857E+04  0.12699999809E+01 0. -1.
</event>
<event>
 5   0  0.1558258E-07  0.3705784E+04  0.7818609E-02  0.8066681E-01
       -2   -1    0    0    0  501  0.00000000000E+00  0.00000000000E+00  0.16450135983E+04  0.16450135983E+04  0.25500000920E-02 0.  1.
        2   -1    0    0  501    0  0.00000000000E+00  0.00000000000E+00 -0.20870395344E+04  0.20870395344E+04  0.25500000920E-02 0. -1.
    10030    2    1    2    0    0  0.00000000000E+00  0.00000000000E+00 -0.44202593608E+03  0.37320531326E+04  0.37057838114E+04 0.  0.
        1    1    3    3  502    0 -0.18235590752E+04  0.13060660310E+03  0.82424436725E+02  0.18300873130E+04  0.50400001928E-02 0.  1.
       -1    1    3    3    0  502  0.18235590752E+04 -0.13060660310E+03 -0.52445037281E+03  0.19019658196E+04  0.50400001928E-02 0. -1.
</event>
<event>
 5   0  0.1658770E-07  0.3678824E+04  0.7818609E-02  0.8072671E-01
        2   -1    0    0  501    0  0.00000000000E+00  0.00000000000E+00  0.23676850081E+04  0.23676850081E+04  0.25500000920E-02 0. -1.
       -2   -1    0    0    0  501  0.00000000000E+00  0.00000000000E+00 -0.14290064286E+04  0.14290064286E+04  0.25500000920E-02 0.  1.
    10030    2    1    2    0    0  0.00000000000E+00  0.00000000000E+00  0.93867857950E+03  0.37966914366E+04  0.36788243216E+04 0.  0.
        2    1    3    3  502    0 -0.11154456729E+04 -0.12877628232E+04  0.11850159441E+04  0.20752867093E+04  0.25500000920E-02 0. -1.
       -2    1    3    3    0  502  0.11154456729E+04  0.12877628232E+04 -0.24633736458E+03  0.17214047273E+04  0.25500000920E-02 0.  1.
</event>
<event>
 5   0  0.1558258E-07  0.3708351E+04  0.7818609E-02  0.8066114E-01
       -2   -1    0    0    0  501  0.00000000000E+00  0.00000000000E+00  0.21410671074E+04  0.21410671074E+04  0.25500000920E-02 0. -1.
        2   -1    0    0  501    0  0.00000000000E+00  0.00000000000E+00 -0.16057259319E+04  0.16057259319E+04  0.25500000920E-02 0.  1.
    10030    2    1    2    0    0  0.00000000000E+00  0.00000000000E+00  0.53534117544E+03  0.37467930393E+04  0.37083511033E+04 0.  0.
        1    1    3    3  502    0  0.58788031302E+03  0.11155809513E+04 -0.11057747398E+04  0.16771588764E+04  0.50400001928E-02 0.  1.
       -1    1    3    3    0  502 -0.58788031302E+03 -0.11155809513E+04  0.16411159152E+04  0.20696341630E+04  0.50400001928E-02 0. -1.
</event>
<event>
 5   0  0.1587026E-07  0.3703545E+04  0.7818609E-02  0.8067177E-01
        2   -1    0    0  501    0  0.00000000000E+00  0.00000000000E+00  0.19481261843E+04  0.19481261843E+04  0.25500000920E-02 0.  1.
       -2   -1    0    0    0  501  0.00000000000E+00  0.00000000000E+00 -0.17601841090E+04  0.17601841090E+04  0.25500000920E-02 0. -1.
    10030    2    1    2    0    0  0.00000000000E+00  0.00000000000E+00  0.18794207534E+03  0.37083102932E+04  0.37035446544E+04 0.  0.
        3    1    3    3  502    0 -0.67977410196E+03 -0.97026897730E+03  0.15190191886E+04  0.19263784736E+04  0.10100000352E+00 0.  1.
       -3    1    3    3    0  502  0.67977410196E+03  0.97026897730E+03 -0.13310771133E+04  0.17819318196E+04  0.10100000352E+00 0. -1.
</event>
<event>
 5   0  0.5177000E-08  0.3703886E+04  0.7818609E-02  0.8067101E-01
        1   -1    0    0  501    0  0.00000000000E+00  0.00000000000E+00  0.22476637119E+04  0.22476637119E+04  0.50400001928E-02 0.  1.
       -1   -1    0    0    0  501  0.00000000000E+00  0.00000000000E+00 -0.15258920426E+04  0.15258920426E+04  0.50400001928E-02 0. -1.
    10030    2    1    2    0    0  0.00000000000E+00  0.00000000000E+00  0.72177166933E+03  0.37735557545E+04  0.37038856205E+04 0.  0.
        2    1    3    3  502    0 -0.73373270265E+03 -0.25284698932E+03 -0.13522294603E+04  0.15591086532E+04  0.25500000920E-02 0. -1.
       -2    1    3    3    0  502  0.73373270265E+03  0.25284698932E+03  0.20740011297E+04  0.22144471014E+04  0.25500000920E-02 0.  1.
</event>
<event>
 5   0  0.1558258E-07  0.3685872E+04  0.7818609E-02  0.8071100E-01
       -2   -1    0    0    0  501  0.00000000000E+00  0.00000000000E+00  0.21823137991E+04  0.21823137991E+04  0.25500000920E-02 0.  1.
        2   -1    0    0  501    0  0.00000000000E+00  0.00000000000E+00 -0.15563356858E+04  0.15563356858E+04  0.25500000920E-02 0. -1.
    10030    2    1    2    0    0  0.00000000000E+00  0.00000000000E+00  0.62597811332E+03  0.37386494849E+04  0.36858718606E+04 0.  0.
        1    1    3    3  502    0  0.10582255297E+04 -0.13469617195E+04  0.10026257344E+04  0.19847935683E+04  0.50400001928E-02 0.  1.
       -1    1    3    3    0  502 -0.10582255297E+04  0.13469617195E+04 -0.37664762111E+03  0.17538559165E+04  0.50400001928E-02 0. -1.
</event>
<event>
 5   0  0.1666189E-07  0.3727919E+04  0.7818609E-02  0.8061803E-01
        2   -1    0    0  501    0  0.00000000000E+00  0.00000000000E+00  0.24935161929E+04  0.24935161929E+04  0.25500000920E-02 0.  1.
       -2   -1    0    0    0  501  0.00000000000E+00  0.00000000000E+00 -0.13933518797E+04  0.13933518797E+04  0.25500000920E-02 0. -1.
    10030    2    1    2    0    0  0.00000000000E+00  0.00000000000E+00  0.11001643132E+04  0.38868680727E+04  0.37279192451E+04 0.  0.
        4    1    3    3  502    0  0.13127403795E+04  0.12737764333E+04  0.92390824616E+03  0.20492441939E+04  0.12699999809E+01 0.  1.
       -4    1    3    3    0  502 -0.13127403795E+04 -0.12737764333E+04  0.17625606703E+03  0.18376238788E+04  0.12699999809E+01 0. -1.
</event>
<event>
 5   0  0.5177000E-08  0.3686333E+04  0.7818609E-02  0.8070997E-01
        1   -1    0    0  501    0  0.00000000000E+00  0.00000000000E+00  0.18994996833E+04  0.18994996833E+04  0.50400001928E-02 0. -1.
       -1   -1    0    0    0  501  0.00000000000E+00  0.00000000000E+00 -0.17885037143E+04  0.17885037143E+04  0.50400001928E-02 0.  1.
    10030    2    1    2    0    0  0.00000000000E+00  0.00000000000E+00  0.11099596902E+03  0.36880033976E+04  0.36863327245E+04 0.  0.
        1    1    3    3  502    0 -0.27829332757E+03  0.55723009022E+03  0.17910203813E+04  0.18962348367E+04  0.50400001928E-02 0. -1.
       -1    1    3    3    0  502  0.27829332757E+03 -0.55723009022E+03 -0.16800244123E+04  0.17917685609E+04  0.50400001928E-02 0.  1.
</event>
<event>
 5   0  0.5177000E-08  0.3613955E+04  0.7818609E-02  0.8087303E-01
       -1   -1    0    0    0  501  0.00000000000E+00  0.00000000000E+00  0.14815049714E+04  0.14815049714E+04  0.50400001928E-02 0.  1.
        1   -1    0    0  501    0  0.00000000000E+00  0.00000000000E+00 -0.22039528701E+04  0.22039528701E+04  0.50400001928E-02 0. -1.
    10030    2    1    2    0    0  0.00000000000E+00  0.00000000000E+00 -0.72244789870E+03  0.36854578415E+04  0.36139546947E+04 0.  0.
        2    1    3    3  502    0 -0.61192557767E+03 -0.68424599428E+03  0.12260159659E+04  0.15315876214E+04  0.25500000920E-02 0.  1.
       -2    1    3    3    0  502  0.61192557767E+03  0.68424599428E+03 -0.19484638646E+04  0.21538702201E+04  0.25500000920E-02 0. -1.
</event>
<event>
 5   0  0.5181371E-08  0.3648701E+04  0.7818609E-02  0.8079426E-01
        1   -1    0    0  501    0  0.00000000000E+00  0.00000000000E+00  0.11483512979E+04  0.11483512979E+04  0.50400001928E-02 0.  1.
       -1   -1    0    0    0  501  0.00000000000E+00  0.00000000000E+00 -0.28982891817E+04  0.28982891817E+04  0.50400001928E-02 0. -1.
    10030    2    1    2    0    0  0.00000000000E+00  0.00000000000E+00 -0.17499378839E+04  0.40466404796E+04  0.36487006692E+04 0.  0.
        5    1    3    3  502    0  0.14080133738E+04  0.66085103033E+03 -0.19323702268E+04  0.24805851182E+04  0.46999998093E+01 0. -1.
       -5    1    3    3    0  502 -0.14080133738E+04 -0.66085103033E+03  0.18243234293E+03  0.15660553614E+04  0.46999998093E+01 0.  1.
</event>
<event>
 5   0  0.5177000E-08  0.3678638E+04  0.7818609E-02  0.8072712E-01
        1   -1    0    0  501    0  0.00000000000E+00  0.00000000000E+00  0.11022809997E+04  0.11022809997E+04  0.50400001928E-02 0. -1.
       -1   -1    0    0    0  501  0.00000000000E+00  0.00000000000E+00 -0.30691757646E+04  0.30691757646E+04  0.50400001928E-02 0.  1.
    10030    2    1    2    0    0  0.00000000000E+00  0.00000000000E+00 -0.19668947650E+04  0.41714567643E+04  0.36786378621E+04 0.  0.
        3    1    3    3  502    0  0.83979380120E+03 -0.19604888524E+03  0.85882463041E+03  0.12170737652E+04  0.10100000352E+00 0. -1.
       -3    1    3    3    0  502 -0.83979380120E+03  0.19604888524E+03 -0.28257193954E+04  0.29543829991E+04  0.10100000352E+00 0.  1.
</event>
<event>
 5   0  0.1666189E-07  0.3695591E+04  0.7818609E-02  0.8068940E-01
       -2   -1    0    0    0  501  0.00000000000E+00  0.00000000000E+00  0.29933656060E+04  0.29933656060E+04  0.25500000920E-02 0. -1.
        2   -1    0    0  501    0  0.00000000000E+00  0.00000000000E+00 -0.11406386472E+04  0.11406386472E+04  0.25500000920E-02 0.  1.
    10030    2    1    2    0    0  0.00000000000E+00  0.00000000000E+00  0.18527269588E+04  0.41340042532E+04  0.36955911546E+04 0.  0.
        4    1    3    3  502    0  0.15429849332E+04 -0.51083458364E+03  0.19096095463E+04  0.25076612028E+04  0.12699999809E+01 0. -1.
       -4    1    3    3    0  502 -0.15429849332E+04  0.51083458364E+03 -0.56882587479E+02  0.16263430504E+04  0.12699999809E+01 0.  1.
</event>
<event>
 5   0  0.5177000E-08  0.3716384E+04  0.7818609E-02  0.8064341E-01
       -1   -1    0    0    0  501  0.00000000000E+00  0.00000000000E+00  0.13559435693E+04  0.13559435693E+04  0.50400001928E-02 0.  1.
        1   -1    0    0  501    0  0.00000000000E+00  0.00000000000E+00 -0.25464756456E+04  0.25464756456E+04  0.50400001928E-02 0. -1.
    10030    2    1    2    0    0  0.00000000000E+00  0.00000000000E+00 -0.11905320763E+04  0.39024192149E+04  0.37163838747E+04 0.  0.
        1    1    3    3  502    0 -0.18462070739E+04  0.91508600587E+02 -0.39596817431E+03  0.18904087333E+04  0.50400001928E-02 0. -1.
       -1    1    3    3    0  502  0.18462070739E+04 -0.91508600587E+02 -0.79456390195E+03  0.20120104816E+04  0.50400001928E-02 0.  1.
</event>
<event>
 5   0  0.1686284E-07  0.3696280E+04  0.7818609E-02  0.8068787E-01
       -2   -1    0    0    0  501  0.00000000000E+00  0.00000000000E+00  0.15653503535E+04  0.15653503535E+04  0.25500000920E-02 0.  1.
        2   -1    0    0  501    0  0.00000000000E+00  0.00000000000E+00 -0.21820173791E+04  0.21820173791E+04  0.25500000920E-02 0. -1.
    10030    2    1    2    0    0  0.00000000000E+00  0.00000000000E+00 -0.61666702563E+03  0.37473677326E+04  0.36962801169E+04 0.  0.
        5    1    3    3  502    0  0.42460052342E+03 -0.14941307402E+04  0.70695040109E+03  0.17066086935E+04  0.46999998093E+01 0.  1.
       -5    1    3    3    0  502 -0.42460052342E+03  0.14941307402E+04 -0.13236174267E+04  0.20407590391E+04  0.46999998093E+01 0. -1.
</event>
<event>
 5   0  0.1686284E-07  0.3720263E+04  0.7818609E-02  0.8063486E-01
        2   -1    0    0  501    0  0.00000000000E+00  0.00000000000E+00  0.27711281900E+04  0.27711281900E+04  0.25500000920E-02 0. -1.
       -2   -1    0    0    0  501  0.00000000000E+00  0.00000000000E+00 -0.12486209708E+04  0.12486209708E+04  0.25500000920E-02 0.  1.
    10030    2    1    2    0    0  0.00000000000E+00  0.00000000000E+00  0.15225072192E+04  0.40197491608E+04  0.37202627708E+04 0.  0.
        5    1    3    3  502    0 -0.42016704059E+03  0.23851413572E+03 -0.11796341231E+04  0.12747502066E+04  0.46999998093E+01 0.  1.
       -5    1    3    3    0  502  0.42016704059E+03 -0.23851413572E+03  0.27021413423E+04  0.27449989542E+04  0.46999998093E+01 0. -1.
</event>
<event>
 5   0  0.1686284E-07  0.3710825E+04  0.7818609E-02  0.8065567E-01
        2   -1    0    0  501    0  0.00000000000E+00  0.00000000000E+00  0.18761715977E+04  0.18761715977E+04  0.25500000920E-02 0.  1.
       -2   -1    0    0    0  501  0.00000000000E+00  0.00000000000E+00 -0.18348833513E+04  0.18348833513E+04  0.25500000920E-02 0. -1.
    10030    2    1    2    0    0  0.00000000000E+00  0.00000000000E+00  0.41288246401E+02  0.37110549489E+04  0.37108252606E+04 0.  0.
        5    1    3    3  502    0  0.14969675247E+04 -0.53734788015E+02 -0.10742910994E+04  0.18433455058E+04  0.46999998093E+01 0. -1.
       -5    1    3    3    0  502 -0.14969675247E+04  0.53734788015E+02  0.11155793458E+04  0.18677094432E+04  0.46999998093E+01 0.  1.
</event>
<event>
 5   0  0.1658770E-07  0.3699950E+04  0.7818609E-02  0.8067973E-01
       -2   -1    0    0    0  501  0.00000000000E+00  0.00000000000E+00  0.14761334556E+04  0.14761334556E+04  0.25500000920E-02 0.  1.
        2   -1    0    0  501    0  0.00000000000E+00  0.00000000000E+00 -0.23184944844E+04  0.23184944844E+04  0.25500000920E-02 0. -1.
    10030    2    1    2    0    0  0.00000000000E+00  0.00000000000E+00 -0.84236102873E+03  0.37946279400E+04  0.36999498781E+04 0.  0.
        2    1    3    3  502    0 -0.15909626123E+04 -0.32497297977E+03 -0.13302237631E+04  0.20991104618E+04  0.25500000920E-02 0. -1.
       -2    1    3    3    0  502  0.15909626123E+04  0.32497297977E+03  0.48786273433E+03  0.16955174782E+04  0.25500000920E-02 0.  1.
</event>
<event>
 5   0  0.5177000E-08  0.3685813E+04  0.7818609E-02  0.8071113E-01
       -1   -1    0    0    0  501  0.00000000000E+00  0.00000000000E+00  0.24933925472E+04  0.24933925472E+04  0.50400001928E-02 0.  1.
        1   -1    0    0  501    0  0.00000000000E+00  0.00000000000E+00 -0.13621217963E+04  0.13621217963E+04  0.50400001928E-02 0. -1.
    10030    2    1    2    0    0  0.00000000000E+00  0.00000000000E+00  0.11312707509E+04  0.38555143435E+04  0.36858129824E+04 0.  0.
        4    1    3    3  502    0  0.16289033274E+04  0.67430472830E+03  0.11272826689E+04  0.20925536422E+04  0.12699999809E+01 0.  1.
       -4    1    3    3    0  502 -0.16289033274E+04 -0.67430472830E+03  0.39880819894E+01  0.17629607013E+04  0.12699999809E+01 0. -1.
</event>
<event>
 5   0  0.1558258E-07  0.3694038E+04  0.7818609E-02  0.8069284E-01
       -2   -1    0    0    0  501  0.00000000000E+00  0.00000000000E+00  0.18026644491E+04  0.18026644491E+04  0.25500000920E-02 0.  1.
        2   -1    0    0  501    0  0.00000000000E+00  0.00000000000E+00 -0.18924651743E+04  0.18924651743E+04  0.25500000920E-02 0. -1.
    10030    2    1    2    0    0  0.00000000000E+00  0.00000000000E+00 -0.89800725263E+02  0.36951296234E+04  0.36940382731E+04 0.  0.
        1    1    3    3  502    0 -0.19468160604E+03 -0.48737736736E+03  0.17265101870E+04  0.18045151847E+04  0.50400001928E-02 0.  1.
       -1    1    3    3    0  502  0.19468160604E+03  0.48737736736E+03 -0.18163109122E+04  0.18906144387E+04  0.50400001928E-02 0. -1.
</event>
<event>
 5   0  0.1686284E-07  0.3693927E+04  0.7818609E-02  0.8069309E-01
        2   -1    0    0  501    0  0.00000000000E+00  0.00000000000E+00  0.23625303847E+04  0.23625303847E+04  0.25500000920E-02 0. -1.
       -2   -1    0    0    0  501  0.00000000000E+00  0.00000000000E+00 -0.14439066792E+04  0.14439066792E+04  0.25500000920E-02 0.  1.
    10030    2    1    2    0    0  0.00000000000E+00  0.00000000000E+00  0.91862370558E+03  0.38064370639E+04  0.36939265841E+04 0.  0.
        5    1    3    3  502    0 -0.18379269927E+04 -0.12230516476E+03  0.59877488076E+03  0.19368757398E+04  0.46999998093E+01 0. -1.
       -5    1    3    3    0  502  0.18379269927E+04  0.12230516476E+03  0.31984882482E+03  0.18695613241E+04  0.46999998093E+01 0.  1.
</event>
<event>
 5   0  0.1666189E-07  0.3698809E+04  0.7818609E-02  0.8068226E-01
        2   -1    0    0  501    0  0.00000000000E+00  0.00000000000E+00  0.23607061023E+04  0.23607061023E+04  0.25500000920E-02 0. -1.
       -2   -1    0    0    0  501  0.00000000000E+00  0.00000000000E+00 -0.14488447393E+04  0.14488447393E+04  0.25500000920E-02 0.  1.
    10030    2    1    2    0    0  0.00000000000E+00  0.00000000000E+00  0.91186136299E+03  0.38095508417E+04  0.36988087907E+04 0.  0.
        4    1    3    3  502    0  0.17385742029E+04  0.30831668897E+03 -0.11062574741E+03  0.17691633923E+04  0.12699999809E+01 0. -1.
       -4    1    3    3    0  502 -0.17385742029E+04 -0.30831668897E+03  0.10224871104E+04  0.20403874494E+04  0.12699999809E+01 0.  1.
</event>
<event>
 5   0  0.1587026E-07  0.3702147E+04  0.7818609E-02  0.8067486E-01
       -2   -1    0    0    0  501  0.00000000000E+00  0.00000000000E+00  0.27684205865E+04  0.27684205865E+04  0.25500000920E-02 0.  1.
        2   -1    0    0  501    0  0.00000000000E+00  0.00000000000E+00 -0.12376999295E+04  0.12376999295E+04  0.25500000920E-02 0. -1.
    10030    2    1    2    0    0  0.00000000000E+00  0.00000000000E+00  0.15307206570E+04  0.40061205160E+04  0.37021474658E+04 0.  0.
        3    1    3    3  502    0  0.21487329712E+03  0.13480678861E+04 -0.58749720065E+03  0.14861394720E+04  0.10100000352E+00 0.  1.
       -3    1    3    3    0  502 -0.21487329712E+03 -0.13480678861E+04  0.21182178577E+04  0.25199810440E+04  0.10100000352E+00 0. -1.
</event>
<event>
 5   0  0.1686284E-07  0.3749944E+04  0.7818609E-02  0.8056983E-01
       -2   -1    0    0    0  501  0.00000000000E+00  0.00000000000E+00  0.12489295804E+04  0.12489295804E+04  0.25500000920E-02 0. -1.
        2   -1    0    0  501    0  0.00000000000E+00  0.00000000000E+00 -0.28148258715E+04  0.28148258715E+04  0.25500000920E-02 0.  1.
    10030    2    1    2    0    0  0.00000000000E+00  0.00000000000E+00 -0.15658962911E+04  0.40637554519E+04  0.37499436234E+04 0.  0.
        5    1    3    3  502    0  0.18138330045E+03 -0.46700967550E+03  0.11750447614E+04  0.12773997887E+04  0.46999998093E+01 0. -1.
       -5    1    3    3    0  502 -0.18138330045E+03  0.46700967550E+03 -0.27409410526E+04  0.27863556633E+04  0.46999998093E+01 0.  1.
</event>
<event>
 5   0  0.5177000E-08  0.3699947E+04  0.7818609E-02  0.8067974E-01
        1   -1    0    0  501    0  0.00000000000E+00  0.00000000000E+00  0.23759318654E+04  0.23759318654E+04  0.50400001928E-02 0.  1.
       -1   -1    0    0    0  501  0.00000000000E+00  0.00000000000E+00 -0.14404464143E+04  0.14404464143E+04  0.50400001928E-02 0. -1.
    10030    2    1    2    0    0  0.00000000000E+00  0.00000000000E+00  0.93548545109E+03  0.38163782797E+04  0.36999473164E+04 0.  0.
        4    1    3    3  502    0  0.13946449288E+04 -0.60039564673E+02  0.17199306396E+04  0.22151302997E+04  0.12699999809E+01 0.  1.
       -4    1    3    3    0  502 -0.13946449288E+04  0.60039564673E+02 -0.78444518853E+03  0.16012479800E+04  0.12699999809E+01 0. -1.
</event>
<event>
 5   0  0.5177000E-08  0.3703770E+04  0.7818609E-02  0.8067127E-01
       -1   -1    0    0    0  501  0.00000000000E+00  0.00000000000E+00  0.14509722694E+04  0.14509722694E+04  0.50400001928E-02 0. -1.
        1   -1    0    0  501    0  0.00000000000E+00  0.00000000000E+00 -0.23635718694E+04  0.23635718694E+04  0.50400001928E-02 0.  1.
    10030    2    1    2    0    0  0.00000000000E+00  0.00000000000E+00 -0.91259960001E+03  0.38145441389E+04  0.37037695605E+04 0.  0.
        3    1    3    3  502    0 -0.16613971111E+03 -0.14756376861E+04  0.68330616846E+03  0.16346303295E+04  0.10100000352E+00 0. -1.
       -3    1    3    3    0  502  0.16613971111E+03  0.14756376861E+04 -0.15959057685E+04  0.21799138094E+04  0.10100000352E+00 0.  1.
</event>
<event>
 5   0  0.5181371E-08  0.3679813E+04  0.7818609E-02  0.8072450E-01
       -1   -1    0    0    0  501  0.00000000000E+00  0.00000000000E+00  0.30309488356E+04  0.30309488356E+04  0.50400001928E-02 0. -1.
        1   -1    0    0  501    0  0.00000000000E+00  0.00000000000E+00 -0.11168966168E+04  0.11168966168E+04  0.50400001928E-02 0.  1.
    10030    2    1    2    0    0  0.00000000000E+00  0.00000000000E+00  0.19140522188E+04  0.41478454524E+04  0.36798133106E+04 0.  0.
        5    1    3    3  502    0 -0.17907783806E+04  0.36510384411E+03  0.11962622300E+04  0.21843199029E+04  0.46999998093E+01 0.  1.
       -5    1    3    3    0  502  0.17907783806E+04 -0.36510384411E+03  0.71778998882E+03  0.19635255495E+04  0.46999998093E+01 0. -1.
</event>
<event>
 5   0  0.1558258E-07  0.3708927E+04  0.7818609E-02  0.8065986E-01
       -2   -1    0    0    0  501  0.00000000000E+00  0.00000000000E+00  0.14244799860E+04  0.14244799860E+04  0.25500000920E-02 0. -1.
        2   -1    0    0  501    0  0.00000000000E+00  0.00000000000E+00 -0.24142392376E+04  0.24142392376E+04  0.25500000920E-02 0.  1.
    10030    2    1    2    0    0  0.00000000000E+00  0.00000000000E+00 -0.98975925167E+03  0.38387192236E+04  0.37089273249E+04 0.  0.
        1    1    3    3  502    0 -0.14471293147E+04 -0.85380469739E+02 -0.16918821039E+04  0.22279897063E+04  0.50400001928E-02 0.  1.
       -1    1    3    3    0  502  0.14471293147E+04  0.85380469739E+02  0.70212285218E+03  0.16107295173E+04  0.50400001928E-02 0. -1.
</event>
<event>
 5   0  0.1686284E-07  0.3674152E+04  0.7818609E-02  0.8073714E-01
       -2   -1    0    0    0  501  0.00000000000E+00  0.00000000000E+00  0.15330021868E+04  0.15330021868E+04  0.25500000920E-02 0. -1.
        2   -1    0    0  501    0  0.00000000000E+00  0.00000000000E+00 -0.22014628467E+04  0.22014628467E+04  0.25500000920E-02 0.  1.
    10030    2    1    2    0    0  0.00000000000E+00  0.00000000000E+00 -0.66846065990E+03  0.37344650335E+04  0.36741515255E+04 0.  0.
        5    1    3    3  502    0  0.11061193422E+04  0.13506392187E+04  0.24708385772E+03  0.17631786129E+04  0.46999998093E+01 0. -1.
       -5    1    3    3    0  502 -0.11061193422E+04 -0.13506392187E+04 -0.91554451763E+03  0.19712864206E+04  0.46999998093E+01 0.  1.
</event>
<event>
 5   0  0.5181371E-08  0.3684955E+04  0.7818609E-02  0.8071304E-01
        1   -1    0    0  501    0  0.00000000000E+00  0.00000000000E+00  0.23790314230E+04  0.23790314230E+04  0.50400001928E-02 0.  1.
       -1   -1    0    0    0  501  0.00000000000E+00  0.00000000000E+00 -0.14269353123E+04  0.14269353123E+04  0.50400001928E-02 0. -1.
    10030    2    1    2    0    0  0.00000000000E+00  0.00000000000E+00  0.95209611070E+03  0.38059667353E+04  0.36849553303E+04 0.  0.
        5    1    3    3  502    0  0.15270170924E+03 -0.18090814450E+04  0.15171616710E+03  0.18218488883E+04  0.46999998093E+01 0. -1.
       -5    1    3    3    0  502 -0.15270170924E+03  0.18090814450E+04  0.80037994360E+03  0.19841178470E+04  0.46999998093E+01 0.  1.
</event>
<event>
 5   0  0.5177000E-08  0.3571055E+04  0.7818609E-02  0.8097154E-01
        1   -1    0    0  501    0  0.00000000000E+00  0.00000000000E+00  0.24997988805E+04  0.24997988805E+04  0.50400001928E-02 0.  1.
       -1   -1    0    0    0  501  0.00000000000E+00  0.00000000000E+00 -0.12753458284E+04  0.12753458285E+04  0.50400001928E-02 0. -1.
    10030    2    1    2    0    0  0.00000000000E+00  0.00000000000E+00  0.12244530520E+04  0.37751447089E+04  0.35710547877E+04 0.  0.
        1    1    3    3  502    0  0.34279656758E+03 -0.13038187997E+03 -0.12350976063E+04  0.12884001779E+04  0.50400001928E-02 0. -1.
       -1    1    3    3    0  502 -0.34279656758E+03  0.13038187997E+03  0.24595506583E+04  0.24867445310E+04  0.50400001928E-02 0.  1.
</event>
<event>
 5   0  0.1666189E-07  0.3699959E+04  0.7818609E-02  0.8067971E-01
       -2   -1    0    0    0  501  0.00000000000E+00  0.00000000000E+00  0.12433057037E+04  0.12433057037E+04  0.25500000920E-02 0.  1.
        2   -1    0    0  501    0  0.00000000000E+00  0.00000000000E+00 -0.27526805804E+04  0.27526805804E+04  0.25500000920E-02 0. -1.
    10030    2    1    2    0    0  0.00000000000E+00  0.00000000000E+00 -0.15093748767E+04  0.39959862841E+04  0.36999586301E+04 0.  0.
        4    1    3    3  502    0 -0.14144291601E+04 -0.39475450698E+03 -0.19698676664E+04  0.24569943439E+04  0.12699999809E+01 0. -1.
       -4    1    3    3    0  502  0.14144291601E+04  0.39475450698E+03  0.46049278976E+03  0.15389919402E+04  0.12699999809E+01 0.  1.
</event>
<event>
 5   0  0.5177000E-08  0.3697299E+04  0.7818609E-02  0.8068561E-01
       -1   -1    0    0    0  501  0.00000000000E+00  0.00000000000E+00  0.11879229898E+04  0.11879229898E+04  0.50400001928E-02 0. -1.
        1   -1    0    0  501    0  0.00000000000E+00  0.00000000000E+00 -0.28768747109E+04  0.28768747109E+04  0.50400001928E-02 0.  1.
    10030    2    1    2    0    0  0.00000000000E+00  0.00000000000E+00 -0.16889517211E+04  0.40647977007E+04  0.36972993430E+04 0.  0.
        1    1    3    3  502    0  0.27608959342E+03 -0.12805931591E+04 -0.22784872420E+04  0.26282405549E+04  0.50400001928E-02 0.  1.
       -1    1    3    3    0  502 -0.27608959342E+03  0.12805931591E+04  0.58953552091E+03  0.14365571458E+04  0.50400001928E-02 0. -1.
</event>
<event>
 5   0  0.1666189E-07  0.3701507E+04  0.7818609E-02  0.8067628E-01
        2   -1    0    0  501    0  0.00000000000E+00  0.00000000000E+00  0.29484227159E+04  0.29484227159E+04  0.25500000920E-02 0. -1.
       -2   -1    0    0    0  501  0.00000000000E+00  0.00000000000E+00 -0.11617356063E+04  0.11617356063E+04  0.25500000920E-02 0.  1.
    10030    2    1    2    0    0  0.00000000000E+00  0.00000000000E+00  0.17866871097E+04  0.41101583222E+04  0.37015065319E+04 0.  0.
        4    1    3    3  502    0 -0.71221525235E+03  0.70938326229E+03 -0.83218277731E+03  0.13049923242E+04  0.12699999809E+01 0.  1.
       -4    1    3    3    0  502  0.71221525235E+03 -0.70938326229E+03  0.26188698870E+04  0.28051659980E+04  0.12699999809E+01 0. -1.
</event>
<event>
 5   0  0.1558258E-07  0.3697823E+04  0.7818609E-02  0.8068444E-01
        2   -1    0    0  501    0  0.00000000000E+00  0.00000000000E+00  0.27221413431E+04  0.27221413431E+04  0.25500000920E-02 0.  1.
       -2   -1    0    0    0  501  0.00000000000E+00  0.00000000000E+00 -0.12558031144E+04  0.12558031144E+04  0.25500000920E-02 0. -1.
    10030    2    1    2    0    0  0.00000000000E+00  0.00000000000E+00  0.14663382287E+04  0.39779444575E+04  0.36978229143E+04 0.  0.
        1    1    3    3  502    0  0.16856909180E+04  0.14069182343E+03  0.15361202752E+04  0.22849537326E+04  0.50400001928E-02 0.  1.
       -1    1    3    3    0  502 -0.16856909180E+04 -0.14069182343E+03 -0.69782046424E+02  0.16929907248E+04  0.50400001928E-02 0. -1.
</event>
<event>
 5   0  0.5177000E-08  0.3700640E+04  0.7818609E-02  0.8067820E-01
        4   -1    0    0  501    0  0.00000000000E+00  0.00000000000E+00  0.16808095391E+04  0.16808100189E+04  0.12699999809E+01 0. -1.
       -4   -1    0    0    0  501  0.00000000000E+00  0.00000000000E+00 -0.20369243756E+04  0.20369247715E+04  0.12699999809E+01 0.  1.
    10030    2    1    2    0    0  0.00000000000E+00  0.00000000000E+00 -0.35611483649E+03  0.37177347904E+04  0.37006397007E+04 0.  0.
        2    1    3    3  502    0 -0.16347658114E+04 -0.69897760049E+03 -0.69292329712E+03  0.19081854312E+04  0.25500000920E-02 0. -1.
       -2    1    3    3    0  502  0.16347658114E+04  0.69897760049E+03  0.33680846063E+03  0.18095493592E+04  0.25500000920E-02 0.  1.
</event>
<event>
 5   0  0.5177000E-08  0.3696260E+04  0.7818609E-02  0.8068791E-01
        1   -1    0    0  501    0  0.00000000000E+00  0.00000000000E+00  0.26856231042E+04  0.26856231042E+04  0.50400001928E-02 0.  1.
       -1   -1    0    0    0  501  0.00000000000E+00  0.00000000000E+00 -0.12718036916E+04  0.12718036916E+04  0.50400001928E-02 0. -1.
    10030    2    1    2    0    0  0.00000000000E+00  0.00000000000E+00  0.14138194125E+04  0.39574267958E+04  0.36962604769E+04 0.  0.
        1    1    3    3  502    0 -0.45871360146E+03  0.49524050732E+03  0.25489076371E+04  0.26367805124E+04  0.50400001928E-02 0.  1.
       -1    1    3    3    0  502  0.45871360146E+03 -0.49524050732E+03 -0.11350882246E+04  0.13206462834E+04  0.50400001928E-02 0. -1.
</event>
<event>
 5   0  0.5177000E-08  0.3713176E+04  0.7818609E-02  0.8065048E-01
        3   -1    0    0  501    0  0.00000000000E+00  0.00000000000E+00  0.18393664738E+04  0.18393664766E+04  0.10100000352E+00 0. -1.
       -3   -1    0    0    0  501  0.00000000000E+00  0.00000000000E+00 -0.18739711849E+04  0.18739711877E+04  0.10100000352E+00 0.  1.
    10030    2    1    2    0    0  0.00000000000E+00  0.00000000000E+00 -0.34604711106E+02  0.37133376643E+04  0.37131764196E+04 0.  0.
        5    1    3    3  502    0  0.60429990771E+03 -0.10342279972E+04  0.14012414457E+04  0.18434493776E+04  0.46999998093E+01 0. -1.
       -5    1    3    3    0  502 -0.60429990771E+03  0.10342279972E+04 -0.14358461568E+04  0.18698882867E+04  0.46999998093E+01 0.  1.
</event>
<event>
 5   0  0.1666189E-07  0.3691508E+04  0.7818609E-02  0.8069846E-01
        2   -1    0    0  501    0  0.00000000000E+00  0.00000000000E+00  0.21899162835E+04  0.21899162835E+04  0.25500000920E-02 0.  1.
       -2   -1    0    0    0  501  0.00000000000E+00  0.00000000000E+00 -0.15556797934E+04  0.15556797934E+04  0.25500000920E-02 0. -1.
    10030    2    1    2    0    0  0.00000000000E+00  0.00000000000E+00  0.63423649000E+03  0.37455960769E+04  0.36915083700E+04 0.  0.
        4    1    3    3  502    0  0.12343580587E+04  0.13681449300E+04  0.20903741865E+03  0.18544968649E+04  0.12699999809E+01 0. -1.
       -4    1    3    3    0  502 -0.12343580587E+04 -0.13681449300E+04  0.42519907136E+03  0.18910992120E+04  0.12699999809E+01 0.  1.
</event>
<event>
 5   0  0.5177000E-08  0.3697744E+04  0.7818609E-02  0.8068462E-01
       -1   -1    0    0    0  501  0.00000000000E+00  0.00000000000E+00  0.22154647167E+04  0.22154647167E+04  0.50400001928E-02 0.  1.
        1   -1    0    0  501    0  0.00000000000E+00  0.00000000000E+00 -0.15429393094E+04  0.15429393094E+04  0.50400001928E-02 0. -1.
    10030    2    1    2    0    0  0.00000000000E+00  0.00000000000E+00  0.67252540729E+03  0.37584040262E+04  0.36977439609E+04 0.  0.
        4    1    3    3  502    0 -0.82300363384E+03  0.39356131757E+03  0.19707792711E+04  0.21716809250E+04  0.12699999809E+01 0.  1.
       -4    1    3    3    0  502  0.82300363384E+03 -0.39356131757E+03 -0.12982538638E+04  0.15867231011E+04  0.12699999809E+01 0. -1.
</event>
<event>
 5   0  0.1666189E-07  0.3698154E+04  0.7818609E-02  0.8068371E-01
        2   -1    0    0  501    0  0.00000000000E+00  0.00000000000E+00  0.21402130683E+04  0.21402130683E+04  0.25500000920E-02 0.  1.
       -2   -1    0    0    0  501  0.00000000000E+00  0.00000000000E+00 -0.15975441503E+04  0.15975441503E+04  0.25500000920E-02 0. -1.
    10030    2    1    2    0    0  0.00000000000E+00  0.00000000000E+00  0.54266891805E+03  0.37377572186E+04  0.36981535218E+04 0.  0.
        4    1    3    3  502    0 -0.21903452345E+03 -0.10695501300E+04 -0.12370178861E+04  0.16498874102E+04  0.12699999809E+01 0. -1.
       -4    1    3    3    0  502  0.21903452345E+03  0.10695501300E+04  0.17796868042E+04  0.20878698084E+04  0.12699999809E+01 0.  1.
</event>
<event>
 5   0  0.5177000E-08  0.3680835E+04  0.7818609E-02  0.8072222E-01
       -1   -1    0    0    0  501  0.00000000000E+00  0.00000000000E+00  0.33426839519E+04  0.33426839519E+04  0.50400001928E-02 0. -1.
        1   -1    0    0  501    0  0.00000000000E+00  0.00000000000E+00 -0.10132983428E+04  0.10132983429E+04  0.50400001928E-02 0.  1.
    10030    2    1    2    0    0  0.00000000000E+00  0.00000000000E+00  0.23293856090E+04  0.43559822947E+04  0.36808347472E+04 0.  0.
        2    1    3    3  502    0 -0.11211133922E+04 -0.69434041886E+03 -0.35458017907E+03  0.13655515219E+04  0.25500000920E-02 0.  1.
       -2    1    3    3    0  502  0.11211133922E+04  0.69434041886E+03  0.26839657881E+04  0.29904307729E+04  0.25500000920E-02 0. -1.
</event>
<event>
 5   0  0.1558258E-07  0.3700831E+04  0.7818609E-02  0.8067778E-01
        2   -1    0    0  501    0  0.00000000000E+00  0.00000000000E+00  0.25601997840E+04  0.25601997840E+04  0.25500000920E-02 0.  1.
       -2   -1    0    0    0  501  0.00000000000E+00  0.00000000000E+00 -0.13374100283E+04  0.13374100283E+04  0.25500000920E-02 0. -1.
    10030    2    1    2    0    0  0.00000000000E+00  0.00000000000E+00  0.12227897557E+04  0.38976098124E+04  0.37008306450E+04 0.  0.
        1    1    3    3  502    0  0.10896997815E+04  0.47570148938E+03  0.21046345301E+04  0.24172761584E+04  0.50400001928E-02 0.  1.
       -1    1    3    3    0  502 -0.10896997815E+04 -0.47570148938E+03 -0.88184477443E+03  0.14803336539E+04  0.50400001928E-02 0. -1.
</event>
<event>
 5   0  0.5177000E-08  0.3641420E+04  0.7818609E-02  0.8081069E-01
        1   -1    0    0  501    0  0.00000000000E+00  0.00000000000E+00  0.14741889059E+04  0.14741889059E+04  0.50400001928E-02 0.  1.
       -1   -1    0    0    0  501  0.00000000000E+00  0.00000000000E+00 -0.22486840536E+04  0.22486840536E+04  0.50400001928E-02 0. -1.
    10030    2    1    2    0    0  0.00000000000E+00  0.00000000000E+00 -0.77449514772E+03  0.37228729595E+04  0.36414200992E+04 0.  0.
        3    1    3    3  502    0  0.17095796220E+03 -0.14876637392E+04  0.67159007345E+03  0.16411591217E+04  0.10100000352E+00 0.  1.
       -3    1    3    3    0  502 -0.17095796220E+03  0.14876637392E+04 -0.14460852212E+04  0.20817138379E+04  0.10100000352E+00 0. -1.
</event>
<event>
 5   0  0.5177000E-08  0.3697825E+04  0.7818609E-02  0.8068444E-01
        1   -1    0    0  501    0  0.00000000000E+00  0.00000000000E+00  0.19341144232E+04  0.19341144233E+04  0.50400001928E-02 0. -1.
       -1   -1    0    0    0  501  0.00000000000E+00  0.00000000000E+00 -0.17674642039E+04  0.17674642039E+04  0.50400001928E-02 0.  1.
    10030    2    1    2    0    0  0.00000000000E+00  0.00000000000E+00  0.16665021934E+03  0.37015786272E+04  0.36978253119E+04 0.  0.
        1    1    3    3  502    0 -0.14816514259E+04  0.19626106533E+03 -0.10062044989E+04  0.18017371749E+04  0.50400001928E-02 0.  1.
       -1    1    3    3    0  502  0.14816514259E+04 -0.19626106533E+03  0.11728547182E+04  0.18998414523E+04  0.50400001928E-02 0. -1.
</event>
<event>
 5   0  0.5177000E-08  0.3695370E+04  0.7818609E-02  0.8068989E-01
        1   -1    0    0  501    0  0.00000000000E+00  0.00000000000E+00  0.30870121440E+04  0.30870121441E+04  0.50400001928E-02 0. -1.
       -1   -1    0    0    0  501  0.00000000000E+00  0.00000000000E+00 -0.11059041327E+04  0.11059041327E+04  0.50400001928E-02 0.  1.
    10030    2    1    2    0    0  0.00000000000E+00  0.00000000000E+00  0.19811080114E+04  0.41929162767E+04  0.36953697990E+04 0.  0.
        3    1    3    3  502    0 -0.67046939180E+03  0.11622282450E+04  0.24318760959E+04  0.27774673814E+04  0.10100000352E+00 0. -1.
       -3    1    3    3    0  502  0.67046939180E+03 -0.11622282450E+04 -0.45076808454E+03  0.14154488953E+04  0.10100000352E+00 0.  1.
</event>
<event>
 5   0  0.1587026E-07  0.3700285E+04  0.7818609E-02  0.8067899E-01
        2   -1    0    0  501    0  0.00000000000E+00  0.00000000000E+00  0.11641422041E+04  0.11641422041E+04  0.25500000920E-02 0. -1.
       -2   -1    0    0    0  501  0.00000000000E+00  0.00000000000E+00 -0.29403856248E+04  0.29403856248E+04  0.25500000920E-02 0.  1.
    10030    2    1    2    0    0  0.00000000000E+00  0.00000000000E+00 -0.17762434207E+04  0.41045278289E+04  0.37002848551E+04 0.  0.
        3    1    3    3  502    0 -0.10456164169E+04  0.15234200832E+04 -0.78344885969E+03  0.20069665088E+04  0.10100000352E+00 0.  1.
       -3    1    3    3    0  502  0.10456164169E+04 -0.15234200832E+04 -0.99279456105E+03  0.20975613202E+04  0.10100000352E+00 0. -1.
</event>
<event>
 5   0  0.1658770E-07  0.3598528E+04  0.7818609E-02  0.8090829E-01
       -2   -1    0    0    0  501  0.00000000000E+00  0.00000000000E+00  0.16584197626E+04  0.16584197626E+04  0.25500000920E-02 0. -1.
        2   -1    0    0  501    0  0.00000000000E+00  0.00000000000E+00 -0.19520699284E+04  0.19520699284E+04  0.25500000920E-02 0.  1.
    10030    2    1    2    0    0  0.00000000000E+00  0.00000000000E+00 -0.29365016575E+03  0.36104896910E+04  0.35985282254E+04 0.  0.
        2    1    3    3  502    0 -0.12648619343E+04 -0.47786222920E+01  0.11370583383E+04  0.17008233926E+04  0.25500000920E-02 0. -1.
       -2    1    3    3    0  502  0.12648619343E+04  0.47786222920E+01 -0.14307085040E+04  0.19096662985E+04  0.25500000920E-02 0.  1.
</event>
<event>
 5   0  0.5177000E-08  0.3705811E+04  0.7818609E-02  0.8066675E-01
       -1   -1    0    0    0  501  0.00000000000E+00  0.00000000000E+00  0.28953223570E+04  0.28953223570E+04  0.50400001928E-02 0. -1.
        1   -1    0    0  501    0  0.00000000000E+00  0.00000000000E+00 -0.11857953260E+04  0.11857953260E+04  0.50400001928E-02 0.  1.
    10030    2    1    2    0    0  0.00000000000E+00  0.00000000000E+00  0.17095270310E+04  0.40811176830E+04  0.37058114999E+04 0.  0.
        4    1    3    3  502    0 -0.33874751082E+03 -0.92399830416E+03  0.25837075746E+04  0.27647909842E+04  0.12699999809E+01 0. -1.
       -4    1    3    3    0  502  0.33874751082E+03  0.92399830416E+03 -0.87418054363E+03  0.13163266988E+04  0.12699999809E+01 0.  1.
</event>
<event>
 5   0  0.1558258E-07  0.3680084E+04  0.7818609E-02  0.8072390E-01
        2   -1    0    0  501    0  0.00000000000E+00  0.00000000000E+00  0.11701927141E+04  0.11701927141E+04  0.25500000920E-02 0.  1.
       -2   -1    0    0    0  501  0.00000000000E+00  0.00000000000E+00 -0.28933312303E+04  0.28933312303E+04  0.25500000920E-02 0. -1.
    10030    2    1    2    0    0  0.00000000000E+00  0.00000000000E+00 -0.17231385163E+04  0.40635239444E+04  0.36800843061E+04 0.  0.
        1    1    3    3  502    0 -0.13926005630E+04 -0.29995132720E+03 -0.21475860217E+04  0.25770977566E+04  0.50400001928E-02 0. -1.
       -1    1    3    3    0  502  0.13926005630E+04  0.29995132720E+03  0.42444750545E+03  0.14864261877E+04  0.50400001928E-02 0.  1.
</event>
<event>
 5   0  0.1686284E-07  0.3725011E+04  0.7818609E-02  0.8062442E-01
       -2   -1    0    0    0  501  0.00000000000E+00  0.00000000000E+00  0.32827436134E+04  0.32827436134E+04  0.25500000920E-02 0.  1.
        2   -1    0    0  501    0  0.00000000000E+00  0.00000000000E+00 -0.10567156536E+04  0.10567156536E+04  0.25500000920E-02 0. -1.
    10030    2    1    2    0    0  0.00000000000E+00  0.00000000000E+00  0.22260279598E+04  0.43394592670E+04  0.37250109063E+04 0.  0.
        5    1    3    3  502    0  0.20176542338E+03  0.13388457003E+03 -0.10382933489E+04  0.10661658092E+04  0.46999998093E+01 0. -1.
       -5    1    3    3    0  502 -0.20176542338E+03 -0.13388457003E+03  0.32643213088E+04  0.32732934578E+04  0.46999998093E+01 0.  1.
</event>
<event>
 5   0  0.5177000E-08  0.3706856E+04  0.7818609E-02  0.8066444E-01
       -1   -1    0    0    0  501  0.00000000000E+00  0.00000000000E+00  0.11163635210E+04  0.11163635210E+04  0.50400001928E-02 0. -1.
        1   -1    0    0  501    0  0.00000000000E+00  0.00000000000E+00 -0.30771297552E+04  0.30771297552E+04  0.50400001928E-02 0.  1.
    10030    2    1    2    0    0  0.00000000000E+00  0.00000000000E+00 -0.19607662342E+04  0.41934932762E+04  0.37068560307E+04 0.  0.
        4    1    3    3  502    0  0.78093894975E+03 -0.11743479547E+04 -0.23408553142E+04  0.27328673544E+04  0.12699999809E+01 0. -1.
       -4    1    3    3    0  502 -0.78093894975E+03  0.11743479547E+04  0.38008908002E+03  0.14606259218E+04  0.12699999809E+01 0.  1.
</event>
<event>
 5   0  0.1558258E-07  0.3705638E+04  0.7818609E-02  0.8066714E-01
       -2   -1    0    0    0  501  0.00000000000E+00  0.00000000000E+00  0.14860468350E+04  0.14860468350E+04  0.25500000920E-02 0. -1.
        2   -1    0    0  501    0  0.00000000000E+00  0.00000000000E+00 -0.23101144951E+04  0.23101144951E+04  0.25500000920E-02 0.  1.
    10030    2    1    2    0    0  0.00000000000E+00  0.00000000000E+00 -0.82406766001E+03  0.37961613301E+04  0.37056380471E+04 0.  0.
        1    1    3    3  502    0  0.11361126737E+04  0.84079693845E+02 -0.19089328235E+04  0.22230262992E+04  0.50400001928E-02 0.  1.
       -1    1    3    3    0  502 -0.11361126737E+04 -0.84079693845E+02  0.10848651635E+04  0.15731350309E+04  0.50400001928E-02 0. -1.
</event>
<event>
 5   0  0.5177000E-08  0.3695979E+04  0.7818609E-02  0.8068854E-01
       -1   -1    0    0    0  501  0.00000000000E+00  0.00000000000E+00  0.13999027676E+04  0.13999027676E+04  0.50400001928E-02 0.  1.
        1   -1    0    0  501    0  0.00000000000E+00  0.00000000000E+00 -0.24395017422E+04  0.24395017422E+04  0.50400001928E-02 0. -1.
    10030    2    1    2    0    0  0.00000000000E+00  0.00000000000E+00 -0.10395989747E+04  0.38394045098E+04  0.36959790262E+04 0.  0.
        1    1    3    3  502    0 -0.71591033753E+03 -0.71067410773E+03  0.10886664337E+04  0.14841765066E+04  0.50400001928E-02 0.  1.
       -1    1    3    3    0  502  0.71591033753E+03  0.71067410773E+03 -0.21282654084E+04  0.23552280033E+04  0.50400001928E-02 0. -1.
</event>
<event>
 5   0  0.1558258E-07  0.3718163E+04  0.7818609E-02  0.8063949E-01
       -2   -1    0    0    0  501  0.00000000000E+00  0.00000000000E+00  0.17793308671E+04  0.17793308671E+04  0.25500000920E-02 0. -1.
        2   -1    0    0  501    0  0.00000000000E+00  0.00000000000E+00 -0.19424064579E+04  0.19424064579E+04  0.25500000920E-02 0.  1.
    10030    2    1    2    0    0  0.00000000000E+00  0.00000000000E+00 -0.16307559083E+03  0.37217373250E+04  0.37181628619E+04 0.  0.
        1    1    3    3  502    0 -0.11846842583E+04 -0.45763969954E+03 -0.14405148563E+04  0.19204150431E+04  0.50400001928E-02 0.  1.
       -1    1    3    3    0  502  0.11846842583E+04  0.45763969954E+03  0.12774392654E+04  0.18013222819E+04  0.50400001928E-02 0. -1.
</event>
<event>
 5   0  0.5177000E-08  0.3478082E+04  0.7818609E-02  0.8119004E-01
       -1   -1    0    0    0  501  0.00000000000E+00  0.00000000000E+00  0.24407808165E+04  0.24407808165E+04  0.50400001928E-02 0.  1.
        1   -1    0    0  501    0  0.00000000000E+00  0.00000000000E+00 -0.12390556753E+04  0.12390556753E+04  0.50400001928E-02 0. -1.
    10030    2    1    2    0    0  0.00000000000E+00  0.00000000000E+00  0.12017251411E+04  0.36798364918E+04  0.34780818409E+04 0.  0.
        4    1    3    3  502    0 -0.11819172366E+04  0.69544351616E+03  0.17323329894E+04  0.22094228290E+04  0.12699999809E+01 0.  1.
       -4    1    3    3    0  502  0.11819172366E+04 -0.69544351616E+03 -0.53060784821E+03  0.14704136628E+04  0.12699999809E+01 0. -1.
</event>
<event>
 5   0  0.1658770E-07  0.3694965E+04  0.7818609E-02  0.8069079E-01
       -2   -1    0    0    0  501  0.00000000000E+00  0.00000000000E+00  0.13897308107E+04  0.13897308107E+04  0.25500000920E-02 0. -1.
        2   -1    0    0  501    0  0.00000000000E+00  0.00000000000E+00 -0.24560089025E+04  0.24560089025E+04  0.25500000920E-02 0.  1.
    10030    2    1    2    0    0  0.00000000000E+00  0.00000000000E+00 -0.10662780918E+04  0.38457397132E+04  0.36949648135E+04 0.  0.
        2    1    3    3  502    0 -0.11424609158E+04  0.20226467186E+03 -0.20295348037E+04  0.23377637736E+04  0.25500000920E-02 0.  1.
       -2    1    3    3    0  502  0.11424609158E+04 -0.20226467186E+03  0.96325671186E+03  0.15079759397E+04  0.25500000920E-02 0. -1.
</event>
<event>
 5   0  0.1658770E-07  0.3684039E+04  0.7818609E-02  0.8071508E-01
        2   -1    0    0  501    0  0.00000000000E+00  0.00000000000E+00  0.15893699035E+04  0.15893699035E+04  0.25500000920E-02 0.  1.
       -2   -1    0    0    0  501  0.00000000000E+00  0.00000000000E+00 -0.21348313526E+04  0.21348313526E+04  0.25500000920E-02 0. -1.
    10030    2    1    2    0    0  0.00000000000E+00  0.00000000000E+00 -0.54546144909E+03  0.37242012561E+04  0.36840394683E+04 0.  0.
        2    1    3    3  502    0 -0.94872121109E+03 -0.13739123562E+03  0.13173401243E+04  0.16292124757E+04  0.25500000920E-02 0.  1.
       -2    1    3    3    0  502  0.94872121109E+03  0.13739123562E+03 -0.18628015734E+04  0.20949887804E+04  0.25500000920E-02 0. -1.
</event>
<event>
 5   0  0.5177000E-08  0.3709372E+04  0.7818609E-02  0.8065888E-01
       -1   -1    0    0    0  501  0.00000000000E+00  0.00000000000E+00  0.14397978400E+04  0.14397978400E+04  0.50400001928E-02 0. -1.
        1   -1    0    0  501    0  0.00000000000E+00  0.00000000000E+00 -0.23891277713E+04  0.23891277713E+04  0.50400001928E-02 0.  1.
    10030    2    1    2    0    0  0.00000000000E+00  0.00000000000E+00 -0.94932993138E+03  0.38289256113E+04  0.37093724561E+04 0.  0.
        4    1    3    3  502    0  0.16950643634E+04 -0.71977447438E+02  0.29877462494E+03  0.17226989982E+04  0.12699999809E+01 0. -1.
       -4    1    3    3    0  502 -0.16950643634E+04  0.71977447438E+02 -0.12481045563E+04  0.21062266131E+04  0.12699999809E+01 0.  1.
</event>
<event>
 5   0  0.5181371E-08  0.3703830E+04  0.7818609E-02  0.8067114E-01
       -1   -1    0    0    0  501  0.00000000000E+00  0.00000000000E+00  0.17192076524E+04  0.17192076524E+04  0.50400001928E-02 0.  1.
        1   -1    0    0  501    0  0.00000000000E+00  0.00000000000E+00 -0.19948659133E+04  0.19948659133E+04  0.50400001928E-02 0. -1.
    10030    2    1    2    0    0  0.00000000000E+00  0.00000000000E+00 -0.27565826088E+03  0.37140735657E+04  0.37038297713E+04 0.  0.
        5    1    3    3  502    0 -0.81611065063E+03 -0.14105725404E+04 -0.10199297002E+04  0.19225062208E+04  0.46999998093E+01 0. -1.
       -5    1    3    3    0  502  0.81611065063E+03  0.14105725404E+04  0.74427143932E+03  0.17915673448E+04  0.46999998093E+01 0.  1.
</event>
<event>
 5   0  0.5177000E-08  0.3693414E+04  0.7818609E-02  0.8069423E-01
       -1   -1    0    0    0  501  0.00000000000E+00  0.00000000000E+00  0.14723955356E+04  0.14723955356E+04  0.50400001928E-02 0. -1.
        1   -1    0    0  501    0  0.00000000000E+00  0.00000000000E+00 -0.23161757533E+04  0.23161757533E+04  0.50400001928E-02 0.  1.
    10030    2    1    2    0    0  0.00000000000E+00  0.00000000000E+00 -0.84378021774E+03  0.37885712889E+04  0.36934140514E+04 0.  0.
        2    1    3    3  502    0  0.10092987033E+04 -0.99622927236E+03  0.79145052071E+03  0.16240537437E+04  0.25500000920E-02 0. -1.
       -2    1    3    3    0  502 -0.10092987033E+04  0.99622927236E+03 -0.16352307385E+04  0.21645175452E+04  0.25500000920E-02 0.  1.
</event>
<event>
 5   0  0.1587026E-07  0.3693735E+04  0.7818609E-02  0.8069352E-01
        2   -1    0    0  501    0  0.00000000000E+00  0.00000000000E+00  0.16409729551E+04  0.16409729551E+04  0.25500000920E-02 0. -1.
       -2   -1    0    0    0  501  0.00000000000E+00  0.00000000000E+00 -0.20785953168E+04  0.20785953168E+04  0.25500000920E-02 0.  1.
    10030    2    1    2    0    0  0.00000000000E+00  0.00000000000E+00 -0.43762236168E+03  0.37195682719E+04  0.36937345327E+04 0.  0.
        3    1    3    3  502    0 -0.76198582784E+03 -0.13151588700E+04 -0.12752689746E+04  0.19840806997E+04  0.10100000352E+00 0.  1.
       -3    1    3    3    0  502  0.76198582784E+03  0.13151588700E+04  0.83764661288E+03  0.17354875722E+04  0.10100000352E+00 0. -1.
</event>
<event>
 5   0  0.5177000E-08  0.3696819E+04  0.7818609E-02  0.8068667E-01
        1   -1    0    0  501    0  0.00000000000E+00  0.00000000000E+00  0.20252264320E+04  0.20252264321E+04  0.50400001928E-02 0. -1.
       -1   -1    0    0    0  501  0.00000000000E+00  0.00000000000E+00 -0.16870300521E+04  0.16870300521E+04  0.50400001928E-02 0.  1.
    10030    2    1    2    0    0  0.00000000000E+00  0.00000000000E+00  0.33819637992E+03  0.37122564842E+04  0.36968190939E+04 0.  0.
        2    1    3    3  502    0 -0.13858676520E+04  0.97036236922E+03  0.91677814452E+03  0.19242438626E+04  0.25500000920E-02 0.  1.
       -2    1    3    3    0  502  0.13858676520E+04 -0.97036236922E+03 -0.57858176460E+03  0.17880126216E+04  0.25500000920E-02 0. -1.
</event>
<event>
 5   0  0.5177000E-08  0.3702963E+04  0.7818609E-02  0.8067306E-01
        1   -1    0    0  501    0  0.00000000000E+00  0.00000000000E+00  0.11896387451E+04  0.11896387451E+04  0.50400001928E-02 0. -1.
       -1   -1    0    0    0  501  0.00000000000E+00  0.00000000000E+00 -0.28815330699E+04  0.28815330699E+04  0.50400001928E-02 0.  1.
    10030    2    1    2    0    0  0.00000000000E+00  0.00000000000E+00 -0.16918943248E+04  0.40711718151E+04  0.37029628058E+04 0.  0.
        1    1    3    3  502    0 -0.14970131878E+04  0.28887290069E+03 -0.20008721043E+04  0.25155486906E+04  0.50400001928E-02 0.  1.
       -1    1    3    3    0  502  0.14970131878E+04 -0.28887290069E+03  0.30897777946E+03  0.15556231245E+04  0.50400001928E-02 0. -1.
</event>
<event>
 5   0  0.1558258E-07  0.3691884E+04  0.7818609E-02  0.8069763E-01
       -2   -1    0    0    0  501  0.00000000000E+00  0.00000000000E+00  0.13044154834E+04  0.13044154834E+04  0.25500000920E-02 0.  1.
        2   -1    0    0  501    0  0.00000000000E+00  0.00000000000E+00 -0.26122826130E+04  0.26122826130E+04  0.25500000920E-02 0. -1.
    10030    2    1    2    0    0  0.00000000000E+00  0.00000000000E+00 -0.13078671295E+04  0.39166980964E+04  0.36918840108E+04 0.  0.
        1    1    3    3  502    0 -0.75034347926E+02 -0.18323695215E+04 -0.87720999777E+03  0.20329057029E+04  0.50400001928E-02 0. -1.
       -1    1    3    3    0  502  0.75034347926E+02  0.18323695215E+04 -0.43065713177E+03  0.18837923935E+04  0.50400001928E-02 0.  1.
</event>
<event>
 5   0  0.5177000E-08  0.3640466E+04  0.7818609E-02  0.8081285E-01
       -3   -1    0    0    0  501  0.00000000000E+00  0.00000000000E+00  0.14572226829E+04  0.14572226864E+04  0.10100000352E+00 0.  1.
        3   -1    0    0  501    0  0.00000000000E+00  0.00000000000E+00 -0.22736736658E+04  0.22736736680E+04  0.10100000352E+00 0. -1.
    10030    2    1    2    0    0  0.00000000000E+00  0.00000000000E+00 -0.81645098293E+03  0.37308963544E+04  0.36404663712E+04 0.  0.
        4    1    3    3  502    0 -0.35541917374E+03 -0.15595924457E+04  0.48202734752E+03  0.16706296305E+04  0.12699999809E+01 0.  1.
       -4    1    3    3    0  502  0.35541917374E+03  0.15595924457E+04 -0.12984783304E+04  0.20602667238E+04  0.12699999809E+01 0. -1.
</event>
<event>
 5   0  0.5181371E-08  0.3882424E+04  0.7818609E-02  0.8028695E-01
        1   -1    0    0  501    0  0.00000000000E+00  0.00000000000E+00  0.14097615285E+04  0.14097615285E+04  0.50400001928E-02 0. -1.
       -1   -1    0    0    0  501  0.00000000000E+00  0.00000000000E+00 -0.26730080781E+04  0.26730080782E+04  0.50400001928E-02 0.  1.
    10030    2    1    2    0    0  0.00000000000E+00  0.00000000000E+00 -0.12632465496E+04  0.40827696067E+04  0.38824239614E+04 0.  0.
        5    1    3    3  502    0  0.13057019573E+04 -0.14141127740E+04 -0.89705535891E+03  0.21235119368E+04  0.46999998093E+01 0. -1.
       -5    1    3    3    0  502 -0.13057019573E+04  0.14141127740E+04 -0.36619119072E+03  0.19592576699E+04  0.46999998093E+01 0.  1.
</event>
<event>
 5   0  0.1658770E-07  0.3702149E+04  0.7818609E-02  0.8067486E-01
        2   -1    0    0  501    0  0.00000000000E+00  0.00000000000E+00  0.18571168837E+04  0.18571168838E+04  0.25500000920E-02 0.  1.
       -2   -1    0    0    0  501  0.00000000000E+00  0.00000000000E+00 -0.18450514303E+04  0.18450514303E+04  0.25500000920E-02 0. -1.
    10030    2    1    2    0    0  0.00000000000E+00  0.00000000000E+00  0.12065453490E+02  0.37021683140E+04  0.37021486532E+04 0.  0.
        2    1    3    3  502    0 -0.11750351005E+04 -0.11697757471E+04  0.82907620764E+03  0.18537664750E+04  0.25500000920E-02 0.  1.
       -2    1    3    3    0  502  0.11750351005E+04  0.11697757471E+04 -0.81701075415E+03  0.18484018390E+04  0.25500000920E-02 0. -1.
</event>
<event>
 5   0  0.1658770E-07  0.3612013E+04  0.7818609E-02  0.8087745E-01
       -2   -1    0    0    0  501  0.00000000000E+00  0.00000000000E+00  0.17523962078E+04  0.17523962078E+04  0.25500000920E-02 0. -1.
        2   -1    0    0  501    0  0.00000000000E+00  0.00000000000E+00 -0.18612571515E+04  0.18612571515E+04  0.25500000920E-02 0.  1.
    10030    2    1    2    0    0  0.00000000000E+00  0.00000000000E+00 -0.10886094365E+03  0.36136533593E+04  0.36120132747E+04 0.  0.
        2    1    3    3  502    0 -0.44183792072E+03 -0.72201981105E+03 -0.16505001580E+04  0.18549081183E+04  0.25500000920E-02 0.  1.
       -2    1    3    3    0  502  0.44183792072E+03  0.72201981105E+03  0.15416392143E+04  0.17587452411E+04  0.25500000920E-02 0. -1.
</event>
<event>
 5   0  0.5177000E-08  0.3738312E+04  0.7818609E-02  0.8059524E-01
       -1   -1    0    0    0  501  0.00000000000E+00  0.00000000000E+00  0.12583481500E+04  0.12583481500E+04  0.50400001928E-02 0.  1.
        1   -1    0    0  501    0  0.00000000000E+00  0.00000000000E+00 -0.27764520134E+04  0.27764520134E+04  0.50400001928E-02 0. -1.
    10030    2    1    2    0    0  0.00000000000E+00  0.00000000000E+00 -0.15181038634E+04  0.40348001634E+04  0.37383115197E+04 0.  0.
        3    1    3    3  502    0  0.99914146648E+03  0.11517224544E+04  0.40789971325E+03  0.15783315457E+04  0.10100000352E+00 0.  1.
       -3    1    3    3    0  502 -0.99914146648E+03 -0.11517224544E+04 -0.19260035767E+04  0.24564686177E+04  0.10100000352E+00 0. -1.
</event>
<event>
 5   0  0.1686284E-07  0.3698458E+04  0.7818609E-02  0.8068304E-01
        2   -1    0    0  501    0  0.00000000000E+00  0.00000000000E+00  0.19475034277E+04  0.19475034277E+04  0.25500000920E-02 0.  1.
       -2   -1    0    0    0  501  0.00000000000E+00  0.00000000000E+00 -0.17559139826E+04  0.17559139826E+04  0.25500000920E-02 0. -1.
    10030    2    1    2    0    0  0.00000000000E+00  0.00000000000E+00  0.19158944508E+03  0.37034174103E+04  0.36984583274E+04 0.  0.
        5    1    3    3  502    0 -0.17278167444E+04 -0.32323598409E+03 -0.47925241385E+03  0.18219597059E+04  0.46999998093E+01 0. -1.
       -5    1    3    3    0  502  0.17278167444E+04  0.32323598409E+03  0.67084185893E+03  0.18814577044E+04  0.46999998093E+01 0.  1.
</event>
<event>
 5   0  0.5177000E-08  0.3695250E+04  0.7818609E-02  0.8069015E-01
       -1   -1    0    0    0  501  0.00000000000E+00  0.00000000000E+00  0.16363845010E+04  0.16363845010E+04  0.50400001928E-02 0. -1.
        1   -1    0    0  501    0  0.00000000000E+00  0.00000000000E+00 -0.20861350350E+04  0.20861350351E+04  0.50400001928E-02 0.  1.
    10030    2    1    2    0    0  0.00000000000E+00  0.00000000000E+00 -0.44975053404E+03  0.37225195361E+04  0.36952504859E+04 0.  0.
        4    1    3    3  502    0 -0.22608399055E+03 -0.21198416056E+03 -0.20597627796E+04  0.20829487694E+04  0.12699999809E+01 0.  1.
       -4    1    3    3    0  502  0.22608399055E+03  0.21198416056E+03  0.16100122455E+04  0.16395707666E+04  0.12699999809E+01 0. -1.
</event>
<event>
 5   0  0.1658770E-07  0.3470166E+04  0.7818609E-02  0.8120897E-01
       -2   -1    0    0    0  501  0.00000000000E+00  0.00000000000E+00  0.20516601861E+04  0.20516601861E+04  0.25500000920E-02 0. -1.
        2   -1    0    0  501    0  0.00000000000E+00  0.00000000000E+00 -0.14673546414E+04  0.14673546414E+04  0.25500000920E-02 0.  1.
    10030    2    1    2    0    0  0.00000000000E+00  0.00000000000E+00  0.58430554477E+03  0.35190148275E+04  0.34701660460E+04 0.  0.
        2    1    3    3  502    0  0.96100347650E+03  0.45874209217E+03  0.16813051352E+04  0.19901655576E+04  0.25500000920E-02 0. -1.
       -2    1    3    3    0  502 -0.96100347650E+03 -0.45874209217E+03 -0.10969995904E+04  0.15288492700E+04  0.25500000920E-02 0.  1.
</event>
<event>
 5   0  0.5181371E-08  0.3592962E+04  0.7818609E-02  0.8092106E-01
        1   -1    0    0  501    0  0.00000000000E+00  0.00000000000E+00  0.13677874684E+04  0.13677874684E+04  0.50400001928E-02 0. -1.
       -1   -1    0    0    0  501  0.00000000000E+00  0.00000000000E+00 -0.23595356963E+04  0.23595356963E+04  0.50400001928E-02 0.  1.
    10030    2    1    2    0    0  0.00000000000E+00  0.00000000000E+00 -0.99174822783E+03  0.37273231647E+04  0.35929616512E+04 0.  0.
        5    1    3    3  502    0  0.11054401201E+04 -0.57313256245E+03  0.84748027779E+03  0.15062283043E+04  0.46999998093E+01 0. -1.
       -5    1    3    3    0  502 -0.11054401201E+04  0.57313256245E+03 -0.18392285056E+04  0.22210948605E+04  0.46999998093E+01 0.  1.
</event>
<event>
 5   0  0.5177000E-08  0.3701060E+04  0.7818609E-02  0.8067727E-01
       -3   -1    0    0    0  501  0.00000000000E+00  0.00000000000E+00  0.12093735915E+04  0.12093735957E+04  0.10100000352E+00 0.  1.
        3   -1    0    0  501    0  0.00000000000E+00  0.00000000000E+00 -0.28315994612E+04  0.28315994630E+04  0.10100000352E+00 0. -1.
    10030    2    1    2    0    0  0.00000000000E+00  0.00000000000E+00 -0.16222258697E+04  0.40409730587E+04  0.37010601844E+04 0.  0.
        1    1    3    3  502    0 -0.89299360595E+03 -0.11629144556E+04  0.42158300640E+03  0.15256276881E+04  0.50400001928E-02 0.  1.
       -1    1    3    3    0  502  0.89299360595E+03  0.11629144556E+04 -0.20438088761E+04  0.25153453706E+04  0.50400001928E-02 0. -1.
</event>
<event>
 5   0  0.5177000E-08  0.3711808E+04  0.7818609E-02  0.8065350E-01
       -1   -1    0    0    0  501  0.00000000000E+00  0.00000000000E+00  0.15054652365E+04  0.15054652365E+04  0.50400001928E-02 0. -1.
        1   -1    0    0  501    0  0.00000000000E+00  0.00000000000E+00 -0.22879166522E+04  0.22879166522E+04  0.50400001928E-02 0.  1.
    10030    2    1    2    0    0  0.00000000000E+00  0.00000000000E+00 -0.78245141569E+03  0.37933818887E+04  0.37118076372E+04 0.  0.
        2    1    3    3  502    0  0.11761568336E+04 -0.13651929111E+04  0.62700521923E+02  0.18030607137E+04  0.25500000920E-02 0. -1.
       -2    1    3    3    0  502 -0.11761568336E+04  0.13651929111E+04 -0.84515193762E+03  0.19903211750E+04  0.25500000920E-02 0.  1.
</event>
<event>
 5   0  0.5181371E-08  0.3676380E+04  0.7818609E-02  0.8073217E-01
        1   -1    0    0  501    0  0.00000000000E+00  0.00000000000E+00  0.15524443130E+04  0.15524443130E+04  0.50400001928E-02 0.  1.
       -1   -1    0    0    0  501  0.00000000000E+00  0.00000000000E+00 -0.21765305908E+04  0.21765305908E+04  0.50400001928E-02 0. -1.
    10030    2    1    2    0    0  0.00000000000E+00  0.00000000000E+00 -0.62408627784E+03  0.37289749038E+04  0.36763800335E+04 0.  0.
        5    1    3    3  502    0  0.60321140966E+03 -0.83397565724E+03  0.12327491496E+04  0.16059489274E+04  0.46999998093E+01 0.  1.
       -5    1    3    3    0  502 -0.60321140966E+03  0.83397565724E+03 -0.18568354275E+04  0.21230259764E+04  0.46999998093E+01 0. -1.
</event>
<event>
 5   0  0.1658770E-07  0.3758767E+04  0.7818609E-02  0.8055062E-01
        2   -1    0    0  501    0  0.00000000000E+00  0.00000000000E+00  0.27472047631E+04  0.27472047631E+04  0.25500000920E-02 0. -1.
       -2   -1    0    0    0  501  0.00000000000E+00  0.00000000000E+00 -0.12857004360E+04  0.12857004360E+04  0.25500000920E-02 0.  1.
    10030    2    1    2    0    0  0.00000000000E+00  0.00000000000E+00  0.14615043271E+04  0.40329051991E+04  0.37587670116E+04 0.  0.
        2    1    3    3  502    0  0.11294490835E+03  0.18538892437E+04  0.42272417438E+03  0.19048248234E+04  0.25500000920E-02 0.  1.
       -2    1    3    3    0  502 -0.11294490835E+03 -0.18538892437E+04  0.10387801527E+04  0.21280803758E+04  0.25500000920E-02 0. -1.
</event>
<event>
 5   0  0.1658770E-07  0.3661393E+04  0.7818609E-02  0.8076572E-01
       -2   -1    0    0    0  501  0.00000000000E+00  0.00000000000E+00  0.12642828834E+04  0.12642828834E+04  0.25500000920E-02 0. -1.
        2   -1    0    0  501    0  0.00000000000E+00  0.00000000000E+00 -0.26508696503E+04  0.26508696503E+04  0.25500000920E-02 0.  1.
    10030    2    1    2    0    0  0.00000000000E+00  0.00000000000E+00 -0.13865867669E+04  0.39151525337E+04  0.36613926996E+04 0.  0.
        2    1    3    3  502    0  0.11362176310E+04 -0.14184265905E+04 -0.92884358508E+03  0.20409985064E+04  0.25500000920E-02 0. -1.
       -2    1    3    3    0  502 -0.11362176310E+04  0.14184265905E+04 -0.45774318180E+03  0.18741540273E+04  0.25500000920E-02 0.  1.
</event>
<event>
 5   0  0.5177000E-08  0.3702654E+04  0.7818609E-02  0.8067374E-01
       -1   -1    0    0    0  501  0.00000000000E+00  0.00000000000E+00  0.21196635068E+04  0.21196635068E+04  0.50400001928E-02 0.  1.
        1   -1    0    0  501    0  0.00000000000E+00  0.00000000000E+00 -0.16169600566E+04  0.16169600566E+04  0.50400001928E-02 0. -1.
    10030    2    1    2    0    0  0.00000000000E+00  0.00000000000E+00  0.50270345016E+03  0.37366235634E+04  0.37026537640E+04 0.  0.
        4    1    3    3  502    0  0.17612232537E+04  0.69999899719E+02 -0.32006052367E+03  0.17914373243E+04  0.12699999809E+01 0.  1.
       -4    1    3    3    0  502 -0.17612232537E+04 -0.69999899719E+02  0.82276397383E+03  0.19451862391E+04  0.12699999809E+01 0. -1.
</event>
<event>
 5   0  0.1666189E-07  0.3740434E+04  0.7818609E-02  0.8059060E-01
        2   -1    0    0  501    0  0.00000000000E+00  0.00000000000E+00  0.25625440205E+04  0.25625440205E+04  0.25500000920E-02 0. -1.
       -2   -1    0    0    0  501  0.00000000000E+00  0.00000000000E+00 -0.13649374587E+04  0.13649374587E+04  0.25500000920E-02 0.  1.
    10030    2    1    2    0    0  0.00000000000E+00  0.00000000000E+00  0.11976065619E+04  0.39274814792E+04  0.37404343722E+04 0.  0.
        4    1    3    3  502    0  0.43374729634E+03  0.17851006239E+04  0.96703956193E+03  0.20760269945E+04  0.12699999809E+01 0.  1.
       -4    1    3    3    0  502 -0.43374729634E+03 -0.17851006239E+04  0.23056699993E+03  0.18514544847E+04  0.12699999809E+01 0. -1.
</event>
<event>
 5   0  0.5177000E-08  0.3714502E+04  0.7818609E-02  0.8064756E-01
       -3   -1    0    0    0  501  0.00000000000E+00  0.00000000000E+00  0.16330747331E+04  0.16330747362E+04  0.10100000352E+00 0. -1.
        3   -1    0    0  501    0  0.00000000000E+00  0.00000000000E+00 -0.21122003662E+04  0.21122003686E+04  0.10100000352E+00 0.  1.
    10030    2    1    2    0    0  0.00000000000E+00  0.00000000000E+00 -0.47912563307E+03  0.37452751048E+04  0.37145018829E+04 0.  0.
        4    1    3    3  502    0  0.13890088937E+03 -0.18494591216E+04 -0.14083868751E+03  0.18600079699E+04  0.12699999809E+01 0.  1.
       -4    1    3    3    0  502 -0.13890088937E+03  0.18494591216E+04 -0.33828694556E+03  0.18852671349E+04  0.12699999809E+01 0. -1.
</event>
<event>
 5   0  0.5177000E-08  0.3702494E+04  0.7818609E-02  0.8067409E-01
       -1   -1    0    0    0  501  0.00000000000E+00  0.00000000000E+00  0.20009948998E+04  0.20009948998E+04  0.50400001928E-02 0. -1.
        1   -1    0    0  501    0  0.00000000000E+00  0.00000000000E+00 -0.17127053358E+04  0.17127053358E+04  0.50400001928E-02 0.  1.
    10030    2    1    2    0    0  0.00000000000E+00  0.00000000000E+00  0.28828956400E+03  0.37137002357E+04  0.37024935608E+04 0.  0.
        3    1    3    3  502    0  0.74908949334E+03  0.16873057241E+04  0.59636671717E+01  0.18461233034E+04  0.10100000352E+00 0.  1.
       -3    1    3    3    0  502 -0.74908949334E+03 -0.16873057241E+04  0.28232589683E+03  0.18675769323E+04  0.10100000352E+00 0. -1.
</event>
<event>
 5   0  0.1658770E-07  0.3710905E+04  0.7818609E-02  0.8065549E-01
       -2   -1    0    0    0  501  0.00000000000E+00  0.00000000000E+00  0.19717479373E+04  0.19717479373E+04  0.25500000920E-02 0. -1.
        2   -1    0    0  501    0  0.00000000000E+00  0.00000000000E+00 -0.17460160791E+04  0.17460160791E+04  0.25500000920E-02 0.  1.
    10030    2    1    2    0    0  0.00000000000E+00  0.00000000000E+00  0.22573185818E+03  0.37177640163E+04  0.37109047966E+04 0.  0.
        2    1    3    3  502    0  0.13833008827E+04  0.97084843264E+03  0.88020305480E+03  0.19054724949E+04  0.25500000920E-02 0. -1.
       -2    1    3    3    0  502 -0.13833008827E+04 -0.97084843264E+03 -0.65447119662E+03  0.18122915214E+04  0.25500000920E-02 0.  1.
</event>
<event>
 5   0  0.5177000E-08  0.3697788E+04  0.7818609E-02  0.8068452E-01
        1   -1    0    0  501    0  0.00000000000E+00  0.00000000000E+00  0.30102072276E+04  0.30102072277E+04  0.50400001928E-02 0.  1.
       -1   -1    0    0    0  501  0.00000000000E+00  0.00000000000E+00 -0.11356056943E+04  0.11356056943E+04  0.50400001928E-02 0. -1.
    10030    2    1    2    0    0  0.00000000000E+00  0.00000000000E+00  0.18746015333E+04  0.41458129220E+04  0.36977877002E+04 0.  0.
        1    1    3    3  502    0 -0.48471523907E+03  0.17715295437E+04  0.11755115427E+04  0.21806176131E+04  0.50400001928E-02 0. -1.
       -1    1    3    3    0  502  0.48471523907E+03 -0.17715295437E+04  0.69908999059E+03  0.19651953089E+04  0.50400001928E-02 0.  1.
</event>
<event>
 5   0  0.1658770E-07  0.3699001E+04  0.7818609E-02  0.8068183E-01
       -2   -1    0    0    0  501  0.00000000000E+00  0.00000000000E+00  0.17687170716E+04  0.17687170716E+04  0.25500000920E-02 0.  1.
        2   -1    0    0  501    0  0.00000000000E+00  0.00000000000E+00 -0.19339738009E+04  0.19339738009E+04  0.25500000920E-02 0. -1.
    10030    2    1    2    0    0  0.00000000000E+00  0.00000000000E+00 -0.16525672934E+03  0.37026908725E+04  0.36990012045E+04 0.  0.
        2    1    3    3  502    0 -0.91296545515E+03  0.99390777401E+03 -0.13485217254E+04  0.19078441837E+04  0.25500000920E-02 0. -1.
       -2    1    3    3    0  502  0.91296545515E+03 -0.99390777401E+03  0.11832649960E+04  0.17948466888E+04  0.25500000920E-02 0.  1.
</event>
<event>
 5   0  0.1658770E-07  0.3703207E+04  0.7818609E-02  0.8067251E-01
       -2   -1    0    0    0  501  0.00000000000E+00  0.00000000000E+00  0.12867748114E+04  0.12867748114E+04  0.25500000920E-02 0. -1.
        2   -1    0    0  501    0  0.00000000000E+00  0.00000000000E+00 -0.26643636939E+04  0.26643636939E+04  0.25500000920E-02 0.  1.
    10030    2    1    2    0    0  0.00000000000E+00  0.00000000000E+00 -0.13775888825E+04  0.39511385053E+04  0.37032073070E+04 0.  0.
        2    1    3    3  502    0 -0.12608245613E+04 -0.13487201804E+04 -0.53899753041E+03  0.19233416330E+04  0.25500000920E-02 0. -1.
       -2    1    3    3    0  502  0.12608245613E+04  0.13487201804E+04 -0.83859135211E+03  0.20277968723E+04  0.25500000920E-02 0.  1.
</event>
<event>
 5   0  0.5177000E-08  0.3716064E+04  0.7818609E-02  0.8064411E-01
        1   -1    0    0  501    0  0.00000000000E+00  0.00000000000E+00  0.26038014055E+04  0.26038014055E+04  0.50400001928E-02 0. -1.
       -1   -1    0    0    0  501  0.00000000000E+00  0.00000000000E+00 -0.13258628255E+04  0.13258628255E+04  0.50400001928E-02 0.  1.
    10030    2    1    2    0    0  0.00000000000E+00  0.00000000000E+00  0.12779385801E+04  0.39296642310E+04  0.37160643097E+04 0.  0.
        3    1    3    3  502    0  0.60065207531E+02 -0.18533052089E+04  0.76380325013E+03  0.20054284933E+04  0.10100000352E+00 0. -1.
       -3    1    3    3    0  502 -0.60065207531E+02  0.18533052089E+04  0.51413532993E+03  0.19242357377E+04  0.10100000352E+00 0.  1.
</event>
<event>
 5   0  0.5177000E-08  0.3692283E+04  0.7818609E-02  0.8069674E-01
        1   -1    0    0  501    0  0.00000000000E+00  0.00000000000E+00  0.20395139208E+04  0.20395139208E+04  0.50400001928E-02 0. -1.
       -1   -1    0    0    0  501  0.00000000000E+00  0.00000000000E+00 -0.16711031814E+04  0.16711031814E+04  0.50400001928E-02 0.  1.
    10030    2    1    2    0    0  0.00000000000E+00  0.00000000000E+00  0.36841073945E+03  0.37106171022E+04  0.36922828719E+04 0.  0.
        1    1    3    3  502    0 -0.13261105922E+04 -0.16339221377E+03  0.14644904199E+04  0.19824223839E+04  0.50400001928E-02 0. -1.
       -1    1    3    3    0  502  0.13261105922E+04  0.16339221377E+03 -0.10960796804E+04  0.17281947183E+04  0.50400001928E-02 0.  1.
</event>
<event>
 5   0  0.5177000E-08  0.3683158E+04  0.7818609E-02  0.8071705E-01
        1   -1    0    0  501    0  0.00000000000E+00  0.00000000000E+00  0.17542213332E+04  0.17542213332E+04  0.50400001928E-02 0. -1.
       -1   -1    0    0    0  501  0.00000000000E+00  0.00000000000E+00 -0.19332868932E+04  0.19332868932E+04  0.50400001928E-02 0.  1.
    10030    2    1    2    0    0  0.00000000000E+00  0.00000000000E+00 -0.17906556001E+03  0.36875082264E+04  0.36831579446E+04 0.  0.
        3    1    3    3  502    0  0.10311591120E+03 -0.16654119565E+04 -0.86967276389E+03  0.18816377448E+04  0.10100000352E+00 0.  1.
       -3    1    3    3    0  502 -0.10311591120E+03  0.16654119565E+04  0.69060720387E+03  0.18058704816E+04  0.10100000352E+00 0. -1.
</event>
<event>
 5   0  0.5177000E-08  0.3708910E+04  0.7818609E-02  0.8065990E-01
       -3   -1    0    0    0  501  0.00000000000E+00  0.00000000000E+00  0.18042850127E+04  0.18042850155E+04  0.10100000352E+00 0.  1.
        3   -1    0    0  501    0  0.00000000000E+00  0.00000000000E+00 -0.19060200464E+04  0.19060200490E+04  0.10100000352E+00 0. -1.
    10030    2    1    2    0    0  0.00000000000E+00  0.00000000000E+00 -0.10173503371E+03  0.37103050645E+04  0.37089100360E+04 0.  0.
        5    1    3    3  502    0 -0.58046921565E+03  0.14737144183E+04  0.91396537570E+03  0.18286972125E+04  0.46999998093E+01 0. -1.
       -5    1    3    3    0  502  0.58046921565E+03 -0.14737144183E+04 -0.10157004094E+04  0.18816078520E+04  0.46999998093E+01 0.  1.
</event>
<event>
 5   0  0.5177000E-08  0.3707978E+04  0.7818609E-02  0.8066196E-01
        1   -1    0    0  501    0  0.00000000000E+00  0.00000000000E+00  0.20328447140E+04  0.20328447140E+04  0.50400001928E-02 0.  1.
       -1   -1    0    0    0  501  0.00000000000E+00  0.00000000000E+00 -0.16908691331E+04  0.16908691331E+04  0.50400001928E-02 0. -1.
    10030    2    1    2    0    0  0.00000000000E+00  0.00000000000E+00  0.34197558098E+03  0.37237138471E+04  0.37079775508E+04 0.  0.
        4    1    3    3  502    0 -0.18034695427E+04 -0.36797834157E+03 -0.52131419532E+02  0.18413662724E+04  0.12699999809E+01 0.  1.
       -4    1    3    3    0  502  0.18034695427E+04  0.36797834157E+03  0.39410700051E+03  0.18823475747E+04  0.12699999809E+01 0. -1.
</event>
<event>
 5   0  0.5177000E-08  0.3695823E+04  0.7818609E-02  0.8068888E-01
       -1   -1    0    0    0  501  0.00000000000E+00  0.00000000000E+00  0.22048722134E+04  0.22048722135E+04  0.50400001928E-02 0. -1.
        1   -1    0    0  501    0  0.00000000000E+00  0.00000000000E+00 -0.15487413592E+04  0.15487413592E+04  0.50400001928E-02 0.  1.
    10030    2    1    2    0    0  0.00000000000E+00  0.00000000000E+00  0.65613085421E+03  0.37536135727E+04  0.36958229334E+04 0.  0.
        4    1    3    3  502    0 -0.73259495814E+03 -0.12560077562E+04 -0.83017213103E+03  0.16743471075E+04  0.12699999809E+01 0. -1.
       -4    1    3    3    0  502  0.73259495814E+03  0.12560077562E+04  0.14863029852E+04  0.20792664652E+04  0.12699999809E+01 0.  1.
</event>
<event>
 5   0  0.1558258E-07  0.3695473E+04  0.7818609E-02  0.8068966E-01
       -2   -1    0    0    0  501  0.00000000000E+00  0.00000000000E+00  0.17513972528E+04  0.17513972528E+04  0.25500000920E-02 0. -1.
        2   -1    0    0  501    0  0.00000000000E+00  0.00000000000E+00 -0.19493747593E+04  0.19493747594E+04  0.25500000920E-02 0.  1.
    10030    2    1    2    0    0  0.00000000000E+00  0.00000000000E+00 -0.19797750652E+03  0.37007720122E+04  0.36954726887E+04 0.  0.
        1    1    3    3  502    0  0.87080674506E+03 -0.47520683519E+03 -0.16600710518E+04  0.19338980895E+04  0.50400001928E-02 0.  1.
       -1    1    3    3    0  502 -0.87080674506E+03  0.47520683519E+03  0.14620935453E+04  0.17668739227E+04  0.50400001928E-02 0. -1.
</event>
<event>
 5   0  0.1587026E-07  0.3697103E+04  0.7818609E-02  0.8068604E-01
        2   -1    0    0  501    0  0.00000000000E+00  0.00000000000E+00  0.18682563331E+04  0.18682563331E+04  0.25500000920E-02 0.  1.
       -2   -1    0    0    0  501  0.00000000000E+00  0.00000000000E+00 -0.18290547644E+04  0.18290547644E+04  0.25500000920E-02 0. -1.
    10030    2    1    2    0    0  0.00000000000E+00  0.00000000000E+00  0.39201568785E+02  0.36973110975E+04  0.36971032699E+04 0.  0.
        3    1    3    3  502    0  0.44823762182E+03  0.17080306409E+04  0.56631012379E+03  0.18544521569E+04  0.10100000352E+00 0. -1.
       -3    1    3    3    0  502 -0.44823762182E+03 -0.17080306409E+04 -0.52710855501E+03  0.18428589406E+04  0.10100000352E+00 0.  1.
</event>
<event>
 5   0  0.5177000E-08  0.3706879E+04  0.7818609E-02  0.8066439E-01
       -3   -1    0    0    0  501  0.00000000000E+00  0.00000000000E+00  0.18298557229E+04  0.18298557256E+04  0.10100000352E+00 0. -1.
        3   -1    0    0  501    0  0.00000000000E+00  0.00000000000E+00 -0.18773272314E+04  0.18773272341E+04  0.10100000352E+00 0.  1.
    10030    2    1    2    0    0  0.00000000000E+00  0.00000000000E+00 -0.47471508513E+02  0.37071829597E+04  0.37068790043E+04 0.  0.
        1    1    3    3  502    0 -0.17374185176E+04 -0.60325332299E+03  0.20584855274E+03  0.18506515890E+04  0.50400001928E-02 0.  1.
       -1    1    3    3    0  502  0.17374185176E+04  0.60325332299E+03 -0.25332006125E+03  0.18565313707E+04  0.50400001928E-02 0. -1.
</event>
<event>
 5   0  0.1658770E-07  0.3717283E+04  0.7818609E-02  0.8064142E-01
       -2   -1    0    0    0  501  0.00000000000E+00  0.00000000000E+00  0.16807626534E+04  0.16807626534E+04  0.25500000920E-02 0.  1.
        2   -1    0    0  501    0  0.00000000000E+00  0.00000000000E+00 -0.20553460600E+04  0.20553460600E+04  0.25500000920E-02 0. -1.
    10030    2    1    2    0    0  0.00000000000E+00  0.00000000000E+00 -0.37458340665E+03  0.37361087134E+04  0.37172833615E+04 0.  0.
        2    1    3    3  502    0  0.22318978362E+03 -0.17750327097E+04  0.31923885280E+03  0.18172694476E+04  0.25500000920E-02 0.  1.
       -2    1    3    3    0  502 -0.22318978362E+03  0.17750327097E+04 -0.69382225945E+03  0.19188392657E+04  0.25500000920E-02 0. -1.
</event>
<event>
 5   0  0.1666189E-07  0.3702590E+04  0.7818609E-02  0.8067388E-01
       -2   -1    0    0    0  501  0.00000000000E+00  0.00000000000E+00  0.12433403954E+04  0.12433403954E+04  0.25500000920E-02 0. -1.
        2   -1    0    0  501    0  0.00000000000E+00  0.00000000000E+00 -0.27565198237E+04  0.27565198237E+04  0.25500000920E-02 0.  1.
    10030    2    1    2    0    0  0.00000000000E+00  0.00000000000E+00 -0.15131794283E+04  0.39998602190E+04  0.37025896059E+04 0.  0.
        4    1    3    3  502    0 -0.91682030030E+03 -0.42150637732E+02 -0.24934532791E+04  0.26569996250E+04  0.12699999809E+01 0.  1.
       -4    1    3    3    0  502  0.91682030030E+03  0.42150637732E+02  0.98027385084E+03  0.13428605940E+04  0.12699999809E+01 0. -1.
</event>
<event>
 5   0  0.5177000E-08  0.3726413E+04  0.7818609E-02  0.8062133E-01
        1   -1    0    0  501    0  0.00000000000E+00  0.00000000000E+00  0.17599175908E+04  0.17599175908E+04  0.50400001928E-02 0. -1.
       -1   -1    0    0    0  501  0.00000000000E+00  0.00000000000E+00 -0.19725576863E+04  0.19725576863E+04  0.50400001928E-02 0.  1.
    10030    2    1    2    0    0  0.00000000000E+00  0.00000000000E+00 -0.21264009552E+03  0.37324752771E+04  0.37264132734E+04 0.  0.
        4    1    3    3  502    0  0.46937328078E+02 -0.89841480061E+03 -0.17405947012E+04  0.19593426942E+04  0.12699999809E+01 0.  1.
       -4    1    3    3    0  502 -0.46937328078E+02  0.89841480061E+03  0.15279546056E+04  0.17731325829E+04  0.12699999809E+01 0. -1.
</event>
<event>
 5   0  0.1686284E-07  0.3678024E+04  0.7818609E-02  0.8072850E-01
       -2   -1    0    0    0  501  0.00000000000E+00  0.00000000000E+00  0.11132952434E+04  0.11132952434E+04  0.25500000920E-02 0.  1.
        2   -1    0    0  501    0  0.00000000000E+00  0.00000000000E+00 -0.30377966460E+04  0.30377966460E+04  0.25500000920E-02 0. -1.
    10030    2    1    2    0    0  0.00000000000E+00  0.00000000000E+00 -0.19245014025E+04  0.41510918894E+04  0.36780236848E+04 0.  0.
        5    1    3    3  502    0  0.14841030179E+04 -0.90729704555E+03 -0.16358325498E+04  0.23878274472E+04  0.46999998093E+01 0. -1.
       -5    1    3    3    0  502 -0.14841030179E+04  0.90729704555E+03 -0.28866885269E+03  0.17632644422E+04  0.46999998093E+01 0.  1.
</event>
<event>
 5   0  0.1558258E-07  0.3684831E+04  0.7818609E-02  0.8071332E-01
        2   -1    0    0  501    0  0.00000000000E+00  0.00000000000E+00  0.13905740013E+04  0.13905740013E+04  0.25500000920E-02 0. -1.
       -2   -1    0    0    0  501  0.00000000000E+00  0.00000000000E+00 -0.24410742027E+04  0.24410742027E+04  0.25500000920E-02 0.  1.
    10030    2    1    2    0    0  0.00000000000E+00  0.00000000000E+00 -0.10505002014E+04  0.38316482040E+04  0.36848306998E+04 0.  0.
        1    1    3    3  502    0 -0.13447588274E+04  0.10480788127E+04 -0.12513923032E+04  0.21149061913E+04  0.50400001928E-02 0.  1.
       -1    1    3    3    0  502  0.13447588274E+04 -0.10480788127E+04  0.20089210171E+03  0.17167420127E+04  0.50400001928E-02 0. -1.
</event>
<event>
 5   0  0.5177000E-08  0.3699273E+04  0.7818609E-02  0.8068123E-01
       -1   -1    0    0    0  501  0.00000000000E+00  0.00000000000E+00  0.13406886576E+04  0.13406886576E+04  0.50400001928E-02 0. -1.
        1   -1    0    0  501    0  0.00000000000E+00  0.00000000000E+00 -0.25517892804E+04  0.25517892804E+04  0.50400001928E-02 0.  1.
    10030    2    1    2    0    0  0.00000000000E+00  0.00000000000E+00 -0.12111006228E+04  0.38924779379E+04  0.36992728716E+04 0.  0.
        4    1    3    3  502    0  0.96225126861E+03  0.12265640456E+04  0.44180838329E+03  0.16203651201E+04  0.12699999809E+01 0. -1.
       -4    1    3    3    0  502 -0.96225126861E+03 -0.12265640456E+04 -0.16529090061E+04  0.22721128179E+04  0.12699999809E+01 0.  1.
</event>
<event>
 5   0  0.5177000E-08  0.3725483E+04  0.7818609E-02  0.8062338E-01
        1   -1    0    0  501    0  0.00000000000E+00  0.00000000000E+00  0.19337868194E+04  0.19337868194E+04  0.50400001928E-02 0.  1.
       -1   -1    0    0    0  501  0.00000000000E+00  0.00000000000E+00 -0.17943062535E+04  0.17943062536E+04  0.50400001928E-02 0. -1.
    10030    2    1    2    0    0  0.00000000000E+00  0.00000000000E+00  0.13948056589E+03  0.37280930730E+04  0.37254829395E+04 0.  0.
        3    1    3    3  502    0 -0.11983772212E+04 -0.62887200107E+03 -0.12110852878E+04  0.18161265216E+04  0.10100000352E+00 0. -1.
       -3    1    3    3    0  502  0.11983772212E+04  0.62887200107E+03  0.13505658537E+04  0.19119665513E+04  0.10100000352E+00 0.  1.
</event>
<event>
 5   0  0.1666189E-07  0.3706383E+04  0.7818609E-02  0.8066549E-01
        2   -1    0    0  501    0  0.00000000000E+00  0.00000000000E+00  0.16529219733E+04  0.16529219733E+04  0.25500000920E-02 0. -1.
       -2   -1    0    0    0  501  0.00000000000E+00  0.00000000000E+00 -0.20777262946E+04  0.20777262946E+04  0.25500000920E-02 0.  1.
    10030    2    1    2    0    0  0.00000000000E+00  0.00000000000E+00 -0.42480432131E+03  0.37306482679E+04  0.37063833837E+04 0.  0.
        4    1    3    3  502    0 -0.76111315961E+03  0.14007782126E+03 -0.19072914935E+04  0.20583190938E+04  0.12699999809E+01 0.  1.
       -4    1    3    3    0  502  0.76111315961E+03 -0.14007782126E+03  0.14824871722E+04  0.16723291741E+04  0.12699999809E+01 0. -1.
</event>
<event>
 5   0  0.1587026E-07  0.3656042E+04  0.7818609E-02  0.8077774E-01
        2   -1    0    0  501    0  0.00000000000E+00  0.00000000000E+00  0.22739104643E+04  0.22739104643E+04  0.25500000920E-02 0. -1.
       -2   -1    0    0    0  501  0.00000000000E+00  0.00000000000E+00 -0.14695658178E+04  0.14695658178E+04  0.25500000920E-02 0.  1.
    10030    2    1    2    0    0  0.00000000000E+00  0.00000000000E+00  0.80434464646E+03  0.37434762821E+04  0.36560421721E+04 0.  0.
        3    1    3    3  502    0 -0.73238862596E+03 -0.10881001505E+04 -0.90158388678E+03  0.15916056522E+04  0.10100000352E+00 0.  1.
       -3    1    3    3    0  502  0.73238862596E+03  0.10881001505E+04  0.17059285332E+04  0.21518706299E+04  0.10100000352E+00 0. -1.
</event>
<event>
 5   0  0.1658770E-07  0.3706449E+04  0.7818609E-02  0.8066534E-01
        2   -1    0    0  501    0  0.00000000000E+00  0.00000000000E+00  0.23503364890E+04  0.23503364890E+04  0.25500000920E-02 0. -1.
       -2   -1    0    0    0  501  0.00000000000E+00  0.00000000000E+00 -0.14612548601E+04  0.14612548601E+04  0.25500000920E-02 0.  1.
    10030    2    1    2    0    0  0.00000000000E+00  0.00000000000E+00  0.88908162885E+03  0.38115913491E+04  0.37064487680E+04 0.  0.
        2    1    3    3  502    0 -0.95317428172E+03  0.10508883794E+04  0.16706433969E+04  0.21917930917E+04  0.25500000920E-02 0. -1.
       -2    1    3    3    0  502  0.95317428172E+03 -0.10508883794E+04 -0.78156176807E+03  0.16197982574E+04  0.25500000920E-02 0.  1.
</event>
<event>
 5   0  0.1658770E-07  0.3701056E+04  0.7818609E-02  0.8067728E-01
       -2   -1    0    0    0  501  0.00000000000E+00  0.00000000000E+00  0.18827461594E+04  0.18827461594E+04  0.25500000920E-02 0. -1.
        2   -1    0    0  501    0  0.00000000000E+00  0.00000000000E+00 -0.18188615484E+04  0.18188615484E+04  0.25500000920E-02 0.  1.
    10030    2    1    2    0    0  0.00000000000E+00  0.00000000000E+00  0.63884611066E+02  0.37016077078E+04  0.37010563869E+04 0.  0.
        2    1    3    3  502    0 -0.10510256765E+04  0.11884322401E+04  0.98467458681E+03  0.18672466907E+04  0.25500000920E-02 0. -1.
       -2    1    3    3    0  502  0.10510256765E+04 -0.11884322401E+04 -0.92078997574E+03  0.18343610172E+04  0.25500000920E-02 0.  1.
</event>
<event>
 5   0  0.1666189E-07  0.3698729E+04  0.7818609E-02  0.8068243E-01
       -2   -1    0    0    0  501  0.00000000000E+00  0.00000000000E+00  0.17012546104E+04  0.17012546104E+04  0.25500000920E-02 0.  1.
        2   -1    0    0  501    0  0.00000000000E+00  0.00000000000E+00 -0.20103691573E+04  0.20103691573E+04  0.25500000920E-02 0. -1.
    10030    2    1    2    0    0  0.00000000000E+00  0.00000000000E+00 -0.30911454693E+03  0.37116237677E+04  0.36987294021E+04 0.  0.
        4    1    3    3  502    0  0.96175042131E+03  0.11000752376E+04  0.98298128192E+03  0.17610744489E+04  0.12699999809E+01 0.  1.
       -4    1    3    3    0  502 -0.96175042131E+03 -0.11000752376E+04 -0.12920958288E+04  0.19505493188E+04  0.12699999809E+01 0. -1.
</event>
<event>
 5   0  0.1686284E-07  0.3707825E+04  0.7818609E-02  0.8066230E-01
       -2   -1    0    0    0  501  0.00000000000E+00  0.00000000000E+00  0.13337279374E+04  0.13337279374E+04  0.25500000920E-02 0. -1.
        2   -1    0    0  501    0  0.00000000000E+00  0.00000000000E+00 -0.25769805829E+04  0.25769805829E+04  0.25500000920E-02 0.  1.
    10030    2    1    2    0    0  0.00000000000E+00  0.00000000000E+00 -0.12432526455E+04  0.39107085204E+04  0.37078246980E+04 0.  0.
        5    1    3    3  502    0  0.56616744027E+03 -0.17159900027E+04 -0.18445676015E+03  0.18163737628E+04  0.46999998093E+01 0. -1.
       -5    1    3    3    0  502 -0.56616744027E+03  0.17159900027E+04 -0.10587958853E+04  0.20943347575E+04  0.46999998093E+01 0.  1.
</event>
<event>
 5   0  0.1686284E-07  0.3707423E+04  0.7818609E-02  0.8066319E-01
        2   -1    0    0  501    0  0.00000000000E+00  0.00000000000E+00  0.12310179999E+04  0.12310179999E+04  0.25500000920E-02 0.  1.
       -2   -1    0    0    0  501  0.00000000000E+00  0.00000000000E+00 -0.27913860218E+04  0.27913860218E+04  0.25500000920E-02 0. -1.
    10030    2    1    2    0    0  0.00000000000E+00  0.00000000000E+00 -0.15603680218E+04  0.40224040217E+04  0.37074230606E+04 0.  0.
        5    1    3    3  502    0  0.11610177246E+03  0.17018933019E+04 -0.15672875109E+04  0.23165346240E+04  0.46999998093E+01 0. -1.
       -5    1    3    3    0  502 -0.11610177246E+03 -0.17018933019E+04  0.69194890630E+01  0.17058693977E+04  0.46999998093E+01 0.  1.
</event>
<event>
 5   0  0.1587026E-07  0.3702276E+04  0.7818609E-02  0.8067458E-01
        2   -1    0    0  501    0  0.00000000000E+00  0.00000000000E+00  0.14745543412E+04  0.14745543412E+04  0.25500000920E-02 0. -1.
       -2   -1    0    0    0  501  0.00000000000E+00  0.00000000000E+00 -0.23238961402E+04  0.23238961402E+04  0.25500000920E-02 0.  1.
    10030    2    1    2    0    0  0.00000000000E+00  0.00000000000E+00 -0.84934179902E+03  0.37984504813E+04  0.37022755931E+04 0.  0.
        3    1    3    3  502    0 -0.47945319413E+03 -0.96300089724E+02 -0.22564244816E+04  0.23088093304E+04  0.10100000352E+00 0.  1.
       -3    1    3    3    0  502  0.47945319413E+03  0.96300089724E+02  0.14070826826E+04  0.14896411509E+04  0.10100000352E+00 0. -1.
</event>
<event>
 5   0  0.5177000E-08  0.3695921E+04  0.7818609E-02  0.8068866E-01
        1   -1    0    0  501    0  0.00000000000E+00  0.00000000000E+00  0.15545028714E+04  0.15545028714E+04  0.50400001928E-02 0. -1.
       -1   -1    0    0    0  501  0.00000000000E+00  0.00000000000E+00 -0.21968167533E+04  0.21968167533E+04  0.50400001928E-02 0.  1.
    10030    2    1    2    0    0  0.00000000000E+00  0.00000000000E+00 -0.64231388196E+03  0.37513196247E+04  0.36959209683E+04 0.  0.
        1    1    3    3  502    0 -0.16104798433E+04  0.90503632870E+03 -0.27331369848E+03  0.18674679274E+04  0.50400001928E-02 0.  1.
       -1    1    3    3    0  502  0.16104798433E+04 -0.90503632870E+03 -0.36900018348E+03  0.18838516973E+04  0.50400001928E-02 0. -1.
</event>
<event>
 5   0  0.5177000E-08  0.3703682E+04  0.7818609E-02  0.8067146E-01
        1   -1    0    0  501    0  0.00000000000E+00  0.00000000000E+00  0.23764389328E+04  0.23764389328E+04  0.50400001928E-02 0.  1.
       -1   -1    0    0    0  501  0.00000000000E+00  0.00000000000E+00 -0.14430475462E+04  0.14430475462E+04  0.50400001928E-02 0. -1.
    10030    2    1    2    0    0  0.00000000000E+00  0.00000000000E+00  0.93339138656E+03  0.38194864790E+04  0.37036816120E+04 0.  0.
        1    1    3    3  502    0 -0.38735159398E+03  0.70553139402E+03  0.21866256139E+04  0.23300530854E+04  0.50400001928E-02 0.  1.
       -1    1    3    3    0  502  0.38735159398E+03 -0.70553139402E+03 -0.12532342274E+04  0.14894333936E+04  0.50400001928E-02 0. -1.
</event>
<event>
 5   0  0.1658770E-07  0.3913056E+04  0.7818609E-02  0.8022319E-01
       -2   -1    0    0    0  501  0.00000000000E+00  0.00000000000E+00  0.12366174386E+04  0.12366174386E+04  0.25500000920E-02 0.  1.
        2   -1    0    0  501    0  0.00000000000E+00  0.00000000000E+00 -0.30955427117E+04  0.30955427117E+04  0.25500000920E-02 0. -1.
    10030    2    1    2    0    0  0.00000000000E+00  0.00000000000E+00 -0.18589252732E+04  0.43321601503E+04  0.39130561454E+04 0.  0.
        2    1    3    3  502    0 -0.84660949711E+02  0.96529449850E+03 -0.28112272095E+04  0.29735432348E+04  0.25500000920E-02 0. -1.
       -2    1    3    3    0  502  0.84660949711E+02 -0.96529449850E+03  0.95230193637E+03  0.13586169156E+04  0.25500000920E-02 0.  1.
</event>
<event>
 5   0  0.1666189E-07  0.3704611E+04  0.7818609E-02  0.8066941E-01
       -2   -1    0    0    0  501  0.00000000000E+00  0.00000000000E+00  0.20371407526E+04  0.20371407526E+04  0.25500000920E-02 0.  1.
        2   -1    0    0  501    0  0.00000000000E+00  0.00000000000E+00 -0.16842411844E+04  0.16842411844E+04  0.25500000920E-02 0. -1.
    10030    2    1    2    0    0  0.00000000000E+00  0.00000000000E+00  0.35289956814E+03  0.37213819370E+04  0.37046113718E+04 0.  0.
        4    1    3    3  502    0 -0.32627062947E+02  0.13603095350E+03 -0.16789269246E+04  0.16847451370E+04  0.12699999809E+01 0. -1.
       -4    1    3    3    0  502  0.32627062947E+02 -0.13603095350E+03  0.20318264928E+04  0.20366368000E+04  0.12699999809E+01 0.  1.
</event>
<event>
 5   0  0.5181371E-08  0.3716256E+04  0.7818609E-02  0.8064369E-01
        1   -1    0    0  501    0  0.00000000000E+00  0.00000000000E+00  0.13967831837E+04  0.13967831837E+04  0.50400001928E-02 0. -1.
       -1   -1    0    0    0  501  0.00000000000E+00  0.00000000000E+00 -0.24718504996E+04  0.24718504996E+04  0.50400001928E-02 0.  1.
    10030    2    1    2    0    0  0.00000000000E+00  0.00000000000E+00 -0.10750673159E+04  0.38686336833E+04  0.37162557557E+04 0.  0.
        5    1    3    3  502    0  0.36493368415E+03  0.17634909350E+04 -0.10140587148E+04  0.20667399542E+04  0.46999998093E+01 0.  1.
       -5    1    3    3    0  502 -0.36493368415E+03 -0.17634909350E+04 -0.61008601162E+02  0.18018937291E+04  0.46999998093E+01 0. -1.
</event>
<event>
 5   0  0.1558258E-07  0.3710618E+04  0.7818609E-02  0.8065613E-01
       -2   -1    0    0    0  501  0.00000000000E+00  0.00000000000E+00  0.21704187319E+04  0.21704187319E+04  0.25500000920E-02 0.  1.
        2   -1    0    0  501    0  0.00000000000E+00  0.00000000000E+00 -0.15859484309E+04  0.15859484309E+04  0.25500000920E-02 0. -1.
    10030    2    1    2    0    0  0.00000000000E+00  0.00000000000E+00  0.58447030099E+03  0.37563671628E+04  0.37106183755E+04 0.  0.
        1    1    3    3  502    0  0.11864528212E+04  0.35330764140E+03  0.16911830598E+04  0.20958522677E+04  0.50400001928E-02 0.  1.
       -1    1    3    3    0  502 -0.11864528212E+04 -0.35330764140E+03 -0.11067127588E+04  0.16605148951E+04  0.50400001928E-02 0. -1.
</event>
<event>
 5   0  0.5181371E-08  0.3701141E+04  0.7818609E-02  0.8067709E-01
        1   -1    0    0  501    0  0.00000000000E+00  0.00000000000E+00  0.20220746891E+04  0.20220746891E+04  0.50400001928E-02 0. -1.
       -1   -1    0    0    0  501  0.00000000000E+00  0.00000000000E+00 -0.16936128272E+04  0.16936128272E+04  0.50400001928E-02 0.  1.
    10030    2    1    2    0    0  0.00000000000E+00  0.00000000000E+00  0.32846186190E+03  0.37156875163E+04  0.37011412461E+04 0.  0.
        5    1    3    3  502    0  0.36381000646E+03  0.10141506463E+04 -0.13462521487E+04  0.17243190517E+04  0.46999998093E+01 0.  1.
       -5    1    3    3    0  502 -0.36381000646E+03 -0.10141506463E+04  0.16747140106E+04  0.19913684645E+04  0.46999998093E+01 0. -1.
</event>
<event>
 5   0  0.5177000E-08  0.3688137E+04  0.7818609E-02  0.8070596E-01
       -1   -1    0    0    0  501  0.00000000000E+00  0.00000000000E+00  0.10039699084E+04  0.10039699084E+04  0.50400001928E-02 0.  1.
        1   -1    0    0  501    0  0.00000000000E+00  0.00000000000E+00 -0.33871412494E+04  0.33871412494E+04  0.50400001928E-02 0. -1.
    10030    2    1    2    0    0  0.00000000000E+00  0.00000000000E+00 -0.23831713410E+04  0.43911111578E+04  0.36881365972E+04 0.  0.
        4    1    3    3  502    0  0.15121873821E+04 -0.35307160477E+03 -0.74185223395E+01  0.15528769700E+04  0.12699999809E+01 0.  1.
       -4    1    3    3    0  502 -0.15121873821E+04  0.35307160477E+03 -0.23757528187E+04  0.28382341878E+04  0.12699999809E+01 0. -1.
</event>
<event>
 5   0  0.5177000E-08  0.3709203E+04  0.7818609E-02  0.8065925E-01
       -1   -1    0    0    0  501  0.00000000000E+00  0.00000000000E+00  0.13523659790E+04  0.13523659790E+04  0.50400001928E-02 0.  1.
        1   -1    0    0  501    0  0.00000000000E+00  0.00000000000E+00 -0.25433547340E+04  0.25433547340E+04  0.50400001928E-02 0. -1.
    10030    2    1    2    0    0  0.00000000000E+00  0.00000000000E+00 -0.11909887550E+04  0.38957207130E+04  0.37092028334E+04 0.  0.
        1    1    3    3  502    0 -0.18407706957E+04  0.22557022530E+03 -0.61134407803E+03  0.19527058823E+04  0.50400001928E-02 0.  1.
       -1    1    3    3    0  502  0.18407706957E+04 -0.22557022530E+03 -0.57964467700E+03  0.19430148307E+04  0.50400001928E-02 0. -1.
</event>
<event>
 5   0  0.5177000E-08  0.3697600E+04  0.7818609E-02  0.8068494E-01
       -1   -1    0    0    0  501  0.00000000000E+00  0.00000000000E+00  0.16122116191E+04  0.16122116191E+04  0.50400001928E-02 0.  1.
        1   -1    0    0  501    0  0.00000000000E+00  0.00000000000E+00 -0.21201073585E+04  0.21201073585E+04  0.50400001928E-02 0. -1.
    10030    2    1    2    0    0  0.00000000000E+00  0.00000000000E+00 -0.50789573939E+03  0.37323189776E+04  0.36976001499E+04 0.  0.
        1    1    3    3  502    0  0.10708357200E+04 -0.11324615424E+04  0.74982568478E+03  0.17295655067E+04  0.50400001928E-02 0.  1.
       -1    1    3    3    0  502 -0.10708357200E+04  0.11324615424E+04 -0.12577214242E+04  0.20027534709E+04  0.50400001928E-02 0. -1.
</event>
<event>
 5   0  0.5177000E-08  0.3690275E+04  0.7818609E-02  0.8070120E-01
       -1   -1    0    0    0  501  0.00000000000E+00  0.00000000000E+00  0.18495749617E+04  0.18495749617E+04  0.50400001928E-02 0. -1.
        1   -1    0    0  501    0  0.00000000000E+00  0.00000000000E+00 -0.18407111176E+04  0.18407111176E+04  0.50400001928E-02 0.  1.
    10030    2    1    2    0    0  0.00000000000E+00  0.00000000000E+00  0.88638441109E+01  0.36902860793E+04  0.36902754341E+04 0.  0.
        1    1    3    3  502    0  0.90829189079E+03  0.15959615089E+04 -0.17569604731E+03  0.18447103832E+04  0.50400001928E-02 0.  1.
       -1    1    3    3    0  502 -0.90829189079E+03 -0.15959615089E+04  0.18455989142E+03  0.18455756962E+04  0.50400001928E-02 0. -1.
</event>
<event>
 5   0  0.5177000E-08  0.3702123E+04  0.7818609E-02  0.8067492E-01
       -1   -1    0    0    0  501  0.00000000000E+00  0.00000000000E+00  0.27760240082E+04  0.27760240082E+04  0.50400001928E-02 0.  1.
        1   -1    0    0  501    0  0.00000000000E+00  0.00000000000E+00 -0.12342935750E+04  0.12342935751E+04  0.50400001928E-02 0. -1.
    10030    2    1    2    0    0  0.00000000000E+00  0.00000000000E+00  0.15417304332E+04  0.40103175833E+04  0.37021229572E+04 0.  0.
        2    1    3    3  502    0 -0.50327162017E+03 -0.17804221357E+04  0.83255610177E+03  0.20288752962E+04  0.25500000920E-02 0. -1.
       -2    1    3    3    0  502  0.50327162017E+03  0.17804221357E+04  0.70917433142E+03  0.19814422871E+04  0.25500000920E-02 0.  1.
</event>
<event>
 5   0  0.5181371E-08  0.3647819E+04  0.7818609E-02  0.8079625E-01
        1   -1    0    0  501    0  0.00000000000E+00  0.00000000000E+00  0.10738919775E+04  0.10738919775E+04  0.50400001928E-02 0. -1.
       -1   -1    0    0    0  501  0.00000000000E+00  0.00000000000E+00 -0.30977468783E+04  0.30977468783E+04  0.50400001928E-02 0.  1.
    10030    2    1    2    0    0  0.00000000000E+00  0.00000000000E+00 -0.20238549008E+04  0.41716388558E+04  0.36478188118E+04 0.  0.
        5    1    3    3  502    0  0.53304019015E+03 -0.53908570661E+03 -0.29090179459E+04  0.30061857466E+04  0.46999998093E+01 0.  1.
       -5    1    3    3    0  502 -0.53304019015E+03  0.53908570661E+03  0.88516304507E+03  0.11654531092E+04  0.46999998093E+01 0. -1.
</event>
<event>
 5   0  0.1587026E-07  0.3690672E+04  0.7818609E-02  0.8070032E-01
        2   -1    0    0  501    0  0.00000000000E+00  0.00000000000E+00  0.14074576959E+04  0.14074576959E+04  0.25500000920E-02 0. -1.
       -2   -1    0    0    0  501  0.00000000000E+00  0.00000000000E+00 -0.24194436232E+04  0.24194436232E+04  0.25500000920E-02 0.  1.
    10030    2    1    2    0    0  0.00000000000E+00  0.00000000000E+00 -0.10119859273E+04  0.38269013191E+04  0.36906717801E+04 0.  0.
        3    1    3    3  502    0 -0.10638045284E+02 -0.48011013486E+03  0.13415283888E+04  0.14248920443E+04  0.10100000352E+00 0. -1.
       -3    1    3    3    0  502  0.10638045284E+02  0.48011013486E+03 -0.23535143162E+04  0.24020092748E+04  0.10100000352E+00 0.  1.
</event>
<event>
 5   0  0.5177000E-08  0.3699216E+04  0.7818609E-02  0.8068136E-01
        1   -1    0    0  501    0  0.00000000000E+00  0.00000000000E+00  0.20958221615E+04  0.20958221615E+04  0.50400001928E-02 0.  1.
       -1   -1    0    0    0  501  0.00000000000E+00  0.00000000000E+00 -0.16323184448E+04  0.16323184448E+04  0.50400001928E-02 0. -1.
    10030    2    1    2    0    0  0.00000000000E+00  0.00000000000E+00  0.46350371669E+03  0.37281406062E+04  0.36992156850E+04 0.  0.
        3    1    3    3  502    0  0.47807536259E+03 -0.15227142301E+04  0.11738523243E+04  0.19811976096E+04  0.10100000352E+00 0.  1.
       -3    1    3    3    0  502 -0.47807536259E+03  0.15227142301E+04 -0.71034860762E+03  0.17469429966E+04  0.10100000352E+00 0. -1.
</event>
<event>
 5   0  0.5177000E-08  0.3704679E+04  0.7818609E-02  0.8066926E-01
        1   -1    0    0  501    0  0.00000000000E+00  0.00000000000E+00  0.18143296309E+04  0.18143296309E+04  0.50400001928E-02 0. -1.
       -1   -1    0    0    0  501  0.00000000000E+00  0.00000000000E+00 -0.18911461075E+04  0.18911461076E+04  0.50400001928E-02 0.  1.
    10030    2    1    2    0    0  0.00000000000E+00  0.00000000000E+00 -0.76816476670E+02  0.37054757384E+04  0.37046794297E+04 0.  0.
        2    1    3    3  502    0 -0.94871648522E+03 -0.60011057522E+03 -0.15121450303E+04  0.18832892143E+04  0.25500000920E-02 0.  1.
       -2    1    3    3    0  502  0.94871648522E+03  0.60011057522E+03  0.14353285537E+04  0.18221865242E+04  0.25500000920E-02 0. -1.
</event>
<event>
 5   0  0.1686284E-07  0.3705327E+04  0.7818609E-02  0.8066782E-01
        2   -1    0    0  501    0  0.00000000000E+00  0.00000000000E+00  0.26879454873E+04  0.26879454873E+04  0.25500000920E-02 0.  1.
       -2   -1    0    0    0  501  0.00000000000E+00  0.00000000000E+00 -0.12769462584E+04  0.12769462584E+04  0.25500000920E-02 0. -1.
    10030    2    1    2    0    0  0.00000000000E+00  0.00000000000E+00  0.14109992290E+04  0.39648917457E+04  0.37053269398E+04 0.  0.
        5    1    3    3  502    0 -0.99236858175E+03  0.15025320160E+04  0.11718531595E+04  0.21484086619E+04  0.46999998093E+01 0.  1.
       -5    1    3    3    0  502  0.99236858175E+03 -0.15025320160E+04  0.23914606948E+03  0.18164830838E+04  0.46999998093E+01 0. -1.
</event>
<event>
 5   0  0.1587026E-07  0.3713806E+04  0.7818609E-02  0.8064909E-01
        2   -1    0    0  501    0  0.00000000000E+00  0.00000000000E+00  0.14986168965E+04  0.14986168965E+04  0.25500000920E-02 0. -1.
       -2   -1    0    0    0  501  0.00000000000E+00  0.00000000000E+00 -0.23008471329E+04  0.23008471329E+04  0.25500000920E-02 0.  1.
    10030    2    1    2    0    0  0.00000000000E+00  0.00000000000E+00 -0.80223023635E+03  0.37994640294E+04  0.37138058051E+04 0.  0.
        3    1    3    3  502    0 -0.26951829730E+03  0.36504626335E+02  0.14781287009E+04  0.15029428356E+04  0.10100000352E+00 0. -1.
       -3    1    3    3    0  502  0.26951829730E+03 -0.36504626335E+02 -0.22803589373E+04  0.22965211938E+04  0.10100000352E+00 0.  1.
</event>
<event>
 5   0  0.5177000E-08  0.3705174E+04  0.7818609E-02  0.8066816E-01
       -1   -1    0    0    0  501  0.00000000000E+00  0.00000000000E+00  0.21305331663E+04  0.21305331663E+04  0.50400001928E-02 0. -1.
        1   -1    0    0  501    0  0.00000000000E+00  0.00000000000E+00 -0.16109009933E+04  0.16109009933E+04  0.50400001928E-02 0.  1.
    10030    2    1    2    0    0  0.00000000000E+00  0.00000000000E+00  0.51963217306E+03  0.37414341596E+04  0.37051736768E+04 0.  0.
        1    1    3    3  502    0  0.15587915433E+04 -0.71850579043E+03 -0.44414076414E+03  0.17729474512E+04  0.50400001928E-02 0.  1.
       -1    1    3    3    0  502 -0.15587915433E+04  0.71850579043E+03  0.96377293720E+03  0.19684867084E+04  0.50400001928E-02 0. -1.
</event>
<event>
 5   0  0.1666189E-07  0.3588614E+04  0.7818609E-02  0.8093105E-01
        2   -1    0    0  501    0  0.00000000000E+00  0.00000000000E+00  0.20773377370E+04  0.20773377370E+04  0.25500000920E-02 0. -1.
       -2   -1    0    0    0  501  0.00000000000E+00  0.00000000000E+00 -0.15498386767E+04  0.15498386767E+04  0.25500000920E-02 0.  1.
    10030    2    1    2    0    0  0.00000000000E+00  0.00000000000E+00  0.52749906029E+03  0.36271764137E+04  0.35886144231E+04 0.  0.
        4    1    3    3  502    0 -0.42055509521E+03  0.11034261370E+04  0.16292369489E+04  0.20121705883E+04  0.12699999809E+01 0. -1.
       -4    1    3    3    0  502  0.42055509521E+03 -0.11034261370E+04 -0.11017378886E+04  0.16150058254E+04  0.12699999809E+01 0.  1.
</event>
<event>
 5   0  0.1558258E-07  0.3718804E+04  0.7818609E-02  0.8063807E-01
       -2   -1    0    0    0  501  0.00000000000E+00  0.00000000000E+00  0.12843113272E+04  0.12843113272E+04  0.25500000920E-02 0.  1.
        2   -1    0    0  501    0  0.00000000000E+00  0.00000000000E+00 -0.26920068992E+04  0.26920068992E+04  0.25500000920E-02 0. -1.
    10030    2    1    2    0    0  0.00000000000E+00  0.00000000000E+00 -0.14076955720E+04  0.39763182264E+04  0.37188035460E+04 0.  0.
        1    1    3    3  502    0  0.61618546579E+03  0.16180278922E+04  0.21095263564E+02  0.17315148854E+04  0.50400001928E-02 0.  1.
       -1    1    3    3    0  502 -0.61618546579E+03 -0.16180278922E+04 -0.14287908355E+04  0.22448033410E+04  0.50400001928E-02 0. -1.
</event>
<event>
 5   0  0.1587026E-07  0.3678501E+04  0.7818609E-02  0.8072743E-01
       -2   -1    0    0    0  501  0.00000000000E+00  0.00000000000E+00  0.12927541063E+04  0.12927541063E+04  0.25500000920E-02 0.  1.
        2   -1    0    0  501    0  0.00000000000E+00  0.00000000000E+00 -0.26167724343E+04  0.26167724343E+04  0.25500000920E-02 0. -1.
    10030    2    1    2    0    0  0.00000000000E+00  0.00000000000E+00 -0.13240183280E+04  0.39095265406E+04  0.36785014937E+04 0.  0.
        3    1    3    3  502    0 -0.61698879695E+03  0.73802983194E+03 -0.23280983023E+04  0.25190087185E+04  0.10100000352E+00 0. -1.
       -3    1    3    3    0  502  0.61698879695E+03 -0.73802983194E+03  0.10040799744E+04  0.13905178221E+04  0.10100000352E+00 0.  1.
</event>
<event>
 5   0  0.5181371E-08  0.3691460E+04  0.7818609E-02  0.8069857E-01
       -1   -1    0    0    0  501  0.00000000000E+00  0.00000000000E+00  0.15954177019E+04  0.15954177019E+04  0.50400001928E-02 0. -1.
        1   -1    0    0  501    0  0.00000000000E+00  0.00000000000E+00 -0.21353143861E+04  0.21353143861E+04  0.50400001928E-02 0.  1.
    10030    2    1    2    0    0  0.00000000000E+00  0.00000000000E+00 -0.53989668419E+03  0.37307320880E+04  0.36914595329E+04 0.  0.
        5    1    3    3  502    0 -0.95968852137E+03 -0.10934263198E+04 -0.14178636415E+04  0.20314877727E+04  0.46999998093E+01 0. -1.
       -5    1    3    3    0  502  0.95968852137E+03  0.10934263198E+04  0.87796695729E+03  0.16992443153E+04  0.46999998093E+01 0.  1.
</event>
<event>
 5   0  0.5177000E-08  0.3695264E+04  0.7818609E-02  0.8069012E-01
       -1   -1    0    0    0  501  0.00000000000E+00  0.00000000000E+00  0.12399624573E+04  0.12399624573E+04  0.50400001928E-02 0. -1.
        1   -1    0    0  501    0  0.00000000000E+00  0.00000000000E+00 -0.27531031496E+04  0.27531031496E+04  0.50400001928E-02 0.  1.
    10030    2    1    2    0    0  0.00000000000E+00  0.00000000000E+00 -0.15131406923E+04  0.39930656069E+04  0.36952642918E+04 0.  0.
        2    1    3    3  502    0  0.32615979808E+03  0.74915182528E+03  0.10341260161E+04  0.13179625519E+04  0.25500000920E-02 0. -1.
       -2    1    3    3    0  502 -0.32615979808E+03 -0.74915182528E+03 -0.25472667083E+04  0.26751030550E+04  0.25500000920E-02 0.  1.
</event>
<event>
 5   0  0.5177000E-08  0.3714567E+04  0.7818609E-02  0.8064741E-01
        1   -1    0    0  501    0  0.00000000000E+00  0.00000000000E+00  0.13640501804E+04  0.13640501804E+04  0.50400001928E-02 0.  1.
       -1   -1    0    0    0  501  0.00000000000E+00  0.00000000000E+00 -0.25288668696E+04  0.25288668696E+04  0.50400001928E-02 0. -1.
    10030    2    1    2    0    0  0.00000000000E+00  0.00000000000E+00 -0.11648166893E+04  0.38929170500E+04  0.37145666286E+04 0.  0.
        3    1    3    3  502    0  0.13669066908E+04  0.12571128919E+04 -0.55400397600E+03  0.19379595300E+04  0.10100000352E+00 0. -1.
       -3    1    3    3    0  502 -0.13669066908E+04 -0.12571128919E+04 -0.61081271327E+03  0.19549575200E+04  0.10100000352E+00 0.  1.
</event>
<event>
 5   0  0.1658770E-07  0.3579840E+04  0.7818609E-02  0.8095125E-01
        2   -1    0    0  501    0  0.00000000000E+00  0.00000000000E+00  0.21862668638E+04  0.21862668638E+04  0.25500000920E-02 0.  1.
       -2   -1    0    0    0  501  0.00000000000E+00  0.00000000000E+00 -0.14654268784E+04  0.14654268784E+04  0.25500000920E-02 0. -1.
    10030    2    1    2    0    0  0.00000000000E+00  0.00000000000E+00  0.72083998541E+03  0.36516937422E+04  0.35798403460E+04 0.  0.
        2    1    3    3  502    0  0.10029859911E+04  0.83460167934E+03 -0.88943773165E+03  0.15791264484E+04  0.25500000920E-02 0. -1.
       -2    1    3    3    0  502 -0.10029859911E+04 -0.83460167934E+03  0.16102777171E+04  0.20725672939E+04  0.25500000920E-02 0.  1.
</event>
<event>
 5   0  0.1666189E-07  0.3691362E+04  0.7818609E-02  0.8069879E-01
        2   -1    0    0  501    0  0.00000000000E+00  0.00000000000E+00  0.11293229865E+04  0.11293229865E+04  0.25500000920E-02 0.  1.
       -2   -1    0    0    0  501  0.00000000000E+00  0.00000000000E+00 -0.30164425728E+04  0.30164425728E+04  0.25500000920E-02 0. -1.
    10030    2    1    2    0    0  0.00000000000E+00  0.00000000000E+00 -0.18871195864E+04  0.41457655593E+04  0.36913617730E+04 0.  0.
        4    1    3    3  502    0  0.15601463908E+04 -0.83060036852E+03 -0.34653711420E+03  0.18011227935E+04  0.12699999809E+01 0. -1.
       -4    1    3    3    0  502 -0.15601463908E+04  0.83060036852E+03 -0.15405824722E+04  0.23446427658E+04  0.12699999809E+01 0.  1.
</event>
<event>
 5   0  0.5177000E-08  0.3704192E+04  0.7818609E-02  0.8067033E-01
        1   -1    0    0  501    0  0.00000000000E+00  0.00000000000E+00  0.23062335214E+04  0.23062335214E+04  0.50400001928E-02 0. -1.
       -1   -1    0    0    0  501  0.00000000000E+00  0.00000000000E+00 -0.14873860738E+04  0.14873860738E+04  0.50400001928E-02 0.  1.
    10030    2    1    2    0    0  0.00000000000E+00  0.00000000000E+00  0.81884744760E+03  0.37936195952E+04  0.37041920159E+04 0.  0.
        2    1    3    3  502    0 -0.95672841202E+03  0.12537095720E+04 -0.58517749528E+03  0.16821265250E+04  0.25500000920E-02 0.  1.
       -2    1    3    3    0  502  0.95672841202E+03 -0.12537095720E+04  0.14040249429E+04  0.21114930702E+04  0.25500000920E-02 0. -1.
</event>
<event>
 5   0  0.5181371E-08  0.3700582E+04  0.7818609E-02  0.8067833E-01
        1   -1    0    0  501    0  0.00000000000E+00  0.00000000000E+00  0.26379344576E+04  0.26379344576E+04  0.50400001928E-02 0.  1.
       -1   -1    0    0    0  501  0.00000000000E+00  0.00000000000E+00 -0.12978251328E+04  0.12978251328E+04  0.50400001928E-02 0. -1.
    10030    2    1    2    0    0  0.00000000000E+00  0.00000000000E+00  0.13401093249E+04  0.39357595904E+04  0.37005824611E+04 0.  0.
        5    1    3    3  502    0  0.16405319426E+04 -0.50545955560E+03  0.14043836588E+04  0.22179156810E+04  0.46999998093E+01 0.  1.
       -5    1    3    3    0  502 -0.16405319426E+04  0.50545955560E+03 -0.64274333942E+02  0.17178439094E+04  0.46999998093E+01 0. -1.
</event>
<event>
 5   0  0.5177000E-08  0.3688402E+04  0.7818609E-02  0.8070537E-01
        1   -1    0    0  501    0  0.00000000000E+00  0.00000000000E+00  0.22010750475E+04  0.22010750475E+04  0.50400001928E-02 0.  1.
       -1   -1    0    0    0  501  0.00000000000E+00  0.00000000000E+00 -0.15451891388E+04  0.15451891388E+04  0.50400001928E-02 0. -1.
    10030    2    1    2    0    0  0.00000000000E+00  0.00000000000E+00  0.65588590869E+03  0.37462641862E+04  0.36884019613E+04 0.  0.
        2    1    3    3  502    0 -0.16192064795E+04  0.94507561447E+02 -0.56350214690E+03  0.17170602703E+04  0.25500000920E-02 0. -1.
       -2    1    3    3    0  502  0.16192064795E+04 -0.94507561447E+02  0.12193880556E+04  0.20292039159E+04  0.25500000920E-02 0.  1.
</event>
<event>
 5   0  0.1658770E-07  0.3706335E+04  0.7818609E-02  0.8066559E-01
        2   -1    0    0  501    0  0.00000000000E+00  0.00000000000E+00  0.24033901334E+04  0.24033901334E+04  0.25500000920E-02 0.  1.
       -2   -1    0    0    0  501  0.00000000000E+00  0.00000000000E+00 -0.14289103970E+04  0.14289103970E+04  0.25500000920E-02 0. -1.
    10030    2    1    2    0    0  0.00000000000E+00  0.00000000000E+00  0.97447973639E+03  0.38323005303E+04  0.37063346581E+04 0.  0.
        2    1    3    3  502    0  0.15591592350E+04 -0.95774995397E+03  0.18407425271E+03  0.18390611260E+04  0.25500000920E-02 0. -1.
       -2    1    3    3    0  502 -0.15591592350E+04  0.95774995397E+03  0.79040548367E+03  0.19932394044E+04  0.25500000920E-02 0.  1.
</event>
<event>
 5   0  0.1587026E-07  0.3715897E+04  0.7818609E-02  0.8064448E-01
       -2   -1    0    0    0  501  0.00000000000E+00  0.00000000000E+00  0.15817727356E+04  0.15817727356E+04  0.25500000920E-02 0.  1.
        2   -1    0    0  501    0  0.00000000000E+00  0.00000000000E+00 -0.21823442512E+04  0.21823442512E+04  0.25500000920E-02 0. -1.
    10030    2    1    2    0    0  0.00000000000E+00  0.00000000000E+00 -0.60057151563E+03  0.37641169868E+04  0.37158970040E+04 0.  0.
        3    1    3    3  502    0  0.10157510957E+03 -0.13825157357E+04  0.95282222015E+03  0.16821229015E+04  0.10100000352E+00 0.  1.
       -3    1    3    3    0  502 -0.10157510957E+03  0.13825157357E+04 -0.15533937358E+04  0.20819940852E+04  0.10100000352E+00 0. -1.
</event>
<event>
 5   0  0.1658770E-07  0.3644679E+04  0.7818609E-02  0.8080333E-01
        2   -1    0    0  501    0  0.00000000000E+00  0.00000000000E+00  0.17872762799E+04  0.17872762799E+04  0.25500000920E-02 0. -1.
       -2   -1    0    0    0  501  0.00000000000E+00  0.00000000000E+00 -0.18580902301E+04  0.18580902301E+04  0.25500000920E-02 0.  1.
    10030    2    1    2    0    0  0.00000000000E+00  0.00000000000E+00 -0.70813950175E+02  0.36453665101E+04  0.36446786384E+04 0.  0.
        2    1    3    3  502    0  0.16274960399E+04  0.37409068434E+03  0.69427399190E+03  0.18085086607E+04  0.25500000920E-02 0.  1.
       -2    1    3    3    0  502 -0.16274960399E+04 -0.37409068434E+03 -0.76508794207E+03  0.18368578494E+04  0.25500000920E-02 0. -1.
</event>
<event>
 5   0  0.5177000E-08  0.3704276E+04  0.7818609E-02  0.8067015E-01
        1   -1    0    0  501    0  0.00000000000E+00  0.00000000000E+00  0.26212478916E+04  0.26212478916E+04  0.50400001928E-02 0.  1.
       -1   -1    0    0    0  501  0.00000000000E+00  0.00000000000E+00 -0.13086954556E+04  0.13086954556E+04  0.50400001928E-02 0. -1.
    10030    2    1    2    0    0  0.00000000000E+00  0.00000000000E+00  0.13125524360E+04  0.39299433473E+04  0.37042760177E+04 0.  0.
        3    1    3    3  502    0  0.12269525984E+04 -0.49915286956E+03 -0.71713434345E+03  0.15062695452E+04  0.10100000352E+00 0. -1.
       -3    1    3    3    0  502 -0.12269525984E+04  0.49915286956E+03  0.20296867795E+04  0.24236738021E+04  0.10100000352E+00 0.  1.
</event>
<event>
 5   0  0.5181371E-08  0.3705702E+04  0.7818609E-02  0.8066699E-01
        1   -1    0    0  501    0  0.00000000000E+00  0.00000000000E+00  0.16825831567E+04  0.16825831567E+04  0.50400001928E-02 0.  1.
       -1   -1    0    0    0  501  0.00000000000E+00  0.00000000000E+00 -0.20403490117E+04  0.20403490117E+04  0.50400001928E-02 0. -1.
    10030    2    1    2    0    0  0.00000000000E+00  0.00000000000E+00 -0.35776585501E+03  0.37229321684E+04  0.37057020285E+04 0.  0.
        5    1    3    3  502    0  0.35678043082E+03  0.13021290371E+04  0.10959547036E+04  0.17389569021E+04  0.46999998093E+01 0.  1.
       -5    1    3    3    0  502 -0.35678043082E+03 -0.13021290371E+04 -0.14537205586E+04  0.19839752663E+04  0.46999998093E+01 0. -1.
</event>
<event>
 5   0  0.1587026E-07  0.3680434E+04  0.7818609E-02  0.8072312E-01
       -2   -1    0    0    0  501  0.00000000000E+00  0.00000000000E+00  0.18504696415E+04  0.18504696415E+04  0.25500000920E-02 0. -1.
        2   -1    0    0  501    0  0.00000000000E+00  0.00000000000E+00 -0.18300207409E+04  0.18300207409E+04  0.25500000920E-02 0.  1.
    10030    2    1    2    0    0  0.00000000000E+00  0.00000000000E+00  0.20448900588E+02  0.36804903824E+04  0.36804335747E+04 0.  0.
        3    1    3    3  502    0  0.38705956329E+03  0.16341836649E+04 -0.74213446097E+03  0.18360650655E+04  0.10100000352E+00 0.  1.
       -3    1    3    3    0  502 -0.38705956329E+03 -0.16341836649E+04  0.76258336155E+03  0.18444253170E+04  0.10100000352E+00 0. -1.
</event>
<event>
 5   0  0.5181371E-08  0.3694473E+04  0.7818609E-02  0.8069188E-01
        1   -1    0    0  501    0  0.00000000000E+00  0.00000000000E+00  0.22075472024E+04  0.22075472024E+04  0.50400001928E-02 0. -1.
       -1   -1    0    0    0  501  0.00000000000E+00  0.00000000000E+00 -0.15457351240E+04  0.15457351240E+04  0.50400001928E-02 0.  1.
    10030    2    1    2    0    0  0.00000000000E+00  0.00000000000E+00  0.66181207836E+03  0.37532823264E+04  0.36944733041E+04 0.  0.
        5    1    3    3  502    0 -0.15244075735E+04 -0.94783187532E+03  0.77380141289E+03  0.19547364095E+04  0.46999998093E+01 0. -1.
       -5    1    3    3    0  502  0.15244075735E+04  0.94783187532E+03 -0.11198933453E+03  0.17985459169E+04  0.46999998093E+01 0.  1.
</event>
<event>
 5   0  0.5177000E-08  0.3700874E+04  0.7818609E-02  0.8067768E-01
       -1   -1    0    0    0  501  0.00000000000E+00  0.00000000000E+00  0.12234483256E+04  0.12234483256E+04  0.50400001928E-02 0. -1.
        1   -1    0    0  501    0  0.00000000000E+00  0.00000000000E+00 -0.27987426480E+04  0.27987426480E+04  0.50400001928E-02 0.  1.
    10030    2    1    2    0    0  0.00000000000E+00  0.00000000000E+00 -0.15752943225E+04  0.40221909736E+04  0.37008739543E+04 0.  0.
        2    1    3    3  502    0  0.14554505653E+04 -0.61625484016E+03  0.25819556253E+03  0.16014903448E+04  0.25500000920E-02 0. -1.
       -2    1    3    3    0  502 -0.14554505653E+04  0.61625484016E+03 -0.18334898850E+04  0.24207006288E+04  0.25500000920E-02 0.  1.
</event>
<event>
 5   0  0.1686284E-07  0.3684060E+04  0.7818609E-02  0.8071504E-01
       -2   -1    0    0    0  501  0.00000000000E+00  0.00000000000E+00  0.19081400189E+04  0.19081400189E+04  0.25500000920E-02 0.  1.
        2   -1    0    0  501    0  0.00000000000E+00  0.00000000000E+00 -0.17782103368E+04  0.17782103368E+04  0.25500000920E-02 0. -1.
    10030    2    1    2    0    0  0.00000000000E+00  0.00000000000E+00  0.12992968210E+03  0.36863503558E+04  0.36840598832E+04 0.  0.
        5    1    3    3  502    0 -0.29584273585E+03  0.15279654219E+04  0.10508951332E+04  0.18779254314E+04  0.46999998093E+01 0.  1.
       -5    1    3    3    0  502  0.29584273585E+03 -0.15279654219E+04 -0.92096545108E+03  0.18084249244E+04  0.46999998093E+01 0. -1.
</event>
<event>
 5   0  0.5177000E-08  0.3665546E+04  0.7818609E-02  0.8075640E-01
        1   -1    0    0  501    0  0.00000000000E+00  0.00000000000E+00  0.20439284121E+04  0.20439284121E+04  0.50400001928E-02 0.  1.
       -1   -1    0    0    0  501  0.00000000000E+00  0.00000000000E+00 -0.16434315162E+04  0.16434315162E+04  0.50400001928E-02 0. -1.
    10030    2    1    2    0    0  0.00000000000E+00  0.00000000000E+00  0.40049689587E+03  0.36873599283E+04  0.36655457271E+04 0.  0.
        1    1    3    3  502    0 -0.53290351992E+03  0.52167571156E+02 -0.15629944624E+04  0.16521680624E+04  0.50400001928E-02 0. -1.
       -1    1    3    3    0  502  0.53290351992E+03 -0.52167571156E+02  0.19634913582E+04  0.20351918659E+04  0.50400001928E-02 0.  1.
</event>
<event>
 5   0  0.1587026E-07  0.3702160E+04  0.7818609E-02  0.8067483E-01
       -2   -1    0    0    0  501  0.00000000000E+00  0.00000000000E+00  0.18849224437E+04  0.18849224437E+04  0.25500000920E-02 0.  1.
        2   -1    0    0  501    0  0.00000000000E+00  0.00000000000E+00 -0.18178452948E+04  0.18178452948E+04  0.25500000920E-02 0. -1.
    10030    2    1    2    0    0  0.00000000000E+00  0.00000000000E+00  0.67077148893E+02  0.37027677385E+04  0.37021601237E+04 0.  0.
        3    1    3    3  502    0  0.60661187123E+03 -0.17141878272E+04 -0.31304321264E+03  0.18451053987E+04  0.10100000352E+00 0. -1.
       -3    1    3    3    0  502 -0.60661187123E+03  0.17141878272E+04  0.38012036153E+03  0.18576623398E+04  0.10100000352E+00 0.  1.
</event>
<event>
 5   0  0.1558258E-07  0.3685032E+04  0.7818609E-02  0.8071287E-01
        2   -1    0    0  501    0  0.00000000000E+00  0.00000000000E+00  0.20560671923E+04  0.20560671923E+04  0.25500000920E-02 0.  1.
       -2   -1    0    0    0  501  0.00000000000E+00  0.00000000000E+00 -0.16511452130E+04  0.16511452130E+04  0.25500000920E-02 0. -1.
    10030    2    1    2    0    0  0.00000000000E+00  0.00000000000E+00  0.40492197931E+03  0.37072124052E+04  0.36850321584E+04 0.  0.
        1    1    3    3  502    0 -0.15619857859E+04  0.38934044829E+03 -0.69930468891E+03  0.17551104318E+04  0.50400001928E-02 0. -1.
       -1    1    3    3    0  502  0.15619857859E+04 -0.38934044829E+03  0.11042266682E+04  0.19521019734E+04  0.50400001928E-02 0.  1.
</event>
<event>
 5   0  0.1587026E-07  0.3699236E+04  0.7818609E-02  0.8068131E-01
        2   -1    0    0  501    0  0.00000000000E+00  0.00000000000E+00  0.20845115088E+04  0.20845115088E+04  0.25500000920E-02 0.  1.
       -2   -1    0    0    0  501  0.00000000000E+00  0.00000000000E+00 -0.16411932356E+04  0.16411932356E+04  0.25500000920E-02 0. -1.
    10030    2    1    2    0    0  0.00000000000E+00  0.00000000000E+00  0.44331827315E+03  0.37257047444E+04  0.36992356983E+04 0.  0.
        3    1    3    3  502    0 -0.11081987283E+04 -0.82996712322E+03 -0.10135486822E+04  0.17158760993E+04  0.10100000352E+00 0. -1.
       -3    1    3    3    0  502  0.11081987283E+04  0.82996712322E+03  0.14568669553E+04  0.20098286451E+04  0.10100000352E+00 0.  1.
</event>
<event>
 5   0  0.5177000E-08  0.3714094E+04  0.7818609E-02  0.8064846E-01
       -1   -1    0    0    0  501  0.00000000000E+00  0.00000000000E+00  0.16763494496E+04  0.16763494496E+04  0.50400001928E-02 0.  1.
        1   -1    0    0  501    0  0.00000000000E+00  0.00000000000E+00 -0.20572227364E+04  0.20572227364E+04  0.50400001928E-02 0. -1.
    10030    2    1    2    0    0  0.00000000000E+00  0.00000000000E+00 -0.38087328679E+03  0.37335721861E+04  0.37140943456E+04 0.  0.
        2    1    3    3  502    0  0.15947010883E+04  0.20223379909E+03  0.74430766936E+03  0.17714299245E+04  0.25500000920E-02 0.  1.
       -2    1    3    3    0  502 -0.15947010883E+04 -0.20223379909E+03 -0.11251809561E+04  0.19621422616E+04  0.25500000920E-02 0. -1.
</event>
<event>
 5   0  0.1666189E-07  0.3697168E+04  0.7818609E-02  0.8068590E-01
       -2   -1    0    0    0  501  0.00000000000E+00  0.00000000000E+00  0.14950910125E+04  0.14950910125E+04  0.25500000920E-02 0. -1.
        2   -1    0    0  501    0  0.00000000000E+00  0.00000000000E+00 -0.22856556585E+04  0.22856556585E+04  0.25500000920E-02 0.  1.
    10030    2    1    2    0    0  0.00000000000E+00  0.00000000000E+00 -0.79056464594E+03  0.37807466710E+04  0.36971682313E+04 0.  0.
        4    1    3    3  502    0  0.13916635713E+04  0.11389739700E+04  0.42498690912E+02  0.17988321077E+04  0.12699999809E+01 0. -1.
       -4    1    3    3    0  502 -0.13916635713E+04 -0.11389739700E+04 -0.83306333686E+03  0.19819145633E+04  0.12699999809E+01 0.  1.
</event>
<event>
 5   0  0.5181371E-08  0.3711683E+04  0.7818609E-02  0.8065378E-01
       -1   -1    0    0    0  501  0.00000000000E+00  0.00000000000E+00  0.12033831060E+04  0.12033831060E+04  0.50400001928E-02 0. -1.
        1   -1    0    0  501    0  0.00000000000E+00  0.00000000000E+00 -0.28620538449E+04  0.28620538449E+04  0.50400001928E-02 0.  1.
    10030    2    1    2    0    0  0.00000000000E+00  0.00000000000E+00 -0.16586707389E+04  0.40654369510E+04  0.37116827696E+04 0.  0.
        5    1    3    3  502    0  0.14499326678E+03 -0.15117221585E+04  0.33900398314E+03  0.15560439333E+04  0.46999998093E+01 0. -1.
       -5    1    3    3    0  502 -0.14499326678E+03  0.15117221585E+04 -0.19976747220E+04  0.25093930176E+04  0.46999998093E+01 0.  1.
</event>
<event>
 5   0  0.5177000E-08  0.3698599E+04  0.7818609E-02  0.8068272E-01
       -1   -1    0    0    0  501  0.00000000000E+00  0.00000000000E+00  0.14801323431E+04  0.14801323431E+04  0.50400001928E-02 0.  1.
        1   -1    0    0  501    0  0.00000000000E+00  0.00000000000E+00 -0.23105430889E+04  0.23105430889E+04  0.50400001928E-02 0. -1.
    10030    2    1    2    0    0  0.00000000000E+00  0.00000000000E+00 -0.83041074587E+03  0.37906754320E+04  0.36985994949E+04 0.  0.
        2    1    3    3  502    0  0.15100627081E+03 -0.15337445741E+04 -0.14627733388E+04  0.21248249701E+04  0.25500000920E-02 0. -1.
       -2    1    3    3    0  502 -0.15100627081E+03  0.15337445741E+04  0.63236259296E+03  0.16658504619E+04  0.25500000920E-02 0.  1.
</event>
<event>
 5   0  0.5177000E-08  0.3695738E+04  0.7818609E-02  0.8068907E-01
        1   -1    0    0  501    0  0.00000000000E+00  0.00000000000E+00  0.15737350196E+04  0.15737350196E+04  0.50400001928E-02 0. -1.
       -1   -1    0    0    0  501  0.00000000000E+00  0.00000000000E+00 -0.21697552998E+04  0.21697552998E+04  0.50400001928E-02 0.  1.
    10030    2    1    2    0    0  0.00000000000E+00  0.00000000000E+00 -0.59602028026E+03  0.37434903194E+04  0.36957380314E+04 0.  0.
        2    1    3    3  502    0  0.12546646054E+04  0.10561318665E+04 -0.11604943642E+04  0.20090656935E+04  0.25500000920E-02 0.  1.
       -2    1    3    3    0  502 -0.12546646054E+04 -0.10561318665E+04  0.56447408396E+03  0.17344246259E+04  0.25500000920E-02 0. -1.
</event>
<event>
 5   0  0.5177000E-08  0.3723418E+04  0.7818609E-02  0.8062792E-01
       -1   -1    0    0    0  501  0.00000000000E+00  0.00000000000E+00  0.15774886967E+04  0.15774886967E+04  0.50400001928E-02 0. -1.
        1   -1    0    0  501    0  0.00000000000E+00  0.00000000000E+00 -0.21971378373E+04  0.21971378373E+04  0.50400001928E-02 0.  1.
    10030    2    1    2    0    0  0.00000000000E+00  0.00000000000E+00 -0.61964914057E+03  0.37746265341E+04  0.37234178404E+04 0.  0.
        3    1    3    3  502    0 -0.50877496564E+02  0.71250667639E+03 -0.20526858272E+04  0.21734243485E+04  0.10100000352E+00 0.  1.
       -3    1    3    3    0  502  0.50877496564E+02 -0.71250667639E+03  0.14330366866E+04  0.16012021855E+04  0.10100000352E+00 0. -1.
</event>
<event>
 5   0  0.5181371E-08  0.3706037E+04  0.7818609E-02  0.8066625E-01
       -1   -1    0    0    0  501  0.00000000000E+00  0.00000000000E+00  0.17993425730E+04  0.17993425730E+04  0.50400001928E-02 0.  1.
        1   -1    0    0  501    0  0.00000000000E+00  0.00000000000E+00 -0.19082954473E+04  0.19082954473E+04  0.50400001928E-02 0. -1.
    10030    2    1    2    0    0  0.00000000000E+00  0.00000000000E+00 -0.10895287435E+03  0.37076380203E+04  0.37060368267E+04 0.  0.
        5    1    3    3  502    0  0.46501026472E+03 -0.21731164087E+03 -0.18357501988E+04  0.19061636283E+04  0.46999998093E+01 0. -1.
       -5    1    3    3    0  502 -0.46501026472E+03  0.21731164087E+03  0.17267973244E+04  0.18014743920E+04  0.46999998093E+01 0.  1.
</event>
<event>
 5   0  0.1686284E-07  0.3704845E+04  0.7818609E-02  0.8066889E-01
       -2   -1    0    0    0  501  0.00000000000E+00  0.00000000000E+00  0.13216673703E+04  0.13216673703E+04  0.25500000920E-02 0.  1.
        2   -1    0    0  501    0  0.00000000000E+00  0.00000000000E+00 -0.25963183707E+04  0.25963183707E+04  0.25500000920E-02 0. -1.
    10030    2    1    2    0    0  0.00000000000E+00  0.00000000000E+00 -0.12746510003E+04  0.39179857410E+04  0.37048450837E+04 0.  0.
        5    1    3    3  502    0  0.35023213183E+03 -0.16953063820E+04 -0.13345908160E+04  0.21858364557E+04  0.46999998093E+01 0. -1.
       -5    1    3    3    0  502 -0.35023213183E+03  0.16953063820E+04  0.59939815700E+02  0.17321492853E+04  0.46999998093E+01 0.  1.
</event>
<event>
 5   0  0.5177000E-08  0.3707878E+04  0.7818609E-02  0.8066218E-01
       -1   -1    0    0    0  501  0.00000000000E+00  0.00000000000E+00  0.18792038958E+04  0.18792038958E+04  0.50400001928E-02 0. -1.
        1   -1    0    0  501    0  0.00000000000E+00  0.00000000000E+00 -0.18290135828E+04  0.18290135828E+04  0.50400001928E-02 0.  1.
    10030    2    1    2    0    0  0.00000000000E+00  0.00000000000E+00  0.50190312917E+02  0.37082174786E+04  0.37078778029E+04 0.  0.
        3    1    3    3  502    0 -0.63593034928E+03  0.45870053407E+03 -0.16550217941E+04  0.18313685424E+04  0.10100000352E+00 0.  1.
       -3    1    3    3    0  502  0.63593034928E+03 -0.45870053407E+03  0.17052121070E+04  0.18768489362E+04  0.10100000352E+00 0. -1.
</event>
<event>
 5   0  0.5181371E-08  0.3694495E+04  0.7818609E-02  0.8069183E-01
        1   -1    0    0  501    0  0.00000000000E+00  0.00000000000E+00  0.29217830185E+04  0.29217830185E+04  0.50400001928E-02 0. -1.
       -1   -1    0    0    0  501  0.00000000000E+00  0.00000000000E+00 -0.11678907162E+04  0.11678907162E+04  0.50400001928E-02 0.  1.
    10030    2    1    2    0    0  0.00000000000E+00  0.00000000000E+00  0.17538923022E+04  0.40896737347E+04  0.36944949653E+04 0.  0.
        5    1    3    3  502    0 -0.39329187537E+03 -0.13755922727E+04  0.21704226258E+04  0.25995555514E+04  0.46999998093E+01 0. -1.
       -5    1    3    3    0  502  0.39329187537E+03  0.13755922727E+04 -0.41653032363E+03  0.14901181833E+04  0.46999998093E+01 0.  1.
</event>
<event>
 5   0  0.5177000E-08  0.3695742E+04  0.7818609E-02  0.8068906E-01
       -1   -1    0    0    0  501  0.00000000000E+00  0.00000000000E+00  0.15258100630E+04  0.15258100630E+04  0.50400001928E-02 0. -1.
        1   -1    0    0  501    0  0.00000000000E+00  0.00000000000E+00 -0.22379106629E+04  0.22379106630E+04  0.50400001928E-02 0.  1.
    10030    2    1    2    0    0  0.00000000000E+00  0.00000000000E+00 -0.71210059999E+03  0.37637207259E+04  0.36957416628E+04 0.  0.
        4    1    3    3  502    0 -0.60667976762E+03  0.17407695810E+04 -0.48601396841E+03  0.19064496492E+04  0.12699999809E+01 0.  1.
       -4    1    3    3    0  502  0.60667976762E+03 -0.17407695810E+04 -0.22608663157E+03  0.18572710767E+04  0.12699999809E+01 0. -1.
</event>
<event>
 5   0  0.5177000E-08  0.3699037E+04  0.7818609E-02  0.8068175E-01
       -1   -1    0    0    0  501  0.00000000000E+00  0.00000000000E+00  0.11749003746E+04  0.11749003746E+04  0.50400001928E-02 0. -1.
        1   -1    0    0  501    0  0.00000000000E+00  0.00000000000E+00 -0.29114970451E+04  0.29114970451E+04  0.50400001928E-02 0.  1.
    10030    2    1    2    0    0  0.00000000000E+00  0.00000000000E+00 -0.17365966706E+04  0.40863974197E+04  0.36990371552E+04 0.  0.
        2    1    3    3  502    0  0.16452814081E+04  0.12357944117E+03 -0.17915793918E+04  0.24355655416E+04  0.25500000920E-02 0.  1.
       -2    1    3    3    0  502 -0.16452814081E+04 -0.12357944117E+03  0.54982721211E+02  0.16508318781E+04  0.25500000920E-02 0. -1.
</event>
<event>
 5   0  0.1658770E-07  0.3700487E+04  0.7818609E-02  0.8067854E-01
       -2   -1    0    0    0  501  0.00000000000E+00  0.00000000000E+00  0.15259024543E+04  0.15259024543E+04  0.25500000920E-02 0. -1.
        2   -1    0    0  501    0  0.00000000000E+00  0.00000000000E+00 -0.22435257057E+04  0.22435257057E+04  0.25500000920E-02 0.  1.
    10030    2    1    2    0    0  0.00000000000E+00  0.00000000000E+00 -0.71762325140E+03  0.37694281601E+04  0.37004872008E+04 0.  0.
        2    1    3    3  502    0 -0.65524649253E+03  0.16237717579E+04  0.25017141094E+03  0.17687759673E+04  0.25500000920E-02 0. -1.
       -2    1    3    3    0  502  0.65524649253E+03 -0.16237717579E+04 -0.96779466234E+03  0.20006521927E+04  0.25500000920E-02 0.  1.
</event>
<event>
 5   0  0.1587026E-07  0.3720708E+04  0.7818609E-02  0.8063388E-01
       -2   -1    0    0    0  501  0.00000000000E+00  0.00000000000E+00  0.11871999281E+04  0.11871999281E+04  0.25500000920E-02 0.  1.
        2   -1    0    0  501    0  0.00000000000E+00  0.00000000000E+00 -0.29151938448E+04  0.29151938448E+04  0.25500000920E-02 0. -1.
    10030    2    1    2    0    0  0.00000000000E+00  0.00000000000E+00 -0.17279939168E+04  0.41023937729E+04  0.37207084933E+04 0.  0.
        3    1    3    3  502    0  0.19552470145E+03  0.80905074337E+03 -0.26984413001E+04  0.28238942038E+04  0.10100000352E+00 0. -1.
       -3    1    3    3    0  502 -0.19552470145E+03 -0.80905074337E+03  0.97044738331E+03  0.12784995691E+04  0.10100000352E+00 0.  1.
</event>
<event>
 5   0  0.1666189E-07  0.3695810E+04  0.7818609E-02  0.8068891E-01
        2   -1    0    0  501    0  0.00000000000E+00  0.00000000000E+00  0.17808321798E+04  0.17808321798E+04  0.25500000920E-02 0. -1.
       -2   -1    0    0    0  501  0.00000000000E+00  0.00000000000E+00 -0.19175036842E+04  0.19175036842E+04  0.25500000920E-02 0.  1.
    10030    2    1    2    0    0  0.00000000000E+00  0.00000000000E+00 -0.13667150438E+03  0.36983358639E+04  0.36958096626E+04 0.  0.
        4    1    3    3  502    0 -0.77094892277E+03 -0.51693475897E+03  0.15306196561E+04  0.17900787499E+04  0.12699999809E+01 0. -1.
       -4    1    3    3    0  502  0.77094892277E+03  0.51693475897E+03 -0.16672911604E+04  0.19082571140E+04  0.12699999809E+01 0.  1.
</event>
<event>
 5   0  0.5181371E-08  0.3703466E+04  0.7818609E-02  0.8067194E-01
       -1   -1    0    0    0  501  0.00000000000E+00  0.00000000000E+00  0.16538190733E+04  0.16538190733E+04  0.50400001928E-02 0.  1.
        1   -1    0    0  501    0  0.00000000000E+00  0.00000000000E+00 -0.20733318839E+04  0.20733318839E+04  0.50400001928E-02 0. -1.
    10030    2    1    2    0    0  0.00000000000E+00  0.00000000000E+00 -0.41951281063E+03  0.37271509572E+04  0.37034663843E+04 0.  0.
        5    1    3    3  502    0  0.73982625665E+03  0.34563369934E+03  0.14628253135E+04  0.16753165468E+04  0.46999998093E+01 0.  1.
       -5    1    3    3    0  502 -0.73982625665E+03 -0.34563369934E+03 -0.18823381241E+04  0.20518344104E+04  0.46999998093E+01 0. -1.
</event>
<event>
 5   0  0.1558258E-07  0.3704996E+04  0.7818609E-02  0.8066855E-01
        2   -1    0    0  501    0  0.00000000000E+00  0.00000000000E+00  0.13519790735E+04  0.13519790736E+04  0.25500000920E-02 0.  1.
       -2   -1    0    0    0  501  0.00000000000E+00  0.00000000000E+00 -0.25383155508E+04  0.25383155508E+04  0.25500000920E-02 0. -1.
    10030    2    1    2    0    0  0.00000000000E+00  0.00000000000E+00 -0.11863364772E+04  0.38902946243E+04  0.37049963599E+04 0.  0.
        1    1    3    3  502    0 -0.14001714099E+04  0.51028929379E+03  0.56226338593E+03  0.15928010722E+04  0.50400001928E-02 0.  1.
       -1    1    3    3    0  502  0.14001714099E+04 -0.51028929379E+03 -0.17485998632E+04  0.22974935521E+04  0.50400001928E-02 0. -1.
</event>
<event>
 5   0  0.1686284E-07  0.3698890E+04  0.7818609E-02  0.8068208E-01
        2   -1    0    0  501    0  0.00000000000E+00  0.00000000000E+00  0.22934261948E+04  0.22934261948E+04  0.25500000920E-02 0. -1.
       -2   -1    0    0    0  501  0.00000000000E+00  0.00000000000E+00 -0.14914133463E+04  0.14914133463E+04  0.25500000920E-02 0.  1.
    10030    2    1    2    0    0  0.00000000000E+00  0.00000000000E+00  0.80201284847E+03  0.37848395412E+04  0.36988897987E+04 0.  0.
        5    1    3    3  502    0  0.56364416455E+03  0.13100022690E+04 -0.80390572200E+03  0.16370971837E+04  0.46999998093E+01 0.  1.
       -5    1    3    3    0  502 -0.56364416455E+03 -0.13100022690E+04  0.16059185705E+04  0.21477423575E+04  0.46999998093E+01 0. -1.
</event>
<event>
 5   0  0.5177000E-08  0.3698904E+04  0.7818609E-02  0.8068205E-01
        1   -1    0    0  501    0  0.00000000000E+00  0.00000000000E+00  0.13319335831E+04  0.13319335831E+04  0.50400001928E-02 0.  1.
       -1   -1    0    0    0  501  0.00000000000E+00  0.00000000000E+00 -0.25680503813E+04  0.25680503814E+04  0.50400001928E-02 0. -1.
    10030    2    1    2    0    0  0.00000000000E+00  0.00000000000E+00 -0.12361167982E+04  0.38999839645E+04  0.36989039166E+04 0.  0.
        4    1    3    3  502    0 -0.10464732314E+04  0.14524928300E+04 -0.11076609203E+04  0.21051736205E+04  0.12699999809E+01 0. -1.
       -4    1    3    3    0  502  0.10464732314E+04 -0.14524928300E+04 -0.12845587791E+03  0.17948103439E+04  0.12699999809E+01 0.  1.
</event>
<event>
 5   0  0.5177000E-08  0.3710077E+04  0.7818609E-02  0.8065732E-01
       -1   -1    0    0    0  501  0.00000000000E+00  0.00000000000E+00  0.19386361185E+04  0.19386361185E+04  0.50400001928E-02 0.  1.
        1   -1    0    0  501    0  0.00000000000E+00  0.00000000000E+00 -0.17750461593E+04  0.17750461593E+04  0.50400001928E-02 0. -1.
    10030    2    1    2    0    0  0.00000000000E+00  0.00000000000E+00  0.16358995912E+03  0.37136822778E+04  0.37100774097E+04 0.  0.
        2    1    3    3  502    0  0.63105054928E+03 -0.56023165587E+03  0.17353941621E+04  0.19296831869E+04  0.25500000920E-02 0.  1.
       -2    1    3    3    0  502 -0.63105054928E+03  0.56023165587E+03 -0.15718042029E+04  0.17839990909E+04  0.25500000920E-02 0. -1.
</event>
<event>
 5   0  0.5177000E-08  0.3698583E+04  0.7818609E-02  0.8068276E-01
       -1   -1    0    0    0  501  0.00000000000E+00  0.00000000000E+00  0.25288433732E+04  0.25288433732E+04  0.50400001928E-02 0. -1.
        1   -1    0    0  501    0  0.00000000000E+00  0.00000000000E+00 -0.13523491610E+04  0.13523491610E+04  0.50400001928E-02 0.  1.
    10030    2    1    2    0    0  0.00000000000E+00  0.00000000000E+00  0.11764942122E+04  0.38811925343E+04  0.36985830877E+04 0.  0.
        2    1    3    3  502    0 -0.17218707133E+04 -0.60600105211E+03  0.27730112778E+03  0.18463401485E+04  0.25500000920E-02 0. -1.
       -2    1    3    3    0  502  0.17218707133E+04  0.60600105211E+03  0.89919308443E+03  0.20348523857E+04  0.25500000920E-02 0.  1.
</event>
<event>
 5   0  0.5181371E-08  0.3706136E+04  0.7818609E-02  0.8066603E-01
       -1   -1    0    0    0  501  0.00000000000E+00  0.00000000000E+00  0.27959202195E+04  0.27959202195E+04  0.50400001928E-02 0.  1.
        1   -1    0    0  501    0  0.00000000000E+00  0.00000000000E+00 -0.12281685647E+04  0.12281685647E+04  0.50400001928E-02 0. -1.
    10030    2    1    2    0    0  0.00000000000E+00  0.00000000000E+00  0.15677516548E+04  0.40240887842E+04  0.37061361675E+04 0.  0.
        5    1    3    3  502    0  0.73478481899E+03  0.16974639134E+04  0.66225384668E+03  0.19646614759E+04  0.46999998093E+01 0.  1.
       -5    1    3    3    0  502 -0.73478481899E+03 -0.16974639134E+04  0.90549780816E+03  0.20594273083E+04  0.46999998093E+01 0. -1.
</event>
<event>
 5   0  0.5177000E-08  0.3697292E+04  0.7818609E-02  0.8068562E-01
       -1   -1    0    0    0  501  0.00000000000E+00  0.00000000000E+00  0.19215430820E+04  0.19215430820E+04  0.50400001928E-02 0. -1.
        1   -1    0    0  501    0  0.00000000000E+00  0.00000000000E+00 -0.17785146096E+04  0.17785146096E+04  0.50400001928E-02 0.  1.
    10030    2    1    2    0    0  0.00000000000E+00  0.00000000000E+00  0.14302847241E+03  0.37000576917E+04  0.36972922224E+04 0.  0.
        2    1    3    3  502    0  0.14995048536E+03 -0.17224820068E+04  0.72626886954E+03  0.18753388715E+04  0.25500000920E-02 0. -1.
       -2    1    3    3    0  502 -0.14995048536E+03  0.17224820068E+04 -0.58324039713E+03  0.18247188202E+04  0.25500000920E-02 0.  1.
</event>
<event>
 5   0  0.1658770E-07  0.3697086E+04  0.7818609E-02  0.8068608E-01
        2   -1    0    0  501    0  0.00000000000E+00  0.00000000000E+00  0.17423373567E+04  0.17423373567E+04  0.25500000920E-02 0. -1.
       -2   -1    0    0    0  501  0.00000000000E+00  0.00000000000E+00 -0.19612226806E+04  0.19612226806E+04  0.25500000920E-02 0.  1.
    10030    2    1    2    0    0  0.00000000000E+00  0.00000000000E+00 -0.21888532389E+03  0.37035600373E+04  0.36970861722E+04 0.  0.
        2    1    3    3  502    0  0.68626157859E+03  0.99038104098E+03 -0.15137897623E+04  0.19347788000E+04  0.25500000920E-02 0.  1.
       -2    1    3    3    0  502 -0.68626157859E+03 -0.99038104098E+03  0.12949044384E+04  0.17687812373E+04  0.25500000920E-02 0. -1.
</event>
<event>
 5   0  0.1658770E-07  0.3708970E+04  0.7818609E-02  0.8065977E-01
        2   -1    0    0  501    0  0.00000000000E+00  0.00000000000E+00  0.17936316961E+04  0.17936316961E+04  0.25500000920E-02 0.  1.
       -2   -1    0    0    0  501  0.00000000000E+00  0.00000000000E+00 -0.19174024397E+04  0.19174024397E+04  0.25500000920E-02 0. -1.
    10030    2    1    2    0    0  0.00000000000E+00  0.00000000000E+00 -0.12377074367E+03  0.37110341358E+04  0.37089695550E+04 0.  0.
        2    1    3    3  502    0  0.10148386510E+04  0.21989118205E+03 -0.15992510506E+04  0.19067914260E+04  0.25500000920E-02 0. -1.
       -2    1    3    3    0  502 -0.10148386510E+04 -0.21989118205E+03  0.14754803069E+04  0.18042427098E+04  0.25500000920E-02 0.  1.
</event>
<event>
 5   0  0.1587026E-07  0.3693220E+04  0.7818609E-02  0.8069466E-01
        2   -1    0    0  501    0  0.00000000000E+00  0.00000000000E+00  0.26512471241E+04  0.26512471241E+04  0.25500000920E-02 0.  1.
       -2   -1    0    0    0  501  0.00000000000E+00  0.00000000000E+00 -0.12861751797E+04  0.12861751797E+04  0.25500000920E-02 0. -1.
    10030    2    1    2    0    0  0.00000000000E+00  0.00000000000E+00  0.13650719444E+04  0.39374223038E+04  0.36932198669E+04 0.  0.
        3    1    3    3  502    0 -0.91238973667E+03  0.15194272845E+04  0.12973979648E+03  0.17770612622E+04  0.10100000352E+00 0. -1.
       -3    1    3    3    0  502  0.91238973667E+03 -0.15194272845E+04  0.12353321479E+04  0.21603610417E+04  0.10100000352E+00 0.  1.
</event>
<event>
 5   0  0.5177000E-08  0.3693440E+04  0.7818609E-02  0.8069417E-01
        1   -1    0    0  501    0  0.00000000000E+00  0.00000000000E+00  0.10550826030E+04  0.10550826030E+04  0.50400001928E-02 0.  1.
       -1   -1    0    0    0  501  0.00000000000E+00  0.00000000000E+00 -0.32323302721E+04  0.32323302721E+04  0.50400001928E-02 0. -1.
    10030    2    1    2    0    0  0.00000000000E+00  0.00000000000E+00 -0.21772476691E+04  0.42874128751E+04  0.36934403676E+04 0.  0.
        1    1    3    3  502    0 -0.59332396481E+03 -0.14961984001E+04 -0.37629724959E+02  0.16099872596E+04  0.50400001928E-02 0.  1.
       -1    1    3    3    0  502  0.59332396481E+03  0.14961984001E+04 -0.21396179441E+04  0.26774256155E+04  0.50400001928E-02 0. -1.
</event>
<event>
 5   0  0.5177000E-08  0.3675051E+04  0.7818609E-02  0.8073513E-01
        1   -1    0    0  501    0  0.00000000000E+00  0.00000000000E+00  0.20384535346E+04  0.20384535346E+04  0.50400001928E-02 0. -1.
       -1   -1    0    0    0  501  0.00000000000E+00  0.00000000000E+00 -0.16564027694E+04  0.16564027694E+04  0.50400001928E-02 0.  1.
    10030    2    1    2    0    0  0.00000000000E+00  0.00000000000E+00  0.38205076524E+03  0.36948563040E+04  0.36750510636E+04 0.  0.
        2    1    3    3  502    0  0.61913839108E+03  0.62461480287E+03 -0.14310583468E+04  0.16797035427E+04  0.25500000920E-02 0.  1.
       -2    1    3    3    0  502 -0.61913839108E+03 -0.62461480287E+03  0.18131091121E+04  0.20151527613E+04  0.25500000920E-02 0. -1.
</event>
<event>
 5   0  0.5177000E-08  0.3710039E+04  0.7818609E-02  0.8065741E-01
       -1   -1    0    0    0  501  0.00000000000E+00  0.00000000000E+00  0.16539932971E+04  0.16539932971E+04  0.50400001928E-02 0.  1.
        1   -1    0    0  501    0  0.00000000000E+00  0.00000000000E+00 -0.20804783712E+04  0.20804783712E+04  0.50400001928E-02 0. -1.
    10030    2    1    2    0    0  0.00000000000E+00  0.00000000000E+00 -0.42648507407E+03  0.37344716683E+04  0.37100389651E+04 0.  0.
        2    1    3    3  502    0  0.48297973409E+03  0.90914812773E+03  0.13400587637E+04  0.16898453278E+04  0.25500000920E-02 0.  1.
       -2    1    3    3    0  502 -0.48297973409E+03 -0.90914812773E+03 -0.17665438377E+04  0.20446263405E+04  0.25500000920E-02 0. -1.
</event>
<event>
 5   0  0.1587026E-07  0.3514581E+04  0.7818609E-02  0.8110343E-01
        2   -1    0    0  501    0  0.00000000000E+00  0.00000000000E+00  0.31623364821E+04  0.31623364821E+04  0.25500000920E-02 0. -1.
       -2   -1    0    0    0  501  0.00000000000E+00  0.00000000000E+00 -0.97651517333E+03  0.97651517333E+03  0.25500000920E-02 0.  1.
    10030    2    1    2    0    0  0.00000000000E+00  0.00000000000E+00  0.21858213088E+04  0.41388516555E+04  0.35145808046E+04 0.  0.
        3    1    3    3  502    0 -0.10324755241E+04 -0.92880214237E+03  0.23609162842E+04  0.27390883226E+04  0.10100000352E+00 0.  1.
       -3    1    3    3    0  502  0.10324755241E+04  0.92880214237E+03 -0.17509497545E+03  0.13997633329E+04  0.10100000352E+00 0. -1.
</event>
<event>
 5   0  0.1658770E-07  0.3623495E+04  0.7818609E-02  0.8085131E-01
       -2   -1    0    0    0  501  0.00000000000E+00  0.00000000000E+00  0.13619562061E+04  0.13619562061E+04  0.25500000920E-02 0.  1.
        2   -1    0    0  501    0  0.00000000000E+00  0.00000000000E+00 -0.24100843196E+04  0.24100843196E+04  0.25500000920E-02 0. -1.
    10030    2    1    2    0    0  0.00000000000E+00  0.00000000000E+00 -0.10481281134E+04  0.37720405257E+04  0.36234951615E+04 0.  0.
        2    1    3    3  502    0  0.52641894250E+03 -0.11523479074E+04 -0.18723060509E+04  0.22606531249E+04  0.25500000920E-02 0.  1.
       -2    1    3    3    0  502 -0.52641894250E+03  0.11523479074E+04  0.82417793746E+03  0.15113874008E+04  0.25500000920E-02 0. -1.
</event>
<event>
 5   0  0.1658770E-07  0.3692651E+04  0.7818609E-02  0.8069592E-01
       -2   -1    0    0    0  501  0.00000000000E+00  0.00000000000E+00  0.26113235122E+04  0.26113235122E+04  0.25500000920E-02 0. -1.
        2   -1    0    0  501    0  0.00000000000E+00  0.00000000000E+00 -0.13054366724E+04  0.13054366724E+04  0.25500000920E-02 0.  1.
    10030    2    1    2    0    0  0.00000000000E+00  0.00000000000E+00  0.13058868398E+04  0.39167601846E+04  0.36926507966E+04 0.  0.
        2    1    3    3  502    0 -0.11709635576E+04  0.11806883379E+04  0.15039696274E+04  0.22421207025E+04  0.25500000920E-02 0. -1.
       -2    1    3    3    0  502  0.11709635576E+04 -0.11806883379E+04 -0.19808278762E+03  0.16746394821E+04  0.25500000920E-02 0.  1.
</event>
<event>
 5   0  0.5177000E-08  0.3703196E+04  0.7818609E-02  0.8067254E-01
       -1   -1    0    0    0  501  0.00000000000E+00  0.00000000000E+00  0.20045769702E+04  0.20045769702E+04  0.50400001928E-02 0. -1.
        1   -1    0    0  501    0  0.00000000000E+00  0.00000000000E+00 -0.17102933779E+04  0.17102933779E+04  0.50400001928E-02 0.  1.
    10030    2    1    2    0    0  0.00000000000E+00  0.00000000000E+00  0.29428359227E+03  0.37148703481E+04  0.37031957645E+04 0.  0.
        4    1    3    3  502    0  0.15519625402E+03  0.11025622214E+04 -0.13369422599E+04  0.17398694056E+04  0.12699999809E+01 0.  1.
       -4    1    3    3    0  502 -0.15519625402E+03 -0.11025622214E+04  0.16312258521E+04  0.19750009425E+04  0.12699999809E+01 0. -1.
</event>
<event>
 5   0  0.5177000E-08  0.3682303E+04  0.7818609E-02  0.8071895E-01
        3   -1    0    0  501    0  0.00000000000E+00  0.00000000000E+00  0.25431978189E+04  0.25431978209E+04  0.10100000352E+00 0.  1.
       -3   -1    0    0    0  501  0.00000000000E+00  0.00000000000E+00 -0.13329040195E+04  0.13329040233E+04  0.10100000352E+00 0. -1.
    10030    2    1    2    0    0  0.00000000000E+00  0.00000000000E+00  0.12102937995E+04  0.38761018442E+04  0.36823028699E+04 0.  0.
        5    1    3    3  502    0 -0.16541789153E+04  0.60517824908E+03  0.40964884520E+02  0.17618878536E+04  0.46999998093E+01 0.  1.
       -5    1    3    3    0  502  0.16541789153E+04 -0.60517824908E+03  0.11693289149E+04  0.21142139906E+04  0.46999998093E+01 0. -1.
</event>
<event>
 5   0  0.1558258E-07  0.3692669E+04  0.7818609E-02  0.8069588E-01
        2   -1    0    0  501    0  0.00000000000E+00  0.00000000000E+00  0.29436067324E+04  0.29436067325E+04  0.25500000920E-02 0. -1.
       -2   -1    0    0    0  501  0.00000000000E+00  0.00000000000E+00 -0.11580864672E+04  0.11580864672E+04  0.25500000920E-02 0.  1.
    10030    2    1    2    0    0  0.00000000000E+00  0.00000000000E+00  0.17855202652E+04  0.41016931997E+04  0.36926690194E+04 0.  0.
        1    1    3    3  502    0  0.24199006086E+03 -0.17018407463E+04  0.14422379294E+03  0.17249990197E+04  0.50400001928E-02 0. -1.
       -1    1    3    3    0  502 -0.24199006086E+03  0.17018407463E+04  0.16412964723E+04  0.23766941800E+04  0.50400001928E-02 0.  1.
</event>
<event>
 5   0  0.1587026E-07  0.3725864E+04  0.7818609E-02  0.8062254E-01
        2   -1    0    0  501    0  0.00000000000E+00  0.00000000000E+00  0.20665169167E+04  0.20665169167E+04  0.25500000920E-02 0. -1.
       -2   -1    0    0    0  501  0.00000000000E+00  0.00000000000E+00 -0.16794038227E+04  0.16794038227E+04  0.25500000920E-02 0.  1.
    10030    2    1    2    0    0  0.00000000000E+00  0.00000000000E+00  0.38711309403E+03  0.37459207395E+04  0.37258644150E+04 0.  0.
        3    1    3    3  502    0 -0.42669507328E+03 -0.17897920185E+04 -0.99719454241E+02  0.18426524726E+04  0.10100000352E+00 0.  1.
       -3    1    3    3    0  502  0.42669507328E+03  0.17897920185E+04  0.48683254827E+03  0.19032682668E+04  0.10100000352E+00 0. -1.
</event>
<event>
 5   0  0.5177000E-08  0.3706980E+04  0.7818609E-02  0.8066417E-01
        1   -1    0    0  501    0  0.00000000000E+00  0.00000000000E+00  0.16423328330E+04  0.16423328330E+04  0.50400001928E-02 0.  1.
       -1   -1    0    0    0  501  0.00000000000E+00  0.00000000000E+00 -0.20917958376E+04  0.20917958376E+04  0.50400001928E-02 0. -1.
    10030    2    1    2    0    0  0.00000000000E+00  0.00000000000E+00 -0.44946300458E+03  0.37341286707E+04  0.37069798943E+04 0.  0.
        2    1    3    3  502    0  0.57231116485E+03  0.93307939337E+03 -0.17314290772E+04  0.20484198479E+04  0.25500000920E-02 0. -1.
       -2    1    3    3    0  502 -0.57231116485E+03 -0.93307939337E+03  0.12819660727E+04  0.16857088228E+04  0.25500000920E-02 0.  1.
</event>
<event>
 5   0  0.1587026E-07  0.3720972E+04  0.7818609E-02  0.8063330E-01
        2   -1    0    0  501    0  0.00000000000E+00  0.00000000000E+00  0.26266666988E+04  0.26266666988E+04  0.25500000920E-02 0. -1.
       -2   -1    0    0    0  501  0.00000000000E+00  0.00000000000E+00 -0.13177947768E+04  0.13177947768E+04  0.25500000920E-02 0.  1.
    10030    2    1    2    0    0  0.00000000000E+00  0.00000000000E+00  0.13088719220E+04  0.39444614757E+04  0.37209717313E+04 0.  0.
        3    1    3    3  502    0 -0.15892679525E+04  0.52281453247E+03 -0.20826189962E+03  0.16859658031E+04  0.10100000352E+00 0.  1.
       -3    1    3    3    0  502  0.15892679525E+04 -0.52281453247E+03  0.15171338216E+04  0.22584956726E+04  0.10100000352E+00 0. -1.
</event>
<event>
 5   0  0.1658770E-07  0.3700636E+04  0.7818609E-02  0.8067821E-01
       -2   -1    0    0    0  501  0.00000000000E+00  0.00000000000E+00  0.29378454952E+04  0.29378454952E+04  0.25500000920E-02 0. -1.
        2   -1    0    0  501    0  0.00000000000E+00  0.00000000000E+00 -0.11653699089E+04  0.11653699089E+04  0.25500000920E-02 0.  1.
    10030    2    1    2    0    0  0.00000000000E+00  0.00000000000E+00  0.17724755862E+04  0.41032154041E+04  0.37006360195E+04 0.  0.
        2    1    3    3  502    0  0.41085297721E+03  0.33438817579E+03  0.28519700203E+04  0.29007496648E+04  0.25500000920E-02 0. -1.
       -2    1    3    3    0  502 -0.41085297721E+03 -0.33438817579E+03 -0.10794944341E+04  0.12024657393E+04  0.25500000920E-02 0.  1.
</event>
<event>
 5   0  0.1587026E-07  0.3626153E+04  0.7818609E-02  0.8084527E-01
        2   -1    0    0  501    0  0.00000000000E+00  0.00000000000E+00  0.15157549592E+04  0.15157549592E+04  0.25500000920E-02 0.  1.
       -2   -1    0    0    0  501  0.00000000000E+00  0.00000000000E+00 -0.21687184302E+04  0.21687184302E+04  0.25500000920E-02 0. -1.
    10030    2    1    2    0    0  0.00000000000E+00  0.00000000000E+00 -0.65296347107E+03  0.36844733894E+04  0.36261526254E+04 0.  0.
        3    1    3    3  502    0 -0.19662829211E+03 -0.12473514450E+04  0.99548037325E+03  0.16079581762E+04  0.10100000352E+00 0.  1.
       -3    1    3    3    0  502  0.19662829211E+03  0.12473514450E+04 -0.16484438443E+04  0.20765152132E+04  0.10100000352E+00 0. -1.
</event>
<event>
 5   0  0.5181371E-08  0.3670412E+04  0.7818609E-02  0.8074551E-01
       -1   -1    0    0    0  501  0.00000000000E+00  0.00000000000E+00  0.17887146106E+04  0.17887146106E+04  0.50400001928E-02 0.  1.
        1   -1    0    0  501    0  0.00000000000E+00  0.00000000000E+00 -0.18829061628E+04  0.18829061628E+04  0.50400001928E-02 0. -1.
    10030    2    1    2    0    0  0.00000000000E+00  0.00000000000E+00 -0.94191552254E+02  0.36716207734E+04  0.36704123822E+04 0.  0.
        5    1    3    3  502    0 -0.91907960149E+03 -0.94227295578E+03 -0.13263342315E+04  0.18686278979E+04  0.46999998093E+01 0. -1.
       -5    1    3    3    0  502  0.91907960149E+03  0.94227295578E+03  0.12321426793E+04  0.18029928755E+04  0.46999998093E+01 0.  1.
</event>
<event>
 5   0  0.5181371E-08  0.3696003E+04  0.7818609E-02  0.8068848E-01
       -1   -1    0    0    0  501  0.00000000000E+00  0.00000000000E+00  0.20478803668E+04  0.20478803669E+04  0.50400001928E-02 0. -1.
        1   -1    0    0  501    0  0.00000000000E+00  0.00000000000E+00 -0.16676316121E+04  0.16676316121E+04  0.50400001928E-02 0.  1.
    10030    2    1    2    0    0  0.00000000000E+00  0.00000000000E+00  0.38024875478E+03  0.37155119789E+04  0.36960032671E+04 0.  0.
        5    1    3    3  502    0 -0.95351818783E+03 -0.15708126873E+04 -0.69679044205E+01  0.18375853925E+04  0.46999998093E+01 0.  1.
       -5    1    3    3    0  502  0.95351818783E+03  0.15708126873E+04  0.38721665920E+03  0.18779265865E+04  0.46999998093E+01 0. -1.
</event>
<event>
 5   0  0.1558258E-07  0.3702904E+04  0.7818609E-02  0.8067319E-01
       -2   -1    0    0    0  501  0.00000000000E+00  0.00000000000E+00  0.14414493900E+04  0.14414493900E+04  0.25500000920E-02 0. -1.
        2   -1    0    0  501    0  0.00000000000E+00  0.00000000000E+00 -0.23780742927E+04  0.23780742927E+04  0.25500000920E-02 0.  1.
    10030    2    1    2    0    0  0.00000000000E+00  0.00000000000E+00 -0.93662490269E+03  0.38195236827E+04  0.37029035843E+04 0.  0.
        1    1    3    3  502    0 -0.79842560591E+03 -0.13222596125E+03 -0.21859614585E+04  0.23309643179E+04  0.50400001928E-02 0.  1.
       -1    1    3    3    0  502  0.79842560591E+03  0.13222596125E+03  0.12493365558E+04  0.14885593649E+04  0.50400001928E-02 0. -1.
</event>
<event>
 5   0  0.5177000E-08  0.3697771E+04  0.7818609E-02  0.8068456E-01
       -1   -1    0    0    0  501  0.00000000000E+00  0.00000000000E+00  0.18359105203E+04  0.18359105203E+04  0.50400001928E-02 0. -1.
        1   -1    0    0  501    0  0.00000000000E+00  0.00000000000E+00 -0.18619519008E+04  0.18619519008E+04  0.50400001928E-02 0.  1.
    10030    2    1    2    0    0  0.00000000000E+00  0.00000000000E+00 -0.26041380456E+02  0.36978624211E+04  0.36977707247E+04 0.  0.
        4    1    3    3  502    0  0.12388143950E+04 -0.58035001319E+03  0.12307578060E+04  0.18401721748E+04  0.12699999809E+01 0. -1.
       -4    1    3    3    0  502 -0.12388143950E+04  0.58035001319E+03 -0.12567991864E+04  0.18576902463E+04  0.12699999809E+01 0.  1.
</event>
<event>
 5   0  0.1658770E-07  0.3738712E+04  0.7818609E-02  0.8059437E-01
        2   -1    0    0  501    0  0.00000000000E+00  0.00000000000E+00  0.15255221497E+04  0.15255221497E+04  0.25500000920E-02 0.  1.
       -2   -1    0    0    0  501  0.00000000000E+00  0.00000000000E+00 -0.22906856561E+04  0.22906856561E+04  0.25500000920E-02 0. -1.
    10030    2    1    2    0    0  0.00000000000E+00  0.00000000000E+00 -0.76516350641E+03  0.38162078059E+04  0.37387119207E+04 0.  0.
        2    1    3    3  502    0 -0.15167349216E+04 -0.51090992396E+01  0.73276185034E+03  0.16844734651E+04  0.25500000920E-02 0.  1.
       -2    1    3    3    0  502  0.15167349216E+04  0.51090992396E+01 -0.14979253567E+04  0.21317343408E+04  0.25500000920E-02 0. -1.
</event>
<event>
 5   0  0.5177000E-08  0.3709863E+04  0.7818609E-02  0.8065780E-01
        1   -1    0    0  501    0  0.00000000000E+00  0.00000000000E+00  0.22090247285E+04  0.22090247285E+04  0.50400001928E-02 0. -1.
       -1   -1    0    0    0  501  0.00000000000E+00  0.00000000000E+00 -0.15575974584E+04  0.15575974584E+04  0.50400001928E-02 0.  1.
    10030    2    1    2    0    0  0.00000000000E+00  0.00000000000E+00  0.65142727004E+03  0.37666221869E+04  0.37098632334E+04 0.  0.
        1    1    3    3  502    0  0.74976954352E+03  0.61264534515E+03  0.19320966465E+04  0.21611307546E+04  0.50400001928E-02 0. -1.
       -1    1    3    3    0  502 -0.74976954352E+03 -0.61264534515E+03 -0.12806693764E+04  0.16054914323E+04  0.50400001928E-02 0.  1.
</event>
<event>
 5   0  0.1666189E-07  0.3659932E+04  0.7818609E-02  0.8076900E-01
        2   -1    0    0  501    0  0.00000000000E+00  0.00000000000E+00  0.25241127376E+04  0.25241127376E+04  0.25500000920E-02 0.  1.
       -2   -1    0    0    0  501  0.00000000000E+00  0.00000000000E+00 -0.13267137084E+04  0.13267137084E+04  0.25500000920E-02 0. -1.
    10030    2    1    2    0    0  0.00000000000E+00  0.00000000000E+00  0.11973990293E+04  0.38508264460E+04  0.36599316772E+04 0.  0.
        4    1    3    3  502    0 -0.14680091079E+04 -0.10110983517E+04  0.16309753241E+03  0.17899645348E+04  0.12699999809E+01 0. -1.
       -4    1    3    3    0  502  0.14680091079E+04  0.10110983517E+04  0.10343014969E+04  0.20608619112E+04  0.12699999809E+01 0.  1.
</event>
<event>
 5   0  0.5177000E-08  0.3704833E+04  0.7818609E-02  0.8066892E-01
       -1   -1    0    0    0  501  0.00000000000E+00  0.00000000000E+00  0.15061184858E+04  0.15061184858E+04  0.50400001928E-02 0. -1.
        1   -1    0    0  501    0  0.00000000000E+00  0.00000000000E+00 -0.22783383213E+04  0.22783383213E+04  0.50400001928E-02 0.  1.
    10030    2    1    2    0    0  0.00000000000E+00  0.00000000000E+00 -0.77221983550E+03  0.37844568071E+04  0.37048333094E+04 0.  0.
        4    1    3    3  502    0 -0.14496845394E+04 -0.52159573073E+03  0.66448754951E+03  0.16778535951E+04  0.12699999809E+01 0. -1.
       -4    1    3    3    0  502  0.14496845394E+04  0.52159573073E+03 -0.14367073850E+04  0.21066032121E+04  0.12699999809E+01 0.  1.
</event>
<event>
 5   0  0.1686284E-07  0.3755928E+04  0.7818609E-02  0.8055679E-01
        2   -1    0    0  501    0  0.00000000000E+00  0.00000000000E+00  0.14202787468E+04  0.14202787468E+04  0.25500000920E-02 0.  1.
       -2   -1    0    0    0  501  0.00000000000E+00  0.00000000000E+00 -0.24831379708E+04  0.24831379708E+04  0.25500000920E-02 0. -1.
    10030    2    1    2    0    0  0.00000000000E+00  0.00000000000E+00 -0.10628592240E+04  0.39034167176E+04  0.37559276273E+04 0.  0.
        5    1    3    3  502    0 -0.70041000548E+03 -0.65498710194E+03  0.11466408329E+04  0.14947874662E+04  0.46999998093E+01 0.  1.
       -5    1    3    3    0  502  0.70041000548E+03  0.65498710194E+03 -0.22095000569E+04  0.24086292514E+04  0.46999998093E+01 0. -1.
</event>
<event>
 5   0  0.5177000E-08  0.3689848E+04  0.7818609E-02  0.8070215E-01
       -1   -1    0    0    0  501  0.00000000000E+00  0.00000000000E+00  0.11881678637E+04  0.11881678637E+04  0.50400001928E-02 0.  1.
        1   -1    0    0  501    0  0.00000000000E+00  0.00000000000E+00 -0.28646995588E+04  0.28646995588E+04  0.50400001928E-02 0. -1.
    10030    2    1    2    0    0  0.00000000000E+00  0.00000000000E+00 -0.16765316951E+04  0.40528674225E+04  0.36898476688E+04 0.  0.
        4    1    3    3  502    0 -0.53469320575E+03 -0.13211725417E+04 -0.21249921752E+04  0.25587080855E+04  0.12699999809E+01 0. -1.
       -4    1    3    3    0  502  0.53469320575E+03  0.13211725417E+04  0.44846048006E+03  0.14941593370E+04  0.12699999809E+01 0.  1.
</event>
<event>
 5   0  0.5181371E-08  0.3678829E+04  0.7818609E-02  0.8072670E-01
        1   -1    0    0  501    0  0.00000000000E+00  0.00000000000E+00  0.19829520859E+04  0.19829520859E+04  0.50400001928E-02 0. -1.
       -1   -1    0    0    0  501  0.00000000000E+00  0.00000000000E+00 -0.17062674337E+04  0.17062674337E+04  0.50400001928E-02 0.  1.
    10030    2    1    2    0    0  0.00000000000E+00  0.00000000000E+00  0.27668465216E+03  0.36892195196E+04  0.36788294696E+04 0.  0.
        5    1    3    3  502    0 -0.89967143710E+03 -0.16041135802E+04  0.16732730922E+03  0.18467835800E+04  0.46999998093E+01 0. -1.
       -5    1    3    3    0  502  0.89967143710E+03  0.16041135802E+04  0.10935734294E+03  0.18424359396E+04  0.46999998093E+01 0.  1.
</event>
<event>
 5   0  0.1558258E-07  0.3681009E+04  0.7818609E-02  0.8072183E-01
        2   -1    0    0  501    0  0.00000000000E+00  0.00000000000E+00  0.23873386468E+04  0.23873386468E+04  0.25500000920E-02 0.  1.
       -2   -1    0    0    0  501  0.00000000000E+00  0.00000000000E+00 -0.14189261413E+04  0.14189261413E+04  0.25500000920E-02 0. -1.
    10030    2    1    2    0    0  0.00000000000E+00  0.00000000000E+00  0.96841250553E+03  0.38062647881E+04  0.36810092171E+04 0.  0.
        1    1    3    3  502    0  0.73244842800E+03  0.12074237106E+04  0.17046673469E+04  0.22136493580E+04  0.50400001928E-02 0.  1.
       -1    1    3    3    0  502 -0.73244842800E+03 -0.12074237106E+04 -0.73625484142E+03  0.15926154301E+04  0.50400001928E-02 0. -1.
</event>
<event>
 5   0  0.5181371E-08  0.3696505E+04  0.7818609E-02  0.8068737E-01
       -1   -1    0    0    0  501  0.00000000000E+00  0.00000000000E+00  0.13953001431E+04  0.13953001431E+04  0.50400001928E-02 0.  1.
        1   -1    0    0  501    0  0.00000000000E+00  0.00000000000E+00 -0.24482450665E+04  0.24482450665E+04  0.50400001928E-02 0. -1.
    10030    2    1    2    0    0  0.00000000000E+00  0.00000000000E+00 -0.10529449234E+04  0.38435452096E+04  0.36965046688E+04 0.  0.
        5    1    3    3  502    0 -0.13804740017E+04  0.85166498102E+03 -0.14477024449E+04  0.21741449280E+04  0.46999998093E+01 0. -1.
       -5    1    3    3    0  502  0.13804740017E+04 -0.85166498102E+03  0.39475752148E+03  0.16694002815E+04  0.46999998093E+01 0.  1.
</event>
<event>
 5   0  0.1558258E-07  0.3563210E+04  0.7818609E-02  0.8098971E-01
        2   -1    0    0  501    0  0.00000000000E+00  0.00000000000E+00  0.24675861948E+04  0.24675861948E+04  0.25500000920E-02 0. -1.
       -2   -1    0    0    0  501  0.00000000000E+00  0.00000000000E+00 -0.12863246893E+04  0.12863246893E+04  0.25500000920E-02 0.  1.
    10030    2    1    2    0    0  0.00000000000E+00  0.00000000000E+00  0.11812615054E+04  0.37539108841E+04  0.35632103757E+04 0.  0.
        1    1    3    3  502    0 -0.11566399671E+04  0.49424392088E+03  0.19199132808E+04  0.22952472792E+04  0.50400001928E-02 0. -1.
       -1    1    3    3    0  502  0.11566399671E+04 -0.49424392088E+03 -0.73865177540E+03  0.14586636049E+04  0.50400001928E-02 0.  1.
</event>
<event>
 5   0  0.5177000E-08  0.3700853E+04  0.7818609E-02  0.8067773E-01
        1   -1    0    0  501    0  0.00000000000E+00  0.00000000000E+00  0.18587276919E+04  0.18587276919E+04  0.50400001928E-02 0.  1.
       -1   -1    0    0    0  501  0.00000000000E+00  0.00000000000E+00 -0.18421619797E+04  0.18421619797E+04  0.50400001928E-02 0. -1.
    10030    2    1    2    0    0  0.00000000000E+00  0.00000000000E+00  0.16565712243E+02  0.37008896716E+04  0.37008525962E+04 0.  0.
        3    1    3    3  502    0 -0.15756074046E+04  0.82881628375E+03  0.51286927092E+03  0.18527034369E+04  0.10100000352E+00 0. -1.
       -3    1    3    3    0  502  0.15756074046E+04 -0.82881628375E+03 -0.49630355868E+03  0.18481862347E+04  0.10100000352E+00 0.  1.
</event>
<event>
 5   0  0.5181371E-08  0.3494207E+04  0.7818609E-02  0.8115164E-01
       -1   -1    0    0    0  501  0.00000000000E+00  0.00000000000E+00  0.14733472873E+04  0.14733472873E+04  0.50400001928E-02 0.  1.
        1   -1    0    0  501    0  0.00000000000E+00  0.00000000000E+00 -0.20717251559E+04  0.20717251559E+04  0.50400001928E-02 0. -1.
    10030    2    1    2    0    0  0.00000000000E+00  0.00000000000E+00 -0.59837786859E+03  0.35450724432E+04  0.34942069993E+04 0.  0.
        5    1    3    3  502    0 -0.11399431903E+04 -0.12074665350E+04 -0.85014353497E+03  0.18655326398E+04  0.46999998093E+01 0.  1.
       -5    1    3    3    0  502  0.11399431903E+04  0.12074665350E+04  0.25176566638E+03  0.16795398033E+04  0.46999998093E+01 0. -1.
</event>
<event>
 5   0  0.1666189E-07  0.3775220E+04  0.7818609E-02  0.8051494E-01
        2   -1    0    0  501    0  0.00000000000E+00  0.00000000000E+00  0.15071067485E+04  0.15071067485E+04  0.25500000920E-02 0.  1.
       -2   -1    0    0    0  501  0.00000000000E+00  0.00000000000E+00 -0.23641802078E+04  0.23641802078E+04  0.25500000920E-02 0. -1.
    10030    2    1    2    0    0  0.00000000000E+00  0.00000000000E+00 -0.85707345930E+03  0.38712869563E+04  0.37752202298E+04 0.  0.
        4    1    3    3  502    0 -0.18654741438E+04 -0.27458324016E+03 -0.33866760168E+03  0.19157471374E+04  0.12699999809E+01 0. -1.
       -4    1    3    3    0  502  0.18654741438E+04  0.27458324016E+03 -0.51840585762E+03  0.19555398189E+04  0.12699999809E+01 0.  1.
</event>
<event>
 5   0  0.1658770E-07  0.3718752E+04  0.7818609E-02  0.8063819E-01
        2   -1    0    0  501    0  0.00000000000E+00  0.00000000000E+00  0.22912381964E+04  0.22912381964E+04  0.25500000920E-02 0. -1.
       -2   -1    0    0    0  501  0.00000000000E+00  0.00000000000E+00 -0.15089126010E+04  0.15089126010E+04  0.25500000920E-02 0.  1.
    10030    2    1    2    0    0  0.00000000000E+00  0.00000000000E+00  0.78232559540E+03  0.38001507974E+04  0.37187515036E+04 0.  0.
        2    1    3    3  502    0 -0.24401324647E+03 -0.17300450363E+04 -0.25890624685E+03  0.17662476431E+04  0.25500000920E-02 0.  1.
       -2    1    3    3    0  502  0.24401324647E+03  0.17300450363E+04  0.10412318422E+04  0.20339031544E+04  0.25500000920E-02 0. -1.
</event>
<event>
 5   0  0.5177000E-08  0.3684891E+04  0.7818609E-02  0.8071318E-01
       -1   -1    0    0    0  501  0.00000000000E+00  0.00000000000E+00  0.16920082109E+04  0.16920082109E+04  0.50400001928E-02 0. -1.
        1   -1    0    0  501    0  0.00000000000E+00  0.00000000000E+00 -0.20062587339E+04  0.20062587339E+04  0.50400001928E-02 0.  1.
    10030    2    1    2    0    0  0.00000000000E+00  0.00000000000E+00 -0.31425052307E+03  0.36982669448E+04  0.36848914508E+04 0.  0.
        4    1    3    3  502    0 -0.18243845038E+04 -0.13243147070E+03 -0.37857914611E+03  0.18679509348E+04  0.12699999809E+01 0.  1.
       -4    1    3    3    0  502  0.18243845038E+04  0.13243147070E+03  0.64328623041E+02  0.18303160100E+04  0.12699999809E+01 0. -1.
</event>
<event>
 5   0  0.1686284E-07  0.3712251E+04  0.7818609E-02  0.8065252E-01
       -2   -1    0    0    0  501  0.00000000000E+00  0.00000000000E+00  0.33884228958E+04  0.33884228958E+04  0.25500000920E-02 0. -1.
        2   -1    0    0  501    0  0.00000000000E+00  0.00000000000E+00 -0.10167566213E+04  0.10167566213E+04  0.25500000920E-02 0.  1.
    10030    2    1    2    0    0  0.00000000000E+00  0.00000000000E+00  0.23716662745E+04  0.44051795171E+04  0.37122507540E+04 0.  0.
        5    1    3    3  502    0  0.35232367269E+03 -0.11079588360E+04  0.29027930373E+04  0.31269688613E+04  0.46999998093E+01 0. -1.
       -5    1    3    3    0  502 -0.35232367269E+03  0.11079588360E+04 -0.53112676280E+03  0.12782106558E+04  0.46999998093E+01 0.  1.
</event>
<event>
 5   0  0.5177000E-08  0.3667940E+04  0.7818609E-02  0.8075104E-01
       -1   -1    0    0    0  501  0.00000000000E+00  0.00000000000E+00  0.14131766762E+04  0.14131766763E+04  0.50400001928E-02 0. -1.
        1   -1    0    0  501    0  0.00000000000E+00  0.00000000000E+00 -0.23800606736E+04  0.23800606736E+04  0.50400001928E-02 0.  1.
    10030    2    1    2    0    0  0.00000000000E+00  0.00000000000E+00 -0.96688399735E+03  0.37932373499E+04  0.36679401478E+04 0.  0.
        1    1    3    3  502    0 -0.13242168603E+04  0.89101706547E+03 -0.14176180722E+04  0.21347371507E+04  0.50400001928E-02 0.  1.
       -1    1    3    3    0  502  0.13242168603E+04 -0.89101706547E+03  0.45073407482E+03  0.16585001991E+04  0.50400001928E-02 0. -1.
</event>
<event>
 5   0  0.1666189E-07  0.3699627E+04  0.7818609E-02  0.8068044E-01
        2   -1    0    0  501    0  0.00000000000E+00  0.00000000000E+00  0.13156529228E+04  0.13156529228E+04  0.25500000920E-02 0.  1.
       -2   -1    0    0    0  501  0.00000000000E+00  0.00000000000E+00 -0.26008460063E+04  0.26008460063E+04  0.25500000920E-02 0. -1.
    10030    2    1    2    0    0  0.00000000000E+00  0.00000000000E+00 -0.12851930834E+04  0.39164989291E+04  0.36996273596E+04 0.  0.
        4    1    3    3  502    0 -0.83168129153E+03  0.16490562259E+04 -0.75224845459E+03  0.19942315706E+04  0.12699999809E+01 0.  1.
       -4    1    3    3    0  502  0.83168129153E+03 -0.16490562259E+04 -0.53294462886E+03  0.19222673584E+04  0.12699999809E+01 0. -1.
</event>
<event>
 5   0  0.5177000E-08  0.3688665E+04  0.7818609E-02  0.8070478E-01
        1   -1    0    0  501    0  0.00000000000E+00  0.00000000000E+00  0.24189561687E+04  0.24189561687E+04  0.50400001928E-02 0. -1.
       -1   -1    0    0    0  501  0.00000000000E+00  0.00000000000E+00 -0.14062106646E+04  0.14062106646E+04  0.50400001928E-02 0.  1.
    10030    2    1    2    0    0  0.00000000000E+00  0.00000000000E+00  0.10127455041E+04  0.38251668333E+04  0.36886647782E+04 0.  0.
        2    1    3    3  502    0  0.28374833368E+03  0.14577078004E+03 -0.13773847012E+04  0.14138425839E+04  0.25500000920E-02 0.  1.
       -2    1    3    3    0  502 -0.28374833368E+03 -0.14577078004E+03  0.23901302053E+04  0.24113242493E+04  0.25500000920E-02 0. -1.
</event>
<event>
 5   0  0.5177000E-08  0.3691099E+04  0.7818609E-02  0.8069937E-01
        1   -1    0    0  501    0  0.00000000000E+00  0.00000000000E+00  0.25314656161E+04  0.25314656161E+04  0.50400001928E-02 0.  1.
       -1   -1    0    0    0  501  0.00000000000E+00  0.00000000000E+00 -0.13454867449E+04  0.13454867449E+04  0.50400001928E-02 0. -1.
    10030    2    1    2    0    0  0.00000000000E+00  0.00000000000E+00  0.11859788712E+04  0.38769523610E+04  0.36910992573E+04 0.  0.
        2    1    3    3  502    0 -0.91189582235E+03  0.11102834718E+04 -0.62368333323E+03  0.15662899727E+04  0.25500000920E-02 0. -1.
       -2    1    3    3    0  502  0.91189582235E+03 -0.11102834718E+04  0.18096622044E+04  0.23106623883E+04  0.25500000920E-02 0.  1.
</event>
<event>
 5   0  0.1658770E-07  0.3708173E+04  0.7818609E-02  0.8066153E-01
        2   -1    0    0  501    0  0.00000000000E+00  0.00000000000E+00  0.26819337443E+04  0.26819337443E+04  0.25500000920E-02 0. -1.
       -2   -1    0    0    0  501  0.00000000000E+00  0.00000000000E+00 -0.12817754822E+04  0.12817754822E+04  0.25500000920E-02 0.  1.
    10030    2    1    2    0    0  0.00000000000E+00  0.00000000000E+00  0.14001582621E+04  0.39637092265E+04  0.37081730911E+04 0.  0.
        2    1    3    3  502    0 -0.15562620941E+04  0.78227851524E+03  0.20899113019E+02  0.17419380454E+04  0.25500000920E-02 0. -1.
       -2    1    3    3    0  502  0.15562620941E+04 -0.78227851524E+03  0.13792591490E+04  0.22217711811E+04  0.25500000920E-02 0.  1.
</event>
<event>
 5   0  0.5181371E-08  0.3695922E+04  0.7818609E-02  0.8068866E-01
       -1   -1    0    0    0  501  0.00000000000E+00  0.00000000000E+00  0.10998631616E+04  0.10998631616E+04  0.50400001928E-02 0. -1.
        1   -1    0    0  501    0  0.00000000000E+00  0.00000000000E+00 -0.31048948303E+04  0.31048948303E+04  0.50400001928E-02 0.  1.
    10030    2    1    2    0    0  0.00000000000E+00  0.00000000000E+00 -0.20050316687E+04  0.42047579919E+04  0.36959217765E+04 0.  0.
        5    1    3    3  502    0  0.12748858991E+04  0.13199999068E+04 -0.75534026650E+03  0.19845137485E+04  0.46999998093E+01 0.  1.
       -5    1    3    3    0  502 -0.12748858991E+04 -0.13199999068E+04 -0.12496914022E+04  0.22202442434E+04  0.46999998093E+01 0. -1.
</event>
<event>
 5   0  0.5177000E-08  0.3702513E+04  0.7818609E-02  0.8067405E-01
       -1   -1    0    0    0  501  0.00000000000E+00  0.00000000000E+00  0.17802013870E+04  0.17802013870E+04  0.50400001928E-02 0. -1.
        1   -1    0    0  501    0  0.00000000000E+00  0.00000000000E+00 -0.19251481166E+04  0.19251481166E+04  0.50400001928E-02 0.  1.
    10030    2    1    2    0    0  0.00000000000E+00  0.00000000000E+00 -0.14494672955E+03  0.37053495036E+04  0.37025133881E+04 0.  0.
        1    1    3    3  502    0 -0.11752985925E+04  0.13672914696E+04  0.34777520012E+03  0.18362353700E+04  0.50400001928E-02 0.  1.
       -1    1    3    3    0  502  0.11752985925E+04 -0.13672914696E+04 -0.49272192967E+03  0.18691141336E+04  0.50400001928E-02 0. -1.
</event>
<event>
 5   0  0.5181371E-08  0.3702583E+04  0.7818609E-02  0.8067390E-01
        1   -1    0    0  501    0  0.00000000000E+00  0.00000000000E+00  0.17765875358E+04  0.17765875358E+04  0.50400001928E-02 0. -1.
       -1   -1    0    0    0  501  0.00000000000E+00  0.00000000000E+00 -0.19291370992E+04  0.19291370992E+04  0.50400001928E-02 0.  1.
    10030    2    1    2    0    0  0.00000000000E+00  0.00000000000E+00 -0.15254956342E+03  0.37057246350E+04  0.37025833821E+04 0.  0.
        5    1    3    3  502    0 -0.83299035397E+03 -0.13267154137E+04 -0.10636268737E+04  0.18935075746E+04  0.46999998093E+01 0.  1.
       -5    1    3    3    0  502  0.83299035397E+03  0.13267154137E+04  0.91107731025E+03  0.18122170604E+04  0.46999998093E+01 0. -1.
</event>
<event>
 5   0  0.1658770E-07  0.3629693E+04  0.7818609E-02  0.8083724E-01
       -2   -1    0    0    0  501  0.00000000000E+00  0.00000000000E+00  0.16806303444E+04  0.16806303444E+04  0.25500000920E-02 0.  1.
        2   -1    0    0  501    0  0.00000000000E+00  0.00000000000E+00 -0.19597809637E+04  0.19597809637E+04  0.25500000920E-02 0. -1.
    10030    2    1    2    0    0  0.00000000000E+00  0.00000000000E+00 -0.27915061932E+03  0.36404113081E+04  0.36296927451E+04 0.  0.
        2    1    3    3  502    0  0.55341920909E+02 -0.38483444757E+03 -0.19175219527E+04  0.19565404977E+04  0.25500000920E-02 0. -1.
       -2    1    3    3    0  502 -0.55341920909E+02  0.38483444757E+03  0.16383713333E+04  0.16838708104E+04  0.25500000920E-02 0.  1.
</event>
<event>
 5   0  0.1658770E-07  0.3712659E+04  0.7818609E-02  0.8065162E-01
        2   -1    0    0  501    0  0.00000000000E+00  0.00000000000E+00  0.15166952243E+04  0.15166952243E+04  0.25500000920E-02 0.  1.
       -2   -1    0    0    0  501  0.00000000000E+00  0.00000000000E+00 -0.22720180691E+04  0.22720180691E+04  0.25500000920E-02 0. -1.
    10030    2    1    2    0    0  0.00000000000E+00  0.00000000000E+00 -0.75532284481E+03  0.37887132934E+04  0.37126588612E+04 0.  0.
        2    1    3    3  502    0 -0.90635133158E+02 -0.76719373237E+03 -0.21001841593E+04  0.22377610358E+04  0.25500000920E-02 0. -1.
       -2    1    3    3    0  502  0.90635133158E+02  0.76719373237E+03  0.13448613145E+04  0.15509522576E+04  0.25500000920E-02 0.  1.
</event>
<event>
 5   0  0.5177000E-08  0.3661257E+04  0.7818609E-02  0.8076602E-01
       -1   -1    0    0    0  501  0.00000000000E+00  0.00000000000E+00  0.13269878316E+04  0.13269878316E+04  0.50400001928E-02 0. -1.
        1   -1    0    0  501    0  0.00000000000E+00  0.00000000000E+00 -0.25254196420E+04  0.25254196420E+04  0.50400001928E-02 0.  1.
    10030    2    1    2    0    0  0.00000000000E+00  0.00000000000E+00 -0.11984318104E+04  0.38524074736E+04  0.36612572347E+04 0.  0.
        1    1    3    3  502    0 -0.54672598752E+03  0.37141641924E+03 -0.23954883470E+04  0.24849997752E+04  0.50400001928E-02 0.  1.
       -1    1    3    3    0  502  0.54672598752E+03 -0.37141641924E+03  0.11970565366E+04  0.13674076985E+04  0.50400001928E-02 0. -1.
</event>
<event>
 5   0  0.1587026E-07  0.3707530E+04  0.7818609E-02  0.8066295E-01
        2   -1    0    0  501    0  0.00000000000E+00  0.00000000000E+00  0.17406477674E+04  0.17406477674E+04  0.25500000920E-02 0.  1.
       -2   -1    0    0    0  501  0.00000000000E+00  0.00000000000E+00 -0.19742328839E+04  0.19742328839E+04  0.25500000920E-02 0. -1.
    10030    2    1    2    0    0  0.00000000000E+00  0.00000000000E+00 -0.23358511648E+03  0.37148806514E+04  0.37075296691E+04 0.  0.
        3    1    3    3  502    0  0.11899507445E+04 -0.10989712922E+04  0.78650660159E+03  0.18006424742E+04  0.10100000352E+00 0.  1.
       -3    1    3    3    0  502 -0.11899507445E+04  0.10989712922E+04 -0.10200917181E+04  0.19142381771E+04  0.10100000352E+00 0. -1.
</event>
<event>
 5   0  0.1587026E-07  0.3692433E+04  0.7818609E-02  0.8069641E-01
       -2   -1    0    0    0  501  0.00000000000E+00  0.00000000000E+00  0.29549404667E+04  0.29549404667E+04  0.25500000920E-02 0.  1.
        2   -1    0    0  501    0  0.00000000000E+00  0.00000000000E+00 -0.11534968450E+04  0.11534968450E+04  0.25500000920E-02 0. -1.
    10030    2    1    2    0    0  0.00000000000E+00  0.00000000000E+00  0.18014436217E+04  0.41084373116E+04  0.36924325345E+04 0.  0.
        3    1    3    3  502    0  0.18247307272E+04 -0.23198134417E+03  0.10768496382E+04  0.21314461579E+04  0.10100000352E+00 0. -1.
       -3    1    3    3    0  502 -0.18247307272E+04  0.23198134417E+03  0.72459398352E+03  0.19769911537E+04  0.10100000352E+00 0.  1.
</event>
<event>
 5   0  0.1666189E-07  0.3729393E+04  0.7818609E-02  0.8061479E-01
       -2   -1    0    0    0  501  0.00000000000E+00  0.00000000000E+00  0.13808411482E+04  0.13808411482E+04  0.25500000920E-02 0. -1.
        2   -1    0    0  501    0  0.00000000000E+00  0.00000000000E+00 -0.25180974412E+04  0.25180974412E+04  0.25500000920E-02 0.  1.
    10030    2    1    2    0    0  0.00000000000E+00  0.00000000000E+00 -0.11372562929E+04  0.38989385894E+04  0.37293927452E+04 0.  0.
        4    1    3    3  502    0 -0.10333264942E+04 -0.14089801672E+04  0.11220945445E+03  0.17508801586E+04  0.12699999809E+01 0. -1.
       -4    1    3    3    0  502  0.10333264942E+04  0.14089801672E+04 -0.12494657474E+04  0.21480584308E+04  0.12699999809E+01 0.  1.
</event>
<event>
 5   0  0.5177000E-08  0.3486637E+04  0.7818609E-02  0.8116964E-01
        1   -1    0    0  501    0  0.00000000000E+00  0.00000000000E+00  0.24296498191E+04  0.24296498191E+04  0.50400001928E-02 0. -1.
       -1   -1    0    0    0  501  0.00000000000E+00  0.00000000000E+00 -0.12508628992E+04  0.12508628992E+04  0.50400001928E-02 0.  1.
    10030    2    1    2    0    0  0.00000000000E+00  0.00000000000E+00  0.11787869199E+04  0.36805127183E+04  0.34866366698E+04 0.  0.
        4    1    3    3  502    0  0.84750588834E+03 -0.74850764498E+03  0.19900618979E+04  0.22888595186E+04  0.12699999809E+01 0. -1.
       -4    1    3    3    0  502 -0.84750588834E+03  0.74850764498E+03 -0.81127497807E+03  0.13916531997E+04  0.12699999809E+01 0.  1.
</event>
<event>
 5   0  0.5177000E-08  0.3713592E+04  0.7818609E-02  0.8064956E-01
        1   -1    0    0  501    0  0.00000000000E+00  0.00000000000E+00  0.20745970632E+04  0.20745970632E+04  0.50400001928E-02 0. -1.
       -1   -1    0    0    0  501  0.00000000000E+00  0.00000000000E+00 -0.16618610924E+04  0.16618610924E+04  0.50400001928E-02 0.  1.
    10030    2    1    2    0    0  0.00000000000E+00  0.00000000000E+00  0.41273597086E+03  0.37364581556E+04  0.37135924072E+04 0.  0.
        4    1    3    3  502    0 -0.13859963328E+04 -0.10992573777E+04 -0.36132047916E+03  0.18055211764E+04  0.12699999809E+01 0.  1.
       -4    1    3    3    0  502  0.13859963328E+04  0.10992573777E+04  0.77405645001E+03  0.19309369792E+04  0.12699999809E+01 0. -1.
</event>
<event>
 5   0  0.1686284E-07  0.3706943E+04  0.7818609E-02  0.8066425E-01
       -2   -1    0    0    0  501  0.00000000000E+00  0.00000000000E+00  0.15831751446E+04  0.15831751446E+04  0.25500000920E-02 0. -1.
        2   -1    0    0  501    0  0.00000000000E+00  0.00000000000E+00 -0.21699159633E+04  0.21699159633E+04  0.25500000920E-02 0.  1.
    10030    2    1    2    0    0  0.00000000000E+00  0.00000000000E+00 -0.58674081878E+03  0.37530911079E+04  0.37069432253E+04 0.  0.
        5    1    3    3  502    0  0.16174806753E+04  0.70666420676E+03  0.27910385085E+03  0.17870475891E+04  0.46999998093E+01 0. -1.
       -5    1    3    3    0  502 -0.16174806753E+04 -0.70666420676E+03 -0.86584466963E+03  0.19660435188E+04  0.46999998093E+01 0.  1.
</event>
<event>
 5   0  0.5177000E-08  0.3695411E+04  0.7818609E-02  0.8068979E-01
        1   -1    0    0  501    0  0.00000000000E+00  0.00000000000E+00  0.25121730172E+04  0.25121730172E+04  0.50400001928E-02 0.  1.
       -1   -1    0    0    0  501  0.00000000000E+00  0.00000000000E+00 -0.13589894092E+04  0.13589894092E+04  0.50400001928E-02 0. -1.
    10030    2    1    2    0    0  0.00000000000E+00  0.00000000000E+00  0.11531836080E+04  0.38711624263E+04  0.36954114923E+04 0.  0.
        4    1    3    3  502    0  0.42960968673E+03  0.13896500180E+04  0.17702225774E+04  0.22911528194E+04  0.12699999809E+01 0.  1.
       -4    1    3    3    0  502 -0.42960968673E+03 -0.13896500180E+04 -0.61703896941E+03  0.15800096069E+04  0.12699999809E+01 0. -1.
</event>
<event>
 5   0  0.1587026E-07  0.3696824E+04  0.7818609E-02  0.8068666E-01
       -2   -1    0    0    0  501  0.00000000000E+00  0.00000000000E+00  0.14309933788E+04  0.14309933788E+04  0.25500000920E-02 0. -1.
        2   -1    0    0  501    0  0.00000000000E+00  0.00000000000E+00 -0.23875906921E+04  0.23875906921E+04  0.25500000920E-02 0.  1.
    10030    2    1    2    0    0  0.00000000000E+00  0.00000000000E+00 -0.95659731336E+03  0.38185840709E+04  0.36968237565E+04 0.  0.
        3    1    3    3  502    0 -0.79292088311E+02  0.15810348449E+04 -0.14640188626E+04  0.21562257897E+04  0.10100000352E+00 0.  1.
       -3    1    3    3    0  502  0.79292088311E+02 -0.15810348449E+04  0.50742154920E+03  0.16623582811E+04  0.10100000352E+00 0. -1.
</event>
<event>
 5   0  0.1587026E-07  0.3676858E+04  0.7818609E-02  0.8073110E-01
        2   -1    0    0  501    0  0.00000000000E+00  0.00000000000E+00  0.11374118167E+04  0.11374118167E+04  0.25500000920E-02 0.  1.
       -2   -1    0    0    0  501  0.00000000000E+00  0.00000000000E+00 -0.29715015525E+04  0.29715015525E+04  0.25500000920E-02 0. -1.
    10030    2    1    2    0    0  0.00000000000E+00  0.00000000000E+00 -0.18340897358E+04  0.41089133692E+04  0.36768578864E+04 0.  0.
        3    1    3    3  502    0  0.18284731393E+04 -0.90350402654E+02 -0.72890587458E+03  0.19704773535E+04  0.10100000352E+00 0. -1.
       -3    1    3    3    0  502 -0.18284731393E+04  0.90350402654E+02 -0.11051838613E+04  0.21384360158E+04  0.10100000352E+00 0.  1.
</event>
<event>
 5   0  0.5177000E-08  0.3637109E+04  0.7818609E-02  0.8082044E-01
        1   -1    0    0  501    0  0.00000000000E+00  0.00000000000E+00  0.19684980965E+04  0.19684980965E+04  0.50400001928E-02 0. -1.
       -1   -1    0    0    0  501  0.00000000000E+00  0.00000000000E+00 -0.16800320589E+04  0.16800320589E+04  0.50400001928E-02 0.  1.
    10030    2    1    2    0    0  0.00000000000E+00  0.00000000000E+00  0.28846603759E+03  0.36485301554E+04  0.36371086923E+04 0.  0.
        4    1    3    3  502    0  0.17453773651E+04 -0.26845006595E+03 -0.29156269033E+03  0.17898094871E+04  0.12699999809E+01 0.  1.
       -4    1    3    3    0  502 -0.17453773651E+04  0.26845006595E+03  0.58002872792E+03  0.18587206683E+04  0.12699999809E+01 0. -1.
</event>
<event>
 5   0  0.5177000E-08  0.3690894E+04  0.7818609E-02  0.8069983E-01
       -1   -1    0    0    0  501  0.00000000000E+00  0.00000000000E+00  0.23513774648E+04  0.23513774648E+04  0.50400001928E-02 0.  1.
        1   -1    0    0  501    0  0.00000000000E+00  0.00000000000E+00 -0.14483742830E+04  0.14483742830E+04  0.50400001928E-02 0. -1.
    10030    2    1    2    0    0  0.00000000000E+00  0.00000000000E+00  0.90300318177E+03  0.37997517478E+04  0.36908940108E+04 0.  0.
        3    1    3    3  502    0 -0.67489718045E+03 -0.40261601161E+03 -0.12675026535E+04  0.14913580535E+04  0.10100000352E+00 0. -1.
       -3    1    3    3    0  502  0.67489718045E+03  0.40261601161E+03  0.21705058352E+04  0.23083936943E+04  0.10100000352E+00 0.  1.
</event>
<event>
 5   0  0.5177000E-08  0.3713922E+04  0.7818609E-02  0.8064884E-01
       -1   -1    0    0    0  501  0.00000000000E+00  0.00000000000E+00  0.14735924481E+04  0.14735924481E+04  0.50400001928E-02 0.  1.
        1   -1    0    0  501    0  0.00000000000E+00  0.00000000000E+00 -0.23400658591E+04  0.23400658591E+04  0.50400001928E-02 0. -1.
    10030    2    1    2    0    0  0.00000000000E+00  0.00000000000E+00 -0.86647341100E+03  0.38136583072E+04  0.37139215813E+04 0.  0.
        4    1    3    3  502    0  0.16955192582E+04 -0.48970779793E+03 -0.10264198041E+04  0.20416019469E+04  0.12699999809E+01 0. -1.
       -4    1    3    3    0  502 -0.16955192582E+04  0.48970779793E+03  0.15994639307E+03  0.17720563603E+04  0.12699999809E+01 0.  1.
</event>
<event>
 5   0  0.1686284E-07  0.3695503E+04  0.7818609E-02  0.8068959E-01
       -2   -1    0    0    0  501  0.00000000000E+00  0.00000000000E+00  0.99959396543E+03  0.99959396544E+03  0.25500000920E-02 0.  1.
        2   -1    0    0  501    0  0.00000000000E+00  0.00000000000E+00 -0.34155728533E+04  0.34155728533E+04  0.25500000920E-02 0. -1.
    10030    2    1    2    0    0  0.00000000000E+00  0.00000000000E+00 -0.24159788879E+04  0.44151668188E+04  0.36955032202E+04 0.  0.
        5    1    3    3  502    0 -0.79711045559E+03 -0.16651175705E+04 -0.11142017891E+04  0.21562628130E+04  0.46999998093E+01 0. -1.
       -5    1    3    3    0  502  0.79711045559E+03  0.16651175705E+04 -0.13017770988E+04  0.22589040057E+04  0.46999998093E+01 0.  1.
</event>
<event>
 5   0  0.5177000E-08  0.3771886E+04  0.7818609E-02  0.8052215E-01
        1   -1    0    0  501    0  0.00000000000E+00  0.00000000000E+00  0.22654975365E+04  0.22654975366E+04  0.50400001928E-02 0. -1.
       -1   -1    0    0    0  501  0.00000000000E+00  0.00000000000E+00 -0.15699780388E+04  0.15699780388E+04  0.50400001928E-02 0.  1.
    10030    2    1    2    0    0  0.00000000000E+00  0.00000000000E+00  0.69551949778E+03  0.38354755753E+04  0.37718862015E+04 0.  0.
        4    1    3    3  502    0  0.48329396482E+02  0.11111206627E+04  0.18965444560E+04  0.21985921278E+04  0.12699999809E+01 0. -1.
       -4    1    3    3    0  502 -0.48329396482E+02 -0.11111206627E+04 -0.12010249582E+04  0.16368834476E+04  0.12699999809E+01 0.  1.
</event>
<event>
 5   0  0.5177000E-08  0.3698986E+04  0.7818609E-02  0.8068187E-01
       -1   -1    0    0    0  501  0.00000000000E+00  0.00000000000E+00  0.13918445118E+04  0.13918445119E+04  0.50400001928E-02 0.  1.
        1   -1    0    0  501    0  0.00000000000E+00  0.00000000000E+00 -0.24576197146E+04  0.24576197146E+04  0.50400001928E-02 0. -1.
    10030    2    1    2    0    0  0.00000000000E+00  0.00000000000E+00 -0.10657752028E+04  0.38494642265E+04  0.36989860838E+04 0.  0.
        2    1    3    3  502    0 -0.12404474362E+04 -0.12833542930E+04 -0.28488521630E+02  0.17850825413E+04  0.25500000920E-02 0.  1.
       -2    1    3    3    0  502  0.12404474362E+04  0.12833542930E+04 -0.10372866812E+04  0.20643816852E+04  0.25500000920E-02 0. -1.
</event>
<event>
 5   0  0.5181371E-08  0.3688387E+04  0.7818609E-02  0.8070540E-01
        1   -1    0    0  501    0  0.00000000000E+00  0.00000000000E+00  0.16856856381E+04  0.16856856381E+04  0.50400001928E-02 0.  1.
       -1   -1    0    0    0  501  0.00000000000E+00  0.00000000000E+00 -0.20176058392E+04  0.20176058392E+04  0.50400001928E-02 0. -1.
    10030    2    1    2    0    0  0.00000000000E+00  0.00000000000E+00 -0.33192020115E+03  0.37032914773E+04  0.36883867403E+04 0.  0.
        5    1    3    3  502    0  0.15921654699E+04 -0.34034725728E+03  0.70368080814E+03  0.17737011893E+04  0.46999998093E+01 0.  1.
       -5    1    3    3    0  502 -0.15921654699E+04  0.34034725728E+03 -0.10356010093E+04  0.19295902880E+04  0.46999998093E+01 0. -1.
</event>
<event>
 5   0  0.1658770E-07  0.3707984E+04  0.7818609E-02  0.8066195E-01
       -2   -1    0    0    0  501  0.00000000000E+00  0.00000000000E+00  0.16548779684E+04  0.16548779684E+04  0.25500000920E-02 0. -1.
        2   -1    0    0  501    0  0.00000000000E+00  0.00000000000E+00 -0.20770635576E+04  0.20770635576E+04  0.25500000920E-02 0.  1.
    10030    2    1    2    0    0  0.00000000000E+00  0.00000000000E+00 -0.42218558919E+03  0.37319415260E+04  0.37079842073E+04 0.  0.
        2    1    3    3  502    0  0.17117867301E+04 -0.20724348468E+03  0.47457463954E+03  0.17884028516E+04  0.25500000920E-02 0. -1.
       -2    1    3    3    0  502 -0.17117867301E+04  0.20724348468E+03 -0.89676022873E+03  0.19435386744E+04  0.25500000920E-02 0.  1.
</event>
<event>
 5   0  0.1666189E-07  0.3697149E+04  0.7818609E-02  0.8068594E-01
       -2   -1    0    0    0  501  0.00000000000E+00  0.00000000000E+00  0.29240534337E+04  0.29240534337E+04  0.25500000920E-02 0. -1.
        2   -1    0    0  501    0  0.00000000000E+00  0.00000000000E+00 -0.11686611484E+04  0.11686611484E+04  0.25500000920E-02 0.  1.
    10030    2    1    2    0    0  0.00000000000E+00  0.00000000000E+00  0.17553922853E+04  0.40927145821E+04  0.36971489793E+04 0.  0.
        4    1    3    3  502    0 -0.13432926056E+04  0.29370831488E+03 -0.49002220232E+03  0.14597338696E+04  0.12699999809E+01 0.  1.
       -4    1    3    3    0  502  0.13432926056E+04 -0.29370831488E+03  0.22454144876E+04  0.26329807125E+04  0.12699999809E+01 0. -1.
</event>
<event>
 5   0  0.1587026E-07  0.3698933E+04  0.7818609E-02  0.8068198E-01
       -2   -1    0    0    0  501  0.00000000000E+00  0.00000000000E+00  0.14995694930E+04  0.14995694930E+04  0.25500000920E-02 0. -1.
        2   -1    0    0  501    0  0.00000000000E+00  0.00000000000E+00 -0.22810059628E+04  0.22810059628E+04  0.25500000920E-02 0.  1.
    10030    2    1    2    0    0  0.00000000000E+00  0.00000000000E+00 -0.78143646982E+03  0.37805754558E+04  0.36989333356E+04 0.  0.
        3    1    3    3  502    0 -0.10443737539E+04 -0.73421781534E+03 -0.17584376741E+04  0.21729922693E+04  0.10100000352E+00 0.  1.
       -3    1    3    3    0  502  0.10443737539E+04  0.73421781534E+03  0.97700120432E+03  0.16075831866E+04  0.10100000352E+00 0. -1.
</event>
<event>
 5   0  0.5177000E-08  0.3688600E+04  0.7818609E-02  0.8070493E-01
        1   -1    0    0  501    0  0.00000000000E+00  0.00000000000E+00  0.12856863807E+04  0.12856863807E+04  0.50400001928E-02 0. -1.
       -1   -1    0    0    0  501  0.00000000000E+00  0.00000000000E+00 -0.26456238965E+04  0.26456238965E+04  0.50400001928E-02 0.  1.
    10030    2    1    2    0    0  0.00000000000E+00  0.00000000000E+00 -0.13599375157E+04  0.39313102772E+04  0.36886000663E+04 0.  0.
        1    1    3    3  502    0  0.15042851751E+04  0.10604702578E+04 -0.80594775557E+03  0.20092343916E+04  0.50400001928E-02 0. -1.
       -1    1    3    3    0  502 -0.15042851751E+04 -0.10604702578E+04 -0.55398976017E+03  0.19220758856E+04  0.50400001928E-02 0.  1.
</event>
<event>
 5   0  0.5177000E-08  0.3702662E+04  0.7818609E-02  0.8067372E-01
        1   -1    0    0  501    0  0.00000000000E+00  0.00000000000E+00  0.25960622555E+04  0.25960622555E+04  0.50400001928E-02 0. -1.
       -1   -1    0    0    0  501  0.00000000000E+00  0.00000000000E+00 -0.13202404648E+04  0.13202404648E+04  0.50400001928E-02 0.  1.
    10030    2    1    2    0    0  0.00000000000E+00  0.00000000000E+00  0.12758217907E+04  0.39163027203E+04  0.37026619823E+04 0.  0.
        3    1    3    3  502    0 -0.17696214302E+04  0.47573980342E+03  0.91682692729E+03  0.20490143952E+04  0.10100000352E+00 0. -1.
       -3    1    3    3    0  502  0.17696214302E+04 -0.47573980342E+03  0.35899486338E+03  0.18672883251E+04  0.10100000352E+00 0.  1.
</event>
<event>
 5   0  0.5181371E-08  0.3687834E+04  0.7818609E-02  0.8070663E-01
        1   -1    0    0  501    0  0.00000000000E+00  0.00000000000E+00  0.30586160268E+04  0.30586160268E+04  0.50400001928E-02 0.  1.
       -1   -1    0    0    0  501  0.00000000000E+00  0.00000000000E+00 -0.11116238775E+04  0.11116238775E+04  0.50400001928E-02 0. -1.
    10030    2    1    2    0    0  0.00000000000E+00  0.00000000000E+00  0.19469921493E+04  0.41702399043E+04  0.36878343821E+04 0.  0.
        5    1    3    3  502    0 -0.46289389868E+03  0.17064251865E+04  0.38173462636E+03  0.18088397092E+04  0.46999998093E+01 0.  1.
       -5    1    3    3    0  502  0.46289389868E+03 -0.17064251865E+04  0.15652575229E+04  0.23614001951E+04  0.46999998093E+01 0. -1.
</event>
<event>
 5   0  0.5181371E-08  0.3697475E+04  0.7818609E-02  0.8068522E-01
       -1   -1    0    0    0  501  0.00000000000E+00  0.00000000000E+00  0.27022141669E+04  0.27022141669E+04  0.50400001928E-02 0. -1.
        1   -1    0    0  501    0  0.00000000000E+00  0.00000000000E+00 -0.12648255716E+04  0.12648255716E+04  0.50400001928E-02 0.  1.
    10030    2    1    2    0    0  0.00000000000E+00  0.00000000000E+00  0.14373885953E+04  0.39670397385E+04  0.36974745858E+04 0.  0.
        5    1    3    3  502    0  0.16868733652E+04 -0.73716006390E+03  0.53642422282E+03  0.19174774436E+04  0.46999998093E+01 0. -1.
       -5    1    3    3    0  502 -0.16868733652E+04  0.73716006390E+03  0.90096437252E+03  0.20495622949E+04  0.46999998093E+01 0.  1.
</event>
<event>
 5   0  0.1658770E-07  0.3677275E+04  0.7818609E-02  0.8073017E-01
        2   -1    0    0  501    0  0.00000000000E+00  0.00000000000E+00  0.18006773481E+04  0.18006773481E+04  0.25500000920E-02 0.  1.
       -2   -1    0    0    0  501  0.00000000000E+00  0.00000000000E+00 -0.18773978766E+04  0.18773978766E+04  0.25500000920E-02 0. -1.
    10030    2    1    2    0    0  0.00000000000E+00  0.00000000000E+00 -0.76720528517E+02  0.36780752246E+04  0.36772749854E+04 0.  0.
        2    1    3    3  502    0  0.69006310370E+03 -0.11240945179E+04 -0.13195809610E+04  0.18657624407E+04  0.25500000920E-02 0. -1.
       -2    1    3    3    0  502 -0.69006310370E+03  0.11240945179E+04  0.12428604325E+04  0.18123127840E+04  0.25500000920E-02 0.  1.
</event>
<event>
 5   0  0.1658770E-07  0.3692513E+04  0.7818609E-02  0.8069623E-01
        2   -1    0    0  501    0  0.00000000000E+00  0.00000000000E+00  0.13605763289E+04  0.13605763289E+04  0.25500000920E-02 0. -1.
       -2   -1    0    0    0  501  0.00000000000E+00  0.00000000000E+00 -0.25053086780E+04  0.25053086780E+04  0.25500000920E-02 0.  1.
    10030    2    1    2    0    0  0.00000000000E+00  0.00000000000E+00 -0.11447323491E+04  0.38658850069E+04  0.36925133358E+04 0.  0.
        2    1    3    3  502    0 -0.31525889330E+03 -0.14233311607E+04 -0.17584313100E+04  0.22841498276E+04  0.25500000920E-02 0.  1.
       -2    1    3    3    0  502  0.31525889330E+03  0.14233311607E+04  0.61369896086E+03  0.15817351793E+04  0.25500000920E-02 0. -1.
</event>
<event>
 5   0  0.5177000E-08  0.3695762E+04  0.7818609E-02  0.8068902E-01
       -1   -1    0    0    0  501  0.00000000000E+00  0.00000000000E+00  0.19913385413E+04  0.19913385413E+04  0.50400001928E-02 0.  1.
        1   -1    0    0  501    0  0.00000000000E+00  0.00000000000E+00 -0.17147583783E+04  0.17147583783E+04  0.50400001928E-02 0. -1.
    10030    2    1    2    0    0  0.00000000000E+00  0.00000000000E+00  0.27658016301E+03  0.37060969197E+04  0.36957621395E+04 0.  0.
        3    1    3    3  502    0 -0.14466800317E+04 -0.76911283663E+03  0.99522449168E+03  0.19170001222E+04  0.10100000352E+00 0.  1.
       -3    1    3    3    0  502  0.14466800317E+04  0.76911283663E+03 -0.71864432867E+03  0.17890967975E+04  0.10100000352E+00 0. -1.
</event>
<event>
 5   0  0.5177000E-08  0.3644022E+04  0.7818609E-02  0.8080482E-01
       -1   -1    0    0    0  501  0.00000000000E+00  0.00000000000E+00  0.17314168859E+04  0.17314168859E+04  0.50400001928E-02 0.  1.
        1   -1    0    0  501    0  0.00000000000E+00  0.00000000000E+00 -0.19173456229E+04  0.19173456229E+04  0.50400001928E-02 0. -1.
    10030    2    1    2    0    0  0.00000000000E+00  0.00000000000E+00 -0.18592873694E+03  0.36487625088E+04  0.36440222764E+04 0.  0.
        1    1    3    3  502    0 -0.60404264267E+02 -0.16862600170E+04  0.59539121852E+03  0.17893049554E+04  0.50400001928E-02 0.  1.
       -1    1    3    3    0  502  0.60404264267E+02  0.16862600170E+04 -0.78131995547E+03  0.18594575534E+04  0.50400001928E-02 0. -1.
</event>
<event>
 5   0  0.1558258E-07  0.3699600E+04  0.7818609E-02  0.8068050E-01
       -2   -1    0    0    0  501  0.00000000000E+00  0.00000000000E+00  0.14145826790E+04  0.14145826790E+04  0.25500000920E-02 0. -1.
        2   -1    0    0  501    0  0.00000000000E+00  0.00000000000E+00 -0.24189183251E+04  0.24189183251E+04  0.25500000920E-02 0.  1.
    10030    2    1    2    0    0  0.00000000000E+00  0.00000000000E+00 -0.10043356460E+04  0.38335010041E+04  0.36995999593E+04 0.  0.
        1    1    3    3  502    0  0.15479065520E+03 -0.16084343591E+04 -0.14351670321E+04  0.21611861661E+04  0.50400001928E-02 0.  1.
       -1    1    3    3    0  502 -0.15479065520E+03  0.16084343591E+04  0.43083138606E+03  0.16723148380E+04  0.50400001928E-02 0. -1.
</event>
<event>
 5   0  0.1686284E-07  0.3858929E+04  0.7818609E-02  0.8033626E-01
        2   -1    0    0  501    0  0.00000000000E+00  0.00000000000E+00  0.12413949515E+04  0.12413949515E+04  0.25500000920E-02 0. -1.
       -2   -1    0    0    0  501  0.00000000000E+00  0.00000000000E+00 -0.29989114988E+04  0.29989114988E+04  0.25500000920E-02 0.  1.
    10030    2    1    2    0    0  0.00000000000E+00  0.00000000000E+00 -0.17575165474E+04  0.42403064503E+04  0.38589291751E+04 0.  0.
        5    1    3    3  502    0 -0.99735225662E+03  0.71263310216E+03 -0.25160715051E+04  0.27987846239E+04  0.46999998093E+01 0.  1.
       -5    1    3    3    0  502  0.99735225662E+03 -0.71263310216E+03  0.75855495778E+03  0.14415218264E+04  0.46999998093E+01 0. -1.
</event>
<event>
 5   0  0.5177000E-08  0.3701458E+04  0.7818609E-02  0.8067639E-01
       -1   -1    0    0    0  501  0.00000000000E+00  0.00000000000E+00  0.14826575350E+04  0.14826575350E+04  0.50400001928E-02 0. -1.
        1   -1    0    0  501    0  0.00000000000E+00  0.00000000000E+00 -0.23101745508E+04  0.23101745508E+04  0.50400001928E-02 0.  1.
    10030    2    1    2    0    0  0.00000000000E+00  0.00000000000E+00 -0.82751701582E+03  0.37928320858E+04  0.37014579317E+04 0.  0.
        2    1    3    3  502    0  0.64614060775E+03  0.10053422145E+04  0.10342743706E+04  0.15804854087E+04  0.25500000920E-02 0. -1.
       -2    1    3    3    0  502 -0.64614060775E+03 -0.10053422145E+04 -0.18617913864E+04  0.22123466772E+04  0.25500000920E-02 0.  1.
</event>
<event>
 5   0  0.5177000E-08  0.3712372E+04  0.7818609E-02  0.8065225E-01
        1   -1    0    0  501    0  0.00000000000E+00  0.00000000000E+00  0.25543883088E+04  0.25543883088E+04  0.50400001928E-02 0.  1.
       -1   -1    0    0    0  501  0.00000000000E+00  0.00000000000E+00 -0.13488266448E+04  0.13488266448E+04  0.50400001928E-02 0. -1.
    10030    2    1    2    0    0  0.00000000000E+00  0.00000000000E+00  0.12055616640E+04  0.39032149537E+04  0.37123722939E+04 0.  0.
        2    1    3    3  502    0 -0.14159304231E+04  0.11095518819E+04  0.10839793314E+04  0.21002322568E+04  0.25500000920E-02 0.  1.
       -2    1    3    3    0  502  0.14159304231E+04 -0.11095518819E+04  0.12158233257E+03  0.18029826969E+04  0.25500000920E-02 0. -1.
</event>
<event>
 5   0  0.5177000E-08  0.3716394E+04  0.7818609E-02  0.8064338E-01
        1   -1    0    0  501    0  0.00000000000E+00  0.00000000000E+00  0.20153055084E+04  0.20153055084E+04  0.50400001928E-02 0. -1.
       -1   -1    0    0    0  501  0.00000000000E+00  0.00000000000E+00 -0.17133359572E+04  0.17133359573E+04  0.50400001928E-02 0.  1.
    10030    2    1    2    0    0  0.00000000000E+00  0.00000000000E+00  0.30196955117E+03  0.37286414657E+04  0.37163936242E+04 0.  0.
        3    1    3    3  502    0  0.78356284430E+02  0.69892123818E+03  0.18766138126E+04  0.20040733560E+04  0.10100000352E+00 0. -1.
       -3    1    3    3    0  502 -0.78356284430E+02 -0.69892123818E+03 -0.15746442614E+04  0.17245681096E+04  0.10100000352E+00 0.  1.
</event>
<event>
 5   0  0.1587026E-07  0.3705582E+04  0.7818609E-02  0.8066726E-01
       -2   -1    0    0    0  501  0.00000000000E+00  0.00000000000E+00  0.13459002505E+04  0.13459002505E+04  0.25500000920E-02 0. -1.
        2   -1    0    0  501    0  0.00000000000E+00  0.00000000000E+00 -0.25505860478E+04  0.25505860478E+04  0.25500000920E-02 0.  1.
    10030    2    1    2    0    0  0.00000000000E+00  0.00000000000E+00 -0.12046857974E+04  0.38964862983E+04  0.37055819519E+04 0.  0.
        3    1    3    3  502    0  0.57684845005E+03 -0.43576809450E+03  0.11914699735E+04  0.13936458210E+04  0.10100000352E+00 0. -1.
       -3    1    3    3    0  502 -0.57684845005E+03  0.43576809450E+03 -0.23961557708E+04  0.25028404773E+04  0.10100000352E+00 0.  1.
</event>
<event>
 5   0  0.5181371E-08  0.3690089E+04  0.7818609E-02  0.8070162E-01
        1   -1    0    0  501    0  0.00000000000E+00  0.00000000000E+00  0.21476003361E+04  0.21476003361E+04  0.50400001928E-02 0.  1.
       -1   -1    0    0    0  501  0.00000000000E+00  0.00000000000E+00 -0.15851127115E+04  0.15851127115E+04  0.50400001928E-02 0. -1.
    10030    2    1    2    0    0  0.00000000000E+00  0.00000000000E+00  0.56248762462E+03  0.37327130476E+04  0.36900886667E+04 0.  0.
        5    1    3    3  502    0  0.16396475703E+03 -0.47511516389E+03 -0.15145221748E+04  0.15957500958E+04  0.46999998093E+01 0. -1.
       -5    1    3    3    0  502 -0.16396475703E+03  0.47511516389E+03  0.20770097994E+04  0.21369629518E+04  0.46999998093E+01 0.  1.
</event>
<event>
 5   0  0.5177000E-08  0.3720311E+04  0.7818609E-02  0.8063476E-01
        1   -1    0    0  501    0  0.00000000000E+00  0.00000000000E+00  0.24535701929E+04  0.24535701929E+04  0.50400001928E-02 0. -1.
       -1   -1    0    0    0  501  0.00000000000E+00  0.00000000000E+00 -0.14102626388E+04  0.14102626388E+04  0.50400001928E-02 0.  1.
    10030    2    1    2    0    0  0.00000000000E+00  0.00000000000E+00  0.10433075541E+04  0.38638328317E+04  0.37203109411E+04 0.  0.
        2    1    3    3  502    0 -0.17075824028E+04 -0.20410232395E+02 -0.24431003838E+03  0.17250917757E+04  0.25500000920E-02 0.  1.
       -2    1    3    3    0  502  0.17075824028E+04  0.20410232395E+02  0.12876175925E+04  0.21387410559E+04  0.25500000920E-02 0. -1.
</event>
<event>
 5   0  0.1587026E-07  0.3696944E+04  0.7818609E-02  0.8068639E-01
       -2   -1    0    0    0  501  0.00000000000E+00  0.00000000000E+00  0.18444714498E+04  0.18444714498E+04  0.25500000920E-02 0. -1.
        2   -1    0    0  501    0  0.00000000000E+00  0.00000000000E+00 -0.18524814459E+04  0.18524814459E+04  0.25500000920E-02 0.  1.
    10030    2    1    2    0    0  0.00000000000E+00  0.00000000000E+00 -0.80099960776E+01  0.36969528958E+04  0.36969442183E+04 0.  0.
        3    1    3    3  502    0 -0.84263849632E+01 -0.53497765563E+02  0.18436779129E+04  0.18444731692E+04  0.10100000352E+00 0. -1.
       -3    1    3    3    0  502  0.84263849632E+01  0.53497765563E+02 -0.18516879090E+04  0.18524797266E+04  0.10100000352E+00 0.  1.
</event>
<event>
 5   0  0.1686284E-07  0.3689395E+04  0.7818609E-02  0.8070316E-01
       -2   -1    0    0    0  501  0.00000000000E+00  0.00000000000E+00  0.22354927776E+04  0.22354927776E+04  0.25500000920E-02 0.  1.
        2   -1    0    0  501    0  0.00000000000E+00  0.00000000000E+00 -0.15222186275E+04  0.15222186275E+04  0.25500000920E-02 0. -1.
    10030    2    1    2    0    0  0.00000000000E+00  0.00000000000E+00  0.71327415009E+03  0.37577114050E+04  0.36893949355E+04 0.  0.
        5    1    3    3  502    0  0.14293854456E+04 -0.10853141494E+04 -0.77682623316E+02  0.17964148282E+04  0.46999998093E+01 0. -1.
       -5    1    3    3    0  502 -0.14293854456E+04  0.10853141494E+04  0.79095677340E+03  0.19612965769E+04  0.46999998093E+01 0.  1.
</event>
<event>
 5   0  0.1686284E-07  0.3700362E+04  0.7818609E-02  0.8067882E-01
        2   -1    0    0  501    0  0.00000000000E+00  0.00000000000E+00  0.26906389956E+04  0.26906389956E+04  0.25500000920E-02 0.  1.
       -2   -1    0    0    0  501  0.00000000000E+00  0.00000000000E+00 -0.12722512663E+04  0.12722512663E+04  0.25500000920E-02 0. -1.
    10030    2    1    2    0    0  0.00000000000E+00  0.00000000000E+00  0.14183877292E+04  0.39628902619E+04  0.37003615334E+04 0.  0.
        5    1    3    3  502    0 -0.15482687727E+04  0.57704586656E+03  0.16007393076E+04  0.23005448367E+04  0.46999998093E+01 0.  1.
       -5    1    3    3    0  502  0.15482687727E+04 -0.57704586656E+03 -0.18235157831E+03  0.16623454253E+04  0.46999998093E+01 0. -1.
</event>
<event>
 5   0  0.1686284E-07  0.3704385E+04  0.7818609E-02  0.8066991E-01
        2   -1    0    0  501    0  0.00000000000E+00  0.00000000000E+00  0.19085207538E+04  0.19085207538E+04  0.25500000920E-02 0.  1.
       -2   -1    0    0    0  501  0.00000000000E+00  0.00000000000E+00 -0.17975267565E+04  0.17975267565E+04  0.25500000920E-02 0. -1.
    10030    2    1    2    0    0  0.00000000000E+00  0.00000000000E+00  0.11099399724E+03  0.37060475103E+04  0.37043850341E+04 0.  0.
        5    1    3    3  502    0  0.87121157734E+03  0.15393939406E+04 -0.49415990149E+03  0.18365618463E+04  0.46999998093E+01 0.  1.
       -5    1    3    3    0  502 -0.87121157734E+03 -0.15393939406E+04  0.60515389874E+03  0.18694856640E+04  0.46999998093E+01 0. -1.
</event>
<event>
 5   0  0.1658770E-07  0.3700279E+04  0.7818609E-02  0.8067900E-01
       -2   -1    0    0    0  501  0.00000000000E+00  0.00000000000E+00  0.17084404732E+04  0.17084404732E+04  0.25500000920E-02 0. -1.
        2   -1    0    0  501    0  0.00000000000E+00  0.00000000000E+00 -0.20035915588E+04  0.20035915588E+04  0.25500000920E-02 0.  1.
    10030    2    1    2    0    0  0.00000000000E+00  0.00000000000E+00 -0.29515108562E+03  0.37120320320E+04  0.37002794007E+04 0.  0.
        2    1    3    3  502    0  0.12897990627E+02  0.16874587182E+04  0.61334108813E+03  0.17955140139E+04  0.25500000920E-02 0. -1.
       -2    1    3    3    0  502 -0.12897990627E+02 -0.16874587182E+04 -0.90849217375E+03  0.19165180181E+04  0.25500000920E-02 0.  1.
</event>
<event>
 5   0  0.1666189E-07  0.3697124E+04  0.7818609E-02  0.8068600E-01
        2   -1    0    0  501    0  0.00000000000E+00  0.00000000000E+00  0.28271530659E+04  0.28271530659E+04  0.25500000920E-02 0. -1.
       -2   -1    0    0    0  501  0.00000000000E+00  0.00000000000E+00 -0.12087002823E+04  0.12087002823E+04  0.25500000920E-02 0.  1.
    10030    2    1    2    0    0  0.00000000000E+00  0.00000000000E+00  0.16184527836E+04  0.40358533482E+04  0.36971235894E+04 0.  0.
        4    1    3    3  502    0  0.74300649258E+03 -0.15962673595E+04  0.14238878016E+04  0.22644174120E+04  0.12699999809E+01 0. -1.
       -4    1    3    3    0  502 -0.74300649258E+03  0.15962673595E+04  0.19456498206E+03  0.17714359363E+04  0.12699999809E+01 0.  1.
</event>
<event>
 5   0  0.1587026E-07  0.3708936E+04  0.7818609E-02  0.8065984E-01
       -2   -1    0    0    0  501  0.00000000000E+00  0.00000000000E+00  0.14193476988E+04  0.14193476988E+04  0.25500000920E-02 0. -1.
        2   -1    0    0  501    0  0.00000000000E+00  0.00000000000E+00 -0.24229807866E+04  0.24229807866E+04  0.25500000920E-02 0.  1.
    10030    2    1    2    0    0  0.00000000000E+00  0.00000000000E+00 -0.10036330879E+04  0.38423284854E+04  0.37089363455E+04 0.  0.
        3    1    3    3  502    0 -0.83904861065E+03 -0.14540957300E+03  0.12048256771E+04  0.14753817937E+04  0.10100000352E+00 0. -1.
       -3    1    3    3    0  502  0.83904861065E+03  0.14540957300E+03 -0.22084587649E+04  0.23669466917E+04  0.10100000352E+00 0.  1.
</event>
<event>
 5   0  0.1686284E-07  0.3699384E+04  0.7818609E-02  0.8068098E-01
       -2   -1    0    0    0  501  0.00000000000E+00  0.00000000000E+00  0.16564516698E+04  0.16564516698E+04  0.25500000920E-02 0. -1.
        2   -1    0    0  501    0  0.00000000000E+00  0.00000000000E+00 -0.20654757618E+04  0.20654757618E+04  0.25500000920E-02 0.  1.
    10030    2    1    2    0    0  0.00000000000E+00  0.00000000000E+00 -0.40902409198E+03  0.37219274316E+04  0.36993841513E+04 0.  0.
        5    1    3    3  502    0  0.10172060978E+04 -0.11441988479E+04 -0.12488351908E+04  0.19757304150E+04  0.46999998093E+01 0.  1.
       -5    1    3    3    0  502 -0.10172060978E+04  0.11441988479E+04  0.83981109883E+03  0.17461970166E+04  0.46999998093E+01 0. -1.
</event>
<event>
 5   0  0.1558258E-07  0.3701958E+04  0.7818609E-02  0.8067528E-01
        2   -1    0    0  501    0  0.00000000000E+00  0.00000000000E+00  0.19645999469E+04  0.19645999469E+04  0.25500000920E-02 0.  1.
       -2   -1    0    0    0  501  0.00000000000E+00  0.00000000000E+00 -0.17439291843E+04  0.17439291843E+04  0.25500000920E-02 0. -1.
    10030    2    1    2    0    0  0.00000000000E+00  0.00000000000E+00  0.22067076266E+03  0.37085291312E+04  0.37019579591E+04 0.  0.
        1    1    3    3  502    0 -0.71782849603E+03  0.90450617331E+03 -0.13388540357E+04  0.17680326061E+04  0.50400001928E-02 0. -1.
       -1    1    3    3    0  502  0.71782849603E+03 -0.90450617331E+03  0.15595247983E+04  0.19404965251E+04  0.50400001928E-02 0.  1.
</event>
<event>
 5   0  0.1558258E-07  0.3718206E+04  0.7818609E-02  0.8063939E-01
        2   -1    0    0  501    0  0.00000000000E+00  0.00000000000E+00  0.22334750063E+04  0.22334750063E+04  0.25500000920E-02 0. -1.
       -2   -1    0    0    0  501  0.00000000000E+00  0.00000000000E+00 -0.15474829443E+04  0.15474829443E+04  0.25500000920E-02 0.  1.
    10030    2    1    2    0    0  0.00000000000E+00  0.00000000000E+00  0.68599206196E+03  0.37809579506E+04  0.37182062766E+04 0.  0.
        1    1    3    3  502    0 -0.16798479332E+04 -0.44942048416E+03 -0.32567039437E+03  0.17691605513E+04  0.50400001928E-02 0.  1.
       -1    1    3    3    0  502  0.16798479332E+04  0.44942048416E+03  0.10116624563E+04  0.20117973993E+04  0.50400001928E-02 0. -1.
</event>
<event>
 5   0  0.5177000E-08  0.3690491E+04  0.7818609E-02  0.8070072E-01
        1   -1    0    0  501    0  0.00000000000E+00  0.00000000000E+00  0.19449926941E+04  0.19449926941E+04  0.50400001928E-02 0. -1.
       -1   -1    0    0    0  501  0.00000000000E+00  0.00000000000E+00 -0.17506139720E+04  0.17506139720E+04  0.50400001928E-02 0.  1.
    10030    2    1    2    0    0  0.00000000000E+00  0.00000000000E+00  0.19437872215E+03  0.36956066661E+04  0.36904912333E+04 0.  0.
        2    1    3    3  502    0  0.10220515533E+04  0.69254909113E+03 -0.12761041791E+04  0.17755718789E+04  0.25500000920E-02 0.  1.
       -2    1    3    3    0  502 -0.10220515533E+04 -0.69254909113E+03  0.14704829012E+04  0.19200347872E+04  0.25500000920E-02 0. -1.
</event>
<event>
 5   0  0.1587026E-07  0.3737771E+04  0.7818609E-02  0.8059643E-01
        2   -1    0    0  501    0  0.00000000000E+00  0.00000000000E+00  0.25681678544E+04  0.25681678544E+04  0.25500000920E-02 0. -1.
       -2   -1    0    0    0  501  0.00000000000E+00  0.00000000000E+00 -0.13600094294E+04  0.13600094294E+04  0.25500000920E-02 0.  1.
    10030    2    1    2    0    0  0.00000000000E+00  0.00000000000E+00  0.12081584250E+04  0.39281772839E+04  0.37377707251E+04 0.  0.
        3    1    3    3  502    0 -0.15237022594E+04 -0.90000075879E+02  0.17374226608E+04  0.23126621244E+04  0.10100000352E+00 0. -1.
       -3    1    3    3    0  502  0.15237022594E+04  0.90000075879E+02 -0.52926423586E+03  0.16155151595E+04  0.10100000352E+00 0.  1.
</event>
<event>
 5   0  0.5177000E-08  0.3708769E+04  0.7818609E-02  0.8066021E-01
       -1   -1    0    0    0  501  0.00000000000E+00  0.00000000000E+00  0.17078656106E+04  0.17078656107E+04  0.50400001928E-02 0. -1.
        1   -1    0    0  501    0  0.00000000000E+00  0.00000000000E+00 -0.20134733653E+04  0.20134733653E+04  0.50400001928E-02 0.  1.
    10030    2    1    2    0    0  0.00000000000E+00  0.00000000000E+00 -0.30560775463E+03  0.37213389759E+04  0.37087690241E+04 0.  0.
        4    1    3    3  502    0 -0.32781993053E+03  0.16039971623E+04 -0.10266559753E+04  0.19324328987E+04  0.12699999809E+01 0.  1.
       -4    1    3    3    0  502  0.32781993053E+03 -0.16039971623E+04  0.72104822069E+03  0.17889060772E+04  0.12699999809E+01 0. -1.
</event>
<event>
 5   0  0.5177000E-08  0.3589864E+04  0.7818609E-02  0.8092817E-01
       -1   -1    0    0    0  501  0.00000000000E+00  0.00000000000E+00  0.15378467117E+04  0.15378467117E+04  0.50400001928E-02 0.  1.
        1   -1    0    0  501    0  0.00000000000E+00  0.00000000000E+00 -0.20949953688E+04  0.20949953688E+04  0.50400001928E-02 0. -1.
    10030    2    1    2    0    0  0.00000000000E+00  0.00000000000E+00 -0.55714865715E+03  0.36328420805E+04  0.35898644760E+04 0.  0.
        1    1    3    3  502    0 -0.16635223465E+04  0.63250630394E+03 -0.51462839642E+03  0.18526233315E+04  0.50400001928E-02 0. -1.
       -1    1    3    3    0  502  0.16635223465E+04 -0.63250630394E+03 -0.42520260723E+02  0.17802187491E+04  0.50400001928E-02 0.  1.
</event>
<event>
 5   0  0.5181371E-08  0.3719184E+04  0.7818609E-02  0.8063724E-01
       -1   -1    0    0    0  501  0.00000000000E+00  0.00000000000E+00  0.19835509689E+04  0.19835509689E+04  0.50400001928E-02 0.  1.
        1   -1    0    0  501    0  0.00000000000E+00  0.00000000000E+00 -0.17433792085E+04  0.17433792085E+04  0.50400001928E-02 0. -1.
    10030    2    1    2    0    0  0.00000000000E+00  0.00000000000E+00  0.24017176036E+03  0.37269301774E+04  0.37191835224E+04 0.  0.
        5    1    3    3  502    0  0.13697753712E+04  0.11803455128E+04  0.55522453195E+03  0.18915064018E+04  0.46999998093E+01 0. -1.
       -5    1    3    3    0  502 -0.13697753712E+04 -0.11803455128E+04 -0.31505277159E+03  0.18354237756E+04  0.46999998093E+01 0.  1.
</event>
<event>
 5   0  0.1666189E-07  0.3695877E+04  0.7818609E-02  0.8068876E-01
        2   -1    0    0  501    0  0.00000000000E+00  0.00000000000E+00  0.29149444947E+04  0.29149444947E+04  0.25500000920E-02 0. -1.
       -2   -1    0    0    0  501  0.00000000000E+00  0.00000000000E+00 -0.11715066975E+04  0.11715066975E+04  0.25500000920E-02 0.  1.
    10030    2    1    2    0    0  0.00000000000E+00  0.00000000000E+00  0.17434377973E+04  0.40864511922E+04  0.36958771615E+04 0.  0.
        4    1    3    3  502    0 -0.80096633842E+02 -0.18394984594E+04  0.10455086412E+04  0.21173710078E+04  0.12699999809E+01 0. -1.
       -4    1    3    3    0  502  0.80096633842E+02  0.18394984594E+04  0.69792915609E+03  0.19690801844E+04  0.12699999809E+01 0.  1.
</event>
<event>
 5   0  0.5177000E-08  0.3638822E+04  0.7818609E-02  0.8081656E-01
        1   -1    0    0  501    0  0.00000000000E+00  0.00000000000E+00  0.19038904622E+04  0.19038904622E+04  0.50400001928E-02 0.  1.
       -1   -1    0    0    0  501  0.00000000000E+00  0.00000000000E+00 -0.17386802450E+04  0.17386802450E+04  0.50400001928E-02 0. -1.
    10030    2    1    2    0    0  0.00000000000E+00  0.00000000000E+00  0.16521021723E+03  0.36425707072E+04  0.36388221914E+04 0.  0.
        2    1    3    3  502    0 -0.16282312971E+04  0.30323453188E+03 -0.67127653382E+03  0.17870927572E+04  0.25500000920E-02 0.  1.
       -2    1    3    3    0  502  0.16282312971E+04 -0.30323453188E+03  0.83648675105E+03  0.18554779500E+04  0.25500000920E-02 0. -1.
</event>
<event>
 5   0  0.1658770E-07  0.3695671E+04  0.7818609E-02  0.8068922E-01
       -2   -1    0    0    0  501  0.00000000000E+00  0.00000000000E+00  0.22194925446E+04  0.22194925446E+04  0.25500000920E-02 0. -1.
        2   -1    0    0  501    0  0.00000000000E+00  0.00000000000E+00 -0.15384133180E+04  0.15384133180E+04  0.25500000920E-02 0.  1.
    10030    2    1    2    0    0  0.00000000000E+00  0.00000000000E+00  0.68107922658E+03  0.37579058625E+04  0.36956714625E+04 0.  0.
        2    1    3    3  502    0 -0.93251704015E+03 -0.15678628283E+04  0.41106598644E+02  0.18246839811E+04  0.25500000920E-02 0. -1.
       -2    1    3    3    0  502  0.93251704015E+03  0.15678628283E+04  0.63997262793E+03  0.19332218814E+04  0.25500000920E-02 0.  1.
</event>
<event>
 5   0  0.1558258E-07  0.3721649E+04  0.7818609E-02  0.8063181E-01
       -2   -1    0    0    0  501  0.00000000000E+00  0.00000000000E+00  0.29010609911E+04  0.29010609911E+04  0.25500000920E-02 0.  1.
        2   -1    0    0  501    0  0.00000000000E+00  0.00000000000E+00 -0.11935869512E+04  0.11935869512E+04  0.25500000920E-02 0. -1.
    10030    2    1    2    0    0  0.00000000000E+00  0.00000000000E+00  0.17074740399E+04  0.40946479423E+04  0.37216493890E+04 0.  0.
        1    1    3    3  502    0  0.29348568826E+03 -0.33921640573E+03  0.28406900455E+04  0.28758862206E+04  0.50400001928E-02 0.  1.
       -1    1    3    3    0  502 -0.29348568826E+03  0.33921640573E+03 -0.11332160056E+04  0.12187617218E+04  0.50400001928E-02 0. -1.
</event>
<event>
 5   0  0.1686284E-07  0.3701869E+04  0.7818609E-02  0.8067548E-01
        2   -1    0    0  501    0  0.00000000000E+00  0.00000000000E+00  0.20842561703E+04  0.20842561703E+04  0.25500000920E-02 0. -1.
       -2   -1    0    0    0  501  0.00000000000E+00  0.00000000000E+00 -0.16437320564E+04  0.16437320564E+04  0.25500000920E-02 0.  1.
    10030    2    1    2    0    0  0.00000000000E+00  0.00000000000E+00  0.44052411385E+03  0.37279882267E+04  0.37018690851E+04 0.  0.
        5    1    3    3  502    0 -0.15192189595E+04  0.63468984957E+02  0.12831147450E+04  0.19895879216E+04  0.46999998093E+01 0. -1.
       -5    1    3    3    0  502  0.15192189595E+04 -0.63468984957E+02 -0.84259063114E+03  0.17384003051E+04  0.46999998093E+01 0.  1.
</event>
<event>
 5   0  0.5177000E-08  0.3688970E+04  0.7818609E-02  0.8070411E-01
       -1   -1    0    0    0  501  0.00000000000E+00  0.00000000000E+00  0.11231819829E+04  0.11231819829E+04  0.50400001928E-02 0. -1.
        1   -1    0    0  501    0  0.00000000000E+00  0.00000000000E+00 -0.30290055229E+04  0.30290055229E+04  0.50400001928E-02 0.  1.
    10030    2    1    2    0    0  0.00000000000E+00  0.00000000000E+00 -0.19058235401E+04  0.41521875058E+04  0.36889697366E+04 0.  0.
        2    1    3    3  502    0 -0.78521045144E+03  0.75500483441E+03 -0.26282840936E+04  0.28450773328E+04  0.25500000920E-02 0.  1.
       -2    1    3    3    0  502  0.78521045144E+03 -0.75500483441E+03  0.72246055353E+03  0.13071101730E+04  0.25500000920E-02 0. -1.
</event>
<event>
 5   0  0.5177000E-08  0.3726237E+04  0.7818609E-02  0.8062172E-01
       -1   -1    0    0    0  501  0.00000000000E+00  0.00000000000E+00  0.14168952077E+04  0.14168952077E+04  0.50400001928E-02 0.  1.
        1   -1    0    0  501    0  0.00000000000E+00  0.00000000000E+00 -0.24498709089E+04  0.24498709089E+04  0.50400001928E-02 0. -1.
    10030    2    1    2    0    0  0.00000000000E+00  0.00000000000E+00 -0.10329757012E+04  0.38667661166E+04  0.37262368955E+04 0.  0.
        4    1    3    3  502    0 -0.66514964007E+02  0.83020735653E+03 -0.22459363051E+04  0.23953914074E+04  0.12699999809E+01 0. -1.
       -4    1    3    3    0  502  0.66514964007E+02 -0.83020735653E+03  0.12129606039E+04  0.14713747092E+04  0.12699999809E+01 0.  1.
</event>
<event>
 5   0  0.1666189E-07  0.3687102E+04  0.7818609E-02  0.8070826E-01
       -2   -1    0    0    0  501  0.00000000000E+00  0.00000000000E+00  0.15332467967E+04  0.15332467967E+04  0.25500000920E-02 0.  1.
        2   -1    0    0  501    0  0.00000000000E+00  0.00000000000E+00 -0.22166556618E+04  0.22166556618E+04  0.25500000920E-02 0. -1.
    10030    2    1    2    0    0  0.00000000000E+00  0.00000000000E+00 -0.68340886514E+03  0.37499024585E+04  0.36871019475E+04 0.  0.
        4    1    3    3  502    0 -0.12759993821E+04  0.12339208005E+03 -0.16891395074E+04  0.21205173701E+04  0.12699999809E+01 0. -1.
       -4    1    3    3    0  502  0.12759993821E+04 -0.12339208005E+03  0.10057306422E+04  0.16293850884E+04  0.12699999809E+01 0.  1.
</event>
<event>
 5   0  0.1587026E-07  0.3719859E+04  0.7818609E-02  0.8063575E-01
        2   -1    0    0  501    0  0.00000000000E+00  0.00000000000E+00  0.19425090013E+04  0.19425090013E+04  0.25500000920E-02 0. -1.
       -2   -1    0    0    0  501  0.00000000000E+00  0.00000000000E+00 -0.17808605413E+04  0.17808605413E+04  0.25500000920E-02 0.  1.
    10030    2    1    2    0    0  0.00000000000E+00  0.00000000000E+00  0.16164846003E+03  0.37233695426E+04  0.37198589390E+04 0.  0.
        3    1    3    3  502    0  0.16540770530E+04 -0.79231906225E+03 -0.22865557847E+03  0.18482488408E+04  0.10100000352E+00 0. -1.
       -3    1    3    3    0  502 -0.16540770530E+04  0.79231906225E+03  0.39030403850E+03  0.18751207018E+04  0.10100000352E+00 0.  1.
</event>
<event>
 5   0  0.5177000E-08  0.3741671E+04  0.7818609E-02  0.8058789E-01
       -1   -1    0    0    0  501  0.00000000000E+00  0.00000000000E+00  0.14591994811E+04  0.14591994811E+04  0.50400001928E-02 0. -1.
        1   -1    0    0  501    0  0.00000000000E+00  0.00000000000E+00 -0.23985929872E+04  0.23985929872E+04  0.50400001928E-02 0.  1.
    10030    2    1    2    0    0  0.00000000000E+00  0.00000000000E+00 -0.93939350611E+03  0.38577924682E+04  0.37416710931E+04 0.  0.
        1    1    3    3  502    0 -0.13361838716E+04 -0.13049162725E+04 -0.35754679274E+03  0.19015871071E+04  0.50400001928E-02 0. -1.
       -1    1    3    3    0  502  0.13361838716E+04  0.13049162725E+04 -0.58184671337E+03  0.19562053611E+04  0.50400001928E-02 0.  1.
</event>
<event>
 5   0  0.5177000E-08  0.3677453E+04  0.7818609E-02  0.8072977E-01
       -1   -1    0    0    0  501  0.00000000000E+00  0.00000000000E+00  0.13104109316E+04  0.13104109316E+04  0.50400001928E-02 0. -1.
        1   -1    0    0  501    0  0.00000000000E+00  0.00000000000E+00 -0.25800421413E+04  0.25800421413E+04  0.50400001928E-02 0.  1.
    10030    2    1    2    0    0  0.00000000000E+00  0.00000000000E+00 -0.12696312096E+04  0.38904530729E+04  0.36774531545E+04 0.  0.
        3    1    3    3  502    0 -0.65255119666E+03  0.11143690674E+04 -0.20195498596E+04  0.23971281001E+04  0.10100000352E+00 0.  1.
       -3    1    3    3    0  502  0.65255119666E+03 -0.11143690674E+04  0.74991865000E+03  0.14933249728E+04  0.10100000352E+00 0. -1.
</event>
<event>
 5   0  0.5177000E-08  0.3704429E+04  0.7818609E-02  0.8066981E-01
        1   -1    0    0  501    0  0.00000000000E+00  0.00000000000E+00  0.19760065256E+04  0.19760065256E+04  0.50400001928E-02 0.  1.
       -1   -1    0    0    0  501  0.00000000000E+00  0.00000000000E+00 -0.17361780005E+04  0.17361780005E+04  0.50400001928E-02 0. -1.
    10030    2    1    2    0    0  0.00000000000E+00  0.00000000000E+00  0.23982852507E+03  0.37121845261E+04  0.37044292725E+04 0.  0.
        2    1    3    3  502    0 -0.69960319232E+03 -0.13305737929E+04  0.12042275110E+04  0.19261451511E+04  0.25500000920E-02 0.  1.
       -2    1    3    3    0  502  0.69960319232E+03  0.13305737929E+04 -0.96439898591E+03  0.17860393750E+04  0.25500000920E-02 0. -1.
</event>
<event>
 5   0  0.5177000E-08  0.3711975E+04  0.7818609E-02  0.8065313E-01
       -1   -1    0    0    0  501  0.00000000000E+00  0.00000000000E+00  0.11956916832E+04  0.11956916832E+04  0.50400001928E-02 0.  1.
        1   -1    0    0  501    0  0.00000000000E+00  0.00000000000E+00 -0.28809174322E+04  0.28809174322E+04  0.50400001928E-02 0. -1.
    10030    2    1    2    0    0  0.00000000000E+00  0.00000000000E+00 -0.16852257489E+04  0.40766091154E+04  0.37119746841E+04 0.  0.
        2    1    3    3  502    0  0.16758812625E+04  0.79147033181E+03 -0.73452921003E+03  0.19936239496E+04  0.25500000920E-02 0.  1.
       -2    1    3    3    0  502 -0.16758812625E+04 -0.79147033181E+03 -0.95069653892E+03  0.20829851658E+04  0.25500000920E-02 0. -1.
</event>
<event>
 5   0  0.1686284E-07  0.3692150E+04  0.7818609E-02  0.8069704E-01
       -2   -1    0    0    0  501  0.00000000000E+00  0.00000000000E+00  0.18373882560E+04  0.18373882560E+04  0.25500000920E-02 0.  1.
        2   -1    0    0  501    0  0.00000000000E+00  0.00000000000E+00 -0.18548031146E+04  0.18548031146E+04  0.25500000920E-02 0. -1.
    10030    2    1    2    0    0  0.00000000000E+00  0.00000000000E+00 -0.17414858549E+02  0.36921913706E+04  0.36921503003E+04 0.  0.
        5    1    3    3  502    0 -0.15668581878E+04  0.97586184419E+03  0.16201686971E+02  0.18459781972E+04  0.46999998093E+01 0.  1.
       -5    1    3    3    0  502  0.15668581878E+04 -0.97586184419E+03 -0.33616545521E+02  0.18462131735E+04  0.46999998093E+01 0. -1.
</event>
<event>
 5   0  0.5181371E-08  0.3599037E+04  0.7818609E-02  0.8090712E-01
       -1   -1    0    0    0  501  0.00000000000E+00  0.00000000000E+00  0.11672361937E+04  0.11672361937E+04  0.50400001928E-02 0. -1.
        1   -1    0    0  501    0  0.00000000000E+00  0.00000000000E+00 -0.27743034037E+04  0.27743034037E+04  0.50400001928E-02 0.  1.
    10030    2    1    2    0    0  0.00000000000E+00  0.00000000000E+00 -0.16070672100E+04  0.39415395974E+04  0.35990372852E+04 0.  0.
        5    1    3    3  502    0 -0.15673746835E+04  0.69228746759E+03 -0.14056950277E+04  0.22162865197E+04  0.46999998093E+01 0.  1.
       -5    1    3    3    0  502  0.15673746835E+04 -0.69228746759E+03 -0.20137218225E+03  0.17252530777E+04  0.46999998093E+01 0. -1.
</event>
<event>
 5   0  0.5177000E-08  0.3699394E+04  0.7818609E-02  0.8068096E-01
       -1   -1    0    0    0  501  0.00000000000E+00  0.00000000000E+00  0.12351601297E+04  0.12351601297E+04  0.50400001928E-02 0. -1.
        1   -1    0    0  501    0  0.00000000000E+00  0.00000000000E+00 -0.27699881472E+04  0.27699881472E+04  0.50400001928E-02 0.  1.
    10030    2    1    2    0    0  0.00000000000E+00  0.00000000000E+00 -0.15348280175E+04  0.40051482770E+04  0.36993939608E+04 0.  0.
        3    1    3    3  502    0  0.42890073353E+03  0.59457281904E+03 -0.26059772950E+04  0.27071369283E+04  0.10100000352E+00 0.  1.
       -3    1    3    3    0  502 -0.42890073353E+03 -0.59457281904E+03  0.10711492775E+04  0.12980113487E+04  0.10100000352E+00 0. -1.
</event>
<event>
 5   0  0.5181371E-08  0.3688358E+04  0.7818609E-02  0.8070547E-01
       -1   -1    0    0    0  501  0.00000000000E+00  0.00000000000E+00  0.13717464200E+04  0.13717464200E+04  0.50400001928E-02 0.  1.
        1   -1    0    0  501    0  0.00000000000E+00  0.00000000000E+00 -0.24793183820E+04  0.24793183820E+04  0.50400001928E-02 0. -1.
    10030    2    1    2    0    0  0.00000000000E+00  0.00000000000E+00 -0.11075719620E+04  0.38510648020E+04  0.36883579623E+04 0.  0.
        5    1    3    3  502    0  0.48520110795E+03 -0.85039178702E+02 -0.24093501718E+04  0.24591954207E+04  0.46999998093E+01 0. -1.
       -5    1    3    3    0  502 -0.48520110795E+03  0.85039178702E+02  0.13017782097E+04  0.13918693812E+04  0.46999998093E+01 0.  1.
</event>
<event>
 5   0  0.5177000E-08  0.3697852E+04  0.7818609E-02  0.8068438E-01
        1   -1    0    0  501    0  0.00000000000E+00  0.00000000000E+00  0.23225835215E+04  0.23225835215E+04  0.50400001928E-02 0.  1.
       -1   -1    0    0    0  501  0.00000000000E+00  0.00000000000E+00 -0.14718642759E+04  0.14718642759E+04  0.50400001928E-02 0. -1.
    10030    2    1    2    0    0  0.00000000000E+00  0.00000000000E+00  0.85071924561E+03  0.37944477974E+04  0.36978521945E+04 0.  0.
        1    1    3    3  502    0  0.72773475425E+03 -0.12071495412E+04 -0.80244157754E+03  0.16219495593E+04  0.50400001928E-02 0. -1.
       -1    1    3    3    0  502 -0.72773475425E+03  0.12071495412E+04  0.16531608231E+04  0.21724982381E+04  0.50400001928E-02 0.  1.
</event>
<event>
 5   0  0.1658770E-07  0.3696314E+04  0.7818609E-02  0.8068779E-01
       -2   -1    0    0    0  501  0.00000000000E+00  0.00000000000E+00  0.15537059731E+04  0.15537059731E+04  0.25500000920E-02 0. -1.
        2   -1    0    0  501    0  0.00000000000E+00  0.00000000000E+00 -0.21984105193E+04  0.21984105193E+04  0.25500000920E-02 0.  1.
    10030    2    1    2    0    0  0.00000000000E+00  0.00000000000E+00 -0.64470454619E+03  0.37521164924E+04  0.36963135988E+04 0.  0.
        2    1    3    3  502    0  0.60502986068E+03  0.65540603804E+03 -0.19654506442E+04  0.21583823669E+04  0.25500000920E-02 0.  1.
       -2    1    3    3    0  502 -0.60502986068E+03 -0.65540603804E+03  0.13207460980E+04  0.15937341254E+04  0.25500000920E-02 0. -1.
</event>
<event>
 5   0  0.1558258E-07  0.3703046E+04  0.7818609E-02  0.8067287E-01
        2   -1    0    0  501    0  0.00000000000E+00  0.00000000000E+00  0.25768327678E+04  0.25768327678E+04  0.25500000920E-02 0. -1.
       -2   -1    0    0    0  501  0.00000000000E+00  0.00000000000E+00 -0.13303683028E+04  0.13303683028E+04  0.25500000920E-02 0.  1.
    10030    2    1    2    0    0  0.00000000000E+00  0.00000000000E+00  0.12464644650E+04  0.39072010706E+04  0.37030455768E+04 0.  0.
        1    1    3    3  502    0  0.88250195007E+03  0.15655471517E+04  0.10931972844E+04  0.21035274847E+04  0.50400001928E-02 0. -1.
       -1    1    3    3    0  502 -0.88250195007E+03 -0.15655471517E+04  0.15326718059E+03  0.18036735860E+04  0.50400001928E-02 0.  1.
</event>
<event>
 5   0  0.5177000E-08  0.3697153E+04  0.7818609E-02  0.8068593E-01
        3   -1    0    0  501    0  0.00000000000E+00  0.00000000000E+00  0.21182923779E+04  0.21182923803E+04  0.10100000352E+00 0.  1.
       -3   -1    0    0    0  501  0.00000000000E+00  0.00000000000E+00 -0.16132027117E+04  0.16132027148E+04  0.10100000352E+00 0. -1.
    10030    2    1    2    0    0  0.00000000000E+00  0.00000000000E+00  0.50508966626E+03  0.37314950951E+04  0.36971529687E+04 0.  0.
        4    1    3    3  502    0  0.84762615377E+03 -0.97652375435E+03 -0.10807729177E+04  0.16852716256E+04  0.12699999809E+01 0. -1.
       -4    1    3    3    0  502 -0.84762615377E+03  0.97652375435E+03  0.15858625840E+04  0.20462234696E+04  0.12699999809E+01 0.  1.
</event>
<event>
 5   0  0.5177000E-08  0.3699272E+04  0.7818609E-02  0.8068123E-01
       -1   -1    0    0    0  501  0.00000000000E+00  0.00000000000E+00  0.12382681485E+04  0.12382681486E+04  0.50400001928E-02 0.  1.
        1   -1    0    0  501    0  0.00000000000E+00  0.00000000000E+00 -0.27628538862E+04  0.27628538862E+04  0.50400001928E-02 0. -1.
    10030    2    1    2    0    0  0.00000000000E+00  0.00000000000E+00 -0.15245857377E+04  0.40011220348E+04  0.36992723427E+04 0.  0.
        2    1    3    3  502    0  0.17389244042E+03 -0.17227402018E+04 -0.58771080619E+02  0.17324913921E+04  0.25500000920E-02 0. -1.
       -2    1    3    3    0  502 -0.17389244042E+03  0.17227402018E+04 -0.14658146570E+04  0.22686306426E+04  0.25500000920E-02 0.  1.
</event>
<event>
 5   0  0.5177000E-08  0.3693512E+04  0.7818609E-02  0.8069401E-01
        1   -1    0    0  501    0  0.00000000000E+00  0.00000000000E+00  0.21188280175E+04  0.21188280175E+04  0.50400001928E-02 0.  1.
       -1   -1    0    0    0  501  0.00000000000E+00  0.00000000000E+00 -0.16096194564E+04  0.16096194564E+04  0.50400001928E-02 0. -1.
    10030    2    1    2    0    0  0.00000000000E+00  0.00000000000E+00  0.50920856115E+03  0.37284474739E+04  0.36935115008E+04 0.  0.
        3    1    3    3  502    0 -0.13663787341E+04  0.11592818937E+04 -0.19636675206E+03  0.18026328704E+04  0.10100000352E+00 0.  1.
       -3    1    3    3    0  502  0.13663787341E+04 -0.11592818937E+04  0.70557531321E+03  0.19258146034E+04  0.10100000352E+00 0. -1.
</event>
<event>
 5   0  0.1658770E-07  0.3708818E+04  0.7818609E-02  0.8066010E-01
       -2   -1    0    0    0  501  0.00000000000E+00  0.00000000000E+00  0.14319967121E+04  0.14319967121E+04  0.25500000920E-02 0.  1.
        2   -1    0    0  501    0  0.00000000000E+00  0.00000000000E+00 -0.24014256433E+04  0.24014256433E+04  0.25500000920E-02 0. -1.
    10030    2    1    2    0    0  0.00000000000E+00  0.00000000000E+00 -0.96942893120E+03  0.38334223553E+04  0.37088184779E+04 0.  0.
        2    1    3    3  502    0 -0.35683436376E+03 -0.12376393684E+04 -0.18636081932E+04  0.22654177246E+04  0.25500000920E-02 0. -1.
       -2    1    3    3    0  502  0.35683436376E+03  0.12376393684E+04  0.89417926198E+03  0.15680046307E+04  0.25500000920E-02 0.  1.
</event>
<event>
 5   0  0.1558258E-07  0.3695746E+04  0.7818609E-02  0.8068905E-01
       -2   -1    0    0    0  501  0.00000000000E+00  0.00000000000E+00  0.28491901729E+04  0.28491901729E+04  0.25500000920E-02 0. -1.
        2   -1    0    0  501    0  0.00000000000E+00  0.00000000000E+00 -0.11984579908E+04  0.11984579908E+04  0.25500000920E-02 0.  1.
    10030    2    1    2    0    0  0.00000000000E+00  0.00000000000E+00  0.16507321821E+04  0.40476481637E+04  0.36957460573E+04 0.  0.
        1    1    3    3  502    0 -0.29584521840E+03  0.13257939927E+04  0.21973997831E+04  0.25833737459E+04  0.50400001928E-02 0. -1.
       -1    1    3    3    0  502  0.29584521840E+03 -0.13257939927E+04 -0.54666760103E+03  0.14642744177E+04  0.50400001928E-02 0.  1.
</event>
<event>
 5   0  0.5177000E-08  0.3693022E+04  0.7818609E-02  0.8069510E-01
        1   -1    0    0  501    0  0.00000000000E+00  0.00000000000E+00  0.18039975055E+04  0.18039975055E+04  0.50400001928E-02 0.  1.
       -1   -1    0    0    0  501  0.00000000000E+00  0.00000000000E+00 -0.18900268510E+04  0.18900268511E+04  0.50400001928E-02 0. -1.
    10030    2    1    2    0    0  0.00000000000E+00  0.00000000000E+00 -0.86029345564E+02  0.36940243565E+04  0.36930224611E+04 0.  0.
        1    1    3    3  502    0 -0.56085881702E+03 -0.34104405407E+01 -0.18027615397E+04  0.18879945478E+04  0.50400001928E-02 0. -1.
       -1    1    3    3    0  502  0.56085881702E+03  0.34104405407E+01  0.17167321941E+04  0.18060298087E+04  0.50400001928E-02 0.  1.
</event>
<event>
 5   0  0.1658770E-07  0.3706691E+04  0.7818609E-02  0.8066481E-01
       -2   -1    0    0    0  501  0.00000000000E+00  0.00000000000E+00  0.21286913340E+04  0.21286913340E+04  0.25500000920E-02 0.  1.
        2   -1    0    0  501    0  0.00000000000E+00  0.00000000000E+00 -0.16136156575E+04  0.16136156575E+04  0.25500000920E-02 0. -1.
    10030    2    1    2    0    0  0.00000000000E+00  0.00000000000E+00  0.51507567652E+03  0.37423069915E+04  0.37066910670E+04 0.  0.
        2    1    3    3  502    0 -0.37081846870E+03 -0.12717348584E+04  0.15661688158E+04  0.20512680581E+04  0.25500000920E-02 0.  1.
       -2    1    3    3    0  502  0.37081846870E+03  0.12717348584E+04 -0.10510931392E+04  0.16910389334E+04  0.25500000920E-02 0. -1.
</event>
<event>
 5   0  0.5177000E-08  0.3697748E+04  0.7818609E-02  0.8068461E-01
        1   -1    0    0  501    0  0.00000000000E+00  0.00000000000E+00  0.13336143509E+04  0.13336143509E+04  0.50400001928E-02 0. -1.
       -1   -1    0    0    0  501  0.00000000000E+00  0.00000000000E+00 -0.25632107473E+04  0.25632107473E+04  0.50400001928E-02 0.  1.
    10030    2    1    2    0    0  0.00000000000E+00  0.00000000000E+00 -0.12295963964E+04  0.38968250983E+04  0.36977477670E+04 0.  0.
        4    1    3    3  502    0  0.47895869247E+03  0.80869024328E+03  0.10630724371E+04  0.14189806053E+04  0.12699999809E+01 0. -1.
       -4    1    3    3    0  502 -0.47895869247E+03 -0.80869024328E+03 -0.22926688335E+04  0.24778444930E+04  0.12699999809E+01 0.  1.
</event>
<event>
 5   0  0.5177000E-08  0.3704324E+04  0.7818609E-02  0.8067004E-01
        1   -1    0    0  501    0  0.00000000000E+00  0.00000000000E+00  0.27340932661E+04  0.27340932661E+04  0.50400001928E-02 0. -1.
       -1   -1    0    0    0  501  0.00000000000E+00  0.00000000000E+00 -0.12547133687E+04  0.12547133687E+04  0.50400001928E-02 0.  1.
    10030    2    1    2    0    0  0.00000000000E+00  0.00000000000E+00  0.14793798974E+04  0.39888066349E+04  0.37043236210E+04 0.  0.
        3    1    3    3  502    0  0.11089043937E+04  0.14829334785E+04  0.69473824706E+03  0.19777315031E+04  0.10100000352E+00 0.  1.
       -3    1    3    3    0  502 -0.11089043937E+04 -0.14829334785E+04  0.78464165037E+03  0.20110751318E+04  0.10100000352E+00 0. -1.
</event>
<event>
 5   0  0.1686284E-07  0.3727512E+04  0.7818609E-02  0.8061892E-01
       -2   -1    0    0    0  501  0.00000000000E+00  0.00000000000E+00  0.15057965489E+04  0.15057965489E+04  0.25500000920E-02 0.  1.
        2   -1    0    0  501    0  0.00000000000E+00  0.00000000000E+00 -0.23068096517E+04  0.23068096517E+04  0.25500000920E-02 0. -1.
    10030    2    1    2    0    0  0.00000000000E+00  0.00000000000E+00 -0.80101310281E+03  0.38126062006E+04  0.37275117773E+04 0.  0.
        5    1    3    3  502    0  0.10955050286E+04 -0.23900360396E+03 -0.19232199595E+04  0.22262190128E+04  0.46999998093E+01 0. -1.
       -5    1    3    3    0  502 -0.10955050286E+04  0.23900360396E+03  0.11222068567E+04  0.15863871878E+04  0.46999998093E+01 0.  1.
</event>
<event>
 5   0  0.1658770E-07  0.3543193E+04  0.7818609E-02  0.8103629E-01
       -2   -1    0    0    0  501  0.00000000000E+00  0.00000000000E+00  0.13309788857E+04  0.13309788857E+04  0.25500000920E-02 0. -1.
        2   -1    0    0  501    0  0.00000000000E+00  0.00000000000E+00 -0.23580796694E+04  0.23580796694E+04  0.25500000920E-02 0.  1.
    10030    2    1    2    0    0  0.00000000000E+00  0.00000000000E+00 -0.10271007837E+04  0.36890585551E+04  0.35431930519E+04 0.  0.
        2    1    3    3  502    0 -0.13966932081E+04  0.50096635277E+03 -0.15212992103E+04  0.21251048189E+04  0.25500000920E-02 0. -1.
       -2    1    3    3    0  502  0.13966932081E+04 -0.50096635277E+03  0.49419842661E+03  0.15639537362E+04  0.25500000920E-02 0.  1.
</event>
<event>
 5   0  0.5177000E-08  0.3725016E+04  0.7818609E-02  0.8062440E-01
        3   -1    0    0  501    0  0.00000000000E+00  0.00000000000E+00  0.20713619714E+04  0.20713619739E+04  0.10100000352E+00 0. -1.
       -3   -1    0    0    0  501  0.00000000000E+00  0.00000000000E+00 -0.16747130386E+04  0.16747130417E+04  0.10100000352E+00 0.  1.
    10030    2    1    2    0    0  0.00000000000E+00  0.00000000000E+00  0.39664893279E+03  0.37460750156E+04  0.37250164626E+04 0.  0.
        2    1    3    3  502    0  0.10629458948E+04 -0.14850074266E+04 -0.16957956939E+03  0.18340824034E+04  0.25500000920E-02 0.  1.
       -2    1    3    3    0  502 -0.10629458948E+04  0.14850074266E+04  0.56622850219E+03  0.19119926121E+04  0.25500000920E-02 0. -1.
</event>
<event>
 5   0  0.5177000E-08  0.3697739E+04  0.7818609E-02  0.8068463E-01
        1   -1    0    0  501    0  0.00000000000E+00  0.00000000000E+00  0.17297986538E+04  0.17297986538E+04  0.50400001928E-02 0.  1.
       -1   -1    0    0    0  501  0.00000000000E+00  0.00000000000E+00 -0.19761367418E+04  0.19761367418E+04  0.50400001928E-02 0. -1.
    10030    2    1    2    0    0  0.00000000000E+00  0.00000000000E+00 -0.24633808804E+03  0.37059353957E+04  0.36977391340E+04 0.  0.
        2    1    3    3  502    0  0.96197780365E+03 -0.92229252234E+03  0.11611916685E+04  0.17675946601E+04  0.25500000920E-02 0.  1.
       -2    1    3    3    0  502 -0.96197780365E+03  0.92229252234E+03 -0.14075297565E+04  0.19383407355E+04  0.25500000920E-02 0. -1.
</event>
<event>
 5   0  0.5177000E-08  0.3687568E+04  0.7818609E-02  0.8070722E-01
        1   -1    0    0  501    0  0.00000000000E+00  0.00000000000E+00  0.14047322558E+04  0.14047322558E+04  0.50400001928E-02 0. -1.
       -1   -1    0    0    0  501  0.00000000000E+00  0.00000000000E+00 -0.24200625234E+04  0.24200625234E+04  0.50400001928E-02 0.  1.
    10030    2    1    2    0    0  0.00000000000E+00  0.00000000000E+00 -0.10153302676E+04  0.38247947792E+04  0.36875682435E+04 0.  0.
        1    1    3    3  502    0 -0.36425562053E+03  0.11963487017E+04  0.89759907449E+03  0.15393558626E+04  0.50400001928E-02 0. -1.
       -1    1    3    3    0  502  0.36425562053E+03 -0.11963487017E+04 -0.19129293421E+04  0.22854389165E+04  0.50400001928E-02 0.  1.
</event>
<event>
 5   0  0.1658770E-07  0.3705346E+04  0.7818609E-02  0.8066778E-01
        2   -1    0    0  501    0  0.00000000000E+00  0.00000000000E+00  0.14544614922E+04  0.14544614922E+04  0.25500000920E-02 0. -1.
       -2   -1    0    0    0  501  0.00000000000E+00  0.00000000000E+00 -0.23599099148E+04  0.23599099148E+04  0.25500000920E-02 0.  1.
    10030    2    1    2    0    0  0.00000000000E+00  0.00000000000E+00 -0.90544842255E+03  0.38143714070E+04  0.37053464595E+04 0.  0.
        2    1    3    3  502    0 -0.25614905400E+03  0.26918749905E+03 -0.23211562319E+04  0.23507106373E+04  0.25500000920E-02 0.  1.
       -2    1    3    3    0  502  0.25614905400E+03 -0.26918749905E+03  0.14157078093E+04  0.14636607697E+04  0.25500000920E-02 0. -1.
</event>
<event>
 5   0  0.5177000E-08  0.3678904E+04  0.7818609E-02  0.8072653E-01
        1   -1    0    0  501    0  0.00000000000E+00  0.00000000000E+00  0.17460698746E+04  0.17460698746E+04  0.50400001928E-02 0. -1.
       -1   -1    0    0    0  501  0.00000000000E+00  0.00000000000E+00 -0.19378283201E+04  0.19378283201E+04  0.50400001928E-02 0.  1.
    10030    2    1    2    0    0  0.00000000000E+00  0.00000000000E+00 -0.19175844553E+03  0.36838981947E+04  0.36789039954E+04 0.  0.
        1    1    3    3  502    0  0.15623836753E+04 -0.76727607873E+03 -0.69152142636E+03  0.18729541406E+04  0.50400001928E-02 0.  1.
       -1    1    3    3    0  502 -0.15623836753E+04  0.76727607873E+03  0.49976298082E+03  0.18109440540E+04  0.50400001928E-02 0. -1.
</event>
<event>
 5   0  0.1686284E-07  0.3689370E+04  0.7818609E-02  0.8070322E-01
       -2   -1    0    0    0  501  0.00000000000E+00  0.00000000000E+00  0.20266899211E+04  0.20266899211E+04  0.25500000920E-02 0.  1.
        2   -1    0    0  501    0  0.00000000000E+00  0.00000000000E+00 -0.16790248495E+04  0.16790248495E+04  0.25500000920E-02 0. -1.
    10030    2    1    2    0    0  0.00000000000E+00  0.00000000000E+00  0.34766507154E+03  0.37057147706E+04  0.36893699949E+04 0.  0.
        5    1    3    3  502    0 -0.15694335044E+04  0.86114932957E+03 -0.27326976589E+03  0.18109108613E+04  0.46999998093E+01 0. -1.
       -5    1    3    3    0  502  0.15694335044E+04 -0.86114932957E+03  0.62093483743E+03  0.18948039093E+04  0.46999998093E+01 0.  1.
</event>
<event>
 5   0  0.5177000E-08  0.3701693E+04  0.7818609E-02  0.8067587E-01
        1   -1    0    0  501    0  0.00000000000E+00  0.00000000000E+00  0.17664004381E+04  0.17664004381E+04  0.50400001928E-02 0.  1.
       -1   -1    0    0    0  501  0.00000000000E+00  0.00000000000E+00 -0.19393299903E+04  0.19393299903E+04  0.50400001928E-02 0. -1.
    10030    2    1    2    0    0  0.00000000000E+00  0.00000000000E+00 -0.17292955221E+03  0.37057304284E+04  0.37016933123E+04 0.  0.
        3    1    3    3  502    0 -0.55264940813E+03  0.17507342458E+04  0.14861373940E+03  0.18418951711E+04  0.10100000352E+00 0.  1.
       -3    1    3    3    0  502  0.55264940813E+03 -0.17507342458E+04 -0.32154329161E+03  0.18638352573E+04  0.10100000352E+00 0. -1.
</event>
<event>
 5   0  0.5177000E-08  0.3662822E+04  0.7818609E-02  0.8076251E-01
        3   -1    0    0  501    0  0.00000000000E+00  0.00000000000E+00  0.16356326031E+04  0.16356326063E+04  0.10100000352E+00 0.  1.
       -3   -1    0    0    0  501  0.00000000000E+00  0.00000000000E+00 -0.20506236164E+04  0.20506236189E+04  0.10100000352E+00 0. -1.
    10030    2    1    2    0    0  0.00000000000E+00  0.00000000000E+00 -0.41499101325E+03  0.36862562251E+04  0.36628223293E+04 0.  0.
        5    1    3    3  502    0  0.17221339232E+04 -0.39074436851E+03 -0.69600636790E+03  0.18981236432E+04  0.46999998093E+01 0. -1.
       -5    1    3    3    0  502 -0.17221339232E+04  0.39074436851E+03  0.28101535465E+03  0.17881325819E+04  0.46999998093E+01 0.  1.
</event>
<event>
 5   0  0.5181371E-08  0.3708935E+04  0.7818609E-02  0.8065985E-01
        1   -1    0    0  501    0  0.00000000000E+00  0.00000000000E+00  0.22368743921E+04  0.22368743921E+04  0.50400001928E-02 0.  1.
       -1   -1    0    0    0  501  0.00000000000E+00  0.00000000000E+00 -0.15374352732E+04  0.15374352732E+04  0.50400001928E-02 0. -1.
    10030    2    1    2    0    0  0.00000000000E+00  0.00000000000E+00  0.69943911885E+03  0.37743096653E+04  0.37089349372E+04 0.  0.
        5    1    3    3  502    0  0.74704215350E+03  0.81597294498E+03 -0.11648501411E+04  0.16064811755E+04  0.46999998093E+01 0. -1.
       -5    1    3    3    0  502 -0.74704215350E+03 -0.81597294498E+03  0.18642892600E+04  0.21678284897E+04  0.46999998093E+01 0.  1.
</event>
<event>
 5   0  0.1658770E-07  0.3681881E+04  0.7818609E-02  0.8071989E-01
       -2   -1    0    0    0  501  0.00000000000E+00  0.00000000000E+00  0.13644772337E+04  0.13644772337E+04  0.25500000920E-02 0.  1.
        2   -1    0    0  501    0  0.00000000000E+00  0.00000000000E+00 -0.24837805367E+04  0.24837805367E+04  0.25500000920E-02 0. -1.
    10030    2    1    2    0    0  0.00000000000E+00  0.00000000000E+00 -0.11193033030E+04  0.38482577704E+04  0.36818810387E+04 0.  0.
        2    1    3    3  502    0  0.79288252652E+03  0.10470753956E+04  0.78861344899E+03  0.15319728316E+04  0.25500000920E-02 0.  1.
       -2    1    3    3    0  502 -0.79288252652E+03 -0.10470753956E+04 -0.19079167520E+04  0.23162849387E+04  0.25500000920E-02 0. -1.
</event>
<event>
 5   0  0.5177000E-08  0.3695986E+04  0.7818609E-02  0.8068852E-01
       -1   -1    0    0    0  501  0.00000000000E+00  0.00000000000E+00  0.30843035491E+04  0.30843035491E+04  0.50400001928E-02 0.  1.
        1   -1    0    0  501    0  0.00000000000E+00  0.00000000000E+00 -0.11072443435E+04  0.11072443435E+04  0.50400001928E-02 0. -1.
    10030    2    1    2    0    0  0.00000000000E+00  0.00000000000E+00  0.19770592056E+04  0.41915478926E+04  0.36959857459E+04 0.  0.
        1    1    3    3  502    0  0.41324165033E+03 -0.17249777717E+04  0.15764614882E+04  0.23730882407E+04  0.50400001928E-02 0.  1.
       -1    1    3    3    0  502 -0.41324165033E+03  0.17249777717E+04  0.40059771732E+03  0.18184596519E+04  0.50400001928E-02 0. -1.
</event>
<event>
 5   0  0.1658770E-07  0.3659172E+04  0.7818609E-02  0.8077070E-01
        2   -1    0    0  501    0  0.00000000000E+00  0.00000000000E+00  0.22334745551E+04  0.22334745551E+04  0.25500000920E-02 0.  1.
       -2   -1    0    0    0  501  0.00000000000E+00  0.00000000000E+00 -0.14987346111E+04  0.14987346111E+04  0.25500000920E-02 0. -1.
    10030    2    1    2    0    0  0.00000000000E+00  0.00000000000E+00  0.73473994399E+03  0.37322091662E+04  0.36591723756E+04 0.  0.
        2    1    3    3  502    0 -0.10542680968E+04 -0.54701585516E+03  0.17867929193E+04  0.21455387440E+04  0.25500000920E-02 0.  1.
       -2    1    3    3    0  502  0.10542680968E+04  0.54701585516E+03 -0.10520529753E+04  0.15866704221E+04  0.25500000920E-02 0. -1.
</event>
<event>
 5   0  0.5177000E-08  0.3802682E+04  0.7818609E-02  0.8045580E-01
        1   -1    0    0  501    0  0.00000000000E+00  0.00000000000E+00  0.19310835405E+04  0.19310835405E+04  0.50400001928E-02 0.  1.
       -1   -1    0    0    0  501  0.00000000000E+00  0.00000000000E+00 -0.18720568766E+04  0.18720568766E+04  0.50400001928E-02 0. -1.
    10030    2    1    2    0    0  0.00000000000E+00  0.00000000000E+00  0.59026663858E+02  0.38031404171E+04  0.38026823276E+04 0.  0.
        2    1    3    3  502    0  0.16629359223E+04  0.49197107469E+03 -0.75013609216E+03  0.18894696549E+04  0.25500000920E-02 0.  1.
       -2    1    3    3    0  502 -0.16629359223E+04 -0.49197107469E+03  0.80916275602E+03  0.19136707621E+04  0.25500000920E-02 0. -1.
</event>
<event>
 5   0  0.5177000E-08  0.3703609E+04  0.7818609E-02  0.8067163E-01
       -1   -1    0    0    0  501  0.00000000000E+00  0.00000000000E+00  0.12298112988E+04  0.12298112988E+04  0.50400001928E-02 0.  1.
        1   -1    0    0  501    0  0.00000000000E+00  0.00000000000E+00 -0.27883789092E+04  0.27883789092E+04  0.50400001928E-02 0. -1.
    10030    2    1    2    0    0  0.00000000000E+00  0.00000000000E+00 -0.15585676104E+04  0.40181902080E+04  0.37036089901E+04 0.  0.
        2    1    3    3  502    0 -0.15198882408E+04 -0.94199176925E+03 -0.13016018507E+04  0.22116907866E+04  0.25500000920E-02 0.  1.
       -2    1    3    3    0  502  0.15198882408E+04  0.94199176925E+03 -0.25696575979E+03  0.18064994214E+04  0.25500000920E-02 0. -1.
</event>
<event>
 5   0  0.5177000E-08  0.3692294E+04  0.7818609E-02  0.8069672E-01
        1   -1    0    0  501    0  0.00000000000E+00  0.00000000000E+00  0.15778017426E+04  0.15778017426E+04  0.50400001928E-02 0. -1.
       -1   -1    0    0    0  501  0.00000000000E+00  0.00000000000E+00 -0.21601308530E+04  0.21601308530E+04  0.50400001928E-02 0.  1.
    10030    2    1    2    0    0  0.00000000000E+00  0.00000000000E+00 -0.58232911042E+03  0.37379325956E+04  0.36922937176E+04 0.  0.
        4    1    3    3  502    0 -0.74807185044E+02 -0.20340535111E+03  0.15648783302E+04  0.15798150692E+04  0.12699999809E+01 0. -1.
       -4    1    3    3    0  502  0.74807185044E+02  0.20340535111E+03 -0.21472074406E+04  0.21581175264E+04  0.12699999809E+01 0.  1.
</event>
<event>
 5   0  0.5177000E-08  0.3716251E+04  0.7818609E-02  0.8064370E-01
       -1   -1    0    0    0  501  0.00000000000E+00  0.00000000000E+00  0.13561482172E+04  0.13561482172E+04  0.50400001928E-02 0.  1.
        1   -1    0    0  501    0  0.00000000000E+00  0.00000000000E+00 -0.25459097166E+04  0.25459097166E+04  0.50400001928E-02 0. -1.
    10030    2    1    2    0    0  0.00000000000E+00  0.00000000000E+00 -0.11897614994E+04  0.39020579339E+04  0.37162512958E+04 0.  0.
        4    1    3    3  502    0 -0.14562243322E+04  0.11128189722E+04 -0.27351615099E+03  0.18530429213E+04  0.12699999809E+01 0.  1.
       -4    1    3    3    0  502  0.14562243322E+04 -0.11128189722E+04 -0.91624534844E+03  0.20490150126E+04  0.12699999809E+01 0. -1.
</event>
<event>
 5   0  0.5181371E-08  0.3763638E+04  0.7818609E-02  0.8054003E-01
       -1   -1    0    0    0  501  0.00000000000E+00  0.00000000000E+00  0.15877191172E+04  0.15877191172E+04  0.50400001928E-02 0.  1.
        1   -1    0    0  501    0  0.00000000000E+00  0.00000000000E+00 -0.22303967066E+04  0.22303967066E+04  0.50400001928E-02 0. -1.
    10030    2    1    2    0    0  0.00000000000E+00  0.00000000000E+00 -0.64267758934E+03  0.38181158238E+04  0.37636383939E+04 0.  0.
        5    1    3    3  502    0 -0.98895915681E+03  0.11322999464E+04  0.82689149207E+03  0.17157840809E+04  0.46999998093E+01 0.  1.
       -5    1    3    3    0  502  0.98895915681E+03 -0.11322999464E+04 -0.14695690814E+04  0.21023317430E+04  0.46999998093E+01 0. -1.
</event>
<event>
 5   0  0.5177000E-08  0.3679887E+04  0.7818609E-02  0.8072434E-01
       -1   -1    0    0    0  501  0.00000000000E+00  0.00000000000E+00  0.16783748326E+04  0.16783748326E+04  0.50400001928E-02 0. -1.
        1   -1    0    0  501    0  0.00000000000E+00  0.00000000000E+00 -0.20170656133E+04  0.20170656133E+04  0.50400001928E-02 0.  1.
    10030    2    1    2    0    0  0.00000000000E+00  0.00000000000E+00 -0.33869078064E+03  0.36954404459E+04  0.36798870423E+04 0.  0.
        3    1    3    3  502    0 -0.36174068253E+03 -0.11334627490E+04  0.12400815514E+04  0.17185448464E+04  0.10100000352E+00 0. -1.
       -3    1    3    3    0  502  0.36174068253E+03  0.11334627490E+04 -0.15787723320E+04  0.19768955995E+04  0.10100000352E+00 0.  1.
</event>
<event>
 5   0  0.1686284E-07  0.3701332E+04  0.7818609E-02  0.8067667E-01
        2   -1    0    0  501    0  0.00000000000E+00  0.00000000000E+00  0.20946130144E+04  0.20946130144E+04  0.25500000920E-02 0.  1.
       -2   -1    0    0    0  501  0.00000000000E+00  0.00000000000E+00 -0.16351296292E+04  0.16351296292E+04  0.25500000920E-02 0. -1.
    10030    2    1    2    0    0  0.00000000000E+00  0.00000000000E+00  0.45948338521E+03  0.37297426436E+04  0.37013315451E+04 0.  0.
        5    1    3    3  502    0  0.12904489792E+04  0.11029219525E+04  0.97245169053E+03  0.19563690300E+04  0.46999998093E+01 0.  1.
       -5    1    3    3    0  502 -0.12904489792E+04 -0.11029219525E+04 -0.51296830532E+03  0.17733736136E+04  0.46999998093E+01 0. -1.
</event>
<event>
 5   0  0.5181371E-08  0.3686437E+04  0.7818609E-02  0.8070974E-01
        1   -1    0    0  501    0  0.00000000000E+00  0.00000000000E+00  0.20398099873E+04  0.20398099873E+04  0.50400001928E-02 0. -1.
       -1   -1    0    0    0  501  0.00000000000E+00  0.00000000000E+00 -0.16655740794E+04  0.16655740794E+04  0.50400001928E-02 0.  1.
    10030    2    1    2    0    0  0.00000000000E+00  0.00000000000E+00  0.37423590786E+03  0.37053840667E+04  0.36864371102E+04 0.  0.
        5    1    3    3  502    0  0.12000040161E+04 -0.75275906646E+03  0.13724911528E+04  0.19724122047E+04  0.46999998093E+01 0. -1.
       -5    1    3    3    0  502 -0.12000040161E+04  0.75275906646E+03 -0.99825524489E+03  0.17329718621E+04  0.46999998093E+01 0.  1.
</event>
<event>
 5   0  0.1558258E-07  0.3703247E+04  0.7818609E-02  0.8067243E-01
       -2   -1    0    0    0  501  0.00000000000E+00  0.00000000000E+00  0.14783612432E+04  0.14783612432E+04  0.25500000920E-02 0. -1.
        2   -1    0    0  501    0  0.00000000000E+00  0.00000000000E+00 -0.23191290219E+04  0.23191290219E+04  0.25500000920E-02 0.  1.
    10030    2    1    2    0    0  0.00000000000E+00  0.00000000000E+00 -0.84076777863E+03  0.37974902651E+04  0.37032474743E+04 0.  0.
        1    1    3    3  502    0 -0.13997301415E+04  0.71866592860E+03  0.58056396486E+03  0.16771343725E+04  0.50400001928E-02 0. -1.
       -1    1    3    3    0  502  0.13997301415E+04 -0.71866592860E+03 -0.14213317435E+04  0.21203558926E+04  0.50400001928E-02 0.  1.
</event>
<event>
 5   0  0.5177000E-08  0.3702357E+04  0.7818609E-02  0.8067440E-01
       -1   -1    0    0    0  501  0.00000000000E+00  0.00000000000E+00  0.13032514255E+04  0.13032514255E+04  0.50400001928E-02 0. -1.
        1   -1    0    0  501    0  0.00000000000E+00  0.00000000000E+00 -0.26294705550E+04  0.26294705550E+04  0.50400001928E-02 0.  1.
    10030    2    1    2    0    0  0.00000000000E+00  0.00000000000E+00 -0.13262191295E+04  0.39327219805E+04  0.37023566815E+04 0.  0.
        3    1    3    3  502    0 -0.11499334959E+04  0.13610290929E+04 -0.12975812339E+03  0.17865006066E+04  0.10100000352E+00 0.  1.
       -3    1    3    3    0  502  0.11499334959E+04 -0.13610290929E+04 -0.11964610061E+04  0.21462213739E+04  0.10100000352E+00 0. -1.
</event>
<event>
 5   0  0.5177000E-08  0.3717184E+04  0.7818609E-02  0.8064164E-01
        1   -1    0    0  501    0  0.00000000000E+00  0.00000000000E+00  0.18076774381E+04  0.18076774381E+04  0.50400001928E-02 0.  1.
       -1   -1    0    0    0  501  0.00000000000E+00  0.00000000000E+00 -0.19109404897E+04  0.19109404898E+04  0.50400001928E-02 0. -1.
    10030    2    1    2    0    0  0.00000000000E+00  0.00000000000E+00 -0.10326305163E+03  0.37186179279E+04  0.37171838851E+04 0.  0.
        4    1    3    3  502    0  0.63045058459E+03 -0.82855188725E+03 -0.15918346025E+04  0.19020791740E+04  0.12699999809E+01 0. -1.
       -4    1    3    3    0  502 -0.63045058459E+03  0.82855188725E+03  0.14885715509E+04  0.18165387539E+04  0.12699999809E+01 0.  1.
</event>
<event>
 5   0  0.1558258E-07  0.3713714E+04  0.7818609E-02  0.8064929E-01
        2   -1    0    0  501    0  0.00000000000E+00  0.00000000000E+00  0.16295279681E+04  0.16295279681E+04  0.25500000920E-02 0.  1.
       -2   -1    0    0    0  501  0.00000000000E+00  0.00000000000E+00 -0.21158997676E+04  0.21158997676E+04  0.25500000920E-02 0. -1.
    10030    2    1    2    0    0  0.00000000000E+00  0.00000000000E+00 -0.48637179946E+03  0.37454277357E+04  0.37137139626E+04 0.  0.
        1    1    3    3  502    0 -0.12191413582E+04  0.10221195934E+03 -0.16519554646E+04  0.20556531305E+04  0.50400001928E-02 0. -1.
       -1    1    3    3    0  502  0.12191413582E+04 -0.10221195934E+03  0.11655836651E+04  0.16897746052E+04  0.50400001928E-02 0.  1.
</event>
<event>
 5   0  0.1587026E-07  0.3696399E+04  0.7818609E-02  0.8068760E-01
       -2   -1    0    0    0  501  0.00000000000E+00  0.00000000000E+00  0.29620594745E+04  0.29620594745E+04  0.25500000920E-02 0.  1.
        2   -1    0    0  501    0  0.00000000000E+00  0.00000000000E+00 -0.11531981244E+04  0.11531981244E+04  0.25500000920E-02 0. -1.
    10030    2    1    2    0    0  0.00000000000E+00  0.00000000000E+00  0.18088613501E+04  0.41152575989E+04  0.36963990208E+04 0.  0.
        3    1    3    3  502    0  0.46657676334E+03  0.92412722911E+03 -0.80011883079E+03  0.13083941169E+04  0.10100000352E+00 0. -1.
       -3    1    3    3    0  502 -0.46657676334E+03 -0.92412722911E+03  0.26089801809E+04  0.28068634819E+04  0.10100000352E+00 0.  1.
</event>
<event>
 5   0  0.1558258E-07  0.3703053E+04  0.7818609E-02  0.8067286E-01
        2   -1    0    0  501    0  0.00000000000E+00  0.00000000000E+00  0.20407981032E+04  0.20407981032E+04  0.25500000920E-02 0. -1.
       -2   -1    0    0    0  501  0.00000000000E+00  0.00000000000E+00 -0.16798089557E+04  0.16798089557E+04  0.25500000920E-02 0.  1.
    10030    2    1    2    0    0  0.00000000000E+00  0.00000000000E+00  0.36098914747E+03  0.37206070589E+04  0.37030532973E+04 0.  0.
        1    1    3    3  502    0 -0.29036798401E+03 -0.84057042837E+03 -0.14511736584E+04  0.17019921263E+04  0.50400001928E-02 0.  1.
       -1    1    3    3    0  502  0.29036798401E+03  0.84057042837E+03  0.18121628059E+04  0.20186149326E+04  0.50400001928E-02 0. -1.
</event>
<event>
 5   0  0.1587026E-07  0.3700339E+04  0.7818609E-02  0.8067887E-01
       -2   -1    0    0    0  501  0.00000000000E+00  0.00000000000E+00  0.14204307918E+04  0.14204307918E+04  0.25500000920E-02 0. -1.
        2   -1    0    0  501    0  0.00000000000E+00  0.00000000000E+00 -0.24099218893E+04  0.24099218893E+04  0.25500000920E-02 0.  1.
    10030    2    1    2    0    0  0.00000000000E+00  0.00000000000E+00 -0.98949109750E+03  0.38303526810E+04  0.37003390425E+04 0.  0.
        3    1    3    3  502    0 -0.91191578944E+03 -0.13219780004E+04 -0.14456690291E+04  0.21608274324E+04  0.10100000352E+00 0.  1.
       -3    1    3    3    0  502  0.91191578944E+03  0.13219780004E+04  0.45617793164E+03  0.16695252487E+04  0.10100000352E+00 0. -1.
</event>
<event>
 5   0  0.1658770E-07  0.3688522E+04  0.7818609E-02  0.8070510E-01
        2   -1    0    0  501    0  0.00000000000E+00  0.00000000000E+00  0.19263821603E+04  0.19263821603E+04  0.25500000920E-02 0. -1.
       -2   -1    0    0    0  501  0.00000000000E+00  0.00000000000E+00 -0.17656408095E+04  0.17656408095E+04  0.25500000920E-02 0.  1.
    10030    2    1    2    0    0  0.00000000000E+00  0.00000000000E+00  0.16074135074E+03  0.36920229698E+04  0.36885221740E+04 0.  0.
        2    1    3    3  502    0  0.68542705810E+03 -0.89463316362E+03 -0.13808505406E+04  0.17823936055E+04  0.25500000920E-02 0.  1.
       -2    1    3    3    0  502 -0.68542705810E+03  0.89463316362E+03  0.15415918914E+04  0.19096293643E+04  0.25500000920E-02 0. -1.
</event>
<event>
 5   0  0.1558258E-07  0.3687821E+04  0.7818609E-02  0.8070666E-01
        2   -1    0    0  501    0  0.00000000000E+00  0.00000000000E+00  0.36696232631E+04  0.36696232631E+04  0.25500000920E-02 0. -1.
       -2   -1    0    0    0  501  0.00000000000E+00  0.00000000000E+00 -0.92652723126E+03  0.92652723126E+03  0.25500000920E-02 0.  1.
    10030    2    1    2    0    0  0.00000000000E+00  0.00000000000E+00  0.27430960319E+04  0.45961504944E+04  0.36878209727E+04 0.  0.
        1    1    3    3  502    0 -0.62509396513E+03 -0.12142897580E+04 -0.17244447662E+03  0.13765824273E+04  0.50400001928E-02 0.  1.
       -1    1    3    3    0  502  0.62509396513E+03  0.12142897580E+04  0.29155405085E+04  0.32195680671E+04  0.50400001928E-02 0. -1.
</event>
<event>
 5   0  0.5181371E-08  0.3699089E+04  0.7818609E-02  0.8068164E-01
        1   -1    0    0  501    0  0.00000000000E+00  0.00000000000E+00  0.20612926940E+04  0.20612926940E+04  0.50400001928E-02 0.  1.
       -1   -1    0    0    0  501  0.00000000000E+00  0.00000000000E+00 -0.16595479367E+04  0.16595479368E+04  0.50400001928E-02 0. -1.
    10030    2    1    2    0    0  0.00000000000E+00  0.00000000000E+00  0.40174475725E+03  0.37208406308E+04  0.36990885566E+04 0.  0.
        5    1    3    3  502    0  0.33234967794E+03 -0.12226919154E+04 -0.11544035838E+04  0.17140891320E+04  0.46999998093E+01 0. -1.
       -5    1    3    3    0  502 -0.33234967794E+03  0.12226919154E+04  0.15561483410E+04  0.20067514987E+04  0.46999998093E+01 0.  1.
</event>
<event>
 5   0  0.5181371E-08  0.3693787E+04  0.7818609E-02  0.8069340E-01
       -1   -1    0    0    0  501  0.00000000000E+00  0.00000000000E+00  0.15608090106E+04  0.15608090106E+04  0.50400001928E-02 0. -1.
        1   -1    0    0  501    0  0.00000000000E+00  0.00000000000E+00 -0.21854153475E+04  0.21854153475E+04  0.50400001928E-02 0.  1.
    10030    2    1    2    0    0  0.00000000000E+00  0.00000000000E+00 -0.62460633692E+03  0.37462243581E+04  0.36937871981E+04 0.  0.
        5    1    3    3  502    0  0.12378224529E+04  0.11611270866E+04 -0.10510482860E+04  0.19962828270E+04  0.46999998093E+01 0.  1.
       -5    1    3    3    0  502 -0.12378224529E+04 -0.11611270866E+04  0.42644194904E+03  0.17499415310E+04  0.46999998093E+01 0. -1.
</event>
<event>
 5   0  0.1658770E-07  0.3701172E+04  0.7818609E-02  0.8067702E-01
       -2   -1    0    0    0  501  0.00000000000E+00  0.00000000000E+00  0.19083535032E+04  0.19083535032E+04  0.25500000920E-02 0. -1.
        2   -1    0    0  501    0  0.00000000000E+00  0.00000000000E+00 -0.17945667319E+04  0.17945667319E+04  0.25500000920E-02 0.  1.
    10030    2    1    2    0    0  0.00000000000E+00  0.00000000000E+00  0.11378677130E+03  0.37029202351E+04  0.37011715494E+04 0.  0.
        2    1    3    3  502    0  0.37616512375E+03  0.47426310815E+03  0.18065026392E+04  0.19052237353E+04  0.25500000920E-02 0. -1.
       -2    1    3    3    0  502 -0.37616512375E+03 -0.47426310815E+03 -0.16927158679E+04  0.17976964998E+04  0.25500000920E-02 0.  1.
</event>
<event>
 5   0  0.5177000E-08  0.3688750E+04  0.7818609E-02  0.8070459E-01
        1   -1    0    0  501    0  0.00000000000E+00  0.00000000000E+00  0.15458602402E+04  0.15458602402E+04  0.50400001928E-02 0. -1.
       -1   -1    0    0    0  501  0.00000000000E+00  0.00000000000E+00 -0.22005350637E+04  0.22005350637E+04  0.50400001928E-02 0.  1.
    10030    2    1    2    0    0  0.00000000000E+00  0.00000000000E+00 -0.65467482349E+03  0.37463953039E+04  0.36887502828E+04 0.  0.
        3    1    3    3  502    0  0.18031508830E+04  0.31604574487E+03 -0.99145083999E+02  0.18333215151E+04  0.10100000352E+00 0. -1.
       -3    1    3    3    0  502 -0.18031508830E+04 -0.31604574487E+03 -0.55552973949E+03  0.19130737888E+04  0.10100000352E+00 0.  1.
</event>
<event>
 5   0  0.5181371E-08  0.3710048E+04  0.7818609E-02  0.8065739E-01
        1   -1    0    0  501    0  0.00000000000E+00  0.00000000000E+00  0.20808278800E+04  0.20808278800E+04  0.50400001928E-02 0. -1.
       -1   -1    0    0    0  501  0.00000000000E+00  0.00000000000E+00 -0.16537237023E+04  0.16537237023E+04  0.50400001928E-02 0.  1.
    10030    2    1    2    0    0  0.00000000000E+00  0.00000000000E+00  0.42710417772E+03  0.37345515823E+04  0.37100481859E+04 0.  0.
        5    1    3    3  502    0  0.15395869905E+04  0.11263157419E+03 -0.82187094165E+03  0.17488590302E+04  0.46999998093E+01 0.  1.
       -5    1    3    3    0  502 -0.15395869905E+04 -0.11263157419E+03  0.12489751194E+04  0.19856925521E+04  0.46999998093E+01 0. -1.
</event>
<event>
 5   0  0.1686284E-07  0.3710055E+04  0.7818609E-02  0.8065737E-01
       -2   -1    0    0    0  501  0.00000000000E+00  0.00000000000E+00  0.13120771136E+04  0.13120771136E+04  0.25500000920E-02 0.  1.
        2   -1    0    0  501    0  0.00000000000E+00  0.00000000000E+00 -0.26226563963E+04  0.26226563963E+04  0.25500000920E-02 0. -1.
    10030    2    1    2    0    0  0.00000000000E+00  0.00000000000E+00 -0.13105792827E+04  0.39347335100E+04  0.37100552204E+04 0.  0.
        5    1    3    3  502    0  0.33730738382E+03 -0.39695446474E+02 -0.25893942891E+04  0.26115774685E+04  0.46999998093E+01 0. -1.
       -5    1    3    3    0  502 -0.33730738382E+03  0.39695446474E+02  0.12788150064E+04  0.13231560415E+04  0.46999998093E+01 0.  1.
</event>
<event>
 5   0  0.1587026E-07  0.3669531E+04  0.7818609E-02  0.8074748E-01
       -2   -1    0    0    0  501  0.00000000000E+00  0.00000000000E+00  0.18187839677E+04  0.18187839677E+04  0.25500000920E-02 0.  1.
        2   -1    0    0  501    0  0.00000000000E+00  0.00000000000E+00 -0.18508873339E+04  0.18508873339E+04  0.25500000920E-02 0. -1.
    10030    2    1    2    0    0  0.00000000000E+00  0.00000000000E+00 -0.32103366166E+02  0.36696713016E+04  0.36695308741E+04 0.  0.
        3    1    3    3  502    0  0.12393978424E+04 -0.76169233156E+03 -0.11341651203E+04  0.18446172367E+04  0.10100000352E+00 0. -1.
       -3    1    3    3    0  502 -0.12393978424E+04  0.76169233156E+03  0.11020617541E+04  0.18250540649E+04  0.10100000352E+00 0.  1.
</event>
<event>
 5   0  0.5177000E-08  0.3718778E+04  0.7818609E-02  0.8063813E-01
        3   -1    0    0  501    0  0.00000000000E+00  0.00000000000E+00  0.19675313567E+04  0.19675313593E+04  0.10100000352E+00 0. -1.
       -3   -1    0    0    0  501  0.00000000000E+00  0.00000000000E+00 -0.17571907835E+04  0.17571907864E+04  0.10100000352E+00 0.  1.
    10030    2    1    2    0    0  0.00000000000E+00  0.00000000000E+00  0.21034057317E+03  0.37247221457E+04  0.37187782814E+04 0.  0.
        2    1    3    3  502    0  0.15046257557E+04  0.89879337934E+03 -0.51678903336E+03  0.18272381094E+04  0.25500000920E-02 0.  1.
       -2    1    3    3    0  502 -0.15046257557E+04 -0.89879337934E+03  0.72712960653E+03  0.18974840363E+04  0.25500000920E-02 0. -1.
</event>
<event>
 5   0  0.1658770E-07  0.3704377E+04  0.7818609E-02  0.8066992E-01
       -2   -1    0    0    0  501  0.00000000000E+00  0.00000000000E+00  0.18629172699E+04  0.18629172699E+04  0.25500000920E-02 0. -1.
        2   -1    0    0  501    0  0.00000000000E+00  0.00000000000E+00 -0.18415216362E+04  0.18415216362E+04  0.25500000920E-02 0.  1.
    10030    2    1    2    0    0  0.00000000000E+00  0.00000000000E+00  0.21395633660E+02  0.37044389061E+04  0.37043771184E+04 0.  0.
        2    1    3    3  502    0  0.18347144214E+04  0.25374267263E+03  0.43646987515E+01  0.18521828750E+04  0.25500000920E-02 0. -1.
       -2    1    3    3    0  502 -0.18347144214E+04 -0.25374267263E+03  0.17030934908E+02  0.18522560311E+04  0.25500000920E-02 0.  1.
</event>
<event>
 5   0  0.5177000E-08  0.3716823E+04  0.7818609E-02  0.8064244E-01
       -1   -1    0    0    0  501  0.00000000000E+00  0.00000000000E+00  0.19251943812E+04  0.19251943812E+04  0.50400001928E-02 0.  1.
        1   -1    0    0  501    0  0.00000000000E+00  0.00000000000E+00 -0.17939450834E+04  0.17939450835E+04  0.50400001928E-02 0. -1.
    10030    2    1    2    0    0  0.00000000000E+00  0.00000000000E+00  0.13124929771E+03  0.37191394646E+04  0.37168228340E+04 0.  0.
        1    1    3    3  502    0  0.15116453252E+04  0.50192509208E+03  0.10236620597E+04  0.18933790956E+04  0.50400001928E-02 0.  1.
       -1    1    3    3    0  502 -0.15116453252E+04 -0.50192509208E+03 -0.89241276194E+03  0.18257603690E+04  0.50400001928E-02 0. -1.
</event>
<event>
 5   0  0.1558258E-07  0.3702720E+04  0.7818609E-02  0.8067359E-01
       -2   -1    0    0    0  501  0.00000000000E+00  0.00000000000E+00  0.23410457844E+04  0.23410457844E+04  0.25500000920E-02 0. -1.
        2   -1    0    0  501    0  0.00000000000E+00  0.00000000000E+00 -0.14641040954E+04  0.14641040954E+04  0.25500000920E-02 0.  1.
    10030    2    1    2    0    0  0.00000000000E+00  0.00000000000E+00  0.87694168897E+03  0.38051498798E+04  0.37027204704E+04 0.  0.
        1    1    3    3  502    0 -0.16124750679E+04  0.36106362895E+03 -0.41954610832E+03  0.17048348089E+04  0.50400001928E-02 0.  1.
       -1    1    3    3    0  502  0.16124750679E+04 -0.36106362895E+03  0.12964877973E+04  0.21003150709E+04  0.50400001928E-02 0. -1.
</event>
<event>
 5   0  0.5177000E-08  0.3694771E+04  0.7818609E-02  0.8069122E-01
        1   -1    0    0  501    0  0.00000000000E+00  0.00000000000E+00  0.18522842264E+04  0.18522842264E+04  0.50400001928E-02 0. -1.
       -1   -1    0    0    0  501  0.00000000000E+00  0.00000000000E+00 -0.18424996959E+04  0.18424996959E+04  0.50400001928E-02 0.  1.
    10030    2    1    2    0    0  0.00000000000E+00  0.00000000000E+00  0.97845304344E+01  0.36947839223E+04  0.36947709666E+04 0.  0.
        2    1    3    3  502    0  0.12776710418E+04  0.10681790707E+04  0.80450954232E+03  0.18495095084E+04  0.25500000920E-02 0. -1.
       -2    1    3    3    0  502 -0.12776710418E+04 -0.10681790707E+04 -0.79472501188E+03  0.18452744139E+04  0.25500000920E-02 0.  1.
</event>
<event>
 5   0  0.5177000E-08  0.3708443E+04  0.7818609E-02  0.8066093E-01
       -1   -1    0    0    0  501  0.00000000000E+00  0.00000000000E+00  0.22495757922E+04  0.22495757922E+04  0.50400001928E-02 0.  1.
        1   -1    0    0  501    0  0.00000000000E+00  0.00000000000E+00 -0.15283493232E+04  0.15283493232E+04  0.50400001928E-02 0. -1.
    10030    2    1    2    0    0  0.00000000000E+00  0.00000000000E+00  0.72122646898E+03  0.37779251154E+04  0.37084431448E+04 0.  0.
        3    1    3    3  502    0 -0.32814926330E+03 -0.15701179900E+04  0.13081940465E+04  0.20698608927E+04  0.10100000352E+00 0.  1.
       -3    1    3    3    0  502  0.32814926330E+03  0.15701179900E+04 -0.58696757756E+03  0.17080642227E+04  0.10100000352E+00 0. -1.
</event>
<event>
 5   0  0.5181371E-08  0.3699640E+04  0.7818609E-02  0.8068042E-01
       -1   -1    0    0    0  501  0.00000000000E+00  0.00000000000E+00  0.23912461551E+04  0.23912461551E+04  0.50400001928E-02 0. -1.
        1   -1    0    0  501    0  0.00000000000E+00  0.00000000000E+00 -0.14309836548E+04  0.14309836549E+04  0.50400001928E-02 0.  1.
    10030    2    1    2    0    0  0.00000000000E+00  0.00000000000E+00  0.96026250025E+03  0.38222298100E+04  0.36996400704E+04 0.  0.
        5    1    3    3  502    0 -0.17980933911E+04 -0.25293675884E+03  0.84495426968E+03  0.20027697458E+04  0.46999998093E+01 0. -1.
       -5    1    3    3    0  502  0.17980933911E+04  0.25293675884E+03  0.11530823057E+03  0.18194600641E+04  0.46999998093E+01 0.  1.
</event>
<event>
 5   0  0.5177000E-08  0.3718793E+04  0.7818609E-02  0.8063810E-01
        1   -1    0    0  501    0  0.00000000000E+00  0.00000000000E+00  0.22486048992E+04  0.22486048992E+04  0.50400001928E-02 0. -1.
       -1   -1    0    0    0  501  0.00000000000E+00  0.00000000000E+00 -0.15375556122E+04  0.15375556122E+04  0.50400001928E-02 0.  1.
    10030    2    1    2    0    0  0.00000000000E+00  0.00000000000E+00  0.71104928699E+03  0.37861605114E+04  0.37187928592E+04 0.  0.
        2    1    3    3  502    0  0.14653156626E+04  0.56208058155E+03 -0.65966998866E+03  0.17024244668E+04  0.25500000920E-02 0.  1.
       -2    1    3    3    0  502 -0.14653156626E+04 -0.56208058155E+03  0.13707192756E+04  0.20837360446E+04  0.25500000920E-02 0. -1.
</event>
<event>
 5   0  0.1666189E-07  0.3697771E+04  0.7818609E-02  0.8068456E-01
       -2   -1    0    0    0  501  0.00000000000E+00  0.00000000000E+00  0.10716980088E+04  0.10716980088E+04  0.25500000920E-02 0. -1.
        2   -1    0    0  501    0  0.00000000000E+00  0.00000000000E+00 -0.31896840598E+04  0.31896840598E+04  0.25500000920E-02 0.  1.
    10030    2    1    2    0    0  0.00000000000E+00  0.00000000000E+00 -0.21179860509E+04  0.42613820686E+04  0.36977712507E+04 0.  0.
        4    1    3    3  502    0  0.15412566789E+01  0.11532900795E+04  0.60636060068E+03  0.13029793451E+04  0.12699999809E+01 0. -1.
       -4    1    3    3    0  502 -0.15412566789E+01 -0.11532900795E+04 -0.27243466516E+04  0.29584027234E+04  0.12699999809E+01 0.  1.
</event>
<event>
 5   0  0.5177000E-08  0.3705796E+04  0.7818609E-02  0.8066679E-01
       -1   -1    0    0    0  501  0.00000000000E+00  0.00000000000E+00  0.15058664069E+04  0.15058664069E+04  0.50400001928E-02 0.  1.
        1   -1    0    0  501    0  0.00000000000E+00  0.00000000000E+00 -0.22799043318E+04  0.22799043318E+04  0.50400001928E-02 0. -1.
    10030    2    1    2    0    0  0.00000000000E+00  0.00000000000E+00 -0.77403792489E+03  0.37857707387E+04  0.37057961866E+04 0.  0.
        4    1    3    3  502    0 -0.13261838034E+04  0.95567264467E+03 -0.12782896655E+04  0.20751143983E+04  0.12699999809E+01 0.  1.
       -4    1    3    3    0  502  0.13261838034E+04 -0.95567264467E+03  0.50425174059E+03  0.17106563404E+04  0.12699999809E+01 0. -1.
</event>
<event>
 5   0  0.5181371E-08  0.3701510E+04  0.7818609E-02  0.8067627E-01
       -1   -1    0    0    0  501  0.00000000000E+00  0.00000000000E+00  0.18032233636E+04  0.18032233636E+04  0.50400001928E-02 0. -1.
        1   -1    0    0  501    0  0.00000000000E+00  0.00000000000E+00 -0.18995391059E+04  0.18995391059E+04  0.50400001928E-02 0.  1.
    10030    2    1    2    0    0  0.00000000000E+00  0.00000000000E+00 -0.96315742247E+02  0.37027624695E+04  0.37015095817E+04 0.  0.
        5    1    3    3  502    0  0.13275630458E+04  0.47183734861E+01  0.12417844375E+04  0.18178274349E+04  0.46999998093E+01 0. -1.
       -5    1    3    3    0  502 -0.13275630458E+04 -0.47183734861E+01 -0.13381001798E+04  0.18849350346E+04  0.46999998093E+01 0.  1.
</event>
<event>
 5   0  0.5177000E-08  0.3747774E+04  0.7818609E-02  0.8057456E-01
        1   -1    0    0  501    0  0.00000000000E+00  0.00000000000E+00  0.23195702960E+04  0.23195702960E+04  0.50400001928E-02 0. -1.
       -1   -1    0    0    0  501  0.00000000000E+00  0.00000000000E+00 -0.15138376006E+04  0.15138376006E+04  0.50400001928E-02 0.  1.
    10030    2    1    2    0    0  0.00000000000E+00  0.00000000000E+00  0.80573269536E+03  0.38334078966E+04  0.37477741295E+04 0.  0.
        2    1    3    3  502    0  0.25292627749E+03  0.41849538514E+03 -0.14474288005E+04  0.15277958704E+04  0.25500000920E-02 0.  1.
       -2    1    3    3    0  502 -0.25292627749E+03 -0.41849538514E+03  0.22531614958E+04  0.23056120262E+04  0.25500000920E-02 0. -1.
</event>
<event>
 5   0  0.1558258E-07  0.3712515E+04  0.7818609E-02  0.8065194E-01
       -2   -1    0    0    0  501  0.00000000000E+00  0.00000000000E+00  0.18446970680E+04  0.18446970680E+04  0.25500000920E-02 0. -1.
        2   -1    0    0  501    0  0.00000000000E+00  0.00000000000E+00 -0.18678904730E+04  0.18678904730E+04  0.25500000920E-02 0.  1.
    10030    2    1    2    0    0  0.00000000000E+00  0.00000000000E+00 -0.23193405031E+02  0.37125875411E+04  0.37125150930E+04 0.  0.
        1    1    3    3  502    0 -0.79778099725E+03 -0.88327942247E+03 -0.14360735237E+04  0.18651928113E+04  0.50400001928E-02 0.  1.
       -1    1    3    3    0  502  0.79778099725E+03  0.88327942247E+03  0.14128801187E+04  0.18473947298E+04  0.50400001928E-02 0. -1.
</event>
<event>
 5   0  0.1587026E-07  0.3547395E+04  0.7818609E-02  0.8102649E-01
        2   -1    0    0  501    0  0.00000000000E+00  0.00000000000E+00  0.25750076871E+04  0.25750076871E+04  0.25500000920E-02 0. -1.
       -2   -1    0    0    0  501  0.00000000000E+00  0.00000000000E+00 -0.12217453317E+04  0.12217453317E+04  0.25500000920E-02 0.  1.
    10030    2    1    2    0    0  0.00000000000E+00  0.00000000000E+00  0.13532623554E+04  0.37967530189E+04  0.35473954507E+04 0.  0.
        3    1    3    3  502    0 -0.79087836706E+03 -0.15651347051E+04  0.96155514076E+03  0.19999308827E+04  0.10100000352E+00 0. -1.
       -3    1    3    3    0  502  0.79087836706E+03  0.15651347051E+04  0.39170721467E+03  0.17968221361E+04  0.10100000352E+00 0.  1.
</event>
<event>
 5   0  0.1587026E-07  0.3699222E+04  0.7818609E-02  0.8068134E-01
       -2   -1    0    0    0  501  0.00000000000E+00  0.00000000000E+00  0.14115302468E+04  0.14115302468E+04  0.25500000920E-02 0. -1.
        2   -1    0    0  501    0  0.00000000000E+00  0.00000000000E+00 -0.24236542647E+04  0.24236542647E+04  0.25500000920E-02 0.  1.
    10030    2    1    2    0    0  0.00000000000E+00  0.00000000000E+00 -0.10121240179E+04  0.38351845114E+04  0.36992222438E+04 0.  0.
        3    1    3    3  502    0 -0.15440337470E+04 -0.28673125708E+03 -0.15191180466E+04  0.21849427167E+04  0.10100000352E+00 0.  1.
       -3    1    3    3    0  502  0.15440337470E+04  0.28673125708E+03  0.50699402866E+03  0.16502417947E+04  0.10100000352E+00 0. -1.
</event>
<event>
 5   0  0.5177000E-08  0.3703318E+04  0.7818609E-02  0.8067227E-01
       -1   -1    0    0    0  501  0.00000000000E+00  0.00000000000E+00  0.20800464559E+04  0.20800464559E+04  0.50400001928E-02 0.  1.
        1   -1    0    0  501    0  0.00000000000E+00  0.00000000000E+00 -0.16483487049E+04  0.16483487049E+04  0.50400001928E-02 0. -1.
    10030    2    1    2    0    0  0.00000000000E+00  0.00000000000E+00  0.43169775103E+03  0.37283951609E+04  0.37033184480E+04 0.  0.
        4    1    3    3  502    0  0.47081660865E+03  0.10313411589E+03 -0.15840870513E+04  0.16557893356E+04  0.12699999809E+01 0. -1.
       -4    1    3    3    0  502 -0.47081660865E+03 -0.10313411589E+03  0.20157848023E+04  0.20726058253E+04  0.12699999809E+01 0.  1.
</event>
<event>
 5   0  0.1558258E-07  0.3697811E+04  0.7818609E-02  0.8068447E-01
        2   -1    0    0  501    0  0.00000000000E+00  0.00000000000E+00  0.21629836352E+04  0.21629836352E+04  0.25500000920E-02 0. -1.
       -2   -1    0    0    0  501  0.00000000000E+00  0.00000000000E+00 -0.15804337198E+04  0.15804337198E+04  0.25500000920E-02 0.  1.
    10030    2    1    2    0    0  0.00000000000E+00  0.00000000000E+00  0.58254991537E+03  0.37434173550E+04  0.36978113919E+04 0.  0.
        1    1    3    3  502    0 -0.72758842207E+03 -0.54738161471E+03 -0.13377452839E+04  0.16182008493E+04  0.50400001928E-02 0.  1.
       -1    1    3    3    0  502  0.72758842207E+03  0.54738161471E+03  0.19202951993E+04  0.21252165058E+04  0.50400001928E-02 0. -1.
</event>
<event>
 5   0  0.5177000E-08  0.3616237E+04  0.7818609E-02  0.8086783E-01
       -1   -1    0    0    0  501  0.00000000000E+00  0.00000000000E+00  0.27521853498E+04  0.27521853498E+04  0.50400001928E-02 0.  1.
        1   -1    0    0  501    0  0.00000000000E+00  0.00000000000E+00 -0.11878894028E+04  0.11878894028E+04  0.50400001928E-02 0. -1.
    10030    2    1    2    0    0  0.00000000000E+00  0.00000000000E+00  0.15642959470E+04  0.39400747526E+04  0.36162366137E+04 0.  0.
        2    1    3    3  502    0 -0.90233273560E+03  0.15058718761E+04  0.12538586184E+04  0.21573168307E+04  0.25500000920E-02 0. -1.
       -2    1    3    3    0  502  0.90233273560E+03 -0.15058718761E+04  0.31043732857E+03  0.17827579219E+04  0.25500000920E-02 0.  1.
</event>
<event>
 5   0  0.5177000E-08  0.3704843E+04  0.7818609E-02  0.8066889E-01
        1   -1    0    0  501    0  0.00000000000E+00  0.00000000000E+00  0.21517641831E+04  0.21517641831E+04  0.50400001928E-02 0. -1.
       -1   -1    0    0    0  501  0.00000000000E+00  0.00000000000E+00 -0.15947219252E+04  0.15947219252E+04  0.50400001928E-02 0.  1.
    10030    2    1    2    0    0  0.00000000000E+00  0.00000000000E+00  0.55704225787E+03  0.37464861084E+04  0.37048430578E+04 0.  0.
        3    1    3    3  502    0 -0.16800989368E+04  0.74130700362E+03  0.52456024537E+03  0.19098251156E+04  0.10100000352E+00 0.  1.
       -3    1    3    3    0  502  0.16800989368E+04 -0.74130700362E+03  0.32482012508E+02  0.18366609928E+04  0.10100000352E+00 0. -1.
</event>
<event>
 5   0  0.5181371E-08  0.3706417E+04  0.7818609E-02  0.8066541E-01
       -1   -1    0    0    0  501  0.00000000000E+00  0.00000000000E+00  0.26156826604E+04  0.26156826604E+04  0.50400001928E-02 0. -1.
        1   -1    0    0  501    0  0.00000000000E+00  0.00000000000E+00 -0.13129961047E+04  0.13129961047E+04  0.50400001928E-02 0.  1.
    10030    2    1    2    0    0  0.00000000000E+00  0.00000000000E+00  0.13026865556E+04  0.39286787651E+04  0.37064166761E+04 0.  0.
        5    1    3    3  502    0 -0.87537331777E+03  0.13664917269E+04  0.15998690815E+04  0.22788552506E+04  0.46999998093E+01 0. -1.
       -5    1    3    3    0  502  0.87537331777E+03 -0.13664917269E+04 -0.29718252590E+03  0.16498235145E+04  0.46999998093E+01 0.  1.
</event>
<event>
 5   0  0.1658770E-07  0.3688397E+04  0.7818609E-02  0.8070538E-01
       -2   -1    0    0    0  501  0.00000000000E+00  0.00000000000E+00  0.12400521628E+04  0.12400521628E+04  0.25500000920E-02 0.  1.
        2   -1    0    0  501    0  0.00000000000E+00  0.00000000000E+00 -0.27426820119E+04  0.27426820119E+04  0.25500000920E-02 0. -1.
    10030    2    1    2    0    0  0.00000000000E+00  0.00000000000E+00 -0.15026298490E+04  0.39827341747E+04  0.36883973543E+04 0.  0.
        2    1    3    3  502    0 -0.21554033266E+03  0.12877630391E+04  0.65503070259E+03  0.14607725700E+04  0.25500000920E-02 0.  1.
       -2    1    3    3    0  502  0.21554033266E+03 -0.12877630391E+04 -0.21576605516E+04  0.25219616048E+04  0.25500000920E-02 0. -1.
</event>
<event>
 5   0  0.1558258E-07  0.3704952E+04  0.7818609E-02  0.8066865E-01
       -2   -1    0    0    0  501  0.00000000000E+00  0.00000000000E+00  0.20606610979E+04  0.20606610979E+04  0.25500000920E-02 0. -1.
        2   -1    0    0  501    0  0.00000000000E+00  0.00000000000E+00 -0.16653236471E+04  0.16653236471E+04  0.25500000920E-02 0.  1.
    10030    2    1    2    0    0  0.00000000000E+00  0.00000000000E+00  0.39533745084E+03  0.37259847451E+04  0.37049521752E+04 0.  0.
        1    1    3    3  502    0 -0.12319055574E+04  0.85593769089E+03  0.12907830667E+04  0.19789748756E+04  0.50400001928E-02 0. -1.
       -1    1    3    3    0  502  0.12319055574E+04 -0.85593769089E+03 -0.89544561587E+03  0.17470098695E+04  0.50400001928E-02 0.  1.
</event>
<event>
 5   0  0.1587026E-07  0.3713722E+04  0.7818609E-02  0.8064928E-01
       -2   -1    0    0    0  501  0.00000000000E+00  0.00000000000E+00  0.19571318095E+04  0.19571318095E+04  0.25500000920E-02 0.  1.
        2   -1    0    0  501    0  0.00000000000E+00  0.00000000000E+00 -0.17617275003E+04  0.17617275003E+04  0.25500000920E-02 0. -1.
    10030    2    1    2    0    0  0.00000000000E+00  0.00000000000E+00  0.19540430921E+03  0.37188593098E+04  0.37137220846E+04 0.  0.
        3    1    3    3  502    0  0.12528760761E+04  0.11141648779E+04 -0.70144381510E+03  0.18174392075E+04  0.10100000352E+00 0. -1.
       -3    1    3    3    0  502 -0.12528760761E+04 -0.11141648779E+04  0.89684812430E+03  0.19014201023E+04  0.10100000352E+00 0.  1.
</event>
<event>
 5   0  0.5177000E-08  0.3699880E+04  0.7818609E-02  0.8067988E-01
        1   -1    0    0  501    0  0.00000000000E+00  0.00000000000E+00  0.22320385088E+04  0.22320385088E+04  0.50400001928E-02 0. -1.
       -1   -1    0    0    0  501  0.00000000000E+00  0.00000000000E+00 -0.15332520068E+04  0.15332520068E+04  0.50400001928E-02 0.  1.
    10030    2    1    2    0    0  0.00000000000E+00  0.00000000000E+00  0.69878650197E+03  0.37652905157E+04  0.36998797402E+04 0.  0.
        2    1    3    3  502    0  0.30543533370E+03  0.27464139160E+02 -0.15072040334E+04  0.15380861550E+04  0.25500000920E-02 0.  1.
       -2    1    3    3    0  502 -0.30543533370E+03 -0.27464139160E+02  0.22059905354E+04  0.22272043606E+04  0.25500000920E-02 0. -1.
</event>
<event>
 5   0  0.1666189E-07  0.3700277E+04  0.7818609E-02  0.8067900E-01
       -2   -1    0    0    0  501  0.00000000000E+00  0.00000000000E+00  0.13826082744E+04  0.13826082744E+04  0.25500000920E-02 0.  1.
        2   -1    0    0  501    0  0.00000000000E+00  0.00000000000E+00 -0.24757643004E+04  0.24757643004E+04  0.25500000920E-02 0. -1.
    10030    2    1    2    0    0  0.00000000000E+00  0.00000000000E+00 -0.10931560260E+04  0.38583725748E+04  0.37002768584E+04 0.  0.
        4    1    3    3  502    0 -0.79585712334E+03  0.12344814823E+04  0.62651236547E+03  0.15968257412E+04  0.12699999809E+01 0.  1.
       -4    1    3    3    0  502  0.79585712334E+03 -0.12344814823E+04 -0.17196683915E+04  0.22615468336E+04  0.12699999809E+01 0. -1.
</event>
<event>
 5   0  0.1558258E-07  0.3692272E+04  0.7818609E-02  0.8069677E-01
       -2   -1    0    0    0  501  0.00000000000E+00  0.00000000000E+00  0.29076853820E+04  0.29076853820E+04  0.25500000920E-02 0.  1.
        2   -1    0    0  501    0  0.00000000000E+00  0.00000000000E+00 -0.11721415510E+04  0.11721415510E+04  0.25500000920E-02 0. -1.
    10030    2    1    2    0    0  0.00000000000E+00  0.00000000000E+00  0.17355438310E+04  0.40798269329E+04  0.36922723915E+04 0.  0.
        1    1    3    3  502    0  0.26592478374E+03  0.40165527870E+03  0.28370193155E+04  0.28776242893E+04  0.50400001928E-02 0.  1.
       -1    1    3    3    0  502 -0.26592478374E+03 -0.40165527870E+03 -0.11014754845E+04  0.12022026437E+04  0.50400001928E-02 0. -1.
</event>
<event>
 5   0  0.5177000E-08  0.3936366E+04  0.7818609E-02  0.8017508E-01
        1   -1    0    0  501    0  0.00000000000E+00  0.00000000000E+00  0.24323650389E+04  0.24323650389E+04  0.50400001928E-02 0. -1.
       -1   -1    0    0    0  501  0.00000000000E+00  0.00000000000E+00 -0.15925835339E+04  0.15925835339E+04  0.50400001928E-02 0.  1.
    10030    2    1    2    0    0  0.00000000000E+00  0.00000000000E+00  0.83978150503E+03  0.40249485729E+04  0.39363660955E+04 0.  0.
        1    1    3    3  502    0  0.86801094024E+03  0.12447330184E+03 -0.13818081815E+04  0.16365605536E+04  0.50400001928E-02 0.  1.
       -1    1    3    3    0  502 -0.86801094024E+03 -0.12447330184E+03  0.22215896865E+04  0.23883880192E+04  0.50400001928E-02 0. -1.
</event>
<event>
 5   0  0.5181371E-08  0.3626477E+04  0.7818609E-02  0.8084454E-01
       -1   -1    0    0    0  501  0.00000000000E+00  0.00000000000E+00  0.27486225790E+04  0.27486225790E+04  0.50400001928E-02 0.  1.
        1   -1    0    0  501    0  0.00000000000E+00  0.00000000000E+00 -0.11961749944E+04  0.11961749944E+04  0.50400001928E-02 0. -1.
    10030    2    1    2    0    0  0.00000000000E+00  0.00000000000E+00  0.15524475846E+04  0.39447975733E+04  0.36264768566E+04 0.  0.
        5    1    3    3  502    0  0.14337023292E+04 -0.60540370005E+03 -0.23593225460E+03  0.15740718305E+04  0.46999998093E+01 0.  1.
       -5    1    3    3    0  502 -0.14337023292E+04  0.60540370005E+03  0.17883798392E+04  0.23707257429E+04  0.46999998093E+01 0. -1.
</event>
<event>
 5   0  0.1686284E-07  0.3696540E+04  0.7818609E-02  0.8068729E-01
        2   -1    0    0  501    0  0.00000000000E+00  0.00000000000E+00  0.16150400265E+04  0.16150400265E+04  0.25500000920E-02 0. -1.
       -2   -1    0    0    0  501  0.00000000000E+00  0.00000000000E+00 -0.21151813576E+04  0.21151813576E+04  0.25500000920E-02 0.  1.
    10030    2    1    2    0    0  0.00000000000E+00  0.00000000000E+00 -0.50014133104E+03  0.37302213841E+04  0.36965403046E+04 0.  0.
        5    1    3    3  502    0  0.45813673526E+03 -0.13595341718E+04 -0.14259597113E+04  0.20227717668E+04  0.46999998093E+01 0.  1.
       -5    1    3    3    0  502 -0.45813673526E+03  0.13595341718E+04  0.92581838027E+03  0.17074496173E+04  0.46999998093E+01 0. -1.
</event>
<event>
 5   0  0.1686284E-07  0.3702931E+04  0.7818609E-02  0.8067313E-01
        2   -1    0    0  501    0  0.00000000000E+00  0.00000000000E+00  0.19506671982E+04  0.19506671982E+04  0.25500000920E-02 0. -1.
       -2   -1    0    0    0  501  0.00000000000E+00  0.00000000000E+00 -0.17573087440E+04  0.17573087440E+04  0.25500000920E-02 0.  1.
    10030    2    1    2    0    0  0.00000000000E+00  0.00000000000E+00  0.19335845428E+03  0.37079759422E+04  0.37029310142E+04 0.  0.
        5    1    3    3  502    0 -0.12675479913E+04 -0.30582338200E+03  0.14128887350E+04  0.19226238630E+04  0.46999998093E+01 0. -1.
       -5    1    3    3    0  502  0.12675479913E+04  0.30582338200E+03 -0.12195302807E+04  0.17853520792E+04  0.46999998093E+01 0.  1.
</event>
<event>
 5   0  0.1686284E-07  0.3694846E+04  0.7818609E-02  0.8069105E-01
       -2   -1    0    0    0  501  0.00000000000E+00  0.00000000000E+00  0.10667289808E+04  0.10667289808E+04  0.25500000920E-02 0. -1.
        2   -1    0    0  501    0  0.00000000000E+00  0.00000000000E+00 -0.31994740459E+04  0.31994740459E+04  0.25500000920E-02 0.  1.
    10030    2    1    2    0    0  0.00000000000E+00  0.00000000000E+00 -0.21327450650E+04  0.42662030267E+04  0.36948459714E+04 0.  0.
        5    1    3    3  502    0 -0.56504086667E+03  0.15101944335E+04 -0.25282950298E+02  0.16126437070E+04  0.46999998093E+01 0. -1.
       -5    1    3    3    0  502  0.56504086667E+03 -0.15101944335E+04 -0.21074621147E+04  0.26535593197E+04  0.46999998093E+01 0.  1.
</event>
<event>
 5   0  0.1666189E-07  0.3698281E+04  0.7818609E-02  0.8068343E-01
        2   -1    0    0  501    0  0.00000000000E+00  0.00000000000E+00  0.22117816209E+04  0.22117816209E+04  0.25500000920E-02 0. -1.
       -2   -1    0    0    0  501  0.00000000000E+00  0.00000000000E+00 -0.15459574023E+04  0.15459574023E+04  0.25500000920E-02 0.  1.
    10030    2    1    2    0    0  0.00000000000E+00  0.00000000000E+00  0.66582421864E+03  0.37577390232E+04  0.36982807730E+04 0.  0.
        4    1    3    3  502    0  0.43461636954E+02  0.82307753523E+03  0.20148109757E+04  0.21768808933E+04  0.12699999809E+01 0. -1.
       -4    1    3    3    0  502 -0.43461636954E+02 -0.82307753523E+03 -0.13489867571E+04  0.15808581298E+04  0.12699999809E+01 0.  1.
</event>
<event>
 5   0  0.1666189E-07  0.3700817E+04  0.7818609E-02  0.8067781E-01
        2   -1    0    0  501    0  0.00000000000E+00  0.00000000000E+00  0.25354193642E+04  0.25354193642E+04  0.25500000920E-02 0.  1.
       -2   -1    0    0    0  501  0.00000000000E+00  0.00000000000E+00 -0.13504711503E+04  0.13504711503E+04  0.25500000920E-02 0. -1.
    10030    2    1    2    0    0  0.00000000000E+00  0.00000000000E+00  0.11849482139E+04  0.38858905145E+04  0.37008165073E+04 0.  0.
        4    1    3    3  502    0 -0.44516731242E+03  0.14436390642E+04 -0.52948462695E+03  0.16008195610E+04  0.12699999809E+01 0. -1.
       -4    1    3    3    0  502  0.44516731242E+03 -0.14436390642E+04  0.17144328409E+04  0.22850709535E+04  0.12699999809E+01 0.  1.
</event>
<event>
 5   0  0.5181371E-08  0.3723936E+04  0.7818609E-02  0.8062678E-01
        1   -1    0    0  501    0  0.00000000000E+00  0.00000000000E+00  0.26093981540E+04  0.26093981540E+04  0.50400001928E-02 0. -1.
       -1   -1    0    0    0  501  0.00000000000E+00  0.00000000000E+00 -0.13286302920E+04  0.13286302920E+04  0.50400001928E-02 0.  1.
    10030    2    1    2    0    0  0.00000000000E+00  0.00000000000E+00  0.12807678620E+04  0.39380284460E+04  0.37239363213E+04 0.  0.
        5    1    3    3  502    0  0.60315889487E+03  0.10685152623E+04  0.21213913467E+04  0.24506833443E+04  0.46999998093E+01 0. -1.
       -5    1    3    3    0  502 -0.60315889487E+03 -0.10685152623E+04 -0.84062348476E+03  0.14873451016E+04  0.46999998093E+01 0.  1.
</event>
<event>
 5   0  0.1587026E-07  0.3706092E+04  0.7818609E-02  0.8066613E-01
       -2   -1    0    0    0  501  0.00000000000E+00  0.00000000000E+00  0.23146802604E+04  0.23146802604E+04  0.25500000920E-02 0. -1.
        2   -1    0    0  501    0  0.00000000000E+00  0.00000000000E+00 -0.14834786787E+04  0.14834786787E+04  0.25500000920E-02 0.  1.
    10030    2    1    2    0    0  0.00000000000E+00  0.00000000000E+00  0.83120158172E+03  0.37981589390E+04  0.37060916417E+04 0.  0.
        3    1    3    3  502    0 -0.22135539959E+03 -0.99600043778E+03 -0.11696825209E+04  0.15521508609E+04  0.10100000352E+00 0.  1.
       -3    1    3    3    0  502  0.22135539959E+03  0.99600043778E+03  0.20008841026E+04  0.22460080782E+04  0.10100000352E+00 0. -1.
</event>
<event>
 5   0  0.1658770E-07  0.3673133E+04  0.7818609E-02  0.8073942E-01
       -2   -1    0    0    0  501  0.00000000000E+00  0.00000000000E+00  0.24841425878E+04  0.24841425878E+04  0.25500000920E-02 0.  1.
        2   -1    0    0  501    0  0.00000000000E+00  0.00000000000E+00 -0.13578028482E+04  0.13578028482E+04  0.25500000920E-02 0. -1.
    10030    2    1    2    0    0  0.00000000000E+00  0.00000000000E+00  0.11263397397E+04  0.38419454360E+04  0.36731326581E+04 0.  0.
        2    1    3    3  502    0 -0.23041565606E+03  0.10694964285E+04  0.21061140024E+04  0.23733162824E+04  0.25500000920E-02 0.  1.
       -2    1    3    3    0  502  0.23041565606E+03 -0.10694964285E+04 -0.97977426273E+03  0.14686291537E+04  0.25500000920E-02 0. -1.
</event>
<event>
 5   0  0.5177000E-08  0.3658078E+04  0.7818609E-02  0.8077316E-01
       -1   -1    0    0    0  501  0.00000000000E+00  0.00000000000E+00  0.16224969410E+04  0.16224969410E+04  0.50400001928E-02 0. -1.
        1   -1    0    0  501    0  0.00000000000E+00  0.00000000000E+00 -0.20618738906E+04  0.20618738906E+04  0.50400001928E-02 0.  1.
    10030    2    1    2    0    0  0.00000000000E+00  0.00000000000E+00 -0.43937694959E+03  0.36843708316E+04  0.36580782278E+04 0.  0.
        3    1    3    3  502    0  0.11429061582E+04  0.61740633878E+03 -0.15165608507E+04  0.19968429827E+04  0.10100000352E+00 0.  1.
       -3    1    3    3    0  502 -0.11429061582E+04 -0.61740633878E+03  0.10771839011E+04  0.16875278488E+04  0.10100000352E+00 0. -1.
</event>
<event>
 5   0  0.1686284E-07  0.3707748E+04  0.7818609E-02  0.8066247E-01
       -2   -1    0    0    0  501  0.00000000000E+00  0.00000000000E+00  0.19438155351E+04  0.19438155351E+04  0.25500000920E-02 0. -1.
        2   -1    0    0  501    0  0.00000000000E+00  0.00000000000E+00 -0.17680940132E+04  0.17680940132E+04  0.25500000920E-02 0.  1.
    10030    2    1    2    0    0  0.00000000000E+00  0.00000000000E+00  0.17572152197E+03  0.37119095483E+04  0.37077478935E+04 0.  0.
        5    1    3    3  502    0  0.14358839452E+04 -0.36583287277E+03  0.12032163345E+04  0.19087556241E+04  0.46999998093E+01 0. -1.
       -5    1    3    3    0  502 -0.14358839452E+04  0.36583287277E+03 -0.10274948125E+04  0.18031539243E+04  0.46999998093E+01 0.  1.
</event>
<event>
 5   0  0.1658770E-07  0.3702029E+04  0.7818609E-02  0.8067512E-01
       -2   -1    0    0    0  501  0.00000000000E+00  0.00000000000E+00  0.22582051096E+04  0.22582051096E+04  0.25500000920E-02 0.  1.
        2   -1    0    0  501    0  0.00000000000E+00  0.00000000000E+00 -0.15172472076E+04  0.15172472076E+04  0.25500000920E-02 0. -1.
    10030    2    1    2    0    0  0.00000000000E+00  0.00000000000E+00  0.74095790198E+03  0.37754523172E+04  0.37020293876E+04 0.  0.
        2    1    3    3  502    0  0.15885752588E+04  0.70408472399E+03 -0.28009846710E+03  0.17600459660E+04  0.25500000920E-02 0.  1.
       -2    1    3    3    0  502 -0.15885752588E+04 -0.70408472399E+03  0.10210563691E+04  0.20154063511E+04  0.25500000920E-02 0. -1.
</event>
<event>
 5   0  0.5177000E-08  0.3699014E+04  0.7818609E-02  0.8068180E-01
        1   -1    0    0  501    0  0.00000000000E+00  0.00000000000E+00  0.12277540464E+04  0.12277540464E+04  0.50400001928E-02 0.  1.
       -1   -1    0    0    0  501  0.00000000000E+00  0.00000000000E+00 -0.27861248637E+04  0.27861248637E+04  0.50400001928E-02 0. -1.
    10030    2    1    2    0    0  0.00000000000E+00  0.00000000000E+00 -0.15583708174E+04  0.40138789101E+04  0.36990139633E+04 0.  0.
        1    1    3    3  502    0  0.74504669389E+03  0.10734147242E+04  0.64118920940E+03  0.14554852622E+04  0.50400001928E-02 0.  1.
       -1    1    3    3    0  502 -0.74504669389E+03 -0.10734147242E+04 -0.21995600268E+04  0.25583936479E+04  0.50400001928E-02 0. -1.
</event>
<event>
 5   0  0.1686284E-07  0.3698209E+04  0.7818609E-02  0.8068359E-01
       -2   -1    0    0    0  501  0.00000000000E+00  0.00000000000E+00  0.22865475181E+04  0.22865475181E+04  0.25500000920E-02 0.  1.
        2   -1    0    0  501    0  0.00000000000E+00  0.00000000000E+00 -0.14953495696E+04  0.14953495696E+04  0.25500000920E-02 0. -1.
    10030    2    1    2    0    0  0.00000000000E+00  0.00000000000E+00  0.79119794850E+03  0.37818970877E+04  0.36982092137E+04 0.  0.
        5    1    3    3  502    0  0.14371247728E+04  0.10528172887E+04 -0.11100408730E+03  0.17849638241E+04  0.46999998093E+01 0. -1.
       -5    1    3    3    0  502 -0.14371247728E+04 -0.10528172887E+04  0.90220203580E+03  0.19969332636E+04  0.46999998093E+01 0.  1.
</event>
<event>
 5   0  0.1686284E-07  0.3694124E+04  0.7818609E-02  0.8069265E-01
        2   -1    0    0  501    0  0.00000000000E+00  0.00000000000E+00  0.14060012129E+04  0.14060012129E+04  0.25500000920E-02 0. -1.
       -2   -1    0    0    0  501  0.00000000000E+00  0.00000000000E+00 -0.24264829050E+04  0.24264829050E+04  0.25500000920E-02 0.  1.
    10030    2    1    2    0    0  0.00000000000E+00  0.00000000000E+00 -0.10204816921E+04  0.38324841179E+04  0.36941239327E+04 0.  0.
        5    1    3    3  502    0  0.13941119923E+04  0.11143347702E+04 -0.16685644317E+02  0.17848223239E+04  0.46999998093E+01 0. -1.
       -5    1    3    3    0  502 -0.13941119923E+04 -0.11143347702E+04 -0.10037960478E+04  0.20476617940E+04  0.46999998093E+01 0.  1.
</event>
<event>
 5   0  0.1587026E-07  0.3704966E+04  0.7818609E-02  0.8066862E-01
       -2   -1    0    0    0  501  0.00000000000E+00  0.00000000000E+00  0.14077518421E+04  0.14077518421E+04  0.25500000920E-02 0.  1.
        2   -1    0    0  501    0  0.00000000000E+00  0.00000000000E+00 -0.24377117926E+04  0.24377117926E+04  0.25500000920E-02 0. -1.
    10030    2    1    2    0    0  0.00000000000E+00  0.00000000000E+00 -0.10299599505E+04  0.38454636348E+04  0.37049660008E+04 0.  0.
        3    1    3    3  502    0  0.42004899242E+03 -0.84919560198E+03  0.11372784623E+04  0.14801947971E+04  0.10100000352E+00 0.  1.
       -3    1    3    3    0  502 -0.42004899242E+03  0.84919560198E+03 -0.21672384128E+04  0.23652688377E+04  0.10100000352E+00 0. -1.
</event>
<event>
 5   0  0.5177000E-08  0.3687277E+04  0.7818609E-02  0.8070787E-01
        1   -1    0    0  501    0  0.00000000000E+00  0.00000000000E+00  0.21647774736E+04  0.21647774736E+04  0.50400001928E-02 0. -1.
       -1   -1    0    0    0  501  0.00000000000E+00  0.00000000000E+00 -0.15701399999E+04  0.15701399999E+04  0.50400001928E-02 0.  1.
    10030    2    1    2    0    0  0.00000000000E+00  0.00000000000E+00  0.59463747374E+03  0.37349174735E+04  0.36872774250E+04 0.  0.
        2    1    3    3  502    0 -0.29833027102E+03 -0.75005351364E+03  0.19762693415E+04  0.21347650302E+04  0.25500000920E-02 0. -1.
       -2    1    3    3    0  502  0.29833027102E+03  0.75005351364E+03 -0.13816318677E+04  0.16001524433E+04  0.25500000920E-02 0.  1.
</event>
<event>
 5   0  0.5181371E-08  0.3725306E+04  0.7818609E-02  0.8062377E-01
       -1   -1    0    0    0  501  0.00000000000E+00  0.00000000000E+00  0.16063261710E+04  0.16063261710E+04  0.50400001928E-02 0. -1.
        1   -1    0    0  501    0  0.00000000000E+00  0.00000000000E+00 -0.21598831350E+04  0.21598831350E+04  0.50400001928E-02 0.  1.
    10030    2    1    2    0    0  0.00000000000E+00  0.00000000000E+00 -0.55355696397E+03  0.37662093060E+04  0.37253063263E+04 0.  0.
        5    1    3    3  502    0 -0.86284753022E+03  0.16503344531E+04 -0.31385607087E+03  0.18885543123E+04  0.46999998093E+01 0.  1.
       -5    1    3    3    0  502  0.86284753022E+03 -0.16503344531E+04 -0.23970089310E+03  0.18776549937E+04  0.46999998093E+01 0. -1.
</event>
<event>
 5   0  0.1658770E-07  0.3694613E+04  0.7818609E-02  0.8069157E-01
       -2   -1    0    0    0  501  0.00000000000E+00  0.00000000000E+00  0.15929425852E+04  0.15929425852E+04  0.25500000920E-02 0.  1.
        2   -1    0    0  501    0  0.00000000000E+00  0.00000000000E+00 -0.21422872062E+04  0.21422872062E+04  0.25500000920E-02 0. -1.
    10030    2    1    2    0    0  0.00000000000E+00  0.00000000000E+00 -0.54934462102E+03  0.37352297915E+04  0.36946125754E+04 0.  0.
        2    1    3    3  502    0  0.10060322161E+04 -0.14541138221E+04  0.26598974284E+03  0.17880990942E+04  0.25500000920E-02 0. -1.
       -2    1    3    3    0  502 -0.10060322161E+04  0.14541138221E+04 -0.81533436386E+03  0.19471306973E+04  0.25500000920E-02 0.  1.
</event>
<event>
 5   0  0.1558258E-07  0.3697164E+04  0.7818609E-02  0.8068591E-01
       -2   -1    0    0    0  501  0.00000000000E+00  0.00000000000E+00  0.25404245329E+04  0.25404245329E+04  0.25500000920E-02 0. -1.
        2   -1    0    0  501    0  0.00000000000E+00  0.00000000000E+00 -0.13451516012E+04  0.13451516012E+04  0.25500000920E-02 0.  1.
    10030    2    1    2    0    0  0.00000000000E+00  0.00000000000E+00  0.11952729317E+04  0.38855761341E+04  0.36971643881E+04 0.  0.
        1    1    3    3  502    0 -0.13315068171E+03 -0.18172072688E+04  0.26983636581E+03  0.18419508751E+04  0.50400001928E-02 0.  1.
       -1    1    3    3    0  502  0.13315068171E+03  0.18172072688E+04  0.92543656588E+03  0.20436252590E+04  0.50400001928E-02 0. -1.
</event>
<event>
 5   0  0.5177000E-08  0.3699218E+04  0.7818609E-02  0.8068135E-01
        1   -1    0    0  501    0  0.00000000000E+00  0.00000000000E+00  0.19856502898E+04  0.19856502898E+04  0.50400001928E-02 0. -1.
       -1   -1    0    0    0  501  0.00000000000E+00  0.00000000000E+00 -0.17228884156E+04  0.17228884156E+04  0.50400001928E-02 0.  1.
    10030    2    1    2    0    0  0.00000000000E+00  0.00000000000E+00  0.26276187420E+03  0.37085387054E+04  0.36992182318E+04 0.  0.
        4    1    3    3  502    0  0.27606892212E+03 -0.66725780749E+03 -0.15757321861E+04  0.17333149069E+04  0.12699999809E+01 0.  1.
       -4    1    3    3    0  502 -0.27606892212E+03  0.66725780749E+03  0.18384940603E+04  0.19752237985E+04  0.12699999809E+01 0. -1.
</event>
<event>
 5   0  0.5177000E-08  0.3711892E+04  0.7818609E-02  0.8065331E-01
       -1   -1    0    0    0  501  0.00000000000E+00  0.00000000000E+00  0.17701534072E+04  0.17701534072E+04  0.50400001928E-02 0. -1.
        1   -1    0    0  501    0  0.00000000000E+00  0.00000000000E+00 -0.19458968500E+04  0.19458968500E+04  0.50400001928E-02 0.  1.
    10030    2    1    2    0    0  0.00000000000E+00  0.00000000000E+00 -0.17574344280E+03  0.37160502573E+04  0.37118922071E+04 0.  0.
        3    1    3    3  502    0  0.32370037778E+03  0.24224734257E+03 -0.19012732837E+04  0.19437864644E+04  0.10100000352E+00 0.  1.
       -3    1    3    3    0  502 -0.32370037778E+03 -0.24224734257E+03  0.17255298409E+04  0.17722637929E+04  0.10100000352E+00 0. -1.
</event>
<event>
 5   0  0.1658770E-07  0.3730839E+04  0.7818609E-02  0.8061162E-01
       -2   -1    0    0    0  501  0.00000000000E+00  0.00000000000E+00  0.24270754618E+04  0.24270754618E+04  0.25500000920E-02 0. -1.
        2   -1    0    0  501    0  0.00000000000E+00  0.00000000000E+00 -0.14337376427E+04  0.14337376427E+04  0.25500000920E-02 0.  1.
    10030    2    1    2    0    0  0.00000000000E+00  0.00000000000E+00  0.99333781906E+03  0.38608131045E+04  0.37308387536E+04 0.  0.
        2    1    3    3  502    0 -0.28192991756E+03 -0.10478457481E+04  0.20668709752E+04  0.23343994556E+04  0.25500000920E-02 0. -1.
       -2    1    3    3    0  502  0.28192991756E+03  0.10478457481E+04 -0.10735331561E+04  0.15264136489E+04  0.25500000920E-02 0.  1.
</event>
<event>
 5   0  0.5177000E-08  0.3700994E+04  0.7818609E-02  0.8067742E-01
       -1   -1    0    0    0  501  0.00000000000E+00  0.00000000000E+00  0.19145623751E+04  0.19145623751E+04  0.50400001928E-02 0. -1.
        1   -1    0    0  501    0  0.00000000000E+00  0.00000000000E+00 -0.17885754169E+04  0.17885754169E+04  0.50400001928E-02 0.  1.
    10030    2    1    2    0    0  0.00000000000E+00  0.00000000000E+00  0.12598695818E+03  0.37031377920E+04  0.37009940277E+04 0.  0.
        3    1    3    3  502    0 -0.14080247541E+04  0.51687241222E+03 -0.10214462797E+04  0.18146744367E+04  0.10100000352E+00 0.  1.
       -3    1    3    3    0  502  0.14080247541E+04 -0.51687241222E+03  0.11474332379E+04  0.18884633553E+04  0.10100000352E+00 0. -1.
</event>
<event>
 5   0  0.5177000E-08  0.3667226E+04  0.7818609E-02  0.8075264E-01
       -1   -1    0    0    0  501  0.00000000000E+00  0.00000000000E+00  0.17570194056E+04  0.17570194056E+04  0.50400001928E-02 0. -1.
        1   -1    0    0  501    0  0.00000000000E+00  0.00000000000E+00 -0.19135452532E+04  0.19135452532E+04  0.50400001928E-02 0.  1.
    10030    2    1    2    0    0  0.00000000000E+00  0.00000000000E+00 -0.15652584752E+03  0.36705646588E+04  0.36672257326E+04 0.  0.
        1    1    3    3  502    0 -0.17653271466E+04  0.45713517876E+03 -0.27022815228E+03  0.18434684051E+04  0.50400001928E-02 0. -1.
       -1    1    3    3    0  502  0.17653271466E+04 -0.45713517876E+03  0.11370230476E+03  0.18270962537E+04  0.50400001928E-02 0.  1.
</event>
<event>
 5   0  0.5177000E-08  0.3697349E+04  0.7818609E-02  0.8068550E-01
        1   -1    0    0  501    0  0.00000000000E+00  0.00000000000E+00  0.22138604246E+04  0.22138604246E+04  0.50400001928E-02 0. -1.
       -1   -1    0    0    0  501  0.00000000000E+00  0.00000000000E+00 -0.15437272650E+04  0.15437272650E+04  0.50400001928E-02 0.  1.
    10030    2    1    2    0    0  0.00000000000E+00  0.00000000000E+00  0.67013315967E+03  0.37575876896E+04  0.36973486167E+04 0.  0.
        2    1    3    3  502    0  0.11632442194E+04 -0.26239139708E+03  0.17707430930E+04  0.21348342935E+04  0.25500000920E-02 0. -1.
       -2    1    3    3    0  502 -0.11632442194E+04  0.26239139708E+03 -0.11006099333E+04  0.16227533961E+04  0.25500000920E-02 0.  1.
</event>
<event>
 5   0  0.1666189E-07  0.3722527E+04  0.7818609E-02  0.8062988E-01
       -2   -1    0    0    0  501  0.00000000000E+00  0.00000000000E+00  0.19092731709E+04  0.19092731709E+04  0.25500000920E-02 0. -1.
        2   -1    0    0  501    0  0.00000000000E+00  0.00000000000E+00 -0.18144606132E+04  0.18144606132E+04  0.25500000920E-02 0.  1.
    10030    2    1    2    0    0  0.00000000000E+00  0.00000000000E+00  0.94812557718E+02  0.37237337841E+04  0.37225265444E+04 0.  0.
        4    1    3    3  502    0 -0.42552377483E+03 -0.24524525804E+02 -0.17649835579E+04  0.18157203826E+04  0.12699999809E+01 0.  1.
       -4    1    3    3    0  502  0.42552377483E+03  0.24524525804E+02  0.18597961156E+04  0.19080134014E+04  0.12699999809E+01 0. -1.
</event>
<event>
 5   0  0.1686284E-07  0.3692971E+04  0.7818609E-02  0.8069521E-01
        2   -1    0    0  501    0  0.00000000000E+00  0.00000000000E+00  0.22160707043E+04  0.22160707043E+04  0.25500000920E-02 0. -1.
       -2   -1    0    0    0  501  0.00000000000E+00  0.00000000000E+00 -0.15385376839E+04  0.15385376839E+04  0.25500000920E-02 0.  1.
    10030    2    1    2    0    0  0.00000000000E+00  0.00000000000E+00  0.67753302036E+03  0.37546083882E+04  0.36929707764E+04 0.  0.
        5    1    3    3  502    0 -0.48544671277E+03 -0.44742765177E+03 -0.14144384533E+04  0.15609318507E+04  0.46999998093E+01 0.  1.
       -5    1    3    3    0  502  0.48544671277E+03  0.44742765177E+03  0.20919714736E+04  0.21936765375E+04  0.46999998093E+01 0. -1.
</event>
<event>
 5   0  0.1666189E-07  0.3702121E+04  0.7818609E-02  0.8067492E-01
       -2   -1    0    0    0  501  0.00000000000E+00  0.00000000000E+00  0.14620121332E+04  0.14620121332E+04  0.25500000920E-02 0. -1.
        2   -1    0    0  501    0  0.00000000000E+00  0.00000000000E+00 -0.23436359928E+04  0.23436359928E+04  0.25500000920E-02 0.  1.
    10030    2    1    2    0    0  0.00000000000E+00  0.00000000000E+00 -0.88162385953E+03  0.38056481260E+04  0.37021206125E+04 0.  0.
        4    1    3    3  502    0  0.17946104706E+04 -0.24438475194E+03 -0.83369340255E+03  0.19938397505E+04  0.12699999809E+01 0.  1.
       -4    1    3    3    0  502 -0.17946104706E+04  0.24438475194E+03 -0.47930456986E+02  0.18118083756E+04  0.12699999809E+01 0. -1.
</event>
<event>
 5   0  0.1558258E-07  0.3696564E+04  0.7818609E-02  0.8068724E-01
       -2   -1    0    0    0  501  0.00000000000E+00  0.00000000000E+00  0.17961513877E+04  0.17961513877E+04  0.25500000920E-02 0. -1.
        2   -1    0    0  501    0  0.00000000000E+00  0.00000000000E+00 -0.19019251623E+04  0.19019251623E+04  0.25500000920E-02 0.  1.
    10030    2    1    2    0    0  0.00000000000E+00  0.00000000000E+00 -0.10577377455E+03  0.36980765500E+04  0.36965635499E+04 0.  0.
        1    1    3    3  502    0 -0.93003242489E+03 -0.41155882433E+03  0.14910543947E+04  0.18048778865E+04  0.50400001928E-02 0. -1.
       -1    1    3    3    0  502  0.93003242489E+03  0.41155882433E+03 -0.15968281693E+04  0.18931986635E+04  0.50400001928E-02 0.  1.
</event>
<event>
 5   0  0.1686284E-07  0.3702119E+04  0.7818609E-02  0.8067492E-01
       -2   -1    0    0    0  501  0.00000000000E+00  0.00000000000E+00  0.12085341853E+04  0.12085341853E+04  0.25500000920E-02 0.  1.
        2   -1    0    0  501    0  0.00000000000E+00  0.00000000000E+00 -0.28351870650E+04  0.28351870650E+04  0.25500000920E-02 0. -1.
    10030    2    1    2    0    0  0.00000000000E+00  0.00000000000E+00 -0.16266528798E+04  0.40437212503E+04  0.37021185771E+04 0.  0.
        5    1    3    3  502    0  0.16770473563E+04  0.69584522784E+03 -0.12067112510E+04  0.21801060868E+04  0.46999998093E+01 0. -1.
       -5    1    3    3    0  502 -0.16770473563E+04 -0.69584522784E+03 -0.41994162877E+03  0.18636151636E+04  0.46999998093E+01 0.  1.
</event>
<event>
 5   0  0.1587026E-07  0.3702242E+04  0.7818609E-02  0.8067465E-01
        2   -1    0    0  501    0  0.00000000000E+00  0.00000000000E+00  0.20789384654E+04  0.20789384654E+04  0.25500000920E-02 0.  1.
       -2   -1    0    0    0  501  0.00000000000E+00  0.00000000000E+00 -0.16482682723E+04  0.16482682723E+04  0.25500000920E-02 0. -1.
    10030    2    1    2    0    0  0.00000000000E+00  0.00000000000E+00  0.43067019301E+03  0.37272067377E+04  0.37022416521E+04 0.  0.
        3    1    3    3  502    0 -0.28230207998E+03  0.15433617489E+03 -0.16199040268E+04  0.16515456959E+04  0.10100000352E+00 0. -1.
       -3    1    3    3    0  502  0.28230207998E+03 -0.15433617489E+03  0.20505742198E+04  0.20756610418E+04  0.10100000352E+00 0.  1.
</event>
<event>
 5   0  0.1666189E-07  0.3534526E+04  0.7818609E-02  0.8105656E-01
        2   -1    0    0  501    0  0.00000000000E+00  0.00000000000E+00  0.20119015509E+04  0.20119015509E+04  0.25500000920E-02 0. -1.
       -2   -1    0    0    0  501  0.00000000000E+00  0.00000000000E+00 -0.15523712339E+04  0.15523712339E+04  0.25500000920E-02 0.  1.
    10030    2    1    2    0    0  0.00000000000E+00  0.00000000000E+00  0.45953031699E+03  0.35642727849E+04  0.35345257635E+04 0.  0.
        4    1    3    3  502    0 -0.24832590962E+03  0.11654805932E+02 -0.15346503967E+04  0.15546559249E+04  0.12699999809E+01 0.  1.
       -4    1    3    3    0  502  0.24832590962E+03 -0.11654805932E+02  0.19941807137E+04  0.20096168599E+04  0.12699999809E+01 0. -1.
</event>
<event>
 5   0  0.5177000E-08  0.3696223E+04  0.7818609E-02  0.8068799E-01
        1   -1    0    0  501    0  0.00000000000E+00  0.00000000000E+00  0.27486654802E+04  0.27486654802E+04  0.50400001928E-02 0.  1.
       -1   -1    0    0    0  501  0.00000000000E+00  0.00000000000E+00 -0.12426087646E+04  0.12426087646E+04  0.50400001928E-02 0. -1.
    10030    2    1    2    0    0  0.00000000000E+00  0.00000000000E+00  0.15060567156E+04  0.39912742449E+04  0.36962228379E+04 0.  0.
        3    1    3    3  502    0 -0.35343651548E+03 -0.55308503705E+03 -0.11125067654E+04  0.12917011040E+04  0.10100000352E+00 0. -1.
       -3    1    3    3    0  502  0.35343651548E+03  0.55308503705E+03  0.26185634810E+04  0.26995731409E+04  0.10100000352E+00 0.  1.
</event>
<event>
 5   0  0.5177000E-08  0.3700511E+04  0.7818609E-02  0.8067849E-01
        1   -1    0    0  501    0  0.00000000000E+00  0.00000000000E+00  0.25651542756E+04  0.25651542756E+04  0.50400001928E-02 0. -1.
       -1   -1    0    0    0  501  0.00000000000E+00  0.00000000000E+00 -0.13345961665E+04  0.13345961665E+04  0.50400001928E-02 0.  1.
    10030    2    1    2    0    0  0.00000000000E+00  0.00000000000E+00  0.12305581091E+04  0.38997504421E+04  0.37005108095E+04 0.  0.
        2    1    3    3  502    0 -0.15251936004E+04  0.10405303116E+04  0.74229298865E+03  0.19899542028E+04  0.25500000920E-02 0.  1.
       -2    1    3    3    0  502  0.15251936004E+04 -0.10405303116E+04  0.48826512049E+03  0.19097962394E+04  0.25500000920E-02 0. -1.
</event>
<event>
 5   0  0.5181371E-08  0.3642687E+04  0.7818609E-02  0.8080783E-01
        1   -1    0    0  501    0  0.00000000000E+00  0.00000000000E+00  0.27903970413E+04  0.27903970413E+04  0.50400001928E-02 0.  1.
       -1   -1    0    0    0  501  0.00000000000E+00  0.00000000000E+00 -0.11888245263E+04  0.11888245263E+04  0.50400001928E-02 0. -1.
    10030    2    1    2    0    0  0.00000000000E+00  0.00000000000E+00  0.16015725150E+04  0.39792215676E+04  0.36426871625E+04 0.  0.
        5    1    3    3  502    0  0.16500240198E+04 -0.25848228181E+03  0.15944618519E+04  0.23090524123E+04  0.46999998093E+01 0.  1.
       -5    1    3    3    0  502 -0.16500240198E+04  0.25848228181E+03  0.71106630646E+01  0.16701691553E+04  0.46999998093E+01 0. -1.
</event>
<event>
 5   0  0.1666189E-07  0.3706244E+04  0.7818609E-02  0.8066580E-01
       -2   -1    0    0    0  501  0.00000000000E+00  0.00000000000E+00  0.12854917156E+04  0.12854917156E+04  0.25500000920E-02 0. -1.
        2   -1    0    0  501    0  0.00000000000E+00  0.00000000000E+00 -0.26713983909E+04  0.26713983909E+04  0.25500000920E-02 0.  1.
    10030    2    1    2    0    0  0.00000000000E+00  0.00000000000E+00 -0.13859066753E+04  0.39568901065E+04  0.37062436512E+04 0.  0.
        4    1    3    3  502    0  0.12078394199E+04 -0.13923264676E+04 -0.48867661378E+03  0.19068968253E+04  0.12699999809E+01 0.  1.
       -4    1    3    3    0  502 -0.12078394199E+04  0.13923264676E+04 -0.89723006147E+03  0.20499932812E+04  0.12699999809E+01 0. -1.
</event>
<event>
 5   0  0.5177000E-08  0.3658000E+04  0.7818609E-02  0.8077334E-01
       -1   -1    0    0    0  501  0.00000000000E+00  0.00000000000E+00  0.17758410365E+04  0.17758410365E+04  0.50400001928E-02 0. -1.
        1   -1    0    0  501    0  0.00000000000E+00  0.00000000000E+00 -0.18837502440E+04  0.18837502440E+04  0.50400001928E-02 0.  1.
    10030    2    1    2    0    0  0.00000000000E+00  0.00000000000E+00 -0.10790920751E+03  0.36595912805E+04  0.36579999922E+04 0.  0.
        1    1    3    3  502    0  0.77878648717E+03 -0.80533562418E+03 -0.15003245540E+04  0.18724442923E+04  0.50400001928E-02 0.  1.
       -1    1    3    3    0  502 -0.77878648717E+03  0.80533562418E+03  0.13924153465E+04  0.17871469882E+04  0.50400001928E-02 0. -1.
</event>
<event>
 5   0  0.5181371E-08  0.3716045E+04  0.7818609E-02  0.8064415E-01
       -1   -1    0    0    0  501  0.00000000000E+00  0.00000000000E+00  0.22225227017E+04  0.22225227017E+04  0.50400001928E-02 0.  1.
        1   -1    0    0  501    0  0.00000000000E+00  0.00000000000E+00 -0.15533012703E+04  0.15533012703E+04  0.50400001928E-02 0. -1.
    10030    2    1    2    0    0  0.00000000000E+00  0.00000000000E+00  0.66922143144E+03  0.37758239720E+04  0.37160448522E+04 0.  0.
        5    1    3    3  502    0 -0.16016135264E+04  0.49458735749E+03  0.11490298953E+04  0.20322584315E+04  0.46999998093E+01 0.  1.
       -5    1    3    3    0  502  0.16016135264E+04 -0.49458735749E+03 -0.47980846384E+03  0.17435655405E+04  0.46999998093E+01 0. -1.
</event>
<event>
 5   0  0.5177000E-08  0.3693995E+04  0.7818609E-02  0.8069294E-01
        1   -1    0    0  501    0  0.00000000000E+00  0.00000000000E+00  0.17511052706E+04  0.17511052706E+04  0.50400001928E-02 0.  1.
       -1   -1    0    0    0  501  0.00000000000E+00  0.00000000000E+00 -0.19481407293E+04  0.19481407293E+04  0.50400001928E-02 0. -1.
    10030    2    1    2    0    0  0.00000000000E+00  0.00000000000E+00 -0.19703545876E+03  0.36992459999E+04  0.36939948560E+04 0.  0.
        1    1    3    3  502    0  0.14130125172E+04 -0.41846770270E+03 -0.12135096171E+04  0.19090115722E+04  0.50400001928E-02 0. -1.
       -1    1    3    3    0  502 -0.14130125172E+04  0.41846770270E+03  0.10164741583E+04  0.17902344278E+04  0.50400001928E-02 0.  1.
</event>
<event>
 5   0  0.5177000E-08  0.3741760E+04  0.7818609E-02  0.8058770E-01
        1   -1    0    0  501    0  0.00000000000E+00  0.00000000000E+00  0.22643176090E+04  0.22643176090E+04  0.50400001928E-02 0.  1.
       -1   -1    0    0    0  501  0.00000000000E+00  0.00000000000E+00 -0.15458044708E+04  0.15458044708E+04  0.50400001928E-02 0. -1.
    10030    2    1    2    0    0  0.00000000000E+00  0.00000000000E+00  0.71851313823E+03  0.38101220799E+04  0.37417601652E+04 0.  0.
        2    1    3    3  502    0 -0.45028249832E+03 -0.12664478796E+04 -0.96588312589E+03  0.16551660862E+04  0.25500000920E-02 0. -1.
       -2    1    3    3    0  502  0.45028249832E+03  0.12664478796E+04  0.16843962641E+04  0.21549559937E+04  0.25500000920E-02 0.  1.
</event>
<event>
 5   0  0.1686284E-07  0.3714903E+04  0.7818609E-02  0.8064667E-01
        2   -1    0    0  501    0  0.00000000000E+00  0.00000000000E+00  0.25726061704E+04  0.25726061704E+04  0.25500000920E-02 0. -1.
       -2   -1    0    0    0  501  0.00000000000E+00  0.00000000000E+00 -0.13411015089E+04  0.13411015089E+04  0.25500000920E-02 0.  1.
    10030    2    1    2    0    0  0.00000000000E+00  0.00000000000E+00  0.12315046616E+04  0.39137076793E+04  0.37149029688E+04 0.  0.
        5    1    3    3  502    0 -0.11327647720E+04 -0.93487709612E+03 -0.58217984692E+03  0.15799071737E+04  0.46999998093E+01 0.  1.
       -5    1    3    3    0  502  0.11327647720E+04  0.93487709612E+03  0.18136845085E+04  0.23338005056E+04  0.46999998093E+01 0. -1.
</event>
<event>
 5   0  0.1666189E-07  0.3703192E+04  0.7818609E-02  0.8067255E-01
       -2   -1    0    0    0  501  0.00000000000E+00  0.00000000000E+00  0.28203076134E+04  0.28203076134E+04  0.25500000920E-02 0. -1.
        2   -1    0    0  501    0  0.00000000000E+00  0.00000000000E+00 -0.12156145333E+04  0.12156145333E+04  0.25500000920E-02 0.  1.
    10030    2    1    2    0    0  0.00000000000E+00  0.00000000000E+00  0.16046930801E+04  0.40359221467E+04  0.37031915550E+04 0.  0.
        4    1    3    3  502    0  0.15157079172E+04 -0.75908225784E+03  0.16141411397E+04  0.23407327050E+04  0.12699999809E+01 0. -1.
       -4    1    3    3    0  502 -0.15157079172E+04  0.75908225784E+03 -0.94480596096E+01  0.16951894417E+04  0.12699999809E+01 0.  1.
</event>
<event>
 5   0  0.5177000E-08  0.3714797E+04  0.7818609E-02  0.8064691E-01
        1   -1    0    0  501    0  0.00000000000E+00  0.00000000000E+00  0.19119221900E+04  0.19119221900E+04  0.50400001928E-02 0. -1.
       -1   -1    0    0    0  501  0.00000000000E+00  0.00000000000E+00 -0.18044296439E+04  0.18044296439E+04  0.50400001928E-02 0.  1.
    10030    2    1    2    0    0  0.00000000000E+00  0.00000000000E+00  0.10749254605E+03  0.37163518339E+04  0.37147969400E+04 0.  0.
        3    1    3    3  502    0 -0.95374616580E+03 -0.17147772154E+03 -0.15314966438E+04  0.18123240157E+04  0.10100000352E+00 0.  1.
       -3    1    3    3    0  502  0.95374616580E+03  0.17147772154E+03  0.16389891898E+04  0.19040278182E+04  0.10100000352E+00 0. -1.
</event>
<event>
 5   0  0.5177000E-08  0.3688457E+04  0.7818609E-02  0.8070525E-01
       -1   -1    0    0    0  501  0.00000000000E+00  0.00000000000E+00  0.20351327136E+04  0.20351327136E+04  0.50400001928E-02 0.  1.
        1   -1    0    0  501    0  0.00000000000E+00  0.00000000000E+00 -0.16712315316E+04  0.16712315316E+04  0.50400001928E-02 0. -1.
    10030    2    1    2    0    0  0.00000000000E+00  0.00000000000E+00  0.36390118195E+03  0.37063642452E+04  0.36884565671E+04 0.  0.
        2    1    3    3  502    0  0.97423541946E+03  0.98989453652E+03  0.14011641042E+04  0.19728879068E+04  0.25500000920E-02 0.  1.
       -2    1    3    3    0  502 -0.97423541946E+03 -0.98989453652E+03 -0.10372629222E+04  0.17334763384E+04  0.25500000920E-02 0. -1.
</event>
<event>
 5   0  0.1666189E-07  0.3580770E+04  0.7818609E-02  0.8094911E-01
        2   -1    0    0  501    0  0.00000000000E+00  0.00000000000E+00  0.27738746686E+04  0.27738746686E+04  0.25500000920E-02 0.  1.
       -2   -1    0    0    0  501  0.00000000000E+00  0.00000000000E+00 -0.11555960544E+04  0.11555960544E+04  0.25500000920E-02 0. -1.
    10030    2    1    2    0    0  0.00000000000E+00  0.00000000000E+00  0.16182786142E+04  0.39294707230E+04  0.35807700973E+04 0.  0.
        4    1    3    3  502    0  0.13791450052E+04 -0.10810924762E+04  0.40642105966E+03  0.17988834254E+04  0.12699999809E+01 0. -1.
       -4    1    3    3    0  502 -0.13791450052E+04  0.10810924762E+04  0.12118575546E+04  0.21305872977E+04  0.12699999809E+01 0.  1.
</event>
<event>
 5   0  0.5177000E-08  0.3710577E+04  0.7818609E-02  0.8065622E-01
        1   -1    0    0  501    0  0.00000000000E+00  0.00000000000E+00  0.16895372466E+04  0.16895372466E+04  0.50400001928E-02 0.  1.
       -1   -1    0    0    0  501  0.00000000000E+00  0.00000000000E+00 -0.20373011234E+04  0.20373011234E+04  0.50400001928E-02 0. -1.
    10030    2    1    2    0    0  0.00000000000E+00  0.00000000000E+00 -0.34776387686E+03  0.37268383700E+04  0.37105773839E+04 0.  0.
        1    1    3    3  502    0 -0.70450244893E+03 -0.16773868443E+04 -0.53899364226E+03  0.18974889914E+04  0.50400001928E-02 0.  1.
       -1    1    3    3    0  502  0.70450244893E+03  0.16773868443E+04  0.19122976540E+03  0.18293493786E+04  0.50400001928E-02 0. -1.
</event>
<event>
 5   0  0.1558258E-07  0.3699754E+04  0.7818609E-02  0.8068016E-01
       -2   -1    0    0    0  501  0.00000000000E+00  0.00000000000E+00  0.15970204448E+04  0.15970204448E+04  0.25500000920E-02 0.  1.
        2   -1    0    0  501    0  0.00000000000E+00  0.00000000000E+00 -0.21427679746E+04  0.21427679746E+04  0.25500000920E-02 0. -1.
    10030    2    1    2    0    0  0.00000000000E+00  0.00000000000E+00 -0.54574752980E+03  0.37397884195E+04  0.36997536480E+04 0.  0.
        1    1    3    3  502    0  0.21910124829E+03 -0.17461414506E+04 -0.84915601348E+03  0.19539911100E+04  0.50400001928E-02 0. -1.
       -1    1    3    3    0  502 -0.21910124829E+03  0.17461414506E+04  0.30340848369E+03  0.17857973095E+04  0.50400001928E-02 0.  1.
</event>
<event>
 5   0  0.5177000E-08  0.3659369E+04  0.7818609E-02  0.8077026E-01
        1   -1    0    0  501    0  0.00000000000E+00  0.00000000000E+00  0.26308997734E+04  0.26308997734E+04  0.50400001928E-02 0.  1.
       -1   -1    0    0    0  501  0.00000000000E+00  0.00000000000E+00 -0.12724717425E+04  0.12724717425E+04  0.50400001928E-02 0. -1.
    10030    2    1    2    0    0  0.00000000000E+00  0.00000000000E+00  0.13584280309E+04  0.39033715159E+04  0.36593691364E+04 0.  0.
        1    1    3    3  502    0 -0.31796915736E+03 -0.17644365627E+04  0.28961354060E+03  0.18160993287E+04  0.50400001928E-02 0. -1.
       -1    1    3    3    0  502  0.31796915736E+03  0.17644365627E+04  0.10688144903E+04  0.20872721872E+04  0.50400001928E-02 0.  1.
</event>
<event>
 5   0  0.5177000E-08  0.3690216E+04  0.7818609E-02  0.8070133E-01
        1   -1    0    0  501    0  0.00000000000E+00  0.00000000000E+00  0.29214749103E+04  0.29214749103E+04  0.50400001928E-02 0. -1.
       -1   -1    0    0    0  501  0.00000000000E+00  0.00000000000E+00 -0.11653099947E+04  0.11653099947E+04  0.50400001928E-02 0.  1.
    10030    2    1    2    0    0  0.00000000000E+00  0.00000000000E+00  0.17561649157E+04  0.40867849050E+04  0.36902162062E+04 0.  0.
        1    1    3    3  502    0 -0.46519702483E+03 -0.44896470678E+03  0.27919299444E+04  0.28658071105E+04  0.50400001928E-02 0. -1.
       -1    1    3    3    0  502  0.46519702483E+03  0.44896470678E+03 -0.10357650288E+04  0.12209777945E+04  0.50400001928E-02 0.  1.
</event>
<event>
 5   0  0.1587026E-07  0.3702179E+04  0.7818609E-02  0.8067479E-01
       -2   -1    0    0    0  501  0.00000000000E+00  0.00000000000E+00  0.15158298344E+04  0.15158298344E+04  0.25500000920E-02 0. -1.
        2   -1    0    0  501    0  0.00000000000E+00  0.00000000000E+00 -0.22604993766E+04  0.22604993766E+04  0.25500000920E-02 0.  1.
    10030    2    1    2    0    0  0.00000000000E+00  0.00000000000E+00 -0.74466954219E+03  0.37763292111E+04  0.37021790318E+04 0.  0.
        3    1    3    3  502    0 -0.55545154799E+03  0.39018665533E+03  0.13842958852E+04  0.15417675428E+04  0.10100000352E+00 0. -1.
       -3    1    3    3    0  502  0.55545154799E+03 -0.39018665533E+03 -0.21289654274E+04  0.22345616683E+04  0.10100000352E+00 0.  1.
</event>
<event>
 5   0  0.5177000E-08  0.3705477E+04  0.7818609E-02  0.8066749E-01
        3   -1    0    0  501    0  0.00000000000E+00  0.00000000000E+00  0.31713880685E+04  0.31713880701E+04  0.10100000352E+00 0. -1.
       -3   -1    0    0    0  501  0.00000000000E+00  0.00000000000E+00 -0.10823777121E+04  0.10823777168E+04  0.10100000352E+00 0.  1.
    10030    2    1    2    0    0  0.00000000000E+00  0.00000000000E+00  0.20890103564E+04  0.42537657869E+04  0.37054769060E+04 0.  0.
        4    1    3    3  502    0 -0.13071399638E+04  0.13024985355E+04  0.12349461221E+04  0.22204078133E+04  0.12699999809E+01 0. -1.
       -4    1    3    3    0  502  0.13071399638E+04 -0.13024985355E+04  0.85406423425E+03  0.20333579736E+04  0.12699999809E+01 0.  1.
</event>
<event>
 5   0  0.1587026E-07  0.3697914E+04  0.7818609E-02  0.8068424E-01
        2   -1    0    0  501    0  0.00000000000E+00  0.00000000000E+00  0.18864324738E+04  0.18864324738E+04  0.25500000920E-02 0. -1.
       -2   -1    0    0    0  501  0.00000000000E+00  0.00000000000E+00 -0.18122259741E+04  0.18122259741E+04  0.25500000920E-02 0.  1.
    10030    2    1    2    0    0  0.00000000000E+00  0.00000000000E+00  0.74206499647E+02  0.36986584479E+04  0.36979139673E+04 0.  0.
        3    1    3    3  502    0  0.31854612527E+03  0.18210930495E+04  0.89837447174E+01  0.18487650599E+04  0.10100000352E+00 0. -1.
       -3    1    3    3    0  502 -0.31854612527E+03 -0.18210930495E+04  0.65222754930E+02  0.18498933880E+04  0.10100000352E+00 0.  1.
</event>
<event>
 5   0  0.1666189E-07  0.3691458E+04  0.7818609E-02  0.8069858E-01
        2   -1    0    0  501    0  0.00000000000E+00  0.00000000000E+00  0.21560791795E+04  0.21560791795E+04  0.25500000920E-02 0.  1.
       -2   -1    0    0    0  501  0.00000000000E+00  0.00000000000E+00 -0.15800510792E+04  0.15800510792E+04  0.25500000920E-02 0. -1.
    10030    2    1    2    0    0  0.00000000000E+00  0.00000000000E+00  0.57602810024E+03  0.37361302587E+04  0.36914578337E+04 0.  0.
        4    1    3    3  502    0 -0.33199606706E+03 -0.15505128845E+04 -0.66808826893E+03  0.17206554395E+04  0.12699999809E+01 0. -1.
       -4    1    3    3    0  502  0.33199606706E+03  0.15505128845E+04  0.12441163692E+04  0.20154748191E+04  0.12699999809E+01 0.  1.
</event>
<event>
 5   0  0.1587026E-07  0.3849332E+04  0.7818609E-02  0.8035650E-01
       -2   -1    0    0    0  501  0.00000000000E+00  0.00000000000E+00  0.21018277332E+04  0.21018277332E+04  0.25500000920E-02 0.  1.
        2   -1    0    0  501    0  0.00000000000E+00  0.00000000000E+00 -0.17624370290E+04  0.17624370290E+04  0.25500000920E-02 0. -1.
    10030    2    1    2    0    0  0.00000000000E+00  0.00000000000E+00  0.33939070418E+03  0.38642647623E+04  0.38493319034E+04 0.  0.
        3    1    3    3  502    0 -0.10015936749E+04  0.20465442091E+03  0.18067469988E+04  0.20759113780E+04  0.10100000352E+00 0.  1.
       -3    1    3    3    0  502  0.10015936749E+04 -0.20465442091E+03 -0.14673562946E+04  0.17883533843E+04  0.10100000352E+00 0. -1.
</event>
<event>
 5   0  0.1558258E-07  0.3575114E+04  0.7818609E-02  0.8096216E-01
        2   -1    0    0  501    0  0.00000000000E+00  0.00000000000E+00  0.25670825148E+04  0.25670825148E+04  0.25500000920E-02 0.  1.
       -2   -1    0    0    0  501  0.00000000000E+00  0.00000000000E+00 -0.12447437014E+04  0.12447437014E+04  0.25500000920E-02 0. -1.
    10030    2    1    2    0    0  0.00000000000E+00  0.00000000000E+00  0.13223388135E+04  0.38118262162E+04  0.35751138674E+04 0.  0.
        1    1    3    3  502    0  0.10465428115E+04 -0.14489824828E+04  0.63599012612E+03  0.18971783080E+04  0.50400001928E-02 0. -1.
       -1    1    3    3    0  502 -0.10465428115E+04  0.14489824828E+04  0.68634868736E+03  0.19146479082E+04  0.50400001928E-02 0.  1.
</event>
<event>
 5   0  0.5177000E-08  0.3721010E+04  0.7818609E-02  0.8063322E-01
       -1   -1    0    0    0  501  0.00000000000E+00  0.00000000000E+00  0.26121711963E+04  0.26121711963E+04  0.50400001928E-02 0.  1.
        1   -1    0    0  501    0  0.00000000000E+00  0.00000000000E+00 -0.13251344164E+04  0.13251344165E+04  0.50400001928E-02 0. -1.
    10030    2    1    2    0    0  0.00000000000E+00  0.00000000000E+00  0.12870367799E+04  0.39373056128E+04  0.37210095157E+04 0.  0.
        2    1    3    3  502    0  0.90016916568E+03  0.83311928276E+03 -0.83675954565E+03  0.14847756744E+04  0.25500000920E-02 0. -1.
       -2    1    3    3    0  502 -0.90016916568E+03 -0.83311928276E+03  0.21237963255E+04  0.24525299383E+04  0.25500000920E-02 0.  1.
</event>
<event>
 5   0  0.5177000E-08  0.3695522E+04  0.7818609E-02  0.8068955E-01
       -1   -1    0    0    0  501  0.00000000000E+00  0.00000000000E+00  0.13593476202E+04  0.13593476202E+04  0.50400001928E-02 0. -1.
        1   -1    0    0  501    0  0.00000000000E+00  0.00000000000E+00 -0.25116614786E+04  0.25116614786E+04  0.50400001928E-02 0.  1.
    10030    2    1    2    0    0  0.00000000000E+00  0.00000000000E+00 -0.11523138584E+04  0.38710090988E+04  0.36955221843E+04 0.  0.
        4    1    3    3  502    0  0.59968460348E+03 -0.10342985234E+04 -0.20518954766E+04  0.23747993008E+04  0.12699999809E+01 0.  1.
       -4    1    3    3    0  502 -0.59968460348E+03  0.10342985234E+04  0.89958161816E+03  0.14962097980E+04  0.12699999809E+01 0. -1.
</event>
<event>
 5   0  0.1686284E-07  0.3720448E+04  0.7818609E-02  0.8063445E-01
       -2   -1    0    0    0  501  0.00000000000E+00  0.00000000000E+00  0.17464180587E+04  0.17464180587E+04  0.25500000920E-02 0. -1.
        2   -1    0    0  501    0  0.00000000000E+00  0.00000000000E+00 -0.19814462445E+04  0.19814462445E+04  0.25500000920E-02 0.  1.
    10030    2    1    2    0    0  0.00000000000E+00  0.00000000000E+00 -0.23502818588E+03  0.37278643032E+04  0.37204480933E+04 0.  0.
        5    1    3    3  502    0 -0.14973456061E+04 -0.77633959541E+03 -0.90372100967E+03  0.19134996171E+04  0.46999998093E+01 0.  1.
       -5    1    3    3    0  502  0.14973456061E+04  0.77633959541E+03  0.66869282379E+03  0.18143646861E+04  0.46999998093E+01 0. -1.
</event>
<event>
 5   0  0.5177000E-08  0.3721787E+04  0.7818609E-02  0.8063151E-01
        1   -1    0    0  501    0  0.00000000000E+00  0.00000000000E+00  0.16382514391E+04  0.16382514391E+04  0.50400001928E-02 0.  1.
       -1   -1    0    0    0  501  0.00000000000E+00  0.00000000000E+00 -0.21137934908E+04  0.21137934908E+04  0.50400001928E-02 0. -1.
    10030    2    1    2    0    0  0.00000000000E+00  0.00000000000E+00 -0.47554205172E+03  0.37520449299E+04  0.37217873277E+04 0.  0.
        1    1    3    3  502    0 -0.89612054610E+03 -0.15874020529E+04  0.13950117464E+03  0.18282061942E+04  0.50400001928E-02 0.  1.
       -1    1    3    3    0  502  0.89612054610E+03  0.15874020529E+04 -0.61504322636E+03  0.19238387357E+04  0.50400001928E-02 0. -1.
</event>
<event>
 5   0  0.5177000E-08  0.3705112E+04  0.7818609E-02  0.8066830E-01
       -1   -1    0    0    0  501  0.00000000000E+00  0.00000000000E+00  0.23207777647E+04  0.23207777647E+04  0.50400001928E-02 0. -1.
        1   -1    0    0  501    0  0.00000000000E+00  0.00000000000E+00 -0.14787989270E+04  0.14787989270E+04  0.50400001928E-02 0.  1.
    10030    2    1    2    0    0  0.00000000000E+00  0.00000000000E+00  0.84197883767E+03  0.37995766917E+04  0.37051119650E+04 0.  0.
        4    1    3    3  502    0 -0.13681566783E+04  0.70998035241E+03  0.14748265555E+04  0.21333166148E+04  0.12699999809E+01 0. -1.
       -4    1    3    3    0  502  0.13681566783E+04 -0.70998035241E+03 -0.63284771780E+03  0.16662600770E+04  0.12699999809E+01 0.  1.
</event>
<event>
 5   0  0.5181371E-08  0.3730148E+04  0.7818609E-02  0.8061313E-01
        1   -1    0    0  501    0  0.00000000000E+00  0.00000000000E+00  0.94835279972E+03  0.94835279973E+03  0.50400001928E-02 0. -1.
       -1   -1    0    0    0  501  0.00000000000E+00  0.00000000000E+00 -0.36679394384E+04  0.36679394384E+04  0.50400001928E-02 0.  1.
    10030    2    1    2    0    0  0.00000000000E+00  0.00000000000E+00 -0.27195866387E+04  0.46162922382E+04  0.37301477910E+04 0.  0.
        5    1    3    3  502    0 -0.90679887520E+03 -0.11453753881E+04 -0.27946776722E+04  0.31534765515E+04  0.46999998093E+01 0.  1.
       -5    1    3    3    0  502  0.90679887520E+03  0.11453753881E+04  0.75091033461E+02  0.14628156866E+04  0.46999998093E+01 0. -1.
</event>
<event>
 5   0  0.1666189E-07  0.3698692E+04  0.7818609E-02  0.8068252E-01
        2   -1    0    0  501    0  0.00000000000E+00  0.00000000000E+00  0.20772299137E+04  0.20772299137E+04  0.25500000920E-02 0. -1.
       -2   -1    0    0    0  501  0.00000000000E+00  0.00000000000E+00 -0.16464624401E+04  0.16464624401E+04  0.25500000920E-02 0.  1.
    10030    2    1    2    0    0  0.00000000000E+00  0.00000000000E+00  0.43076747358E+03  0.37236923539E+04  0.36986922189E+04 0.  0.
        4    1    3    3  502    0 -0.10815993846E+04  0.12197403235E+04  0.10944728805E+04  0.19635417451E+04  0.12699999809E+01 0. -1.
       -4    1    3    3    0  502  0.10815993846E+04 -0.12197403235E+04 -0.66370540696E+03  0.17601506088E+04  0.12699999809E+01 0.  1.
</event>
<event>
 5   0  0.5177000E-08  0.3685228E+04  0.7818609E-02  0.8071243E-01
        1   -1    0    0  501    0  0.00000000000E+00  0.00000000000E+00  0.14890684155E+04  0.14890684155E+04  0.50400001928E-02 0.  1.
       -1   -1    0    0    0  501  0.00000000000E+00  0.00000000000E+00 -0.22801015920E+04  0.22801015920E+04  0.50400001928E-02 0. -1.
    10030    2    1    2    0    0  0.00000000000E+00  0.00000000000E+00 -0.79103317648E+03  0.37691700075E+04  0.36852284948E+04 0.  0.
        1    1    3    3  502    0  0.14339704026E+04  0.10304815145E+04 -0.93387481515E+03  0.19975698830E+04  0.50400001928E-02 0. -1.
       -1    1    3    3    0  502 -0.14339704026E+04 -0.10304815145E+04  0.14284163867E+03  0.17716001245E+04  0.50400001928E-02 0.  1.
</event>
<event>
 5   0  0.1658770E-07  0.3713855E+04  0.7818609E-02  0.8064898E-01
       -2   -1    0    0    0  501  0.00000000000E+00  0.00000000000E+00  0.17890598256E+04  0.17890598256E+04  0.25500000920E-02 0.  1.
        2   -1    0    0  501    0  0.00000000000E+00  0.00000000000E+00 -0.19273702026E+04  0.19273702026E+04  0.25500000920E-02 0. -1.
    10030    2    1    2    0    0  0.00000000000E+00  0.00000000000E+00 -0.13831037705E+03  0.37164300282E+04  0.37138554622E+04 0.  0.
        2    1    3    3  502    0  0.56376390522E+03  0.65793175172E+03 -0.17126934211E+04  0.19193808079E+04  0.25500000920E-02 0. -1.
       -2    1    3    3    0  502 -0.56376390522E+03 -0.65793175172E+03  0.15743830441E+04  0.17970492203E+04  0.25500000920E-02 0.  1.
</event>
<event>
 5   0  0.1686284E-07  0.3647694E+04  0.7818609E-02  0.8079653E-01
       -2   -1    0    0    0  501  0.00000000000E+00  0.00000000000E+00  0.16613820392E+04  0.16613820392E+04  0.25500000920E-02 0.  1.
        2   -1    0    0  501    0  0.00000000000E+00  0.00000000000E+00 -0.20021989364E+04  0.20021989364E+04  0.25500000920E-02 0. -1.
    10030    2    1    2    0    0  0.00000000000E+00  0.00000000000E+00 -0.34081689718E+03  0.36635809756E+04  0.36476937108E+04 0.  0.
        5    1    3    3  502    0 -0.11474077709E+04  0.12417479628E+04  0.51661226528E+03  0.17678780836E+04  0.46999998093E+01 0.  1.
       -5    1    3    3    0  502  0.11474077709E+04 -0.12417479628E+04 -0.85742916245E+03  0.18957028920E+04  0.46999998093E+01 0. -1.
</event>
<event>
 5   0  0.5177000E-08  0.3711299E+04  0.7818609E-02  0.8065462E-01
        1   -1    0    0  501    0  0.00000000000E+00  0.00000000000E+00  0.28875706447E+04  0.28875706447E+04  0.50400001928E-02 0. -1.
       -1   -1    0    0    0  501  0.00000000000E+00  0.00000000000E+00 -0.11925023975E+04  0.11925023975E+04  0.50400001928E-02 0.  1.
    10030    2    1    2    0    0  0.00000000000E+00  0.00000000000E+00  0.16950682473E+04  0.40800730422E+04  0.37112989191E+04 0.  0.
        3    1    3    3  502    0 -0.14237270483E+04 -0.11726722873E+04  0.62418188696E+03  0.19472447303E+04  0.10100000352E+00 0.  1.
       -3    1    3    3    0  502  0.14237270483E+04  0.11726722873E+04  0.10708863603E+04  0.21328283119E+04  0.10100000352E+00 0. -1.
</event>
<event>
 5   0  0.5181371E-08  0.3689150E+04  0.7818609E-02  0.8070371E-01
       -1   -1    0    0    0  501  0.00000000000E+00  0.00000000000E+00  0.14849821703E+04  0.14849821703E+04  0.50400001928E-02 0.  1.
        1   -1    0    0  501    0  0.00000000000E+00  0.00000000000E+00 -0.22912442097E+04  0.22912442097E+04  0.50400001928E-02 0. -1.
    10030    2    1    2    0    0  0.00000000000E+00  0.00000000000E+00 -0.80626203939E+03  0.37762263800E+04  0.36891499287E+04 0.  0.
        5    1    3    3  502    0  0.12218737796E+04 -0.20646281744E+02 -0.18174208665E+04  0.21900781946E+04  0.46999998093E+01 0. -1.
       -5    1    3    3    0  502 -0.12218737796E+04  0.20646281744E+02  0.10111588272E+04  0.15861481854E+04  0.46999998093E+01 0.  1.
</event>
<event>
 5   0  0.1658770E-07  0.3685714E+04  0.7818609E-02  0.8071135E-01
        2   -1    0    0  501    0  0.00000000000E+00  0.00000000000E+00  0.22592058156E+04  0.22592058156E+04  0.25500000920E-02 0. -1.
       -2   -1    0    0    0  501  0.00000000000E+00  0.00000000000E+00 -0.15032374484E+04  0.15032374484E+04  0.25500000920E-02 0.  1.
    10030    2    1    2    0    0  0.00000000000E+00  0.00000000000E+00  0.75596836727E+03  0.37624432640E+04  0.36857144684E+04 0.  0.
        2    1    3    3  502    0 -0.14706337567E+04 -0.58833512439E+03 -0.58354873952E+03  0.16880257688E+04  0.25500000920E-02 0.  1.
       -2    1    3    3    0  502  0.14706337567E+04  0.58833512439E+03  0.13395171068E+04  0.20744174952E+04  0.25500000920E-02 0. -1.
</event>
<event>
 5   0  0.5177000E-08  0.3704113E+04  0.7818609E-02  0.8067051E-01
        1   -1    0    0  501    0  0.00000000000E+00  0.00000000000E+00  0.24186469264E+04  0.24186469264E+04  0.50400001928E-02 0.  1.
       -1   -1    0    0    0  501  0.00000000000E+00  0.00000000000E+00 -0.14181951470E+04  0.14181951470E+04  0.50400001928E-02 0. -1.
    10030    2    1    2    0    0  0.00000000000E+00  0.00000000000E+00  0.10004517794E+04  0.38368420735E+04  0.37041130293E+04 0.  0.
        4    1    3    3  502    0 -0.14108406220E+04 -0.11997704562E+04  0.48589869695E+03  0.19146852391E+04  0.12699999809E+01 0.  1.
       -4    1    3    3    0  502  0.14108406220E+04  0.11997704562E+04  0.51455308246E+03  0.19221568344E+04  0.12699999809E+01 0. -1.
</event>
<event>
 5   0  0.1587026E-07  0.3696474E+04  0.7818609E-02  0.8068744E-01
        2   -1    0    0  501    0  0.00000000000E+00  0.00000000000E+00  0.27556527756E+04  0.27556527756E+04  0.25500000920E-02 0. -1.
       -2   -1    0    0    0  501  0.00000000000E+00  0.00000000000E+00 -0.12396267322E+04  0.12396267322E+04  0.25500000920E-02 0.  1.
    10030    2    1    2    0    0  0.00000000000E+00  0.00000000000E+00  0.15160260434E+04  0.39952795078E+04  0.36964744530E+04 0.  0.
        3    1    3    3  502    0 -0.79365266168E+03 -0.73409813585E+02 -0.10443285342E+04  0.13137334759E+04  0.10100000352E+00 0.  1.
       -3    1    3    3    0  502  0.79365266168E+03  0.73409813585E+02  0.25603545776E+04  0.26815460320E+04  0.10100000352E+00 0. -1.
</event>
<event>
 5   0  0.1686284E-07  0.3677899E+04  0.7818609E-02  0.8072877E-01
       -2   -1    0    0    0  501  0.00000000000E+00  0.00000000000E+00  0.19602576105E+04  0.19602576105E+04  0.25500000920E-02 0. -1.
        2   -1    0    0  501    0  0.00000000000E+00  0.00000000000E+00 -0.17251479611E+04  0.17251479611E+04  0.25500000920E-02 0.  1.
    10030    2    1    2    0    0  0.00000000000E+00  0.00000000000E+00  0.23510964943E+03  0.36854055716E+04  0.36778985412E+04 0.  0.
        5    1    3    3  502    0  0.53288826480E+03 -0.64651327257E+03  0.17578943057E+04  0.19473478873E+04  0.46999998093E+01 0. -1.
       -5    1    3    3    0  502 -0.53288826480E+03  0.64651327257E+03 -0.15227846562E+04  0.17380576842E+04  0.46999998093E+01 0.  1.
</event>
<event>
 5   0  0.1558258E-07  0.3686843E+04  0.7818609E-02  0.8070884E-01
       -2   -1    0    0    0  501  0.00000000000E+00  0.00000000000E+00  0.18956223813E+04  0.18956223813E+04  0.25500000920E-02 0.  1.
        2   -1    0    0  501    0  0.00000000000E+00  0.00000000000E+00 -0.17926584530E+04  0.17926584530E+04  0.25500000920E-02 0. -1.
    10030    2    1    2    0    0  0.00000000000E+00  0.00000000000E+00  0.10296392830E+03  0.36882808344E+04  0.36868433575E+04 0.  0.
        1    1    3    3  502    0 -0.16972332368E+04 -0.54526073011E+03 -0.41805544370E+03  0.18310325715E+04  0.50400001928E-02 0. -1.
       -1    1    3    3    0  502  0.16972332368E+04  0.54526073011E+03  0.52101937200E+03  0.18572482629E+04  0.50400001928E-02 0.  1.
</event>
<event>
 5   0  0.5177000E-08  0.3702499E+04  0.7818609E-02  0.8067408E-01
       -1   -1    0    0    0  501  0.00000000000E+00  0.00000000000E+00  0.13348882133E+04  0.13348882133E+04  0.50400001928E-02 0.  1.
        1   -1    0    0  501    0  0.00000000000E+00  0.00000000000E+00 -0.25673493314E+04  0.25673493314E+04  0.50400001928E-02 0. -1.
    10030    2    1    2    0    0  0.00000000000E+00  0.00000000000E+00 -0.12324611181E+04  0.39022375446E+04  0.37024988112E+04 0.  0.
        4    1    3    3  502    0  0.15076745047E+03 -0.17024550360E+04 -0.13659705442E+04  0.21879125015E+04  0.12699999809E+01 0. -1.
       -4    1    3    3    0  502 -0.15076745047E+03  0.17024550360E+04  0.13350942605E+03  0.17143250431E+04  0.12699999809E+01 0.  1.
</event>
<event>
 5   0  0.1558258E-07  0.3767595E+04  0.7818609E-02  0.8053145E-01
       -2   -1    0    0    0  501  0.00000000000E+00  0.00000000000E+00  0.19232566546E+04  0.19232566546E+04  0.25500000920E-02 0.  1.
        2   -1    0    0  501    0  0.00000000000E+00  0.00000000000E+00 -0.18451484020E+04  0.18451484020E+04  0.25500000920E-02 0. -1.
    10030    2    1    2    0    0  0.00000000000E+00  0.00000000000E+00  0.78108252619E+02  0.37684050566E+04  0.37675954893E+04 0.  0.
        1    1    3    3  502    0  0.12517872172E+04 -0.89473728354E+03 -0.10479948899E+04  0.18616711130E+04  0.50400001928E-02 0. -1.
       -1    1    3    3    0  502 -0.12517872172E+04  0.89473728354E+03  0.11261031426E+04  0.19067339435E+04  0.50400001928E-02 0.  1.
</event>
<event>
 5   0  0.5177000E-08  0.3699352E+04  0.7818609E-02  0.8068105E-01
       -1   -1    0    0    0  501  0.00000000000E+00  0.00000000000E+00  0.22529861332E+04  0.22529861332E+04  0.50400001928E-02 0.  1.
        1   -1    0    0  501    0  0.00000000000E+00  0.00000000000E+00 -0.15185629645E+04  0.15185629645E+04  0.50400001928E-02 0. -1.
    10030    2    1    2    0    0  0.00000000000E+00  0.00000000000E+00  0.73442316868E+03  0.37715490977E+04  0.36993519981E+04 0.  0.
        1    1    3    3  502    0 -0.11593233164E+04  0.14370473598E+04  0.47966211318E+03  0.19076717247E+04  0.50400001928E-02 0.  1.
       -1    1    3    3    0  502  0.11593233164E+04 -0.14370473598E+04  0.25476105550E+03  0.18638773730E+04  0.50400001928E-02 0. -1.
</event>
<event>
 5   0  0.1666189E-07  0.3686831E+04  0.7818609E-02  0.8070886E-01
        2   -1    0    0  501    0  0.00000000000E+00  0.00000000000E+00  0.18981181999E+04  0.18981181999E+04  0.25500000920E-02 0. -1.
       -2   -1    0    0    0  501  0.00000000000E+00  0.00000000000E+00 -0.17902897453E+04  0.17902897453E+04  0.25500000920E-02 0.  1.
    10030    2    1    2    0    0  0.00000000000E+00  0.00000000000E+00  0.10782845464E+03  0.36884079452E+04  0.36868314573E+04 0.  0.
        4    1    3    3  502    0 -0.23015399354E+03 -0.14932569251E+04 -0.10026589683E+04  0.18133156716E+04  0.12699999809E+01 0.  1.
       -4    1    3    3    0  502  0.23015399354E+03  0.14932569251E+04  0.11104874230E+04  0.18750922736E+04  0.12699999809E+01 0. -1.
</event>
<event>
 5   0  0.5177000E-08  0.3695202E+04  0.7818609E-02  0.8069026E-01
       -1   -1    0    0    0  501  0.00000000000E+00  0.00000000000E+00  0.19566584681E+04  0.19566584682E+04  0.50400001928E-02 0.  1.
        1   -1    0    0  501    0  0.00000000000E+00  0.00000000000E+00 -0.17446219346E+04  0.17446219346E+04  0.50400001928E-02 0. -1.
    10030    2    1    2    0    0  0.00000000000E+00  0.00000000000E+00  0.21203653352E+03  0.37012804028E+04  0.36952019063E+04 0.  0.
        1    1    3    3  502    0 -0.11971557132E+04 -0.41585330990E+03 -0.12406312820E+04  0.17734942219E+04  0.50400001928E-02 0. -1.
       -1    1    3    3    0  502  0.11971557132E+04  0.41585330990E+03  0.14526678155E+04  0.19277861809E+04  0.50400001928E-02 0.  1.
</event>
<event>
 5   0  0.1686284E-07  0.3685527E+04  0.7818609E-02  0.8071177E-01
        2   -1    0    0  501    0  0.00000000000E+00  0.00000000000E+00  0.26297083266E+04  0.26297083266E+04  0.25500000920E-02 0.  1.
       -2   -1    0    0    0  501  0.00000000000E+00  0.00000000000E+00 -0.12913130319E+04  0.12913130319E+04  0.25500000920E-02 0. -1.
    10030    2    1    2    0    0  0.00000000000E+00  0.00000000000E+00  0.13383952946E+04  0.39210213585E+04  0.36855266285E+04 0.  0.
        5    1    3    3  502    0  0.38316739486E+03  0.10280956984E+04  0.22443248165E+04  0.24981621223E+04  0.46999998093E+01 0.  1.
       -5    1    3    3    0  502 -0.38316739486E+03 -0.10280956984E+04 -0.90592952185E+03  0.14228592362E+04  0.46999998093E+01 0. -1.
</event>
<event>
 5   0  0.1686284E-07  0.3693339E+04  0.7818609E-02  0.8069440E-01
       -2   -1    0    0    0  501  0.00000000000E+00  0.00000000000E+00  0.34985531508E+04  0.34985531508E+04  0.25500000920E-02 0. -1.
        2   -1    0    0  501    0  0.00000000000E+00  0.00000000000E+00 -0.97474255549E+03  0.97474255549E+03  0.25500000920E-02 0.  1.
    10030    2    1    2    0    0  0.00000000000E+00  0.00000000000E+00  0.25238105953E+04  0.44732957063E+04  0.36933392147E+04 0.  0.
        5    1    3    3  502    0 -0.11134814388E+04 -0.92805574604E+03 -0.12384367521E+03  0.14548153588E+04  0.46999998093E+01 0.  1.
       -5    1    3    3    0  502  0.11134814388E+04  0.92805574604E+03  0.26476542705E+04  0.30184803476E+04  0.46999998093E+01 0. -1.
</event>
<event>
 5   0  0.1658770E-07  0.3697639E+04  0.7818609E-02  0.8068485E-01
       -2   -1    0    0    0  501  0.00000000000E+00  0.00000000000E+00  0.14030332041E+04  0.14030332041E+04  0.25500000920E-02 0.  1.
        2   -1    0    0  501    0  0.00000000000E+00  0.00000000000E+00 -0.24362452663E+04  0.24362452663E+04  0.25500000920E-02 0. -1.
    10030    2    1    2    0    0  0.00000000000E+00  0.00000000000E+00 -0.10332120622E+04  0.38392784704E+04  0.36976387071E+04 0.  0.
        2    1    3    3  502    0 -0.41190970056E+03  0.24302018501E+03 -0.23709058103E+04  0.24186613597E+04  0.25500000920E-02 0. -1.
       -2    1    3    3    0  502  0.41190970056E+03 -0.24302018501E+03  0.13376937481E+04  0.14206171107E+04  0.25500000920E-02 0.  1.
</event>
<event>
 5   0  0.1658770E-07  0.3702776E+04  0.7818609E-02  0.8067347E-01
       -2   -1    0    0    0  501  0.00000000000E+00  0.00000000000E+00  0.16919058079E+04  0.16919058079E+04  0.25500000920E-02 0.  1.
        2   -1    0    0  501    0  0.00000000000E+00  0.00000000000E+00 -0.20259032724E+04  0.20259032724E+04  0.25500000920E-02 0. -1.
    10030    2    1    2    0    0  0.00000000000E+00  0.00000000000E+00 -0.33399746450E+03  0.37178090802E+04  0.37027759925E+04 0.  0.
        2    1    3    3  502    0 -0.70751278398E+03  0.17106637183E+04 -0.19342699403E+03  0.18612787805E+04  0.25500000920E-02 0.  1.
       -2    1    3    3    0  502  0.70751278398E+03 -0.17106637183E+04 -0.14057047047E+03  0.18565302997E+04  0.25500000920E-02 0. -1.
</event>
<event>
 5   0  0.1558258E-07  0.3540725E+04  0.7818609E-02  0.8104206E-01
        2   -1    0    0  501    0  0.00000000000E+00  0.00000000000E+00  0.23174487278E+04  0.23174487278E+04  0.25500000920E-02 0. -1.
       -2   -1    0    0    0  501  0.00000000000E+00  0.00000000000E+00 -0.13524280269E+04  0.13524280269E+04  0.25500000920E-02 0.  1.
    10030    2    1    2    0    0  0.00000000000E+00  0.00000000000E+00  0.96502070097E+03  0.36698767547E+04  0.35407245645E+04 0.  0.
        1    1    3    3  502    0 -0.17504431500E+04  0.26417533093E+03  0.50170009875E+03  0.18399844608E+04  0.50400001928E-02 0. -1.
       -1    1    3    3    0  502  0.17504431500E+04 -0.26417533093E+03  0.46332060223E+03  0.18298922939E+04  0.50400001928E-02 0.  1.
</event>
<event>
 5   0  0.5181371E-08  0.3629599E+04  0.7818609E-02  0.8083745E-01
        1   -1    0    0  501    0  0.00000000000E+00  0.00000000000E+00  0.19502676543E+04  0.19502676543E+04  0.50400001928E-02 0. -1.
       -1   -1    0    0    0  501  0.00000000000E+00  0.00000000000E+00 -0.16887410594E+04  0.16887410594E+04  0.50400001928E-02 0.  1.
    10030    2    1    2    0    0  0.00000000000E+00  0.00000000000E+00  0.26152659484E+03  0.36390087137E+04  0.36295989115E+04 0.  0.
        5    1    3    3  502    0 -0.16742534237E+04 -0.56247603496E+03  0.54894313218E+03  0.18495579118E+04  0.46999998093E+01 0.  1.
       -5    1    3    3    0  502  0.16742534237E+04  0.56247603496E+03 -0.28741653734E+03  0.17894508019E+04  0.46999998093E+01 0. -1.
</event>
<event>
 5   0  0.5177000E-08  0.3702740E+04  0.7818609E-02  0.8067355E-01
       -1   -1    0    0    0  501  0.00000000000E+00  0.00000000000E+00  0.16350149174E+04  0.16350149174E+04  0.50400001928E-02 0.  1.
        1   -1    0    0  501    0  0.00000000000E+00  0.00000000000E+00 -0.20963545347E+04  0.20963545347E+04  0.50400001928E-02 0. -1.
    10030    2    1    2    0    0  0.00000000000E+00  0.00000000000E+00 -0.46133961738E+03  0.37313694521E+04  0.37027400321E+04 0.  0.
        3    1    3    3  502    0  0.81116947698E+03 -0.15169027052E+04  0.45915284930E+03  0.17803963285E+04  0.10100000352E+00 0.  1.
       -3    1    3    3    0  502 -0.81116947698E+03  0.15169027052E+04 -0.92049246668E+03  0.19509731236E+04  0.10100000352E+00 0. -1.
</event>
<event>
 5   0  0.1587026E-07  0.3702568E+04  0.7818609E-02  0.8067393E-01
       -2   -1    0    0    0  501  0.00000000000E+00  0.00000000000E+00  0.12786043328E+04  0.12786043328E+04  0.25500000920E-02 0. -1.
        2   -1    0    0  501    0  0.00000000000E+00  0.00000000000E+00 -0.26804631043E+04  0.26804631043E+04  0.25500000920E-02 0.  1.
    10030    2    1    2    0    0  0.00000000000E+00  0.00000000000E+00 -0.14018587715E+04  0.39590674371E+04  0.37025676167E+04 0.  0.
        3    1    3    3  502    0 -0.12598879969E+04  0.65191304511E+03  0.57098953126E+03  0.15291623321E+04  0.10100000352E+00 0.  1.
       -3    1    3    3    0  502  0.12598879969E+04 -0.65191304511E+03 -0.19728483028E+04  0.24299051049E+04  0.10100000352E+00 0. -1.
</event>
<event>
 5   0  0.5177000E-08  0.3780135E+04  0.7818609E-02  0.8050431E-01
       -1   -1    0    0    0  501  0.00000000000E+00  0.00000000000E+00  0.14921516867E+04  0.14921516867E+04  0.50400001928E-02 0. -1.
        1   -1    0    0  501    0  0.00000000000E+00  0.00000000000E+00 -0.23940964043E+04  0.23940964043E+04  0.50400001928E-02 0.  1.
    10030    2    1    2    0    0  0.00000000000E+00  0.00000000000E+00 -0.90194471764E+03  0.38862480910E+04  0.37801349118E+04 0.  0.
        1    1    3    3  502    0 -0.21082491704E+03 -0.12891591698E+04 -0.18553254162E+04  0.22690550700E+04  0.50400001928E-02 0.  1.
       -1    1    3    3    0  502  0.21082491704E+03  0.12891591698E+04  0.95338069855E+03  0.16171930210E+04  0.50400001928E-02 0. -1.
</event>
<event>
 5   0  0.1658770E-07  0.3707803E+04  0.7818609E-02  0.8066235E-01
       -2   -1    0    0    0  501  0.00000000000E+00  0.00000000000E+00  0.32187390606E+04  0.32187390606E+04  0.25500000920E-02 0. -1.
        2   -1    0    0  501    0  0.00000000000E+00  0.00000000000E+00 -0.10677943313E+04  0.10677943313E+04  0.25500000920E-02 0.  1.
    10030    2    1    2    0    0  0.00000000000E+00  0.00000000000E+00  0.21509447293E+04  0.42865333919E+04  0.37078032973E+04 0.  0.
        2    1    3    3  502    0  0.12563218127E+04  0.84770341672E+03  0.23098357887E+04  0.27626593982E+04  0.25500000920E-02 0. -1.
       -2    1    3    3    0  502 -0.12563218127E+04 -0.84770341672E+03 -0.15889105940E+03  0.15238739937E+04  0.25500000920E-02 0.  1.
</event>
<event>
 5   0  0.5177000E-08  0.3725804E+04  0.7818609E-02  0.8062267E-01
        1   -1    0    0  501    0  0.00000000000E+00  0.00000000000E+00  0.26816617260E+04  0.26816617260E+04  0.50400001928E-02 0.  1.
       -1   -1    0    0    0  501  0.00000000000E+00  0.00000000000E+00 -0.12941245538E+04  0.12941245538E+04  0.50400001928E-02 0. -1.
    10030    2    1    2    0    0  0.00000000000E+00  0.00000000000E+00  0.13875371722E+04  0.39757862799E+04  0.37258042271E+04 0.  0.
        4    1    3    3  502    0  0.77049251190E+03  0.11444065760E+04  0.20295895166E+04  0.24540905324E+04  0.12699999809E+01 0.  1.
       -4    1    3    3    0  502 -0.77049251190E+03 -0.11444065760E+04 -0.64205234443E+03  0.15216957475E+04  0.12699999809E+01 0. -1.
</event>
<event>
 5   0  0.5177000E-08  0.3687747E+04  0.7818609E-02  0.8070683E-01
        1   -1    0    0  501    0  0.00000000000E+00  0.00000000000E+00  0.24250728915E+04  0.24250728915E+04  0.50400001928E-02 0.  1.
       -1   -1    0    0    0  501  0.00000000000E+00  0.00000000000E+00 -0.14019656824E+04  0.14019656825E+04  0.50400001928E-02 0. -1.
    10030    2    1    2    0    0  0.00000000000E+00  0.00000000000E+00  0.10231072091E+04  0.38270385740E+04  0.36877467220E+04 0.  0.
        1    1    3    3  502    0 -0.13744197597E+04  0.12059057270E+04  0.26459303645E+03  0.18474977059E+04  0.50400001928E-02 0. -1.
       -1    1    3    3    0  502  0.13744197597E+04 -0.12059057270E+04  0.75851417261E+03  0.19795408681E+04  0.50400001928E-02 0.  1.
</event>
<event>
 5   0  0.5177000E-08  0.3695957E+04  0.7818609E-02  0.8068858E-01
        1   -1    0    0  501    0  0.00000000000E+00  0.00000000000E+00  0.28871275326E+04  0.28871275326E+04  0.50400001928E-02 0. -1.
       -1   -1    0    0    0  501  0.00000000000E+00  0.00000000000E+00 -0.11828452438E+04  0.11828452438E+04  0.50400001928E-02 0.  1.
    10030    2    1    2    0    0  0.00000000000E+00  0.00000000000E+00  0.17042822888E+04  0.40699727765E+04  0.36959572889E+04 0.  0.
        2    1    3    3  502    0  0.29620780081E+03 -0.18124047718E+04  0.10790915739E+04  0.21300208316E+04  0.25500000920E-02 0.  1.
       -2    1    3    3    0  502 -0.29620780081E+03  0.18124047718E+04  0.62519071492E+03  0.19399519448E+04  0.25500000920E-02 0. -1.
</event>
<event>
 5   0  0.5181371E-08  0.3478431E+04  0.7818609E-02  0.8118921E-01
       -1   -1    0    0    0  501  0.00000000000E+00  0.00000000000E+00  0.11565790684E+04  0.11565790684E+04  0.50400001928E-02 0.  1.
        1   -1    0    0  501    0  0.00000000000E+00  0.00000000000E+00 -0.26153594114E+04  0.26153594114E+04  0.50400001928E-02 0. -1.
    10030    2    1    2    0    0  0.00000000000E+00  0.00000000000E+00 -0.14587803430E+04  0.37719384797E+04  0.34784306527E+04 0.  0.
        5    1    3    3  502    0  0.13939007936E+04  0.47937281511E+02  0.39731625013E+03  0.14502205687E+04  0.46999998093E+01 0.  1.
       -5    1    3    3    0  502 -0.13939007936E+04 -0.47937281511E+02 -0.18560965931E+04  0.23217179110E+04  0.46999998093E+01 0. -1.
</event>
<event>
 5   0  0.1666189E-07  0.3700799E+04  0.7818609E-02  0.8067785E-01
       -2   -1    0    0    0  501  0.00000000000E+00  0.00000000000E+00  0.20924014478E+04  0.20924014478E+04  0.25500000920E-02 0.  1.
        2   -1    0    0  501    0  0.00000000000E+00  0.00000000000E+00 -0.16363866737E+04  0.16363866737E+04  0.25500000920E-02 0. -1.
    10030    2    1    2    0    0  0.00000000000E+00  0.00000000000E+00  0.45601477407E+03  0.37287881215E+04  0.37007987490E+04 0.  0.
        4    1    3    3  502    0 -0.12006036578E+04  0.93659263645E+03  0.12873013856E+04  0.19939411676E+04  0.12699999809E+01 0.  1.
       -4    1    3    3    0  502  0.12006036578E+04 -0.93659263645E+03 -0.83128661157E+03  0.17348469538E+04  0.12699999809E+01 0. -1.
</event>
<event>
 5   0  0.1666189E-07  0.3886160E+04  0.7818609E-02  0.8027914E-01
        2   -1    0    0  501    0  0.00000000000E+00  0.00000000000E+00  0.26962299768E+04  0.26962299768E+04  0.25500000920E-02 0. -1.
       -2   -1    0    0    0  501  0.00000000000E+00  0.00000000000E+00 -0.14003108038E+04  0.14003108038E+04  0.25500000920E-02 0.  1.
    10030    2    1    2    0    0  0.00000000000E+00  0.00000000000E+00  0.12959191729E+04  0.40965407806E+04  0.38861600410E+04 0.  0.
        4    1    3    3  502    0 -0.69491453615E+03  0.17758275470E+04  0.10410952731E+04  0.21726368012E+04  0.12699999809E+01 0.  1.
       -4    1    3    3    0  502  0.69491453615E+03 -0.17758275470E+04  0.25482389987E+03  0.19239039795E+04  0.12699999809E+01 0. -1.
</event>
<event>
 5   0  0.5177000E-08  0.3685085E+04  0.7818609E-02  0.8071275E-01
        1   -1    0    0  501    0  0.00000000000E+00  0.00000000000E+00  0.26314819857E+04  0.26314819857E+04  0.50400001928E-02 0.  1.
       -1   -1    0    0    0  501  0.00000000000E+00  0.00000000000E+00 -0.12901335928E+04  0.12901335928E+04  0.50400001928E-02 0. -1.
    10030    2    1    2    0    0  0.00000000000E+00  0.00000000000E+00  0.13413483929E+04  0.39216155785E+04  0.36850852411E+04 0.  0.
        2    1    3    3  502    0 -0.13167680515E+04 -0.54180808854E+03 -0.57379968294E+03  0.15351482607E+04  0.25500000920E-02 0. -1.
       -2    1    3    3    0  502  0.13167680515E+04  0.54180808854E+03  0.19151480758E+04  0.23864673177E+04  0.25500000920E-02 0.  1.
</event>
<event>
 5   0  0.1666189E-07  0.3701074E+04  0.7818609E-02  0.8067724E-01
       -2   -1    0    0    0  501  0.00000000000E+00  0.00000000000E+00  0.14827657787E+04  0.14827657787E+04  0.25500000920E-02 0.  1.
        2   -1    0    0  501    0  0.00000000000E+00  0.00000000000E+00 -0.23095272954E+04  0.23095272954E+04  0.25500000920E-02 0. -1.
    10030    2    1    2    0    0  0.00000000000E+00  0.00000000000E+00 -0.82676151669E+03  0.37922930740E+04  0.37010744594E+04 0.  0.
        4    1    3    3  502    0 -0.16364818011E+04 -0.54616235804E+03  0.27253603691E+03  0.17466091466E+04  0.12699999809E+01 0. -1.
       -4    1    3    3    0  502  0.16364818011E+04  0.54616235804E+03 -0.10992975536E+04  0.20456839274E+04  0.12699999809E+01 0.  1.
</event>
<event>
 5   0  0.1558258E-07  0.3699086E+04  0.7818609E-02  0.8068165E-01
        2   -1    0    0  501    0  0.00000000000E+00  0.00000000000E+00  0.17783668473E+04  0.17783668473E+04  0.25500000920E-02 0.  1.
       -2   -1    0    0    0  501  0.00000000000E+00  0.00000000000E+00 -0.19235674046E+04  0.19235674046E+04  0.25500000920E-02 0. -1.
    10030    2    1    2    0    0  0.00000000000E+00  0.00000000000E+00 -0.14520055728E+03  0.37019342519E+04  0.36990855632E+04 0.  0.
        1    1    3    3  502    0 -0.16937681166E+04  0.21591989399E+03  0.63881752614E+03  0.18230632642E+04  0.50400001928E-02 0. -1.
       -1    1    3    3    0  502  0.16937681166E+04 -0.21591989399E+03 -0.78401808341E+03  0.18788709877E+04  0.50400001928E-02 0.  1.
</event>
<event>
 5   0  0.1666189E-07  0.3710985E+04  0.7818609E-02  0.8065532E-01
        2   -1    0    0  501    0  0.00000000000E+00  0.00000000000E+00  0.19636401418E+04  0.19636401418E+04  0.25500000920E-02 0.  1.
       -2   -1    0    0    0  501  0.00000000000E+00  0.00000000000E+00 -0.17533008102E+04  0.17533008102E+04  0.25500000920E-02 0. -1.
    10030    2    1    2    0    0  0.00000000000E+00  0.00000000000E+00  0.21033933166E+03  0.37169409520E+04  0.37109846950E+04 0.  0.
        4    1    3    3  502    0 -0.15311897380E+04  0.56901293854E+03  0.98665749803E+03  0.19083533135E+04  0.12699999809E+01 0.  1.
       -4    1    3    3    0  502  0.15311897380E+04 -0.56901293854E+03 -0.77631816636E+03  0.18085876385E+04  0.12699999809E+01 0. -1.
</event>
<event>
 5   0  0.5181371E-08  0.3686666E+04  0.7818609E-02  0.8070923E-01
        1   -1    0    0  501    0  0.00000000000E+00  0.00000000000E+00  0.22635096463E+04  0.22635096463E+04  0.50400001928E-02 0.  1.
       -1   -1    0    0    0  501  0.00000000000E+00  0.00000000000E+00 -0.15011536358E+04  0.15011536358E+04  0.50400001928E-02 0. -1.
    10030    2    1    2    0    0  0.00000000000E+00  0.00000000000E+00  0.76235601051E+03  0.37646632821E+04  0.36866655586E+04 0.  0.
        5    1    3    3  502    0 -0.66508679641E+03 -0.80347915217E+03  0.19331798192E+04  0.21966168301E+04  0.46999998093E+01 0.  1.
       -5    1    3    3    0  502  0.66508679641E+03  0.80347915217E+03 -0.11708238087E+04  0.15680464520E+04  0.46999998093E+01 0. -1.
</event>
<event>
 5   0  0.1686284E-07  0.3719358E+04  0.7818609E-02  0.8063685E-01
       -2   -1    0    0    0  501  0.00000000000E+00  0.00000000000E+00  0.16378220486E+04  0.16378220486E+04  0.25500000920E-02 0. -1.
        2   -1    0    0  501    0  0.00000000000E+00  0.00000000000E+00 -0.21115886069E+04  0.21115886069E+04  0.25500000920E-02 0.  1.
    10030    2    1    2    0    0  0.00000000000E+00  0.00000000000E+00 -0.47376655825E+03  0.37494106556E+04  0.37193582124E+04 0.  0.
        5    1    3    3  502    0  0.72404998156E+03 -0.65501973965E+03 -0.18324179276E+04  0.20763132679E+04  0.46999998093E+01 0.  1.
       -5    1    3    3    0  502 -0.72404998156E+03  0.65501973965E+03  0.13586513693E+04  0.16730973876E+04  0.46999998093E+01 0. -1.
</event>
<event>
 5   0  0.5181371E-08  0.3671145E+04  0.7818609E-02  0.8074387E-01
        1   -1    0    0  501    0  0.00000000000E+00  0.00000000000E+00  0.26170206395E+04  0.26170206395E+04  0.50400001928E-02 0.  1.
       -1   -1    0    0    0  501  0.00000000000E+00  0.00000000000E+00 -0.12874666053E+04  0.12874666054E+04  0.50400001928E-02 0. -1.
    10030    2    1    2    0    0  0.00000000000E+00  0.00000000000E+00  0.13295540342E+04  0.39044872449E+04  0.36711451504E+04 0.  0.
        5    1    3    3  502    0 -0.28509863397E+03 -0.17764571929E+04  0.27803951874E+03  0.18205519639E+04  0.46999998093E+01 0. -1.
       -5    1    3    3    0  502  0.28509863397E+03  0.17764571929E+04  0.10515145154E+04  0.20839352810E+04  0.46999998093E+01 0.  1.
</event>
<event>
 5   0  0.5177000E-08  0.3696180E+04  0.7818609E-02  0.8068809E-01
       -1   -1    0    0    0  501  0.00000000000E+00  0.00000000000E+00  0.19515368221E+04  0.19515368221E+04  0.50400001928E-02 0.  1.
        1   -1    0    0  501    0  0.00000000000E+00  0.00000000000E+00 -0.17501265363E+04  0.17501265363E+04  0.50400001928E-02 0. -1.
    10030    2    1    2    0    0  0.00000000000E+00  0.00000000000E+00  0.20141028583E+03  0.37016633584E+04  0.36961798543E+04 0.  0.
        3    1    3    3  502    0 -0.12894592682E+04  0.31825522707E+03 -0.11862868710E+04  0.17808054763E+04  0.10100000352E+00 0. -1.
       -3    1    3    3    0  502  0.12894592682E+04 -0.31825522707E+03  0.13876971568E+04  0.19208578821E+04  0.10100000352E+00 0.  1.
</event>
<event>
 5   0  0.1587026E-07  0.3681022E+04  0.7818609E-02  0.8072181E-01
        2   -1    0    0  501    0  0.00000000000E+00  0.00000000000E+00  0.18964206839E+04  0.18964206839E+04  0.25500000920E-02 0. -1.
       -2   -1    0    0    0  501  0.00000000000E+00  0.00000000000E+00 -0.17862499872E+04  0.17862499872E+04  0.25500000920E-02 0.  1.
    10030    2    1    2    0    0  0.00000000000E+00  0.00000000000E+00  0.11017069670E+03  0.36826706712E+04  0.36810223702E+04 0.  0.
        3    1    3    3  502    0  0.14692570811E+04 -0.87280004115E+03  0.73875444979E+03  0.18617879657E+04  0.10100000352E+00 0.  1.
       -3    1    3    3    0  502 -0.14692570811E+04  0.87280004115E+03 -0.62858375309E+03  0.18208827054E+04  0.10100000352E+00 0. -1.
</event>
<event>
 5   0  0.5177000E-08  0.3747805E+04  0.7818609E-02  0.8057449E-01
        1   -1    0    0  501    0  0.00000000000E+00  0.00000000000E+00  0.28371448312E+04  0.28371448312E+04  0.50400001928E-02 0. -1.
       -1   -1    0    0    0  501  0.00000000000E+00  0.00000000000E+00 -0.12376916852E+04  0.12376916852E+04  0.50400001928E-02 0.  1.
    10030    2    1    2    0    0  0.00000000000E+00  0.00000000000E+00  0.15994531460E+04  0.40748365164E+04  0.37478049935E+04 0.  0.
        1    1    3    3  502    0  0.14727832445E+04  0.99765381744E+03  0.14402940045E+04  0.22888535218E+04  0.50400001928E-02 0. -1.
       -1    1    3    3    0  502 -0.14727832445E+04 -0.99765381744E+03  0.15915914149E+03  0.17859829946E+04  0.50400001928E-02 0.  1.
</event>
<event>
 5   0  0.5177000E-08  0.3673857E+04  0.7818609E-02  0.8073780E-01
        1   -1    0    0  501    0  0.00000000000E+00  0.00000000000E+00  0.25213511735E+04  0.25213511735E+04  0.50400001928E-02 0.  1.
       -1   -1    0    0    0  501  0.00000000000E+00  0.00000000000E+00 -0.13382928723E+04  0.13382928723E+04  0.50400001928E-02 0. -1.
    10030    2    1    2    0    0  0.00000000000E+00  0.00000000000E+00  0.11830583012E+04  0.38596440458E+04  0.36738569945E+04 0.  0.
        4    1    3    3  502    0 -0.32362754816E+03 -0.17969021976E+04  0.80350594692E+03  0.19947971619E+04  0.12699999809E+01 0.  1.
       -4    1    3    3    0  502  0.32362754816E+03  0.17969021976E+04  0.37955235431E+03  0.18648468838E+04  0.12699999809E+01 0. -1.
</event>
<event>
 5   0  0.5181371E-08  0.3703914E+04  0.7818609E-02  0.8067095E-01
       -1   -1    0    0    0  501  0.00000000000E+00  0.00000000000E+00  0.15007400393E+04  0.15007400393E+04  0.50400001928E-02 0. -1.
        1   -1    0    0  501    0  0.00000000000E+00  0.00000000000E+00 -0.22853693839E+04  0.22853693839E+04  0.50400001928E-02 0.  1.
    10030    2    1    2    0    0  0.00000000000E+00  0.00000000000E+00 -0.78462934454E+03  0.37861094232E+04  0.37039143289E+04 0.  0.
        5    1    3    3  502    0  0.64825703284E+03 -0.11814911060E+04  0.90613594978E+03  0.16239651670E+04  0.46999998093E+01 0. -1.
       -5    1    3    3    0  502 -0.64825703284E+03  0.11814911060E+04 -0.16907652943E+04  0.21621442562E+04  0.46999998093E+01 0.  1.
</event>
<event>
 5   0  0.5177000E-08  0.3698593E+04  0.7818609E-02  0.8068274E-01
        1   -1    0    0  501    0  0.00000000000E+00  0.00000000000E+00  0.17081116808E+04  0.17081116808E+04  0.50400001928E-02 0.  1.
       -1   -1    0    0    0  501  0.00000000000E+00  0.00000000000E+00 -0.20021513561E+04  0.20021513561E+04  0.50400001928E-02 0. -1.
    10030    2    1    2    0    0  0.00000000000E+00  0.00000000000E+00 -0.29403967525E+03  0.37102630369E+04  0.36985933100E+04 0.  0.
        1    1    3    3  502    0 -0.48656617352E+03  0.18366900871E+02 -0.19366931377E+04  0.19969637688E+04  0.50400001928E-02 0. -1.
       -1    1    3    3    0  502  0.48656617352E+03 -0.18366900871E+02  0.16426534625E+04  0.17132992681E+04  0.50400001928E-02 0.  1.
</event>
<event>
 5   0  0.5177000E-08  0.3693698E+04  0.7818609E-02  0.8069360E-01
       -1   -1    0    0    0  501  0.00000000000E+00  0.00000000000E+00  0.26633793926E+04  0.26633793926E+04  0.50400001928E-02 0.  1.
        1   -1    0    0  501    0  0.00000000000E+00  0.00000000000E+00 -0.12806480026E+04  0.12806480026E+04  0.50400001928E-02 0. -1.
    10030    2    1    2    0    0  0.00000000000E+00  0.00000000000E+00  0.13827313900E+04  0.39440273952E+04  0.36936981465E+04 0.  0.
        1    1    3    3  502    0  0.18248065058E+04 -0.36204331375E+02  0.39006858990E+03  0.18663823408E+04  0.50400001928E-02 0. -1.
       -1    1    3    3    0  502 -0.18248065058E+04  0.36204331375E+02  0.99266280010E+03  0.20776450544E+04  0.50400001928E-02 0.  1.
</event>
<event>
 5   0  0.1666189E-07  0.3575390E+04  0.7818609E-02  0.8096152E-01
       -2   -1    0    0    0  501  0.00000000000E+00  0.00000000000E+00  0.18996676364E+04  0.18996676364E+04  0.25500000920E-02 0. -1.
        2   -1    0    0  501    0  0.00000000000E+00  0.00000000000E+00 -0.16823222321E+04  0.16823222321E+04  0.25500000920E-02 0.  1.
    10030    2    1    2    0    0  0.00000000000E+00  0.00000000000E+00  0.21734540426E+03  0.35819898685E+04  0.35753898240E+04 0.  0.
        4    1    3    3  502    0  0.92503603027E+03  0.16075973943E+03  0.16327686026E+04  0.18834729288E+04  0.12699999809E+01 0. -1.
       -4    1    3    3    0  502 -0.92503603027E+03 -0.16075973943E+03 -0.14154231983E+04  0.16985169397E+04  0.12699999809E+01 0.  1.
</event>
<event>
 5   0  0.5177000E-08  0.3691365E+04  0.7818609E-02  0.8069878E-01
        1   -1    0    0  501    0  0.00000000000E+00  0.00000000000E+00  0.11906848540E+04  0.11906848540E+04  0.50400001928E-02 0.  1.
       -1   -1    0    0    0  501  0.00000000000E+00  0.00000000000E+00 -0.28609960557E+04  0.28609960557E+04  0.50400001928E-02 0. -1.
    10030    2    1    2    0    0  0.00000000000E+00  0.00000000000E+00 -0.16703112017E+04  0.40516809097E+04  0.36913654227E+04 0.  0.
        4    1    3    3  502    0 -0.16652500082E+04 -0.61848591821E+03 -0.13850141725E+04  0.22525204309E+04  0.12699999809E+01 0. -1.
       -4    1    3    3    0  502  0.16652500082E+04  0.61848591821E+03 -0.28529702924E+03  0.17991604788E+04  0.12699999809E+01 0.  1.
</event>
<event>
 5   0  0.5177000E-08  0.3707892E+04  0.7818609E-02  0.8066215E-01
       -1   -1    0    0    0  501  0.00000000000E+00  0.00000000000E+00  0.16608695213E+04  0.16608695213E+04  0.50400001928E-02 0.  1.
        1   -1    0    0  501    0  0.00000000000E+00  0.00000000000E+00 -0.20694679671E+04  0.20694679671E+04  0.50400001928E-02 0. -1.
    10030    2    1    2    0    0  0.00000000000E+00  0.00000000000E+00 -0.40859844574E+03  0.37303374884E+04  0.37078922702E+04 0.  0.
        1    1    3    3  502    0  0.16283082810E+04  0.34885732953E+03  0.61551203741E+03  0.17753716125E+04  0.50400001928E-02 0.  1.
       -1    1    3    3    0  502 -0.16283082810E+04 -0.34885732953E+03 -0.10241104832E+04  0.19549658759E+04  0.50400001928E-02 0. -1.
</event>
<event>
 5   0  0.5177000E-08  0.3715708E+04  0.7818609E-02  0.8064490E-01
       -1   -1    0    0    0  501  0.00000000000E+00  0.00000000000E+00  0.16174845760E+04  0.16174845760E+04  0.50400001928E-02 0. -1.
        1   -1    0    0  501    0  0.00000000000E+00  0.00000000000E+00 -0.21339444186E+04  0.21339444186E+04  0.50400001928E-02 0.  1.
    10030    2    1    2    0    0  0.00000000000E+00  0.00000000000E+00 -0.51645984262E+03  0.37514289946E+04  0.37157083756E+04 0.  0.
        3    1    3    3  502    0  0.59630890244E+02 -0.52017565111E+02  0.16157824117E+04  0.16177189133E+04  0.10100000352E+00 0. -1.
       -3    1    3    3    0  502 -0.59630890244E+02  0.52017565111E+02 -0.21322422543E+04  0.21337100814E+04  0.10100000352E+00 0.  1.
</event>
<event>
 5   0  0.5181371E-08  0.3705581E+04  0.7818609E-02  0.8066726E-01
        1   -1    0    0  501    0  0.00000000000E+00  0.00000000000E+00  0.22670168355E+04  0.22670168355E+04  0.50400001928E-02 0. -1.
       -1   -1    0    0    0  501  0.00000000000E+00  0.00000000000E+00 -0.15142509798E+04  0.15142509798E+04  0.50400001928E-02 0.  1.
    10030    2    1    2    0    0  0.00000000000E+00  0.00000000000E+00  0.75276585573E+03  0.37812678154E+04  0.37055809070E+04 0.  0.
        5    1    3    3  502    0 -0.21947265286E+03  0.13501169064E+04  0.16516393739E+04  0.21445089456E+04  0.46999998093E+01 0. -1.
       -5    1    3    3    0  502  0.21947265286E+03 -0.13501169064E+04 -0.89887351814E+03  0.16367588698E+04  0.46999998093E+01 0.  1.
</event>
<event>
 5   0  0.1666189E-07  0.3698103E+04  0.7818609E-02  0.8068382E-01
        2   -1    0    0  501    0  0.00000000000E+00  0.00000000000E+00  0.32524402672E+04  0.32524402672E+04  0.25500000920E-02 0.  1.
       -2   -1    0    0    0  501  0.00000000000E+00  0.00000000000E+00 -0.10512080779E+04  0.10512080779E+04  0.25500000920E-02 0. -1.
    10030    2    1    2    0    0  0.00000000000E+00  0.00000000000E+00  0.22012321892E+04  0.43036483451E+04  0.36981030174E+04 0.  0.
        4    1    3    3  502    0  0.13490920912E+04  0.11550221070E+04  0.16995370525E+04  0.24581605610E+04  0.12699999809E+01 0.  1.
       -4    1    3    3    0  502 -0.13490920912E+04 -0.11550221070E+04  0.50169513677E+03  0.18454877841E+04  0.12699999809E+01 0. -1.
</event>
<event>
 5   0  0.5177000E-08  0.3745448E+04  0.7818609E-02  0.8057964E-01
        1   -1    0    0  501    0  0.00000000000E+00  0.00000000000E+00  0.16716573478E+04  0.16716573478E+04  0.50400001928E-02 0. -1.
       -1   -1    0    0    0  501  0.00000000000E+00  0.00000000000E+00 -0.20979745814E+04  0.20979745814E+04  0.50400001928E-02 0.  1.
    10030    2    1    2    0    0  0.00000000000E+00  0.00000000000E+00 -0.42631723361E+03  0.37696319292E+04  0.37454477033E+04 0.  0.
        2    1    3    3  502    0  0.95777116513E+03  0.70593596306E+03 -0.16686719728E+04  0.20494236608E+04  0.25500000920E-02 0.  1.
       -2    1    3    3    0  502 -0.95777116513E+03 -0.70593596306E+03  0.12423547392E+04  0.17202082684E+04  0.25500000920E-02 0. -1.
</event>
<event>
 5   0  0.5177000E-08  0.3698245E+04  0.7818609E-02  0.8068351E-01
       -1   -1    0    0    0  501  0.00000000000E+00  0.00000000000E+00  0.18872397604E+04  0.18872397604E+04  0.50400001928E-02 0. -1.
        1   -1    0    0  501    0  0.00000000000E+00  0.00000000000E+00 -0.18117752541E+04  0.18117752541E+04  0.50400001928E-02 0.  1.
    10030    2    1    2    0    0  0.00000000000E+00  0.00000000000E+00  0.75464506372E+02  0.36990150145E+04  0.36982451495E+04 0.  0.
        4    1    3    3  502    0 -0.13928533529E+04  0.26027183642E+03  0.12260329331E+04  0.18737503189E+04  0.12699999809E+01 0. -1.
       -4    1    3    3    0  502  0.13928533529E+04 -0.26027183642E+03 -0.11505684267E+04  0.18252646956E+04  0.12699999809E+01 0.  1.
</event>
<event>
 5   0  0.1666189E-07  0.3842331E+04  0.7818609E-02  0.8037131E-01
       -2   -1    0    0    0  501  0.00000000000E+00  0.00000000000E+00  0.16156241286E+04  0.16156241286E+04  0.25500000920E-02 0. -1.
        2   -1    0    0  501    0  0.00000000000E+00  0.00000000000E+00 -0.22844903273E+04  0.22844903273E+04  0.25500000920E-02 0.  1.
    10030    2    1    2    0    0  0.00000000000E+00  0.00000000000E+00 -0.66886619877E+03  0.39001144559E+04  0.38423314247E+04 0.  0.
        4    1    3    3  502    0 -0.47129439149E+03  0.34279335153E+03  0.15237391455E+04  0.16313823223E+04  0.12699999809E+01 0. -1.
       -4    1    3    3    0  502  0.47129439149E+03 -0.34279335153E+03 -0.21926053442E+04  0.22687321336E+04  0.12699999809E+01 0.  1.
</event>
<event>
 5   0  0.1686284E-07  0.3701941E+04  0.7818609E-02  0.8067532E-01
       -2   -1    0    0    0  501  0.00000000000E+00  0.00000000000E+00  0.18744992418E+04  0.18744992418E+04  0.25500000920E-02 0. -1.
        2   -1    0    0  501    0  0.00000000000E+00  0.00000000000E+00 -0.18277366331E+04  0.18277366331E+04  0.25500000920E-02 0.  1.
    10030    2    1    2    0    0  0.00000000000E+00  0.00000000000E+00  0.46762608652E+02  0.37022358749E+04  0.37019405360E+04 0.  0.
        5    1    3    3  502    0  0.70279639388E+03 -0.90547088819E+03  0.14768618123E+04  0.18694767191E+04  0.46999998093E+01 0. -1.
       -5    1    3    3    0  502 -0.70279639388E+03  0.90547088819E+03 -0.14300992037E+04  0.18327591558E+04  0.46999998093E+01 0.  1.
</event>
<event>
 5   0  0.5177000E-08  0.3699128E+04  0.7818609E-02  0.8068155E-01
       -1   -1    0    0    0  501  0.00000000000E+00  0.00000000000E+00  0.19813953334E+04  0.19813953334E+04  0.50400001928E-02 0. -1.
        1   -1    0    0  501    0  0.00000000000E+00  0.00000000000E+00 -0.17265037644E+04  0.17265037644E+04  0.50400001928E-02 0.  1.
    10030    2    1    2    0    0  0.00000000000E+00  0.00000000000E+00  0.25489156893E+03  0.37078990978E+04  0.36991277360E+04 0.  0.
        4    1    3    3  502    0 -0.22674297900E+03 -0.82982522661E+03 -0.15137706502E+04  0.17411276460E+04  0.12699999809E+01 0.  1.
       -4    1    3    3    0  502  0.22674297900E+03  0.82982522661E+03  0.17686622192E+04  0.19667714518E+04  0.12699999809E+01 0. -1.
</event>
<event>
 5   0  0.1666189E-07  0.3704544E+04  0.7818609E-02  0.8066956E-01
        2   -1    0    0  501    0  0.00000000000E+00  0.00000000000E+00  0.18087196556E+04  0.18087196556E+04  0.25500000920E-02 0.  1.
       -2   -1    0    0    0  501  0.00000000000E+00  0.00000000000E+00 -0.18968726302E+04  0.18968726302E+04  0.25500000920E-02 0. -1.
    10030    2    1    2    0    0  0.00000000000E+00  0.00000000000E+00 -0.88152974563E+02  0.37055922858E+04  0.37045435942E+04 0.  0.
        4    1    3    3  502    0  0.17504584339E+04 -0.60100460970E+03  0.30763994665E+02  0.18510157497E+04  0.12699999809E+01 0. -1.
       -4    1    3    3    0  502 -0.17504584339E+04  0.60100460970E+03 -0.11891696923E+03  0.18545765360E+04  0.12699999809E+01 0.  1.
</event>
<event>
 5   0  0.1587026E-07  0.3776377E+04  0.7818609E-02  0.8051243E-01
       -2   -1    0    0    0  501  0.00000000000E+00  0.00000000000E+00  0.17782163591E+04  0.17782163591E+04  0.25500000920E-02 0. -1.
        2   -1    0    0  501    0  0.00000000000E+00  0.00000000000E+00 -0.20049614138E+04  0.20049614138E+04  0.25500000920E-02 0.  1.
    10030    2    1    2    0    0  0.00000000000E+00  0.00000000000E+00 -0.22674505473E+03  0.37831777729E+04  0.37763766684E+04 0.  0.
        3    1    3    3  502    0  0.59485644835E+03  0.30649249103E+03  0.16554412845E+04  0.17855748928E+04  0.10100000352E+00 0. -1.
       -3    1    3    3    0  502 -0.59485644835E+03 -0.30649249103E+03 -0.18821863392E+04  0.19976028802E+04  0.10100000352E+00 0.  1.
</event>
<event>
 5   0  0.5181371E-08  0.3705112E+04  0.7818609E-02  0.8066830E-01
       -1   -1    0    0    0  501  0.00000000000E+00  0.00000000000E+00  0.28477805001E+04  0.28477805001E+04  0.50400001928E-02 0.  1.
        1   -1    0    0  501    0  0.00000000000E+00  0.00000000000E+00 -0.12051364952E+04  0.12051364953E+04  0.50400001928E-02 0. -1.
    10030    2    1    2    0    0  0.00000000000E+00  0.00000000000E+00  0.16426440049E+04  0.40529169954E+04  0.37051122580E+04 0.  0.
        5    1    3    3  502    0  0.63234744144E+01 -0.57787861717E+03  0.27466473659E+04  0.28067913220E+04  0.46999998093E+01 0.  1.
       -5    1    3    3    0  502 -0.63234744144E+01  0.57787861717E+03 -0.11040033611E+04  0.12461256734E+04  0.46999998093E+01 0. -1.
</event>
<event>
 5   0  0.1658770E-07  0.3696506E+04  0.7818609E-02  0.8068737E-01
       -2   -1    0    0    0  501  0.00000000000E+00  0.00000000000E+00  0.14834386993E+04  0.14834386993E+04  0.25500000920E-02 0. -1.
        2   -1    0    0  501    0  0.00000000000E+00  0.00000000000E+00 -0.23027838541E+04  0.23027838541E+04  0.25500000920E-02 0.  1.
    10030    2    1    2    0    0  0.00000000000E+00  0.00000000000E+00 -0.81934515487E+03  0.37862225534E+04  0.36965057475E+04 0.  0.
        2    1    3    3  502    0 -0.14888859812E+04 -0.42872964236E+03  0.62247933354E+03  0.16697518055E+04  0.25500000920E-02 0. -1.
       -2    1    3    3    0  502  0.14888859812E+04  0.42872964236E+03 -0.14418244884E+04  0.21164707479E+04  0.25500000920E-02 0.  1.
</event>
<event>
 5   0  0.5177000E-08  0.3696397E+04  0.7818609E-02  0.8068761E-01
        3   -1    0    0  501    0  0.00000000000E+00  0.00000000000E+00  0.25148962859E+04  0.25148962879E+04  0.10100000352E+00 0. -1.
       -3   -1    0    0    0  501  0.00000000000E+00  0.00000000000E+00 -0.13582417211E+04  0.13582417249E+04  0.10100000352E+00 0.  1.
    10030    2    1    2    0    0  0.00000000000E+00  0.00000000000E+00  0.11566545647E+04  0.38731380128E+04  0.36963966621E+04 0.  0.
        1    1    3    3  502    0  0.95568894023E+03  0.52980592881E+03 -0.98351444317E+03  0.14701484050E+04  0.50400001928E-02 0.  1.
       -1    1    3    3    0  502 -0.95568894023E+03 -0.52980592881E+03  0.21401690079E+04  0.24029896078E+04  0.50400001928E-02 0. -1.
</event>
<event>
 5   0  0.1658770E-07  0.3682207E+04  0.7818609E-02  0.8071916E-01
        2   -1    0    0  501    0  0.00000000000E+00  0.00000000000E+00  0.28750111719E+04  0.28750111719E+04  0.25500000920E-02 0. -1.
       -2   -1    0    0    0  501  0.00000000000E+00  0.00000000000E+00 -0.11790085154E+04  0.11790085154E+04  0.25500000920E-02 0.  1.
    10030    2    1    2    0    0  0.00000000000E+00  0.00000000000E+00  0.16960026565E+04  0.40540196873E+04  0.36822073020E+04 0.  0.
        2    1    3    3  502    0  0.13605066982E+04 -0.78099067368E+03  0.19090227851E+04  0.24708890915E+04  0.25500000920E-02 0. -1.
       -2    1    3    3    0  502 -0.13605066982E+04  0.78099067368E+03 -0.21302012867E+03  0.15831305958E+04  0.25500000920E-02 0.  1.
</event>
<event>
 5   0  0.5177000E-08  0.3699102E+04  0.7818609E-02  0.8068161E-01
       -1   -1    0    0    0  501  0.00000000000E+00  0.00000000000E+00  0.10000638285E+04  0.10000638285E+04  0.50400001928E-02 0.  1.
        1   -1    0    0  501    0  0.00000000000E+00  0.00000000000E+00 -0.34206213134E+04  0.34206213134E+04  0.50400001928E-02 0. -1.
    10030    2    1    2    0    0  0.00000000000E+00  0.00000000000E+00 -0.24205574849E+04  0.44206851419E+04  0.36991024028E+04 0.  0.
        3    1    3    3  502    0 -0.45376508600E+03  0.16541283432E+04 -0.20372085104E+04  0.26631300858E+04  0.10100000352E+00 0. -1.
       -3    1    3    3    0  502  0.45376508600E+03 -0.16541283432E+04 -0.38334897454E+03  0.17575550561E+04  0.10100000352E+00 0.  1.
</event>
<event>
 5   0  0.1587026E-07  0.3698640E+04  0.7818609E-02  0.8068263E-01
       -2   -1    0    0    0  501  0.00000000000E+00  0.00000000000E+00  0.25606188888E+04  0.25606188888E+04  0.25500000920E-02 0. -1.
        2   -1    0    0  501    0  0.00000000000E+00  0.00000000000E+00 -0.13356082688E+04  0.13356082688E+04  0.25500000920E-02 0.  1.
    10030    2    1    2    0    0  0.00000000000E+00  0.00000000000E+00  0.12250106199E+04  0.38962271576E+04  0.36986396208E+04 0.  0.
        3    1    3    3  502    0  0.96622412970E+03 -0.11160281611E+04  0.17859602388E+04  0.23170588922E+04  0.10100000352E+00 0. -1.
       -3    1    3    3    0  502 -0.96622412970E+03  0.11160281611E+04 -0.56094961888E+03  0.15791682654E+04  0.10100000352E+00 0.  1.
</event>
<event>
 5   0  0.5177000E-08  0.3701492E+04  0.7818609E-02  0.8067631E-01
        1   -1    0    0  501    0  0.00000000000E+00  0.00000000000E+00  0.23359528358E+04  0.23359528358E+04  0.50400001928E-02 0. -1.
       -1   -1    0    0    0  501  0.00000000000E+00  0.00000000000E+00 -0.14663225150E+04  0.14663225150E+04  0.50400001928E-02 0.  1.
    10030    2    1    2    0    0  0.00000000000E+00  0.00000000000E+00  0.86963032083E+03  0.38022753508E+04  0.37014917193E+04 0.  0.
        4    1    3    3  502    0 -0.69765361645E+02  0.91644154991E+03  0.20849556743E+04  0.22785464878E+04  0.12699999809E+01 0. -1.
       -4    1    3    3    0  502  0.69765361645E+02 -0.91644154991E+03 -0.12153253535E+04  0.15237288630E+04  0.12699999809E+01 0.  1.
</event>
<event>
 5   0  0.5177000E-08  0.3705258E+04  0.7818609E-02  0.8066797E-01
        1   -1    0    0  501    0  0.00000000000E+00  0.00000000000E+00  0.17238068357E+04  0.17238068357E+04  0.50400001928E-02 0.  1.
       -1   -1    0    0    0  501  0.00000000000E+00  0.00000000000E+00 -0.19910786948E+04  0.19910786948E+04  0.50400001928E-02 0. -1.
    10030    2    1    2    0    0  0.00000000000E+00  0.00000000000E+00 -0.26727185912E+03  0.37148855306E+04  0.37052584604E+04 0.  0.
        1    1    3    3  502    0 -0.11828190391E+04  0.14228427645E+04 -0.40159289599E+02  0.18507174772E+04  0.50400001928E-02 0.  1.
       -1    1    3    3    0  502  0.11828190391E+04 -0.14228427645E+04 -0.22711256952E+03  0.18641680534E+04  0.50400001928E-02 0. -1.
</event>
<event>
 5   0  0.1658770E-07  0.3716017E+04  0.7818609E-02  0.8064422E-01
       -2   -1    0    0    0  501  0.00000000000E+00  0.00000000000E+00  0.17039069937E+04  0.17039069937E+04  0.25500000920E-02 0.  1.
        2   -1    0    0  501    0  0.00000000000E+00  0.00000000000E+00 -0.20260469405E+04  0.20260469406E+04  0.25500000920E-02 0. -1.
    10030    2    1    2    0    0  0.00000000000E+00  0.00000000000E+00 -0.32213994685E+03  0.37299539342E+04  0.37160169814E+04 0.  0.
        2    1    3    3  502    0  0.89581717365E+03 -0.89435909162E+02  0.14703591605E+04  0.17240775073E+04  0.25500000920E-02 0.  1.
       -2    1    3    3    0  502 -0.89581717365E+03  0.89435909162E+02 -0.17924991073E+04  0.20058764269E+04  0.25500000920E-02 0. -1.
</event>
<event>
 5   0  0.5181371E-08  0.3632524E+04  0.7818609E-02  0.8083082E-01
       -1   -1    0    0    0  501  0.00000000000E+00  0.00000000000E+00  0.12756134263E+04  0.12756134263E+04  0.50400001928E-02 0.  1.
        1   -1    0    0  501    0  0.00000000000E+00  0.00000000000E+00 -0.25860555569E+04  0.25860555569E+04  0.50400001928E-02 0. -1.
    10030    2    1    2    0    0  0.00000000000E+00  0.00000000000E+00 -0.13104421306E+04  0.38616689832E+04  0.36325237450E+04 0.  0.
        5    1    3    3  502    0 -0.10028456446E+04 -0.85545895925E+03  0.67311015350E+03  0.14800705343E+04  0.46999998093E+01 0.  1.
       -5    1    3    3    0  502  0.10028456446E+04  0.85545895925E+03 -0.19835522841E+04  0.23815984488E+04  0.46999998093E+01 0. -1.
</event>
<event>
 5   0  0.1666189E-07  0.3712574E+04  0.7818609E-02  0.8065181E-01
       -2   -1    0    0    0  501  0.00000000000E+00  0.00000000000E+00  0.16934528655E+04  0.16934528655E+04  0.25500000920E-02 0.  1.
        2   -1    0    0  501    0  0.00000000000E+00  0.00000000000E+00 -0.20347779985E+04  0.20347779985E+04  0.25500000920E-02 0. -1.
    10030    2    1    2    0    0  0.00000000000E+00  0.00000000000E+00 -0.34132513299E+03  0.37282308641E+04  0.37125735722E+04 0.  0.
        4    1    3    3  502    0 -0.42310097401E+03 -0.15770993017E+04 -0.10573031240E+04  0.19452887062E+04  0.12699999809E+01 0. -1.
       -4    1    3    3    0  502  0.42310097401E+03  0.15770993017E+04  0.71597799099E+03  0.17829421578E+04  0.12699999809E+01 0.  1.
</event>
<event>
 5   0  0.1587026E-07  0.3702223E+04  0.7818609E-02  0.8067469E-01
        2   -1    0    0  501    0  0.00000000000E+00  0.00000000000E+00  0.23640655377E+04  0.23640655377E+04  0.25500000920E-02 0. -1.
       -2   -1    0    0    0  501  0.00000000000E+00  0.00000000000E+00 -0.14494580996E+04  0.14494580996E+04  0.25500000920E-02 0.  1.
    10030    2    1    2    0    0  0.00000000000E+00  0.00000000000E+00  0.91460743811E+03  0.38135236373E+04  0.37022230844E+04 0.  0.
        3    1    3    3  502    0 -0.16749284307E+04  0.60113777423E+03 -0.67788153846E+02  0.17808276490E+04  0.10100000352E+00 0.  1.
       -3    1    3    3    0  502  0.16749284307E+04 -0.60113777423E+03  0.98239559196E+03  0.20326959883E+04  0.10100000352E+00 0. -1.
</event>
<event>
 5   0  0.1686284E-07  0.3694328E+04  0.7818609E-02  0.8069220E-01
       -2   -1    0    0    0  501  0.00000000000E+00  0.00000000000E+00  0.25248674854E+04  0.25248674854E+04  0.25500000920E-02 0. -1.
        2   -1    0    0  501    0  0.00000000000E+00  0.00000000000E+00 -0.13513638129E+04  0.13513638129E+04  0.25500000920E-02 0.  1.
    10030    2    1    2    0    0  0.00000000000E+00  0.00000000000E+00  0.11735036724E+04  0.38762312983E+04  0.36943278426E+04 0.  0.
        5    1    3    3  502    0  0.11214960507E+04 -0.12069246685E+04 -0.28958031267E+03  0.16728118229E+04  0.46999998093E+01 0.  1.
       -5    1    3    3    0  502 -0.11214960507E+04  0.12069246685E+04  0.14630839851E+04  0.22034194754E+04  0.46999998093E+01 0. -1.
</event>
<event>
 5   0  0.5177000E-08  0.3596267E+04  0.7818609E-02  0.8091347E-01
       -1   -1    0    0    0  501  0.00000000000E+00  0.00000000000E+00  0.16651762717E+04  0.16651762717E+04  0.50400001928E-02 0.  1.
        1   -1    0    0  501    0  0.00000000000E+00  0.00000000000E+00 -0.19417063159E+04  0.19417063159E+04  0.50400001928E-02 0. -1.
    10030    2    1    2    0    0  0.00000000000E+00  0.00000000000E+00 -0.27653004418E+03  0.36068825876E+04  0.35962665551E+04 0.  0.
        4    1    3    3  502    0 -0.92830793534E+02  0.17375998025E+04 -0.59282586621E+03  0.18382912584E+04  0.12699999809E+01 0. -1.
       -4    1    3    3    0  502  0.92830793534E+02 -0.17375998025E+04  0.31629582204E+03  0.17685913293E+04  0.12699999809E+01 0.  1.
</event>
<event>
 5   0  0.5177000E-08  0.3702003E+04  0.7818609E-02  0.8067518E-01
        1   -1    0    0  501    0  0.00000000000E+00  0.00000000000E+00  0.31359129717E+04  0.31359129718E+04  0.50400001928E-02 0.  1.
       -1   -1    0    0    0  501  0.00000000000E+00  0.00000000000E+00 -0.10925708710E+04  0.10925708710E+04  0.50400001928E-02 0. -1.
    10030    2    1    2    0    0  0.00000000000E+00  0.00000000000E+00  0.20433421008E+04  0.42284838428E+04  0.37020033317E+04 0.  0.
        3    1    3    3  502    0 -0.69836573632E+03  0.43377703421E+03 -0.87259191489E+03  0.11988719186E+04  0.10100000352E+00 0. -1.
       -3    1    3    3    0  502  0.69836573632E+03 -0.43377703421E+03  0.29159340157E+04  0.30296119241E+04  0.10100000352E+00 0.  1.
</event>
<event>
 5   0  0.5181371E-08  0.3753067E+04  0.7818609E-02  0.8056302E-01
       -1   -1    0    0    0  501  0.00000000000E+00  0.00000000000E+00  0.29227420312E+04  0.29227420312E+04  0.50400001928E-02 0. -1.
        1   -1    0    0  501    0  0.00000000000E+00  0.00000000000E+00 -0.12048197225E+04  0.12048197226E+04  0.50400001928E-02 0.  1.
    10030    2    1    2    0    0  0.00000000000E+00  0.00000000000E+00  0.17179223087E+04  0.41275617538E+04  0.37530666091E+04 0.  0.
        5    1    3    3  502    0 -0.14349471043E+04 -0.40709925176E+03 -0.39332132340E+03  0.15425714720E+04  0.46999998093E+01 0. -1.
       -5    1    3    3    0  502  0.14349471043E+04  0.40709925176E+03  0.21112436321E+04  0.25849902818E+04  0.46999998093E+01 0.  1.
</event>
<event>
 5   0  0.1666189E-07  0.3685976E+04  0.7818609E-02  0.8071077E-01
       -2   -1    0    0    0  501  0.00000000000E+00  0.00000000000E+00  0.34477462315E+04  0.34477462315E+04  0.25500000920E-02 0.  1.
        2   -1    0    0  501    0  0.00000000000E+00  0.00000000000E+00 -0.98516669483E+03  0.98516669484E+03  0.25500000920E-02 0. -1.
    10030    2    1    2    0    0  0.00000000000E+00  0.00000000000E+00  0.24625795367E+04  0.44329129264E+04  0.36859759953E+04 0.  0.
        4    1    3    3  502    0  0.50750849952E+03  0.83108689311E+03  0.31130831103E+04  0.32618335895E+04  0.12699999809E+01 0.  1.
       -4    1    3    3    0  502 -0.50750849952E+03 -0.83108689311E+03 -0.65050357363E+03  0.11710793369E+04  0.12699999809E+01 0. -1.
</event>
<event>
 5   0  0.1558258E-07  0.3698358E+04  0.7818609E-02  0.8068326E-01
        2   -1    0    0  501    0  0.00000000000E+00  0.00000000000E+00  0.20014511916E+04  0.20014511916E+04  0.25500000920E-02 0. -1.
       -2   -1    0    0    0  501  0.00000000000E+00  0.00000000000E+00 -0.17084920694E+04  0.17084920694E+04  0.25500000920E-02 0.  1.
    10030    2    1    2    0    0  0.00000000000E+00  0.00000000000E+00  0.29295912216E+03  0.37099432610E+04  0.36983582780E+04 0.  0.
        1    1    3    3  502    0 -0.20760726771E+03  0.10696349859E+04 -0.13522700737E+04  0.17366214708E+04  0.50400001928E-02 0.  1.
       -1    1    3    3    0  502  0.20760726771E+03 -0.10696349859E+04  0.16452291959E+04  0.19733217902E+04  0.50400001928E-02 0. -1.
</event>
<event>
 5   0  0.1686284E-07  0.3700851E+04  0.7818609E-02  0.8067773E-01
        2   -1    0    0  501    0  0.00000000000E+00  0.00000000000E+00  0.13944413676E+04  0.13944413676E+04  0.25500000920E-02 0. -1.
       -2   -1    0    0    0  501  0.00000000000E+00  0.00000000000E+00 -0.24555164801E+04  0.24555164801E+04  0.25500000920E-02 0.  1.
    10030    2    1    2    0    0  0.00000000000E+00  0.00000000000E+00 -0.10610751125E+04  0.38499578476E+04  0.37008505825E+04 0.  0.
        5    1    3    3  502    0  0.11318768286E+04  0.12607544133E+04  0.24334648871E+03  0.17116911081E+04  0.46999998093E+01 0. -1.
       -5    1    3    3    0  502 -0.11318768286E+04 -0.12607544133E+04 -0.13044216012E+04  0.21382667396E+04  0.46999998093E+01 0.  1.
</event>
<event>
 5   0  0.1666189E-07  0.3685392E+04  0.7818609E-02  0.8071207E-01
       -2   -1    0    0    0  501  0.00000000000E+00  0.00000000000E+00  0.13914125253E+04  0.13914125253E+04  0.25500000920E-02 0.  1.
        2   -1    0    0  501    0  0.00000000000E+00  0.00000000000E+00 -0.24403465023E+04  0.24403465023E+04  0.25500000920E-02 0. -1.
    10030    2    1    2    0    0  0.00000000000E+00  0.00000000000E+00 -0.10489339770E+04  0.38317590276E+04  0.36853920765E+04 0.  0.
        4    1    3    3  502    0 -0.13153885875E+03 -0.18261783890E+04 -0.74081050183E+03  0.19751029828E+04  0.12699999809E+01 0.  1.
       -4    1    3    3    0  502  0.13153885875E+03  0.18261783890E+04 -0.30812347518E+03  0.18566560448E+04  0.12699999809E+01 0. -1.
</event>
<event>
 5   0  0.1658770E-07  0.3735074E+04  0.7818609E-02  0.8060233E-01
        2   -1    0    0  501    0  0.00000000000E+00  0.00000000000E+00  0.27824347337E+04  0.27824347337E+04  0.25500000920E-02 0. -1.
       -2   -1    0    0    0  501  0.00000000000E+00  0.00000000000E+00 -0.12534687608E+04  0.12534687608E+04  0.25500000920E-02 0.  1.
    10030    2    1    2    0    0  0.00000000000E+00  0.00000000000E+00  0.15289659729E+04  0.40359034945E+04  0.37350743059E+04 0.  0.
        2    1    3    3  502    0 -0.71471510049E+03 -0.17162979754E+04  0.95534042787E+03  0.20902563834E+04  0.25500000920E-02 0. -1.
       -2    1    3    3    0  502  0.71471510049E+03  0.17162979754E+04  0.57362554505E+03  0.19456471111E+04  0.25500000920E-02 0.  1.
</event>
<event>
 5   0  0.1686284E-07  0.3697908E+04  0.7818609E-02  0.8068426E-01
        2   -1    0    0  501    0  0.00000000000E+00  0.00000000000E+00  0.17264210394E+04  0.17264210394E+04  0.25500000920E-02 0.  1.
       -2   -1    0    0    0  501  0.00000000000E+00  0.00000000000E+00 -0.19801833876E+04  0.19801833876E+04  0.25500000920E-02 0. -1.
    10030    2    1    2    0    0  0.00000000000E+00  0.00000000000E+00 -0.25376234811E+03  0.37066044270E+04  0.36979076583E+04 0.  0.
        5    1    3    3  502    0 -0.17352799816E+04 -0.23961674517E+03 -0.71987658109E+03  0.18938999924E+04  0.46999998093E+01 0.  1.
       -5    1    3    3    0  502  0.17352799816E+04  0.23961674517E+03  0.46611423298E+03  0.18127044346E+04  0.46999998093E+01 0. -1.
</event>
<event>
 5   0  0.1686284E-07  0.3737221E+04  0.7818609E-02  0.8059763E-01
        2   -1    0    0  501    0  0.00000000000E+00  0.00000000000E+00  0.30132992683E+04  0.30132992683E+04  0.25500000920E-02 0.  1.
       -2   -1    0    0    0  501  0.00000000000E+00  0.00000000000E+00 -0.11587648323E+04  0.11587648323E+04  0.25500000920E-02 0. -1.
    10030    2    1    2    0    0  0.00000000000E+00  0.00000000000E+00  0.18545344360E+04  0.41720641006E+04  0.37372210110E+04 0.  0.
        5    1    3    3  502    0  0.96598997723E+03 -0.11064166407E+04  0.22168326127E+04  0.26592599237E+04  0.46999998093E+01 0. -1.
       -5    1    3    3    0  502 -0.96598997723E+03  0.11064166407E+04 -0.36229817671E+03  0.15128041769E+04  0.46999998093E+01 0.  1.
</event>
<event>
 5   0  0.5177000E-08  0.3840777E+04  0.7818609E-02  0.8037460E-01
       -1   -1    0    0    0  501  0.00000000000E+00  0.00000000000E+00  0.13377500393E+04  0.13377500394E+04  0.50400001928E-02 0. -1.
        1   -1    0    0  501    0  0.00000000000E+00  0.00000000000E+00 -0.27567869239E+04  0.27567869239E+04  0.50400001928E-02 0.  1.
    10030    2    1    2    0    0  0.00000000000E+00  0.00000000000E+00 -0.14190368845E+04  0.40945369632E+04  0.38407769088E+04 0.  0.
        2    1    3    3  502    0  0.52257449035E+03  0.11020437938E+04 -0.22908661504E+04  0.25953135341E+04  0.25500000920E-02 0.  1.
       -2    1    3    3    0  502 -0.52257449035E+03 -0.11020437938E+04  0.87182926590E+03  0.14992234291E+04  0.25500000920E-02 0. -1.
</event>
<event>
 5   0  0.5177000E-08  0.3654071E+04  0.7818609E-02  0.8078217E-01
        1   -1    0    0  501    0  0.00000000000E+00  0.00000000000E+00  0.24862822423E+04  0.24862822423E+04  0.50400001928E-02 0.  1.
       -1   -1    0    0    0  501  0.00000000000E+00  0.00000000000E+00 -0.13425906726E+04  0.13425906726E+04  0.50400001928E-02 0. -1.
    10030    2    1    2    0    0  0.00000000000E+00  0.00000000000E+00  0.11436915697E+04  0.38288729149E+04  0.36540713447E+04 0.  0.
        2    1    3    3  502    0  0.61110591691E+03 -0.76366434948E+03  0.21888548118E+04  0.23974401072E+04  0.25500000920E-02 0.  1.
       -2    1    3    3    0  502 -0.61110591691E+03  0.76366434948E+03 -0.10451632422E+04  0.14314328078E+04  0.25500000920E-02 0. -1.
</event>
<event>
 5   0  0.5177000E-08  0.3703099E+04  0.7818609E-02  0.8067275E-01
       -1   -1    0    0    0  501  0.00000000000E+00  0.00000000000E+00  0.17469069188E+04  0.17469069188E+04  0.50400001928E-02 0.  1.
        1   -1    0    0  501    0  0.00000000000E+00  0.00000000000E+00 -0.19624608059E+04  0.19624608059E+04  0.50400001928E-02 0. -1.
    10030    2    1    2    0    0  0.00000000000E+00  0.00000000000E+00 -0.21555388710E+03  0.37093677247E+04  0.37030994368E+04 0.  0.
        2    1    3    3  502    0  0.10037237449E+04  0.15436243233E+04  0.87486221541E+02  0.18433369867E+04  0.25500000920E-02 0. -1.
       -2    1    3    3    0  502 -0.10037237449E+04 -0.15436243233E+04 -0.30304010864E+03  0.18660307380E+04  0.25500000920E-02 0.  1.
</event>
<event>
 5   0  0.5181371E-08  0.3688022E+04  0.7818609E-02  0.8070621E-01
       -1   -1    0    0    0  501  0.00000000000E+00  0.00000000000E+00  0.16451047076E+04  0.16451047076E+04  0.50400001928E-02 0.  1.
        1   -1    0    0  501    0  0.00000000000E+00  0.00000000000E+00 -0.20669671443E+04  0.20669671443E+04  0.50400001928E-02 0. -1.
    10030    2    1    2    0    0  0.00000000000E+00  0.00000000000E+00 -0.42186243666E+03  0.37120718519E+04  0.36880224401E+04 0.  0.
        5    1    3    3  502    0  0.11701002757E+04 -0.12930889694E+04  0.39226088369E+03  0.17874855045E+04  0.46999998093E+01 0.  1.
       -5    1    3    3    0  502 -0.11701002757E+04  0.12930889694E+04 -0.81412332035E+03  0.19245863474E+04  0.46999998093E+01 0. -1.
</event>
<event>
 5   0  0.1587026E-07  0.3716750E+04  0.7818609E-02  0.8064260E-01
        2   -1    0    0  501    0  0.00000000000E+00  0.00000000000E+00  0.27237682155E+04  0.27237682155E+04  0.25500000920E-02 0. -1.
       -2   -1    0    0    0  501  0.00000000000E+00  0.00000000000E+00 -0.12679336055E+04  0.12679336055E+04  0.25500000920E-02 0.  1.
    10030    2    1    2    0    0  0.00000000000E+00  0.00000000000E+00  0.14558346100E+04  0.39917018210E+04  0.37167497919E+04 0.  0.
        3    1    3    3  502    0 -0.17075728825E+04 -0.65536506412E+03  0.10812681757E+04  0.21247233689E+04  0.10100000352E+00 0. -1.
       -3    1    3    3    0  502  0.17075728825E+04  0.65536506412E+03  0.37456643426E+03  0.18669784520E+04  0.10100000352E+00 0.  1.
</event>
<event>
 5   0  0.5177000E-08  0.3703023E+04  0.7818609E-02  0.8067292E-01
        1   -1    0    0  501    0  0.00000000000E+00  0.00000000000E+00  0.26241882766E+04  0.26241882766E+04  0.50400001928E-02 0.  1.
       -1   -1    0    0    0  501  0.00000000000E+00  0.00000000000E+00 -0.13063445206E+04  0.13063445207E+04  0.50400001928E-02 0. -1.
    10030    2    1    2    0    0  0.00000000000E+00  0.00000000000E+00  0.13178437559E+04  0.39305327972E+04  0.37030225364E+04 0.  0.
        3    1    3    3  502    0  0.14886948545E+04 -0.84410537061E+03  0.14089979334E+04  0.22167547075E+04  0.10100000352E+00 0. -1.
       -3    1    3    3    0  502 -0.14886948545E+04  0.84410537061E+03 -0.91154177493E+02  0.17137780897E+04  0.10100000352E+00 0.  1.
</event>
<event>
 5   0  0.5177000E-08  0.3691870E+04  0.7818609E-02  0.8069766E-01
       -1   -1    0    0    0  501  0.00000000000E+00  0.00000000000E+00  0.19997469757E+04  0.19997469757E+04  0.50400001928E-02 0.  1.
        1   -1    0    0  501    0  0.00000000000E+00  0.00000000000E+00 -0.17039535470E+04  0.17039535470E+04  0.50400001928E-02 0. -1.
    10030    2    1    2    0    0  0.00000000000E+00  0.00000000000E+00  0.29579342866E+03  0.37037005228E+04  0.36918699611E+04 0.  0.
        2    1    3    3  502    0 -0.17831934839E+03  0.17531954017E+04 -0.40339500214E+03  0.18078217375E+04  0.25500000920E-02 0. -1.
       -2    1    3    3    0  502  0.17831934839E+03 -0.17531954017E+04  0.69918843080E+03  0.18958787853E+04  0.25500000920E-02 0.  1.
</event>
<event>
 5   0  0.5181371E-08  0.3586399E+04  0.7818609E-02  0.8093614E-01
        1   -1    0    0  501    0  0.00000000000E+00  0.00000000000E+00  0.15516458565E+04  0.15516458565E+04  0.50400001928E-02 0.  1.
       -1   -1    0    0    0  501  0.00000000000E+00  0.00000000000E+00 -0.20723574299E+04  0.20723574299E+04  0.50400001928E-02 0. -1.
    10030    2    1    2    0    0  0.00000000000E+00  0.00000000000E+00 -0.52071157344E+03  0.36240032864E+04  0.35863992078E+04 0.  0.
        5    1    3    3  502    0 -0.13843790682E+03  0.14261587678E+04  0.82911823223E+03  0.16554615725E+04  0.46999998093E+01 0.  1.
       -5    1    3    3    0  502  0.13843790682E+03 -0.14261587678E+04 -0.13498298057E+04  0.19685417139E+04  0.46999998093E+01 0. -1.
</event>
<event>
 5   0  0.1658770E-07  0.3693750E+04  0.7818609E-02  0.8069348E-01
        2   -1    0    0  501    0  0.00000000000E+00  0.00000000000E+00  0.12088213601E+04  0.12088213601E+04  0.25500000920E-02 0.  1.
       -2   -1    0    0    0  501  0.00000000000E+00  0.00000000000E+00 -0.28217125939E+04  0.28217125939E+04  0.25500000920E-02 0. -1.
    10030    2    1    2    0    0  0.00000000000E+00  0.00000000000E+00 -0.16128912338E+04  0.40305339540E+04  0.36937495614E+04 0.  0.
        2    1    3    3  502    0 -0.65781571811E+03 -0.13849751035E+04  0.31702620439E+03  0.15656893596E+04  0.25500000920E-02 0.  1.
       -2    1    3    3    0  502  0.65781571811E+03  0.13849751035E+04 -0.19299174382E+04  0.24648445944E+04  0.25500000920E-02 0. -1.
</event>
<event>
 5   0  0.1666189E-07  0.3585853E+04  0.7818609E-02  0.8093740E-01
        2   -1    0    0  501    0  0.00000000000E+00  0.00000000000E+00  0.32527990177E+04  0.32527990177E+04  0.25500000920E-02 0. -1.
       -2   -1    0    0    0  501  0.00000000000E+00  0.00000000000E+00 -0.98825189956E+03  0.98825189956E+03  0.25500000920E-02 0.  1.
    10030    2    1    2    0    0  0.00000000000E+00  0.00000000000E+00  0.22645471182E+04  0.42410509173E+04  0.35858526507E+04 0.  0.
        4    1    3    3  502    0 -0.17204155163E+04  0.49502556917E+03  0.12487777369E+04  0.21827339078E+04  0.12699999809E+01 0.  1.
       -4    1    3    3    0  502  0.17204155163E+04 -0.49502556917E+03  0.10157693813E+04  0.20583170095E+04  0.12699999809E+01 0. -1.
</event>
<event>
 5   0  0.5177000E-08  0.3703928E+04  0.7818609E-02  0.8067092E-01
        1   -1    0    0  501    0  0.00000000000E+00  0.00000000000E+00  0.30545489821E+04  0.30545489821E+04  0.50400001928E-02 0.  1.
       -1   -1    0    0    0  501  0.00000000000E+00  0.00000000000E+00 -0.11228400933E+04  0.11228400933E+04  0.50400001928E-02 0. -1.
    10030    2    1    2    0    0  0.00000000000E+00  0.00000000000E+00  0.19317088888E+04  0.41773890754E+04  0.37039276797E+04 0.  0.
        3    1    3    3  502    0 -0.45318601840E+03  0.17945096678E+04  0.10383127235E+04  0.21222007061E+04  0.10100000352E+00 0.  1.
       -3    1    3    3    0  502  0.45318601840E+03 -0.17945096678E+04  0.89339616536E+03  0.20551883693E+04  0.10100000352E+00 0. -1.
</event>
<event>
 5   0  0.1658770E-07  0.3698226E+04  0.7818609E-02  0.8068355E-01
        2   -1    0    0  501    0  0.00000000000E+00  0.00000000000E+00  0.22364902171E+04  0.22364902171E+04  0.25500000920E-02 0.  1.
       -2   -1    0    0    0  501  0.00000000000E+00  0.00000000000E+00 -0.15288326035E+04  0.15288326035E+04  0.25500000920E-02 0. -1.
    10030    2    1    2    0    0  0.00000000000E+00  0.00000000000E+00  0.70765761365E+03  0.37653228206E+04  0.36982261485E+04 0.  0.
        2    1    3    3  502    0 -0.17688778443E+04  0.40883151346E+03 -0.34612194190E+01  0.18155120530E+04  0.25500000920E-02 0.  1.
       -2    1    3    3    0  502  0.17688778443E+04 -0.40883151346E+03  0.71111883307E+03  0.19498107676E+04  0.25500000920E-02 0. -1.
</event>
<event>
 5   0  0.5181371E-08  0.3691595E+04  0.7818609E-02  0.8069827E-01
       -1   -1    0    0    0  501  0.00000000000E+00  0.00000000000E+00  0.26219811837E+04  0.26219811837E+04  0.50400001928E-02 0. -1.
        1   -1    0    0  501    0  0.00000000000E+00  0.00000000000E+00 -0.12993867693E+04  0.12993867693E+04  0.50400001928E-02 0.  1.
    10030    2    1    2    0    0  0.00000000000E+00  0.00000000000E+00  0.13225944144E+04  0.39213679531E+04  0.36915945929E+04 0.  0.
        5    1    3    3  502    0  0.11111807250E+04  0.54852769184E+03  0.21144121996E+04  0.24507889081E+04  0.46999998093E+01 0. -1.
       -5    1    3    3    0  502 -0.11111807250E+04 -0.54852769184E+03 -0.79181778520E+03  0.14705790449E+04  0.46999998093E+01 0.  1.
</event>
<event>
 5   0  0.5177000E-08  0.3659713E+04  0.7818609E-02  0.8076949E-01
       -1   -1    0    0    0  501  0.00000000000E+00  0.00000000000E+00  0.12697914816E+04  0.12697914816E+04  0.50400001928E-02 0.  1.
        1   -1    0    0  501    0  0.00000000000E+00  0.00000000000E+00 -0.26369482653E+04  0.26369482653E+04  0.50400001928E-02 0. -1.
    10030    2    1    2    0    0  0.00000000000E+00  0.00000000000E+00 -0.13671567837E+04  0.39067397470E+04  0.36597128001E+04 0.  0.
        4    1    3    3  502    0 -0.16693505739E+03  0.30763507781E+03 -0.26008809404E+04  0.26243265677E+04  0.12699999809E+01 0. -1.
       -4    1    3    3    0  502  0.16693505739E+03 -0.30763507781E+03  0.12337241568E+04  0.12824131793E+04  0.12699999809E+01 0.  1.
</event>
<event>
 5   0  0.5177000E-08  0.3703760E+04  0.7818609E-02  0.8067129E-01
        1   -1    0    0  501    0  0.00000000000E+00  0.00000000000E+00  0.20202107473E+04  0.20202107473E+04  0.50400001928E-02 0.  1.
       -1   -1    0    0    0  501  0.00000000000E+00  0.00000000000E+00 -0.16975755606E+04  0.16975755606E+04  0.50400001928E-02 0. -1.
    10030    2    1    2    0    0  0.00000000000E+00  0.00000000000E+00  0.32263518671E+03  0.37177863080E+04  0.37037604631E+04 0.  0.
        2    1    3    3  502    0 -0.10659831016E+01  0.18511152470E+04  0.21473186827E+03  0.18635285265E+04  0.25500000920E-02 0.  1.
       -2    1    3    3    0  502  0.10659831016E+01 -0.18511152470E+04  0.10790331844E+03  0.18542577814E+04  0.25500000920E-02 0. -1.
</event>
<event>
 5   0  0.5181371E-08  0.3703666E+04  0.7818609E-02  0.8067150E-01
        1   -1    0    0  501    0  0.00000000000E+00  0.00000000000E+00  0.14319832471E+04  0.14319832471E+04  0.50400001928E-02 0.  1.
       -1   -1    0    0    0  501  0.00000000000E+00  0.00000000000E+00 -0.23947799656E+04  0.23947799656E+04  0.50400001928E-02 0. -1.
    10030    2    1    2    0    0  0.00000000000E+00  0.00000000000E+00 -0.96279671847E+03  0.38267632127E+04  0.37036656389E+04 0.  0.
        5    1    3    3  502    0 -0.11418042783E+04 -0.28240051382E+03 -0.19592503551E+04  0.22852026397E+04  0.46999998093E+01 0. -1.
       -5    1    3    3    0  502  0.11418042783E+04  0.28240051382E+03  0.99645363666E+03  0.15415605730E+04  0.46999998093E+01 0.  1.
</event>
<event>
 5   0  0.5177000E-08  0.3699142E+04  0.7818609E-02  0.8068152E-01
       -1   -1    0    0    0  501  0.00000000000E+00  0.00000000000E+00  0.15990824025E+04  0.15990824025E+04  0.50400001928E-02 0.  1.
        1   -1    0    0  501    0  0.00000000000E+00  0.00000000000E+00 -0.21392977871E+04  0.21392977871E+04  0.50400001928E-02 0. -1.
    10030    2    1    2    0    0  0.00000000000E+00  0.00000000000E+00 -0.54021538466E+03  0.37383801896E+04  0.36991423033E+04 0.  0.
        1    1    3    3  502    0  0.10818192979E+04 -0.47284306014E+03  0.11687216662E+04  0.16612717676E+04  0.50400001928E-02 0.  1.
       -1    1    3    3    0  502 -0.10818192979E+04  0.47284306014E+03 -0.17089370509E+04  0.20771084220E+04  0.50400001928E-02 0. -1.
</event>
<event>
 5   0  0.1587026E-07  0.3705093E+04  0.7818609E-02  0.8066834E-01
       -2   -1    0    0    0  501  0.00000000000E+00  0.00000000000E+00  0.16212255823E+04  0.16212255823E+04  0.25500000920E-02 0.  1.
        2   -1    0    0  501    0  0.00000000000E+00  0.00000000000E+00 -0.21168731752E+04  0.21168731752E+04  0.25500000920E-02 0. -1.
    10030    2    1    2    0    0  0.00000000000E+00  0.00000000000E+00 -0.49564759289E+03  0.37380987574E+04  0.37050932220E+04 0.  0.
        3    1    3    3  502    0 -0.45780590784E+02 -0.14052586147E+04 -0.14648369186E+04  0.20304174066E+04  0.10100000352E+00 0. -1.
       -3    1    3    3    0  502  0.45780590784E+02  0.14052586147E+04  0.96918932569E+03  0.17076813508E+04  0.10100000352E+00 0.  1.
</event>
<event>
 5   0  0.1587026E-07  0.3712459E+04  0.7818609E-02  0.8065206E-01
        2   -1    0    0  501    0  0.00000000000E+00  0.00000000000E+00  0.24290150152E+04  0.24290150152E+04  0.25500000920E-02 0.  1.
       -2   -1    0    0    0  501  0.00000000000E+00  0.00000000000E+00 -0.14185125095E+04  0.14185125095E+04  0.25500000920E-02 0. -1.
    10030    2    1    2    0    0  0.00000000000E+00  0.00000000000E+00  0.10105025057E+04  0.38475275247E+04  0.37124591230E+04 0.  0.
        3    1    3    3  502    0  0.24928059623E+03  0.13930250678E+04 -0.73967166981E+03  0.15968011287E+04  0.10100000352E+00 0. -1.
       -3    1    3    3    0  502 -0.24928059623E+03 -0.13930250678E+04  0.17501741755E+04  0.22507263961E+04  0.10100000352E+00 0.  1.
</event>
<event>
 5   0  0.5181371E-08  0.3705932E+04  0.7818609E-02  0.8066649E-01
        1   -1    0    0  501    0  0.00000000000E+00  0.00000000000E+00  0.20982709832E+04  0.20982709832E+04  0.50400001928E-02 0.  1.
       -1   -1    0    0    0  501  0.00000000000E+00  0.00000000000E+00 -0.16363391142E+04  0.16363391142E+04  0.50400001928E-02 0. -1.
    10030    2    1    2    0    0  0.00000000000E+00  0.00000000000E+00  0.46193186901E+03  0.37346100974E+04  0.37059319379E+04 0.  0.
        5    1    3    3  502    0  0.16018778762E+04 -0.78875237696E+02  0.11661704298E+04  0.19829799784E+04  0.46999998093E+01 0.  1.
       -5    1    3    3    0  502 -0.16018778762E+04  0.78875237696E+02 -0.70423856079E+03  0.17516301190E+04  0.46999998093E+01 0. -1.
</event>
<event>
 5   0  0.5177000E-08  0.3693508E+04  0.7818609E-02  0.8069402E-01
        1   -1    0    0  501    0  0.00000000000E+00  0.00000000000E+00  0.16285786271E+04  0.16285786271E+04  0.50400001928E-02 0. -1.
       -1   -1    0    0    0  501  0.00000000000E+00  0.00000000000E+00 -0.20941570615E+04  0.20941570615E+04  0.50400001928E-02 0.  1.
    10030    2    1    2    0    0  0.00000000000E+00  0.00000000000E+00 -0.46557843436E+03  0.37227356886E+04  0.36935075103E+04 0.  0.
        3    1    3    3  502    0 -0.69128587426E+03  0.61582356113E+03  0.13777871937E+04  0.16599434869E+04  0.10100000352E+00 0. -1.
       -3    1    3    3    0  502  0.69128587426E+03 -0.61582356113E+03 -0.18433656281E+04  0.20627922017E+04  0.10100000352E+00 0.  1.
</event>
<event>
 5   0  0.5177000E-08  0.3714523E+04  0.7818609E-02  0.8064751E-01
       -1   -1    0    0    0  501  0.00000000000E+00  0.00000000000E+00  0.19244443181E+04  0.19244443181E+04  0.50400001928E-02 0.  1.
        1   -1    0    0  501    0  0.00000000000E+00  0.00000000000E+00 -0.17924244454E+04  0.17924244454E+04  0.50400001928E-02 0. -1.
    10030    2    1    2    0    0  0.00000000000E+00  0.00000000000E+00  0.13201987272E+03  0.37168687634E+04  0.37145234093E+04 0.  0.
        3    1    3    3  502    0 -0.49598597384E+03  0.38102895297E+03  0.18158953744E+04  0.19205887561E+04  0.10100000352E+00 0.  1.
       -3    1    3    3    0  502  0.49598597384E+03 -0.38102895297E+03 -0.16838755017E+04  0.17962800073E+04  0.10100000352E+00 0. -1.
</event>
<event>
 5   0  0.1658770E-07  0.3701144E+04  0.7818609E-02  0.8067708E-01
       -2   -1    0    0    0  501  0.00000000000E+00  0.00000000000E+00  0.18800200508E+04  0.18800200508E+04  0.25500000920E-02 0. -1.
        2   -1    0    0  501    0  0.00000000000E+00  0.00000000000E+00 -0.18215848212E+04  0.18215848212E+04  0.25500000920E-02 0.  1.
    10030    2    1    2    0    0  0.00000000000E+00  0.00000000000E+00  0.58435229643E+02  0.37016048721E+04  0.37011436007E+04 0.  0.
        2    1    3    3  502    0  0.30029225040E+03  0.73898615323E+03 -0.16408228277E+04  0.18244384128E+04  0.25500000920E-02 0.  1.
       -2    1    3    3    0  502 -0.30029225040E+03 -0.73898615323E+03  0.16992580573E+04  0.18771664592E+04  0.25500000920E-02 0. -1.
</event>
<event>
 5   0  0.1658770E-07  0.3701087E+04  0.7818609E-02  0.8067721E-01
       -2   -1    0    0    0  501  0.00000000000E+00  0.00000000000E+00  0.15398197576E+04  0.15398197576E+04  0.25500000920E-02 0. -1.
        2   -1    0    0  501    0  0.00000000000E+00  0.00000000000E+00 -0.22239683799E+04  0.22239683799E+04  0.25500000920E-02 0.  1.
    10030    2    1    2    0    0  0.00000000000E+00  0.00000000000E+00 -0.68414862235E+03  0.37637881375E+04  0.37010865710E+04 0.  0.
        2    1    3    3  502    0  0.10337124926E+04 -0.38265567006E+03 -0.18537034155E+04  0.21566648400E+04  0.25500000920E-02 0.  1.
       -2    1    3    3    0  502 -0.10337124926E+04  0.38265567006E+03  0.11695547932E+04  0.16071232975E+04  0.25500000920E-02 0. -1.
</event>
<event>
 5   0  0.5177000E-08  0.3713087E+04  0.7818609E-02  0.8065068E-01
       -1   -1    0    0    0  501  0.00000000000E+00  0.00000000000E+00  0.17937540853E+04  0.17937540853E+04  0.50400001928E-02 0. -1.
        1   -1    0    0  501    0  0.00000000000E+00  0.00000000000E+00 -0.19215304163E+04  0.19215304163E+04  0.50400001928E-02 0.  1.
    10030    2    1    2    0    0  0.00000000000E+00  0.00000000000E+00 -0.12777633103E+03  0.37152845016E+04  0.37130866051E+04 0.  0.
        4    1    3    3  502    0 -0.59536841782E+03 -0.14718440696E+04 -0.10267274265E+04  0.18907562877E+04  0.12699999809E+01 0.  1.
       -4    1    3    3    0  502  0.59536841782E+03  0.14718440696E+04  0.89895109544E+03  0.18245282139E+04  0.12699999809E+01 0. -1.
</event>
<event>
 5   0  0.1558258E-07  0.3698412E+04  0.7818609E-02  0.8068314E-01
        2   -1    0    0  501    0  0.00000000000E+00  0.00000000000E+00  0.18553916915E+04  0.18553916915E+04  0.25500000920E-02 0.  1.
       -2   -1    0    0    0  501  0.00000000000E+00  0.00000000000E+00 -0.18430412105E+04  0.18430412105E+04  0.25500000920E-02 0. -1.
    10030    2    1    2    0    0  0.00000000000E+00  0.00000000000E+00  0.12350481047E+02  0.36984329020E+04  0.36984122805E+04 0.  0.
        1    1    3    3  502    0 -0.17963972898E+04 -0.38940240659E+03  0.20837896938E+03  0.18498916865E+04  0.50400001928E-02 0.  1.
       -1    1    3    3    0  502  0.17963972898E+04  0.38940240659E+03 -0.19602848834E+03  0.18485412155E+04  0.50400001928E-02 0. -1.
</event>
<event>
 5   0  0.1686284E-07  0.3671649E+04  0.7818609E-02  0.8074274E-01
       -2   -1    0    0    0  501  0.00000000000E+00  0.00000000000E+00  0.13146789102E+04  0.13146789102E+04  0.25500000920E-02 0. -1.
        2   -1    0    0  501    0  0.00000000000E+00  0.00000000000E+00 -0.25635548115E+04  0.25635548115E+04  0.25500000920E-02 0.  1.
    10030    2    1    2    0    0  0.00000000000E+00  0.00000000000E+00 -0.12488759013E+04  0.38782337217E+04  0.36716489188E+04 0.  0.
        5    1    3    3  502    0  0.46984029892E+03  0.17457908665E+04 -0.96127500030E+03  0.20475857423E+04  0.46999998093E+01 0. -1.
       -5    1    3    3    0  502 -0.46984029892E+03 -0.17457908665E+04 -0.28760090098E+03  0.18306479793E+04  0.46999998093E+01 0.  1.
</event>
<event>
 5   0  0.1686284E-07  0.3693302E+04  0.7818609E-02  0.8069448E-01
       -2   -1    0    0    0  501  0.00000000000E+00  0.00000000000E+00  0.15101018304E+04  0.15101018304E+04  0.25500000920E-02 0.  1.
        2   -1    0    0  501    0  0.00000000000E+00  0.00000000000E+00 -0.22582050293E+04  0.22582050293E+04  0.25500000920E-02 0. -1.
    10030    2    1    2    0    0  0.00000000000E+00  0.00000000000E+00 -0.74810319890E+03  0.37683068597E+04  0.36933018010E+04 0.  0.
        5    1    3    3  502    0  0.71147164908E+03 -0.14843661705E+04 -0.12280458453E+04  0.20536926556E+04  0.46999998093E+01 0.  1.
       -5    1    3    3    0  502 -0.71147164908E+03  0.14843661705E+04  0.47994264636E+03  0.17146142042E+04  0.46999998093E+01 0. -1.
</event>
<event>
 5   0  0.1658770E-07  0.3698710E+04  0.7818609E-02  0.8068248E-01
       -2   -1    0    0    0  501  0.00000000000E+00  0.00000000000E+00  0.13174549807E+04  0.13174549807E+04  0.25500000920E-02 0. -1.
        2   -1    0    0  501    0  0.00000000000E+00  0.00000000000E+00 -0.25960006418E+04  0.25960006418E+04  0.25500000920E-02 0.  1.
    10030    2    1    2    0    0  0.00000000000E+00  0.00000000000E+00 -0.12785456610E+04  0.39134556225E+04  0.36987100321E+04 0.  0.
        2    1    3    3  502    0  0.17217272257E+04  0.59987285197E+03 -0.96696722181E+03  0.20637872192E+04  0.25500000920E-02 0.  1.
       -2    1    3    3    0  502 -0.17217272257E+04 -0.59987285197E+03 -0.31157843923E+03  0.18496684033E+04  0.25500000920E-02 0. -1.
</event>
<event>
 5   0  0.5177000E-08  0.3704587E+04  0.7818609E-02  0.8066946E-01
        3   -1    0    0  501    0  0.00000000000E+00  0.00000000000E+00  0.13672249989E+04  0.13672250026E+04  0.10100000352E+00 0. -1.
       -3   -1    0    0    0  501  0.00000000000E+00  0.00000000000E+00 -0.25094555737E+04  0.25094555757E+04  0.10100000352E+00 0.  1.
    10030    2    1    2    0    0  0.00000000000E+00  0.00000000000E+00 -0.11422305748E+04  0.38766805784E+04  0.37045865654E+04 0.  0.
        2    1    3    3  502    0 -0.66975062658E+03  0.50416643804E+03  0.11573537858E+04  0.14290617497E+04  0.25500000920E-02 0. -1.
       -2    1    3    3    0  502  0.66975062658E+03 -0.50416643804E+03 -0.22995843606E+04  0.24476188287E+04  0.25500000920E-02 0.  1.
</event>
<event>
 5   0  0.1587026E-07  0.3676526E+04  0.7818609E-02  0.8073184E-01
       -2   -1    0    0    0  501  0.00000000000E+00  0.00000000000E+00  0.15206379781E+04  0.15206379781E+04  0.25500000920E-02 0. -1.
        2   -1    0    0  501    0  0.00000000000E+00  0.00000000000E+00 -0.22222327530E+04  0.22222327530E+04  0.25500000920E-02 0.  1.
    10030    2    1    2    0    0  0.00000000000E+00  0.00000000000E+00 -0.70159477491E+03  0.37428707311E+04  0.36765263608E+04 0.  0.
        3    1    3    3  502    0  0.27924487895E+03 -0.67252812794E+03 -0.20691360992E+04  0.21935350447E+04  0.10100000352E+00 0.  1.
       -3    1    3    3    0  502 -0.27924487895E+03  0.67252812794E+03  0.13675413243E+04  0.15493356864E+04  0.10100000352E+00 0. -1.
</event>
<event>
 5   0  0.5177000E-08  0.3695282E+04  0.7818609E-02  0.8069008E-01
        1   -1    0    0  501    0  0.00000000000E+00  0.00000000000E+00  0.26382331158E+04  0.26382331158E+04  0.50400001928E-02 0.  1.
       -1   -1    0    0    0  501  0.00000000000E+00  0.00000000000E+00 -0.12939634543E+04  0.12939634543E+04  0.50400001928E-02 0. -1.
    10030    2    1    2    0    0  0.00000000000E+00  0.00000000000E+00  0.13442696615E+04  0.39321965701E+04  0.36952819843E+04 0.  0.
        3    1    3    3  502    0  0.10762824211E+02  0.60633682061E+03  0.25293139842E+04  0.26009977738E+04  0.10100000352E+00 0.  1.
       -3    1    3    3    0  502 -0.10762824211E+02 -0.60633682061E+03 -0.11850443227E+04  0.13311987963E+04  0.10100000352E+00 0. -1.
</event>
<event>
 5   0  0.1666189E-07  0.3711476E+04  0.7818609E-02  0.8065423E-01
        2   -1    0    0  501    0  0.00000000000E+00  0.00000000000E+00  0.21286133823E+04  0.21286133823E+04  0.25500000920E-02 0.  1.
       -2   -1    0    0    0  501  0.00000000000E+00  0.00000000000E+00 -0.16178434052E+04  0.16178434052E+04  0.25500000920E-02 0. -1.
    10030    2    1    2    0    0  0.00000000000E+00  0.00000000000E+00  0.51076997708E+03  0.37464567876E+04  0.37114757835E+04 0.  0.
        4    1    3    3  502    0  0.26270799969E+03  0.16154794830E+04  0.11382552376E+04  0.19935937530E+04  0.12699999809E+01 0. -1.
       -4    1    3    3    0  502 -0.26270799969E+03 -0.16154794830E+04 -0.62748526055E+03  0.17528630346E+04  0.12699999809E+01 0.  1.
</event>
<event>
 5   0  0.5177000E-08  0.3694741E+04  0.7818609E-02  0.8069128E-01
       -1   -1    0    0    0  501  0.00000000000E+00  0.00000000000E+00  0.10588747190E+04  0.10588747190E+04  0.50400001928E-02 0. -1.
        1   -1    0    0  501    0  0.00000000000E+00  0.00000000000E+00 -0.32230230323E+04  0.32230230323E+04  0.50400001928E-02 0.  1.
    10030    2    1    2    0    0  0.00000000000E+00  0.00000000000E+00 -0.21641483133E+04  0.42818977513E+04  0.36947409152E+04 0.  0.
        2    1    3    3  502    0  0.92358669257E+03 -0.42877391509E+03  0.70428195793E+03  0.12380922927E+04  0.25500000920E-02 0. -1.
       -2    1    3    3    0  502 -0.92358669257E+03  0.42877391509E+03 -0.28684302712E+04  0.30438054586E+04  0.25500000920E-02 0.  1.
</event>
<event>
 5   0  0.5177000E-08  0.3699012E+04  0.7818609E-02  0.8068181E-01
        1   -1    0    0  501    0  0.00000000000E+00  0.00000000000E+00  0.12576913771E+04  0.12576913771E+04  0.50400001928E-02 0. -1.
       -1   -1    0    0    0  501  0.00000000000E+00  0.00000000000E+00 -0.27198030641E+04  0.27198030641E+04  0.50400001928E-02 0.  1.
    10030    2    1    2    0    0  0.00000000000E+00  0.00000000000E+00 -0.14621116870E+04  0.39774944413E+04  0.36990122256E+04 0.  0.
        1    1    3    3  502    0 -0.52849532483E+03  0.13460795208E+04 -0.19708724429E+04  0.24444990429E+04  0.50400001928E-02 0.  1.
       -1    1    3    3    0  502  0.52849532483E+03 -0.13460795208E+04  0.50876075592E+03  0.15329953983E+04  0.50400001928E-02 0. -1.
</event>
<event>
 5   0  0.1686284E-07  0.3728370E+04  0.7818609E-02  0.8061704E-01
        2   -1    0    0  501    0  0.00000000000E+00  0.00000000000E+00  0.21603688223E+04  0.21603688223E+04  0.25500000920E-02 0. -1.
       -2   -1    0    0    0  501  0.00000000000E+00  0.00000000000E+00 -0.16086072241E+04  0.16086072241E+04  0.25500000920E-02 0.  1.
    10030    2    1    2    0    0  0.00000000000E+00  0.00000000000E+00  0.55176159819E+03  0.37689760464E+04  0.37283695602E+04 0.  0.
        5    1    3    3  502    0 -0.50297405728E+03  0.12201828302E+04  0.16067810962E+04  0.20793260020E+04  0.46999998093E+01 0. -1.
       -5    1    3    3    0  502  0.50297405728E+03 -0.12201828302E+04 -0.10550194980E+04  0.16896500444E+04  0.46999998093E+01 0.  1.
</event>
<event>
 5   0  0.5181371E-08  0.3760876E+04  0.7818609E-02  0.8054603E-01
       -1   -1    0    0    0  501  0.00000000000E+00  0.00000000000E+00  0.15381372737E+04  0.15381372737E+04  0.50400001928E-02 0.  1.
        1   -1    0    0  501    0  0.00000000000E+00  0.00000000000E+00 -0.22989154865E+04  0.22989154865E+04  0.50400001928E-02 0. -1.
    10030    2    1    2    0    0  0.00000000000E+00  0.00000000000E+00 -0.76077821285E+03  0.38370527602E+04  0.37608762802E+04 0.  0.
        5    1    3    3  502    0 -0.13164754108E+04 -0.43622704342E+03 -0.16760020532E+04  0.21754095047E+04  0.46999998093E+01 0.  1.
       -5    1    3    3    0  502  0.13164754108E+04  0.43622704342E+03  0.91522384035E+03  0.16616432555E+04  0.46999998093E+01 0. -1.
</event>
<event>
 5   0  0.1587026E-07  0.3696125E+04  0.7818609E-02  0.8068821E-01
        2   -1    0    0  501    0  0.00000000000E+00  0.00000000000E+00  0.18032859870E+04  0.18032859870E+04  0.25500000920E-02 0. -1.
       -2   -1    0    0    0  501  0.00000000000E+00  0.00000000000E+00 -0.18939508962E+04  0.18939508962E+04  0.25500000920E-02 0.  1.
    10030    2    1    2    0    0  0.00000000000E+00  0.00000000000E+00 -0.90664909190E+02  0.36972368833E+04  0.36961250581E+04 0.  0.
        3    1    3    3  502    0 -0.35277610222E+03  0.29540776309E+03 -0.18357363242E+04  0.18925233386E+04  0.10100000352E+00 0.  1.
       -3    1    3    3    0  502  0.35277610222E+03 -0.29540776309E+03  0.17450714150E+04  0.18047135447E+04  0.10100000352E+00 0. -1.
</event>
<event>
 5   0  0.1558258E-07  0.3704655E+04  0.7818609E-02  0.8066931E-01
        2   -1    0    0  501    0  0.00000000000E+00  0.00000000000E+00  0.32301427023E+04  0.32301427023E+04  0.25500000920E-02 0. -1.
       -2   -1    0    0    0  501  0.00000000000E+00  0.00000000000E+00 -0.10622183116E+04  0.10622183116E+04  0.25500000920E-02 0.  1.
    10030    2    1    2    0    0  0.00000000000E+00  0.00000000000E+00  0.21679243907E+04  0.42923610139E+04  0.37046547626E+04 0.  0.
        1    1    3    3  502    0 -0.10666292943E+04 -0.13396822556E+04  0.19021540978E+04  0.25594211864E+04  0.50400001928E-02 0. -1.
       -1    1    3    3    0  502  0.10666292943E+04  0.13396822556E+04  0.26577029292E+03  0.17329398275E+04  0.50400001928E-02 0.  1.
</event>
<event>
 5   0  0.5177000E-08  0.3676621E+04  0.7818609E-02  0.8073163E-01
        1   -1    0    0  501    0  0.00000000000E+00  0.00000000000E+00  0.21767468202E+04  0.21767468202E+04  0.50400001928E-02 0. -1.
       -1   -1    0    0    0  501  0.00000000000E+00  0.00000000000E+00 -0.15524933605E+04  0.15524933605E+04  0.50400001928E-02 0.  1.
    10030    2    1    2    0    0  0.00000000000E+00  0.00000000000E+00  0.62425345974E+03  0.37292401807E+04  0.36766207234E+04 0.  0.
        2    1    3    3  502    0  0.97497098888E+03 -0.13363296569E+04  0.11255009159E+04  0.20007742733E+04  0.25500000920E-02 0. -1.
       -2    1    3    3    0  502 -0.97497098888E+03  0.13363296569E+04 -0.50124745615E+03  0.17284659075E+04  0.25500000920E-02 0.  1.
</event>
<event>
 5   0  0.5177000E-08  0.3557135E+04  0.7818609E-02  0.8100382E-01
        1   -1    0    0  501    0  0.00000000000E+00  0.00000000000E+00  0.17600826808E+04  0.17600826808E+04  0.50400001928E-02 0.  1.
       -1   -1    0    0    0  501  0.00000000000E+00  0.00000000000E+00 -0.17972466405E+04  0.17972466405E+04  0.50400001928E-02 0. -1.
    10030    2    1    2    0    0  0.00000000000E+00  0.00000000000E+00 -0.37163959686E+02  0.35573293214E+04  0.35571351873E+04 0.  0.
        2    1    3    3  502    0  0.16104899839E+02  0.14564035722E+04 -0.10393883691E+04  0.17893291801E+04  0.25500000920E-02 0. -1.
       -2    1    3    3    0  502 -0.16104899839E+02 -0.14564035722E+04  0.10022244094E+04  0.17680001413E+04  0.25500000920E-02 0.  1.
</event>
<event>
 5   0  0.1587026E-07  0.3687210E+04  0.7818609E-02  0.8070802E-01
       -2   -1    0    0    0  501  0.00000000000E+00  0.00000000000E+00  0.15371362931E+04  0.15371362931E+04  0.25500000920E-02 0. -1.
        2   -1    0    0  501    0  0.00000000000E+00  0.00000000000E+00 -0.22111763570E+04  0.22111763570E+04  0.25500000920E-02 0.  1.
    10030    2    1    2    0    0  0.00000000000E+00  0.00000000000E+00 -0.67404006397E+03  0.37483126501E+04  0.36872100178E+04 0.  0.
        3    1    3    3  502    0  0.15393158953E+03 -0.51863763053E+02 -0.22038878417E+04  0.22098657003E+04  0.10100000352E+00 0.  1.
       -3    1    3    3    0  502 -0.15393158953E+03  0.51863763053E+02  0.15298477777E+04  0.15384469498E+04  0.10100000352E+00 0. -1.
</event>
<event>
 5   0  0.1587026E-07  0.3712533E+04  0.7818609E-02  0.8065190E-01
        2   -1    0    0  501    0  0.00000000000E+00  0.00000000000E+00  0.16739537668E+04  0.16739537668E+04  0.25500000920E-02 0.  1.
       -2   -1    0    0    0  501  0.00000000000E+00  0.00000000000E+00 -0.20584355138E+04  0.20584355138E+04  0.25500000920E-02 0. -1.
    10030    2    1    2    0    0  0.00000000000E+00  0.00000000000E+00 -0.38448174704E+03  0.37323892806E+04  0.37125333033E+04 0.  0.
        3    1    3    3  502    0  0.18936912553E+03 -0.25509638547E+03 -0.20308993611E+04  0.20555989533E+04  0.10100000352E+00 0. -1.
       -3    1    3    3    0  502 -0.18936912553E+03  0.25509638547E+03  0.16464176141E+04  0.16767903273E+04  0.10100000352E+00 0.  1.
</event>
<event>
 5   0  0.5177000E-08  0.3687547E+04  0.7818609E-02  0.8070727E-01
       -1   -1    0    0    0  501  0.00000000000E+00  0.00000000000E+00  0.34749025177E+04  0.34749025177E+04  0.50400001928E-02 0.  1.
        1   -1    0    0  501    0  0.00000000000E+00  0.00000000000E+00 -0.97830085107E+03  0.97830085108E+03  0.50400001928E-02 0. -1.
    10030    2    1    2    0    0  0.00000000000E+00  0.00000000000E+00  0.24966016666E+04  0.44532033687E+04  0.36875466589E+04 0.  0.
        4    1    3    3  502    0  0.14452153575E+04 -0.52817785936E+02 -0.13287527756E+03  0.14522722198E+04  0.12699999809E+01 0. -1.
       -4    1    3    3    0  502 -0.14452153575E+04  0.52817785936E+02  0.26294769441E+04  0.30009311489E+04  0.12699999809E+01 0.  1.
</event>
<event>
 5   0  0.5177000E-08  0.3694699E+04  0.7818609E-02  0.8069138E-01
        1   -1    0    0  501    0  0.00000000000E+00  0.00000000000E+00  0.23556483459E+04  0.23556483460E+04  0.50400001928E-02 0.  1.
       -1   -1    0    0    0  501  0.00000000000E+00  0.00000000000E+00 -0.14487305897E+04  0.14487305897E+04  0.50400001928E-02 0. -1.
    10030    2    1    2    0    0  0.00000000000E+00  0.00000000000E+00  0.90691775621E+03  0.38043789357E+04  0.36946988064E+04 0.  0.
        4    1    3    3  502    0  0.15875584657E+04 -0.93348907175E+03  0.30440505276E+03  0.18666568453E+04  0.12699999809E+01 0.  1.
       -4    1    3    3    0  502 -0.15875584657E+04  0.93348907175E+03  0.60251270346E+03  0.19377220904E+04  0.12699999809E+01 0. -1.
</event>
<event>
 5   0  0.5177000E-08  0.3706394E+04  0.7818609E-02  0.8066546E-01
        1   -1    0    0  501    0  0.00000000000E+00  0.00000000000E+00  0.20501717181E+04  0.20501717181E+04  0.50400001928E-02 0. -1.
       -1   -1    0    0    0  501  0.00000000000E+00  0.00000000000E+00 -0.16751473363E+04  0.16751473363E+04  0.50400001928E-02 0.  1.
    10030    2    1    2    0    0  0.00000000000E+00  0.00000000000E+00  0.37502438186E+03  0.37253190544E+04  0.37063943085E+04 0.  0.
        1    1    3    3  502    0  0.72951051878E+02  0.15380522254E+03 -0.16672724153E+04  0.16759400972E+04  0.50400001928E-02 0.  1.
       -1    1    3    3    0  502 -0.72951051878E+02 -0.15380522254E+03  0.20422967972E+04  0.20493789572E+04  0.50400001928E-02 0. -1.
</event>
<event>
 5   0  0.5177000E-08  0.3695619E+04  0.7818609E-02  0.8068933E-01
       -1   -1    0    0    0  501  0.00000000000E+00  0.00000000000E+00  0.19334251141E+04  0.19334251141E+04  0.50400001928E-02 0.  1.
        1   -1    0    0  501    0  0.00000000000E+00  0.00000000000E+00 -0.17659847885E+04  0.17659847885E+04  0.50400001928E-02 0. -1.
    10030    2    1    2    0    0  0.00000000000E+00  0.00000000000E+00  0.16744032567E+03  0.36994099026E+04  0.36956186715E+04 0.  0.
        1    1    3    3  502    0  0.97175756692E+03  0.14692063182E+04  0.64243194253E+03  0.18749930066E+04  0.50400001928E-02 0.  1.
       -1    1    3    3    0  502 -0.97175756692E+03 -0.14692063182E+04 -0.47499161685E+03  0.18244168960E+04  0.50400001928E-02 0. -1.
</event>
<event>
 5   0  0.5177000E-08  0.3697081E+04  0.7818609E-02  0.8068609E-01
       -1   -1    0    0    0  501  0.00000000000E+00  0.00000000000E+00  0.10784824263E+04  0.10784824263E+04  0.50400001928E-02 0. -1.
        1   -1    0    0  501    0  0.00000000000E+00  0.00000000000E+00 -0.31684357567E+04  0.31684357567E+04  0.50400001928E-02 0.  1.
    10030    2    1    2    0    0  0.00000000000E+00  0.00000000000E+00 -0.20899533304E+04  0.42469181830E+04  0.36970811636E+04 0.  0.
        2    1    3    3  502    0 -0.14176691181E+04 -0.82612043918E+03 -0.20229712653E+04  0.26047405722E+04  0.25500000920E-02 0.  1.
       -2    1    3    3    0  502  0.14176691181E+04  0.82612043918E+03 -0.66982065095E+02  0.16421776108E+04  0.25500000920E-02 0. -1.
</event>
<event>
 5   0  0.5181371E-08  0.3701133E+04  0.7818609E-02  0.8067711E-01
       -1   -1    0    0    0  501  0.00000000000E+00  0.00000000000E+00  0.31126092856E+04  0.31126092856E+04  0.50400001928E-02 0. -1.
        1   -1    0    0  501    0  0.00000000000E+00  0.00000000000E+00 -0.11002334105E+04  0.11002334105E+04  0.50400001928E-02 0.  1.
    10030    2    1    2    0    0  0.00000000000E+00  0.00000000000E+00  0.20123758751E+04  0.42128426961E+04  0.37011331939E+04 0.  0.
        5    1    3    3  502    0 -0.20909903012E+03  0.11546977637E+04  0.26349407108E+04  0.28844382416E+04  0.46999998093E+01 0. -1.
       -5    1    3    3    0  502  0.20909903012E+03 -0.11546977637E+04 -0.62256483575E+03  0.13284044545E+04  0.46999998093E+01 0.  1.
</event>
<event>
 5   0  0.5177000E-08  0.3694880E+04  0.7818609E-02  0.8069097E-01
       -1   -1    0    0    0  501  0.00000000000E+00  0.00000000000E+00  0.18370384764E+04  0.18370384764E+04  0.50400001928E-02 0.  1.
        1   -1    0    0  501    0  0.00000000000E+00  0.00000000000E+00 -0.18579005497E+04  0.18579005497E+04  0.50400001928E-02 0. -1.
    10030    2    1    2    0    0  0.00000000000E+00  0.00000000000E+00 -0.20862073290E+02  0.36949390260E+04  0.36948801307E+04 0.  0.
        2    1    3    3  502    0  0.90640870423E+03 -0.70074868007E+03 -0.14597330423E+04  0.18556524477E+04  0.25500000920E-02 0. -1.
       -2    1    3    3    0  502 -0.90640870423E+03  0.70074868007E+03  0.14388709690E+04  0.18392865784E+04  0.25500000920E-02 0.  1.
</event>
<event>
 5   0  0.1558258E-07  0.3701460E+04  0.7818609E-02  0.8067638E-01
        2   -1    0    0  501    0  0.00000000000E+00  0.00000000000E+00  0.16809408568E+04  0.16809408568E+04  0.25500000920E-02 0. -1.
       -2   -1    0    0    0  501  0.00000000000E+00  0.00000000000E+00 -0.20376693158E+04  0.20376693158E+04  0.25500000920E-02 0.  1.
    10030    2    1    2    0    0  0.00000000000E+00  0.00000000000E+00 -0.35672845901E+03  0.37186101726E+04  0.37014600392E+04 0.  0.
        1    1    3    3  502    0 -0.25715716298E+03  0.15625261134E+04  0.78398009793E+03  0.17669868295E+04  0.50400001928E-02 0. -1.
       -1    1    3    3    0  502  0.25715716298E+03 -0.15625261134E+04 -0.11407085569E+04  0.19516233431E+04  0.50400001928E-02 0.  1.
</event>
<event>
 5   0  0.1558258E-07  0.3694106E+04  0.7818609E-02  0.8069269E-01
       -2   -1    0    0    0  501  0.00000000000E+00  0.00000000000E+00  0.25586067766E+04  0.25586067766E+04  0.25500000920E-02 0.  1.
        2   -1    0    0  501    0  0.00000000000E+00  0.00000000000E+00 -0.13333836423E+04  0.13333836423E+04  0.25500000920E-02 0. -1.
    10030    2    1    2    0    0  0.00000000000E+00  0.00000000000E+00  0.12252231342E+04  0.38919904189E+04  0.36941058041E+04 0.  0.
        1    1    3    3  502    0  0.29193352447E+03 -0.18238247686E+04  0.61947625577E+03  0.19481562567E+04  0.50400001928E-02 0.  1.
       -1    1    3    3    0  502 -0.29193352447E+03  0.18238247686E+04  0.60574687846E+03  0.19438341621E+04  0.50400001928E-02 0. -1.
</event>
<event>
 5   0  0.1658770E-07  0.3690432E+04  0.7818609E-02  0.8070085E-01
       -2   -1    0    0    0  501  0.00000000000E+00  0.00000000000E+00  0.17343652351E+04  0.17343652351E+04  0.25500000920E-02 0. -1.
        2   -1    0    0  501    0  0.00000000000E+00  0.00000000000E+00 -0.19631519188E+04  0.19631519188E+04  0.25500000920E-02 0.  1.
    10030    2    1    2    0    0  0.00000000000E+00  0.00000000000E+00 -0.22878668365E+03  0.36975171539E+04  0.36904321911E+04 0.  0.
        2    1    3    3  502    0 -0.46303219080E+03 -0.17324253336E+04 -0.55011454379E+03  0.18757191574E+04  0.25500000920E-02 0. -1.
       -2    1    3    3    0  502  0.46303219080E+03  0.17324253336E+04  0.32132786014E+03  0.18217979965E+04  0.25500000920E-02 0.  1.
</event>
<event>
 5   0  0.5177000E-08  0.3693986E+04  0.7818609E-02  0.8069296E-01
       -1   -1    0    0    0  501  0.00000000000E+00  0.00000000000E+00  0.12766159804E+04  0.12766159804E+04  0.50400001928E-02 0. -1.
        1   -1    0    0  501    0  0.00000000000E+00  0.00000000000E+00 -0.26722081443E+04  0.26722081443E+04  0.50400001928E-02 0.  1.
    10030    2    1    2    0    0  0.00000000000E+00  0.00000000000E+00 -0.13955921639E+04  0.39488241247E+04  0.36939862588E+04 0.  0.
        4    1    3    3  502    0 -0.10260630660E+04 -0.13432474648E+04 -0.14936445728E+04  0.22556805824E+04  0.12699999809E+01 0.  1.
       -4    1    3    3    0  502  0.10260630660E+04  0.13432474648E+04  0.98052408940E+02  0.16931435423E+04  0.12699999809E+01 0. -1.
</event>
<event>
 5   0  0.5177000E-08  0.3715141E+04  0.7818609E-02  0.8064615E-01
        1   -1    0    0  501    0  0.00000000000E+00  0.00000000000E+00  0.17729629242E+04  0.17729629242E+04  0.50400001928E-02 0.  1.
       -1   -1    0    0    0  501  0.00000000000E+00  0.00000000000E+00 -0.19462157305E+04  0.19462157305E+04  0.50400001928E-02 0. -1.
    10030    2    1    2    0    0  0.00000000000E+00  0.00000000000E+00 -0.17325280631E+03  0.37191786547E+04  0.37151410916E+04 0.  0.
        4    1    3    3  502    0  0.93229968219E+03  0.16066679828E+04 -0.85205237341E+02  0.18595231243E+04  0.12699999809E+01 0.  1.
       -4    1    3    3    0  502 -0.93229968219E+03 -0.16066679828E+04 -0.88047568966E+02  0.18596555304E+04  0.12699999809E+01 0. -1.
</event>
<event>
 5   0  0.5177000E-08  0.3702825E+04  0.7818609E-02  0.8067336E-01
       -1   -1    0    0    0  501  0.00000000000E+00  0.00000000000E+00  0.26535492758E+04  0.26535492758E+04  0.50400001928E-02 0. -1.
        1   -1    0    0  501    0  0.00000000000E+00  0.00000000000E+00 -0.12917519453E+04  0.12917519453E+04  0.50400001928E-02 0.  1.
    10030    2    1    2    0    0  0.00000000000E+00  0.00000000000E+00  0.13617973305E+04  0.39453012212E+04  0.37028245646E+04 0.  0.
        1    1    3    3  502    0 -0.69764153961E+03 -0.15657877814E+04 -0.64432004732E+02  0.17153852562E+04  0.50400001928E-02 0.  1.
       -1    1    3    3    0  502  0.69764153961E+03  0.15657877814E+04  0.14262293352E+04  0.22299159649E+04  0.50400001928E-02 0. -1.
</event>
<event>
 5   0  0.5177000E-08  0.3694909E+04  0.7818609E-02  0.8069091E-01
       -1   -1    0    0    0  501  0.00000000000E+00  0.00000000000E+00  0.23128243562E+04  0.23128243562E+04  0.50400001928E-02 0.  1.
        1   -1    0    0  501    0  0.00000000000E+00  0.00000000000E+00 -0.14757232488E+04  0.14757232488E+04  0.50400001928E-02 0. -1.
    10030    2    1    2    0    0  0.00000000000E+00  0.00000000000E+00  0.83710110735E+03  0.37885476050E+04  0.36949092941E+04 0.  0.
        2    1    3    3  502    0  0.14106421344E+04  0.11348868830E+03  0.16362058868E+04  0.21633216631E+04  0.25500000920E-02 0.  1.
       -2    1    3    3    0  502 -0.14106421344E+04 -0.11348868830E+03 -0.79910477948E+03  0.16252259419E+04  0.25500000920E-02 0. -1.
</event>
<event>
 5   0  0.5177000E-08  0.3704545E+04  0.7818609E-02  0.8066955E-01
        1   -1    0    0  501    0  0.00000000000E+00  0.00000000000E+00  0.17778401373E+04  0.17778401374E+04  0.50400001928E-02 0. -1.
       -1   -1    0    0    0  501  0.00000000000E+00  0.00000000000E+00 -0.19298215539E+04  0.19298215539E+04  0.50400001928E-02 0.  1.
    10030    2    1    2    0    0  0.00000000000E+00  0.00000000000E+00 -0.15198141651E+03  0.37076616912E+04  0.37045454330E+04 0.  0.
        2    1    3    3  502    0  0.37324046006E+02 -0.36519866403E+03  0.17410670330E+04  0.17793475102E+04  0.25500000920E-02 0. -1.
       -2    1    3    3    0  502 -0.37324046006E+02  0.36519866403E+03 -0.18930484495E+04  0.19283141810E+04  0.25500000920E-02 0.  1.
</event>
<event>
 5   0  0.1587026E-07  0.3686925E+04  0.7818609E-02  0.8070866E-01
        2   -1    0    0  501    0  0.00000000000E+00  0.00000000000E+00  0.29486646530E+04  0.29486646530E+04  0.25500000920E-02 0.  1.
       -2   -1    0    0    0  501  0.00000000000E+00  0.00000000000E+00 -0.11525059430E+04  0.11525059430E+04  0.25500000920E-02 0. -1.
    10030    2    1    2    0    0  0.00000000000E+00  0.00000000000E+00  0.17961587100E+04  0.41011705961E+04  0.36869247547E+04 0.  0.
        3    1    3    3  502    0 -0.63726635165E+03  0.94228971112E+03  0.25116984445E+04  0.27572898631E+04  0.10100000352E+00 0.  1.
       -3    1    3    3    0  502  0.63726635165E+03 -0.94228971112E+03 -0.71553973453E+03  0.13438807330E+04  0.10100000352E+00 0. -1.
</event>
<event>
 5   0  0.1558258E-07  0.3693335E+04  0.7818609E-02  0.8069441E-01
        2   -1    0    0  501    0  0.00000000000E+00  0.00000000000E+00  0.16843258511E+04  0.16843258511E+04  0.25500000920E-02 0. -1.
       -2   -1    0    0    0  501  0.00000000000E+00  0.00000000000E+00 -0.20246558087E+04  0.20246558087E+04  0.25500000920E-02 0.  1.
    10030    2    1    2    0    0  0.00000000000E+00  0.00000000000E+00 -0.34032995758E+03  0.37089816598E+04  0.36933346007E+04 0.  0.
        1    1    3    3  502    0  0.93143662460E+03 -0.15326012584E+04  0.27185806542E+03  0.18139315342E+04  0.50400001928E-02 0.  1.
       -1    1    3    3    0  502 -0.93143662460E+03  0.15326012584E+04 -0.61218802300E+03  0.18950501256E+04  0.50400001928E-02 0. -1.
</event>
<event>
 5   0  0.1587026E-07  0.3557606E+04  0.7818609E-02  0.8100272E-01
        2   -1    0    0  501    0  0.00000000000E+00  0.00000000000E+00  0.23350328908E+04  0.23350328908E+04  0.25500000920E-02 0. -1.
       -2   -1    0    0    0  501  0.00000000000E+00  0.00000000000E+00 -0.13550732704E+04  0.13550732704E+04  0.25500000920E-02 0.  1.
    10030    2    1    2    0    0  0.00000000000E+00  0.00000000000E+00  0.97995962041E+03  0.36901061612E+04  0.35576063053E+04 0.  0.
        3    1    3    3  502    0  0.16387715973E+03  0.17430669967E+04  0.16361467031E+03  0.17583822249E+04  0.10100000352E+00 0.  1.
       -3    1    3    3    0  502 -0.16387715973E+03 -0.17430669967E+04  0.81634495010E+03  0.19317239363E+04  0.10100000352E+00 0. -1.
</event>
<event>
 5   0  0.5177000E-08  0.3689067E+04  0.7818609E-02  0.8070389E-01
        1   -1    0    0  501    0  0.00000000000E+00  0.00000000000E+00  0.22493838375E+04  0.22493838375E+04  0.50400001928E-02 0. -1.
       -1   -1    0    0    0  501  0.00000000000E+00  0.00000000000E+00 -0.15125492677E+04  0.15125492678E+04  0.50400001928E-02 0.  1.
    10030    2    1    2    0    0  0.00000000000E+00  0.00000000000E+00  0.73683456975E+03  0.37619331053E+04  0.36890670237E+04 0.  0.
        1    1    3    3  502    0  0.80578362691E+03 -0.28530518050E+03 -0.12983757196E+04  0.15544985714E+04  0.50400001928E-02 0.  1.
       -1    1    3    3    0  502 -0.80578362691E+03  0.28530518050E+03  0.20352102893E+04  0.22074345338E+04  0.50400001928E-02 0. -1.
</event>
<event>
 5   0  0.1658770E-07  0.3782644E+04  0.7818609E-02  0.8049890E-01
        2   -1    0    0  501    0  0.00000000000E+00  0.00000000000E+00  0.13028560471E+04  0.13028560471E+04  0.25500000920E-02 0. -1.
       -2   -1    0    0    0  501  0.00000000000E+00  0.00000000000E+00 -0.27455822720E+04  0.27455822720E+04  0.25500000920E-02 0.  1.
    10030    2    1    2    0    0  0.00000000000E+00  0.00000000000E+00 -0.14427262249E+04  0.40484383190E+04  0.37826437664E+04 0.  0.
        2    1    3    3  502    0 -0.14333754968E+04 -0.11697071405E+04 -0.30092616129E+03  0.18743896778E+04  0.25500000920E-02 0. -1.
       -2    1    3    3    0  502  0.14333754968E+04  0.11697071405E+04 -0.11418000636E+04  0.21740486413E+04  0.25500000920E-02 0.  1.
</event>
<event>
 5   0  0.1658770E-07  0.3695137E+04  0.7818609E-02  0.8069040E-01
       -2   -1    0    0    0  501  0.00000000000E+00  0.00000000000E+00  0.22303399340E+04  0.22303399340E+04  0.25500000920E-02 0. -1.
        2   -1    0    0  501    0  0.00000000000E+00  0.00000000000E+00 -0.15304879911E+04  0.15304879911E+04  0.25500000920E-02 0.  1.
    10030    2    1    2    0    0  0.00000000000E+00  0.00000000000E+00  0.69985194288E+03  0.37608279252E+04  0.36951365253E+04 0.  0.
        2    1    3    3  502    0  0.13012991833E+04 -0.35730517293E+02  0.16842836143E+04  0.21287243898E+04  0.25500000920E-02 0. -1.
       -2    1    3    3    0  502 -0.13012991833E+04  0.35730517293E+02 -0.98443167141E+03  0.16321035354E+04  0.25500000920E-02 0.  1.
</event>
<event>
 5   0  0.5177000E-08  0.3697954E+04  0.7818609E-02  0.8068415E-01
       -1   -1    0    0    0  501  0.00000000000E+00  0.00000000000E+00  0.17594411894E+04  0.17594411894E+04  0.50400001928E-02 0. -1.
        1   -1    0    0  501    0  0.00000000000E+00  0.00000000000E+00 -0.19430694755E+04  0.19430694755E+04  0.50400001928E-02 0.  1.
    10030    2    1    2    0    0  0.00000000000E+00  0.00000000000E+00 -0.18362828609E+03  0.37025106649E+04  0.36979542826E+04 0.  0.
        1    1    3    3  502    0  0.70080020528E+03 -0.17028215198E+04  0.75707322376E+02  0.18429470027E+04  0.50400001928E-02 0.  1.
       -1    1    3    3    0  502 -0.70080020528E+03  0.17028215198E+04 -0.25933560846E+03  0.18595636622E+04  0.50400001928E-02 0. -1.
</event>
<event>
 5   0  0.5177000E-08  0.3738968E+04  0.7818609E-02  0.8059380E-01
       -1   -1    0    0    0  501  0.00000000000E+00  0.00000000000E+00  0.17782981040E+04  0.17782981040E+04  0.50400001928E-02 0. -1.
        1   -1    0    0  501    0  0.00000000000E+00  0.00000000000E+00 -0.19653457631E+04  0.19653457631E+04  0.50400001928E-02 0.  1.
    10030    2    1    2    0    0  0.00000000000E+00  0.00000000000E+00 -0.18704765907E+03  0.37436438671E+04  0.37389681166E+04 0.  0.
        4    1    3    3  502    0  0.63885839432E+03  0.16297821702E+04 -0.75057542722E+03  0.19046509011E+04  0.12699999809E+01 0.  1.
       -4    1    3    3    0  502 -0.63885839432E+03 -0.16297821702E+04  0.56352776814E+03  0.18389929659E+04  0.12699999809E+01 0. -1.
</event>
<event>
 5   0  0.5181371E-08  0.3673944E+04  0.7818609E-02  0.8073761E-01
       -1   -1    0    0    0  501  0.00000000000E+00  0.00000000000E+00  0.23938523092E+04  0.23938523092E+04  0.50400001928E-02 0. -1.
        1   -1    0    0  501    0  0.00000000000E+00  0.00000000000E+00 -0.14096387299E+04  0.14096387299E+04  0.50400001928E-02 0.  1.
    10030    2    1    2    0    0  0.00000000000E+00  0.00000000000E+00  0.98421357931E+03  0.38034910392E+04  0.36739444355E+04 0.  0.
        5    1    3    3  502    0 -0.51229911389E+03  0.13316406471E+04  0.16899388400E+04  0.22117035444E+04  0.46999998093E+01 0. -1.
       -5    1    3    3    0  502  0.51229911389E+03 -0.13316406471E+04 -0.70572526073E+03  0.15917874948E+04  0.46999998093E+01 0.  1.
</event>
<event>
 5   0  0.1666189E-07  0.3709371E+04  0.7818609E-02  0.8065888E-01
       -2   -1    0    0    0  501  0.00000000000E+00  0.00000000000E+00  0.18670089711E+04  0.18670089711E+04  0.25500000920E-02 0. -1.
        2   -1    0    0  501    0  0.00000000000E+00  0.00000000000E+00 -0.18424433778E+04  0.18424433778E+04  0.25500000920E-02 0.  1.
    10030    2    1    2    0    0  0.00000000000E+00  0.00000000000E+00  0.24565593347E+02  0.37094523489E+04  0.37093710060E+04 0.  0.
        4    1    3    3  502    0  0.13501080346E+04 -0.12061958155E+04  0.41497841830E+03  0.18573929985E+04  0.12699999809E+01 0. -1.
       -4    1    3    3    0  502 -0.13501080346E+04  0.12061958155E+04 -0.39041282495E+03  0.18520593504E+04  0.12699999809E+01 0.  1.
</event>
<event>
 5   0  0.5181371E-08  0.3699439E+04  0.7818609E-02  0.8068086E-01
        1   -1    0    0  501    0  0.00000000000E+00  0.00000000000E+00  0.20444463877E+04  0.20444463877E+04  0.50400001928E-02 0. -1.
       -1   -1    0    0    0  501  0.00000000000E+00  0.00000000000E+00 -0.16735394685E+04  0.16735394685E+04  0.50400001928E-02 0.  1.
    10030    2    1    2    0    0  0.00000000000E+00  0.00000000000E+00  0.37090691921E+03  0.37179858563E+04  0.36994387256E+04 0.  0.
        5    1    3    3  502    0  0.16875847325E+04 -0.69892657332E+03 -0.10755416567E+03  0.18297624362E+04  0.46999998093E+01 0. -1.
       -5    1    3    3    0  502 -0.16875847325E+04  0.69892657332E+03  0.47846108488E+03  0.18882234201E+04  0.46999998093E+01 0.  1.
</event>
<event>
 5   0  0.1558258E-07  0.3698946E+04  0.7818609E-02  0.8068195E-01
        2   -1    0    0  501    0  0.00000000000E+00  0.00000000000E+00  0.14191338787E+04  0.14191338787E+04  0.25500000920E-02 0. -1.
       -2   -1    0    0    0  501  0.00000000000E+00  0.00000000000E+00 -0.24103085539E+04  0.24103085539E+04  0.25500000920E-02 0.  1.
    10030    2    1    2    0    0  0.00000000000E+00  0.00000000000E+00 -0.99117467523E+03  0.38294424326E+04  0.36989460807E+04 0.  0.
        1    1    3    3  502    0  0.97407668814E+03 -0.11280307988E+04  0.63816012512E+03  0.16212733338E+04  0.50400001928E-02 0. -1.
       -1    1    3    3    0  502 -0.97407668814E+03  0.11280307988E+04 -0.16293348003E+04  0.22081690989E+04  0.50400001928E-02 0.  1.
</event>
<event>
 5   0  0.5181371E-08  0.3701700E+04  0.7818609E-02  0.8067585E-01
       -1   -1    0    0    0  501  0.00000000000E+00  0.00000000000E+00  0.12976086453E+04  0.12976086453E+04  0.50400001928E-02 0. -1.
        1   -1    0    0  501    0  0.00000000000E+00  0.00000000000E+00 -0.26399678360E+04  0.26399678360E+04  0.50400001928E-02 0.  1.
    10030    2    1    2    0    0  0.00000000000E+00  0.00000000000E+00 -0.13423591907E+04  0.39375764813E+04  0.37016996568E+04 0.  0.
        5    1    3    3  502    0  0.16272057443E+04 -0.87847795707E+03 -0.75426529205E+03  0.19971129853E+04  0.46999998093E+01 0.  1.
       -5    1    3    3    0  502 -0.16272057443E+04  0.87847795707E+03 -0.58809389870E+03  0.19404634959E+04  0.46999998093E+01 0. -1.
</event>
<event>
 5   0  0.5177000E-08  0.3689585E+04  0.7818609E-02  0.8070274E-01
       -1   -1    0    0    0  501  0.00000000000E+00  0.00000000000E+00  0.17971809349E+04  0.17971809349E+04  0.50400001928E-02 0.  1.
        1   -1    0    0  501    0  0.00000000000E+00  0.00000000000E+00 -0.18936650028E+04  0.18936650028E+04  0.50400001928E-02 0. -1.
    10030    2    1    2    0    0  0.00000000000E+00  0.00000000000E+00 -0.96484067969E+02  0.36908459377E+04  0.36895846054E+04 0.  0.
        3    1    3    3  502    0  0.27309026739E+03  0.32178831419E+03 -0.18447213966E+04  0.18923855460E+04  0.10100000352E+00 0. -1.
       -3    1    3    3    0  502 -0.27309026739E+03 -0.32178831419E+03  0.17482373286E+04  0.17984603918E+04  0.10100000352E+00 0.  1.
</event>
<event>
 5   0  0.5177000E-08  0.3704056E+04  0.7818609E-02  0.8067064E-01
       -1   -1    0    0    0  501  0.00000000000E+00  0.00000000000E+00  0.13071178394E+04  0.13071178394E+04  0.50400001928E-02 0.  1.
        1   -1    0    0  501    0  0.00000000000E+00  0.00000000000E+00 -0.26240991768E+04  0.26240991768E+04  0.50400001928E-02 0. -1.
    10030    2    1    2    0    0  0.00000000000E+00  0.00000000000E+00 -0.13169813374E+04  0.39312170162E+04  0.37040555322E+04 0.  0.
        3    1    3    3  502    0  0.10127771175E+03  0.80504207064E+03  0.11084390124E+04  0.13736764411E+04  0.10100000352E+00 0.  1.
       -3    1    3    3    0  502 -0.10127771175E+03 -0.80504207064E+03 -0.24254203497E+04  0.25575405752E+04  0.10100000352E+00 0. -1.
</event>
<event>
 5   0  0.5181371E-08  0.3675944E+04  0.7818609E-02  0.8073314E-01
       -1   -1    0    0    0  501  0.00000000000E+00  0.00000000000E+00  0.12838637863E+04  0.12838637863E+04  0.50400001928E-02 0. -1.
        1   -1    0    0  501    0  0.00000000000E+00  0.00000000000E+00 -0.26312301205E+04  0.26312301205E+04  0.50400001928E-02 0.  1.
    10030    2    1    2    0    0  0.00000000000E+00  0.00000000000E+00 -0.13473663342E+04  0.39150939068E+04  0.36759439959E+04 0.  0.
        5    1    3    3  502    0 -0.10016003277E+04 -0.15239679298E+04 -0.42979298438E+03  0.18736129714E+04  0.46999998093E+01 0. -1.
       -5    1    3    3    0  502  0.10016003277E+04  0.15239679298E+04 -0.91757334977E+03  0.20414809354E+04  0.46999998093E+01 0.  1.
</event>
<event>
 5   0  0.1666189E-07  0.3683629E+04  0.7818609E-02  0.8071600E-01
        2   -1    0    0  501    0  0.00000000000E+00  0.00000000000E+00  0.11807332587E+04  0.11807332587E+04  0.25500000920E-02 0.  1.
       -2   -1    0    0    0  501  0.00000000000E+00  0.00000000000E+00 -0.28730283097E+04  0.28730283097E+04  0.25500000920E-02 0. -1.
    10030    2    1    2    0    0  0.00000000000E+00  0.00000000000E+00 -0.16922950510E+04  0.40537615684E+04  0.36836286884E+04 0.  0.
        4    1    3    3  502    0  0.16142682048E+04 -0.81828613019E+03 -0.12222872517E+04  0.21839051643E+04  0.12699999809E+01 0. -1.
       -4    1    3    3    0  502 -0.16142682048E+04  0.81828613019E+03 -0.47000779924E+03  0.18698564041E+04  0.12699999809E+01 0.  1.
</event>
<event>
 5   0  0.1587026E-07  0.3759746E+04  0.7818609E-02  0.8054849E-01
       -2   -1    0    0    0  501  0.00000000000E+00  0.00000000000E+00  0.15762598504E+04  0.15762598504E+04  0.25500000920E-02 0.  1.
        2   -1    0    0  501    0  0.00000000000E+00  0.00000000000E+00 -0.22419673935E+04  0.22419673935E+04  0.25500000920E-02 0. -1.
    10030    2    1    2    0    0  0.00000000000E+00  0.00000000000E+00 -0.66570754314E+03  0.38182272439E+04  0.37597463681E+04 0.  0.
        3    1    3    3  502    0  0.45304549923E+02  0.11084377771E+04  0.12083940598E+04  0.16403972146E+04  0.10100000352E+00 0.  1.
       -3    1    3    3    0  502 -0.45304549923E+02 -0.11084377771E+04 -0.18741016029E+04  0.21778300292E+04  0.10100000352E+00 0. -1.
</event>
<event>
 5   0  0.1658770E-07  0.3746865E+04  0.7818609E-02  0.8057655E-01
       -2   -1    0    0    0  501  0.00000000000E+00  0.00000000000E+00  0.15701584096E+04  0.15701584096E+04  0.25500000920E-02 0. -1.
        2   -1    0    0  501    0  0.00000000000E+00  0.00000000000E+00 -0.22352841599E+04  0.22352841599E+04  0.25500000920E-02 0.  1.
    10030    2    1    2    0    0  0.00000000000E+00  0.00000000000E+00 -0.66512575030E+03  0.38054425695E+04  0.37468654748E+04 0.  0.
        2    1    3    3  502    0  0.18108909435E+04 -0.22023751704E+03 -0.76575133184E+03  0.19784351582E+04  0.25500000920E-02 0.  1.
       -2    1    3    3    0  502 -0.18108909435E+04  0.22023751704E+03  0.10062558154E+03  0.18270074113E+04  0.25500000920E-02 0. -1.
</event>
<event>
 5   0  0.1558258E-07  0.3726251E+04  0.7818609E-02  0.8062169E-01
       -2   -1    0    0    0  501  0.00000000000E+00  0.00000000000E+00  0.14959342998E+04  0.14959342998E+04  0.25500000920E-02 0. -1.
        2   -1    0    0  501    0  0.00000000000E+00  0.00000000000E+00 -0.23204474751E+04  0.23204474751E+04  0.25500000920E-02 0.  1.
    10030    2    1    2    0    0  0.00000000000E+00  0.00000000000E+00 -0.82451317525E+03  0.38163817749E+04  0.37262511826E+04 0.  0.
        1    1    3    3  502    0 -0.16231907126E+04 -0.37287079737E+03  0.44308220811E+03  0.17233985506E+04  0.50400001928E-02 0. -1.
       -1    1    3    3    0  502  0.16231907126E+04  0.37287079737E+03 -0.12675953834E+04  0.20929832243E+04  0.50400001928E-02 0.  1.
</event>
<event>
 5   0  0.1686284E-07  0.3686452E+04  0.7818609E-02  0.8070971E-01
        2   -1    0    0  501    0  0.00000000000E+00  0.00000000000E+00  0.20653431581E+04  0.20653431581E+04  0.25500000920E-02 0. -1.
       -2   -1    0    0    0  501  0.00000000000E+00  0.00000000000E+00 -0.16449965075E+04  0.16449965075E+04  0.25500000920E-02 0.  1.
    10030    2    1    2    0    0  0.00000000000E+00  0.00000000000E+00  0.42034665056E+03  0.37103396656E+04  0.36864521057E+04 0.  0.
        5    1    3    3  502    0  0.85940148437E+03  0.27102549405E+03 -0.14081743935E+04  0.16718262297E+04  0.46999998093E+01 0.  1.
       -5    1    3    3    0  502 -0.85940148437E+03 -0.27102549405E+03  0.18285210441E+04  0.20385134359E+04  0.46999998093E+01 0. -1.
</event>
<event>
 5   0  0.1587026E-07  0.3697947E+04  0.7818609E-02  0.8068417E-01
       -2   -1    0    0    0  501  0.00000000000E+00  0.00000000000E+00  0.17936761281E+04  0.17936761281E+04  0.25500000920E-02 0.  1.
        2   -1    0    0  501    0  0.00000000000E+00  0.00000000000E+00 -0.19059754794E+04  0.19059754794E+04  0.25500000920E-02 0. -1.
    10030    2    1    2    0    0  0.00000000000E+00  0.00000000000E+00 -0.11229935134E+03  0.36996516075E+04  0.36979468455E+04 0.  0.
        3    1    3    3  502    0 -0.30576666645E+02  0.66191019955E+02  0.17922372989E+04  0.17937198023E+04  0.10100000352E+00 0.  1.
       -3    1    3    3    0  502  0.30576666645E+02 -0.66191019955E+02 -0.19045366502E+04  0.19059318051E+04  0.10100000352E+00 0. -1.
</event>
<event>
 5   0  0.5177000E-08  0.3703076E+04  0.7818609E-02  0.8067280E-01
        1   -1    0    0  501    0  0.00000000000E+00  0.00000000000E+00  0.12003702729E+04  0.12003702729E+04  0.50400001928E-02 0.  1.
       -1   -1    0    0    0  501  0.00000000000E+00  0.00000000000E+00 -0.28559465473E+04  0.28559465473E+04  0.50400001928E-02 0. -1.
    10030    2    1    2    0    0  0.00000000000E+00  0.00000000000E+00 -0.16555762744E+04  0.40563168202E+04  0.37030762003E+04 0.  0.
        3    1    3    3  502    0 -0.11736050275E+04  0.25298871677E+03  0.71622434246E+03  0.13979733082E+04  0.10100000352E+00 0.  1.
       -3    1    3    3    0  502  0.11736050275E+04 -0.25298871677E+03 -0.23718006169E+04  0.26583435120E+04  0.10100000352E+00 0. -1.
</event>
<event>
 5   0  0.5177000E-08  0.3577475E+04  0.7818609E-02  0.8095671E-01
        1   -1    0    0  501    0  0.00000000000E+00  0.00000000000E+00  0.17423153033E+04  0.17423153033E+04  0.50400001928E-02 0.  1.
       -1   -1    0    0    0  501  0.00000000000E+00  0.00000000000E+00 -0.18363967399E+04  0.18363967399E+04  0.50400001928E-02 0. -1.
    10030    2    1    2    0    0  0.00000000000E+00  0.00000000000E+00 -0.94081436616E+02  0.35787120433E+04  0.35774751672E+04 0.  0.
        3    1    3    3  502    0  0.42276772978E+02 -0.11738343362E+04 -0.13965467041E+04  0.18248334393E+04  0.10100000352E+00 0. -1.
       -3    1    3    3    0  502 -0.42276772978E+02  0.11738343362E+04  0.13024652675E+04  0.17538786040E+04  0.10100000352E+00 0.  1.
</event>
<event>
 5   0  0.5181371E-08  0.3709728E+04  0.7818609E-02  0.8065809E-01
       -1   -1    0    0    0  501  0.00000000000E+00  0.00000000000E+00  0.21755119592E+04  0.21755119592E+04  0.50400001928E-02 0. -1.
        1   -1    0    0  501    0  0.00000000000E+00  0.00000000000E+00 -0.15814760313E+04  0.15814760313E+04  0.50400001928E-02 0.  1.
    10030    2    1    2    0    0  0.00000000000E+00  0.00000000000E+00  0.59403592782E+03  0.37569879905E+04  0.37097277632E+04 0.  0.
        5    1    3    3  502    0 -0.93048955667E+03 -0.15164137830E+04 -0.23423739226E+03  0.17944945869E+04  0.46999998093E+01 0.  1.
       -5    1    3    3    0  502  0.93048955667E+03  0.15164137830E+04  0.82827332008E+03  0.19624934036E+04  0.46999998093E+01 0. -1.
</event>
<event>
 5   0  0.5177000E-08  0.3702427E+04  0.7818609E-02  0.8067424E-01
       -1   -1    0    0    0  501  0.00000000000E+00  0.00000000000E+00  0.17252347920E+04  0.17252347920E+04  0.50400001928E-02 0.  1.
        1   -1    0    0  501    0  0.00000000000E+00  0.00000000000E+00 -0.19863910221E+04  0.19863910221E+04  0.50400001928E-02 0. -1.
    10030    2    1    2    0    0  0.00000000000E+00  0.00000000000E+00 -0.26115623007E+03  0.37116258141E+04  0.37024267187E+04 0.  0.
        3    1    3    3  502    0 -0.11711694721E+03 -0.14489130709E+03  0.17158126806E+04  0.17258977476E+04  0.10100000352E+00 0.  1.
       -3    1    3    3    0  502  0.11711694721E+03  0.14489130709E+03 -0.19769689106E+04  0.19857280665E+04  0.10100000352E+00 0. -1.
</event>
<event>
 5   0  0.1658770E-07  0.3700377E+04  0.7818609E-02  0.8067878E-01
       -2   -1    0    0    0  501  0.00000000000E+00  0.00000000000E+00  0.11969993543E+04  0.11969993543E+04  0.25500000920E-02 0. -1.
        2   -1    0    0  501    0  0.00000000000E+00  0.00000000000E+00 -0.28598156595E+04  0.28598156595E+04  0.25500000920E-02 0.  1.
    10030    2    1    2    0    0  0.00000000000E+00  0.00000000000E+00 -0.16628163052E+04  0.40568150138E+04  0.37003770067E+04 0.  0.
        2    1    3    3  502    0 -0.13132056133E+03 -0.12513841013E+04 -0.23185314956E+04  0.26379529099E+04  0.25500000920E-02 0.  1.
       -2    1    3    3    0  502  0.13132056133E+03  0.12513841013E+04  0.65571519038E+03  0.14188621039E+04  0.25500000920E-02 0. -1.
</event>
<event>
 5   0  0.1587026E-07  0.3700781E+04  0.7818609E-02  0.8067789E-01
       -2   -1    0    0    0  501  0.00000000000E+00  0.00000000000E+00  0.11430430253E+04  0.11430430253E+04  0.25500000920E-02 0. -1.
        2   -1    0    0  501    0  0.00000000000E+00  0.00000000000E+00 -0.29954653294E+04  0.29954653294E+04  0.25500000920E-02 0.  1.
    10030    2    1    2    0    0  0.00000000000E+00  0.00000000000E+00 -0.18524223040E+04  0.41385083547E+04  0.37007814053E+04 0.  0.
        3    1    3    3  502    0 -0.18280408200E+04  0.26602614060E+03 -0.10458335952E+04  0.21227979334E+04  0.10100000352E+00 0. -1.
       -3    1    3    3    0  502  0.18280408200E+04 -0.26602614060E+03 -0.80658870886E+03  0.20157104213E+04  0.10100000352E+00 0.  1.
</event>
<event>
 5   0  0.5177000E-08  0.3680531E+04  0.7818609E-02  0.8072290E-01
       -1   -1    0    0    0  501  0.00000000000E+00  0.00000000000E+00  0.25688902816E+04  0.25688902816E+04  0.50400001928E-02 0.  1.
        1   -1    0    0  501    0  0.00000000000E+00  0.00000000000E+00 -0.13183032605E+04  0.13183032605E+04  0.50400001928E-02 0. -1.
    10030    2    1    2    0    0  0.00000000000E+00  0.00000000000E+00  0.12505870210E+04  0.38871935421E+04  0.36805306325E+04 0.  0.
        3    1    3    3  502    0  0.12060965904E+03 -0.96476371927E+02 -0.13114460037E+04  0.13205093756E+04  0.10100000352E+00 0. -1.
       -3    1    3    3    0  502 -0.12060965904E+03  0.96476371927E+02  0.25620330248E+04  0.25666841665E+04  0.10100000352E+00 0.  1.
</event>
<event>
 5   0  0.5177000E-08  0.3698805E+04  0.7818609E-02  0.8068227E-01
       -1   -1    0    0    0  501  0.00000000000E+00  0.00000000000E+00  0.15902551399E+04  0.15902551399E+04  0.50400001928E-02 0.  1.
        1   -1    0    0  501    0  0.00000000000E+00  0.00000000000E+00 -0.21507801070E+04  0.21507801070E+04  0.50400001928E-02 0. -1.
    10030    2    1    2    0    0  0.00000000000E+00  0.00000000000E+00 -0.56052496704E+03  0.37410352469E+04  0.36988047367E+04 0.  0.
        2    1    3    3  502    0  0.12038801623E+04 -0.13526462952E+04 -0.66046618755E+03  0.19274841193E+04  0.25500000920E-02 0. -1.
       -2    1    3    3    0  502 -0.12038801623E+04  0.13526462952E+04  0.99941220509E+02  0.18135511277E+04  0.25500000920E-02 0.  1.
</event>
<event>
 5   0  0.1658770E-07  0.3701814E+04  0.7818609E-02  0.8067560E-01
       -2   -1    0    0    0  501  0.00000000000E+00  0.00000000000E+00  0.14207606335E+04  0.14207606335E+04  0.25500000920E-02 0. -1.
        2   -1    0    0  501    0  0.00000000000E+00  0.00000000000E+00 -0.24112832516E+04  0.24112832516E+04  0.25500000920E-02 0.  1.
    10030    2    1    2    0    0  0.00000000000E+00  0.00000000000E+00 -0.99052261810E+03  0.38320438850E+04  0.37018137824E+04 0.  0.
        2    1    3    3  502    0 -0.22575662935E+02 -0.17642962088E+04  0.83519664711E+02  0.17664162327E+04  0.25500000920E-02 0.  1.
       -2    1    3    3    0  502  0.22575662935E+02  0.17642962088E+04 -0.10740422828E+04  0.20656276523E+04  0.25500000920E-02 0. -1.
</event>
<event>
 5   0  0.5177000E-08  0.3700538E+04  0.7818609E-02  0.8067843E-01
        1   -1    0    0  501    0  0.00000000000E+00  0.00000000000E+00  0.22378767592E+04  0.22378767592E+04  0.50400001928E-02 0.  1.
       -1   -1    0    0    0  501  0.00000000000E+00  0.00000000000E+00 -0.15297962544E+04  0.15297962544E+04  0.50400001928E-02 0. -1.
    10030    2    1    2    0    0  0.00000000000E+00  0.00000000000E+00  0.70808050479E+03  0.37676730137E+04  0.37005380604E+04 0.  0.
        4    1    3    3  502    0  0.14913943844E+04  0.38713174170E+03 -0.68892960328E+03  0.16878251706E+04  0.12699999809E+01 0. -1.
       -4    1    3    3    0  502 -0.14913943844E+04 -0.38713174170E+03  0.13970101081E+04  0.20798478431E+04  0.12699999809E+01 0.  1.
</event>
<event>
 5   0  0.1558258E-07  0.3684960E+04  0.7818609E-02  0.8071303E-01
       -2   -1    0    0    0  501  0.00000000000E+00  0.00000000000E+00  0.17586853957E+04  0.17586853957E+04  0.25500000920E-02 0. -1.
        2   -1    0    0  501    0  0.00000000000E+00  0.00000000000E+00 -0.19302668740E+04  0.19302668740E+04  0.25500000920E-02 0.  1.
    10030    2    1    2    0    0  0.00000000000E+00  0.00000000000E+00 -0.17158147829E+03  0.36889522697E+04  0.36849597887E+04 0.  0.
        1    1    3    3  502    0  0.12280081342E+04  0.12438412700E+04  0.49758163791E+03  0.18173421717E+04  0.50400001928E-02 0.  1.
       -1    1    3    3    0  502 -0.12280081342E+04 -0.12438412700E+04 -0.66916311620E+03  0.18716100979E+04  0.50400001928E-02 0. -1.
</event>
<event>
 5   0  0.5177000E-08  0.3723415E+04  0.7818609E-02  0.8062792E-01
       -1   -1    0    0    0  501  0.00000000000E+00  0.00000000000E+00  0.16913355173E+04  0.16913355173E+04  0.50400001928E-02 0. -1.
        1   -1    0    0  501    0  0.00000000000E+00  0.00000000000E+00 -0.20492419450E+04  0.20492419450E+04  0.50400001928E-02 0.  1.
    10030    2    1    2    0    0  0.00000000000E+00  0.00000000000E+00 -0.35790642765E+03  0.37405774623E+04  0.37234154671E+04 0.  0.
        4    1    3    3  502    0  0.12713257688E+04 -0.12378550035E+04  0.38702604283E+03  0.18161346290E+04  0.12699999809E+01 0. -1.
       -4    1    3    3    0  502 -0.12713257688E+04  0.12378550035E+04 -0.74493247048E+03  0.19244428333E+04  0.12699999809E+01 0.  1.
</event>
<event>
 5   0  0.5177000E-08  0.3691902E+04  0.7818609E-02  0.8069759E-01
        1   -1    0    0  501    0  0.00000000000E+00  0.00000000000E+00  0.16185576111E+04  0.16185576111E+04  0.50400001928E-02 0. -1.
       -1   -1    0    0    0  501  0.00000000000E+00  0.00000000000E+00 -0.21052907788E+04  0.21052907788E+04  0.50400001928E-02 0.  1.
    10030    2    1    2    0    0  0.00000000000E+00  0.00000000000E+00 -0.48673316770E+03  0.37238483900E+04  0.36919016313E+04 0.  0.
        3    1    3    3  502    0  0.15856368424E+03  0.63618405318E+03 -0.19838887389E+04  0.20894226786E+04  0.10100000352E+00 0.  1.
       -3    1    3    3    0  502 -0.15856368424E+03 -0.63618405318E+03  0.14971555712E+04  0.16344257114E+04  0.10100000352E+00 0. -1.
</event>
<event>
 5   0  0.5177000E-08  0.3638443E+04  0.7818609E-02  0.8081742E-01
       -1   -1    0    0    0  501  0.00000000000E+00  0.00000000000E+00  0.21919735314E+04  0.21919735314E+04  0.50400001928E-02 0.  1.
        1   -1    0    0  501    0  0.00000000000E+00  0.00000000000E+00 -0.15098572167E+04  0.15098572167E+04  0.50400001928E-02 0. -1.
    10030    2    1    2    0    0  0.00000000000E+00  0.00000000000E+00  0.68211631473E+03  0.37018307481E+04  0.36384431040E+04 0.  0.
        2    1    3    3  502    0  0.13961204118E+04  0.11609251522E+04  0.22654672120E+03  0.18298149715E+04  0.25500000920E-02 0. -1.
       -2    1    3    3    0  502 -0.13961204118E+04 -0.11609251522E+04  0.45556959353E+03  0.18720157766E+04  0.25500000920E-02 0.  1.
</event>
<event>
 5   0  0.1558258E-07  0.3696040E+04  0.7818609E-02  0.8068840E-01
        2   -1    0    0  501    0  0.00000000000E+00  0.00000000000E+00  0.16133153849E+04  0.16133153849E+04  0.25500000920E-02 0.  1.
       -2   -1    0    0    0  501  0.00000000000E+00  0.00000000000E+00 -0.21168688165E+04  0.21168688165E+04  0.25500000920E-02 0. -1.
    10030    2    1    2    0    0  0.00000000000E+00  0.00000000000E+00 -0.50355343166E+03  0.37301842014E+04  0.36960395179E+04 0.  0.
        1    1    3    3  502    0  0.41663369007E+03  0.71890288717E+03 -0.19177144266E+04  0.20899841183E+04  0.50400001928E-02 0. -1.
       -1    1    3    3    0  502 -0.41663369007E+03 -0.71890288717E+03  0.14141609949E+04  0.16402000831E+04  0.50400001928E-02 0.  1.
</event>
<event>
 5   0  0.1686284E-07  0.3712551E+04  0.7818609E-02  0.8065186E-01
       -2   -1    0    0    0  501  0.00000000000E+00  0.00000000000E+00  0.17100598451E+04  0.17100598451E+04  0.25500000920E-02 0.  1.
        2   -1    0    0  501    0  0.00000000000E+00  0.00000000000E+00 -0.20149934102E+04  0.20149934102E+04  0.25500000920E-02 0. -1.
    10030    2    1    2    0    0  0.00000000000E+00  0.00000000000E+00 -0.30493356512E+03  0.37250532553E+04  0.37125513162E+04 0.  0.
        5    1    3    3  502    0  0.13570408607E+04  0.66233988967E+03 -0.12356777034E+04  0.19511984788E+04  0.46999998093E+01 0. -1.
       -5    1    3    3    0  502 -0.13570408607E+04 -0.66233988967E+03  0.93074413830E+03  0.17738547765E+04  0.46999998093E+01 0.  1.
</event>
<event>
 5   0  0.5181371E-08  0.3702123E+04  0.7818609E-02  0.8067492E-01
       -1   -1    0    0    0  501  0.00000000000E+00  0.00000000000E+00  0.22386867918E+04  0.22386867918E+04  0.50400001928E-02 0. -1.
        1   -1    0    0  501    0  0.00000000000E+00  0.00000000000E+00 -0.15305526722E+04  0.15305526722E+04  0.50400001928E-02 0.  1.
    10030    2    1    2    0    0  0.00000000000E+00  0.00000000000E+00  0.70813411962E+03  0.37692394639E+04  0.37021226621E+04 0.  0.
        5    1    3    3  502    0  0.16560482384E+04  0.62784966608E+03  0.90207696555E+03  0.19875753855E+04  0.46999998093E+01 0. -1.
       -5    1    3    3    0  502 -0.16560482384E+04 -0.62784966608E+03 -0.19394284593E+03  0.17816640785E+04  0.46999998093E+01 0.  1.
</event>
<event>
 5   0  0.1666189E-07  0.3696107E+04  0.7818609E-02  0.8068825E-01
        2   -1    0    0  501    0  0.00000000000E+00  0.00000000000E+00  0.18506799863E+04  0.18506799863E+04  0.25500000920E-02 0. -1.
       -2   -1    0    0    0  501  0.00000000000E+00  0.00000000000E+00 -0.18454308976E+04  0.18454308976E+04  0.25500000920E-02 0.  1.
    10030    2    1    2    0    0  0.00000000000E+00  0.00000000000E+00  0.52490886515E+01  0.36961108839E+04  0.36961071566E+04 0.  0.
        4    1    3    3  502    0  0.13930305056E+04 -0.79971075908E+03  0.91653417445E+03  0.18493533447E+04  0.12699999809E+01 0. -1.
       -4    1    3    3    0  502 -0.13930305056E+04  0.79971075908E+03 -0.91128508580E+03  0.18467575391E+04  0.12699999809E+01 0.  1.
</event>
<event>
 5   0  0.5177000E-08  0.3623991E+04  0.7818609E-02  0.8085018E-01
       -1   -1    0    0    0  501  0.00000000000E+00  0.00000000000E+00  0.19679881774E+04  0.19679881774E+04  0.50400001928E-02 0. -1.
        1   -1    0    0  501    0  0.00000000000E+00  0.00000000000E+00 -0.16683674800E+04  0.16683674801E+04  0.50400001928E-02 0.  1.
    10030    2    1    2    0    0  0.00000000000E+00  0.00000000000E+00  0.29962069734E+03  0.36363556574E+04  0.36239908809E+04 0.  0.
        1    1    3    3  502    0 -0.12503503855E+04  0.11010304212E+04 -0.56513976448E+03  0.17592688903E+04  0.50400001928E-02 0.  1.
       -1    1    3    3    0  502  0.12503503855E+04 -0.11010304212E+04  0.86476046182E+03  0.18770867671E+04  0.50400001928E-02 0. -1.
</event>
<event>
 5   0  0.5181371E-08  0.3690660E+04  0.7818609E-02  0.8070035E-01
        1   -1    0    0  501    0  0.00000000000E+00  0.00000000000E+00  0.19135532751E+04  0.19135532751E+04  0.50400001928E-02 0.  1.
       -1   -1    0    0    0  501  0.00000000000E+00  0.00000000000E+00 -0.17795387151E+04  0.17795387151E+04  0.50400001928E-02 0. -1.
    10030    2    1    2    0    0  0.00000000000E+00  0.00000000000E+00  0.13401455997E+03  0.36930919903E+04  0.36906596357E+04 0.  0.
        5    1    3    3  502    0  0.70292623354E+03  0.14906232082E+04  0.89770932938E+03  0.18766904296E+04  0.46999998093E+01 0.  1.
       -5    1    3    3    0  502 -0.70292623354E+03 -0.14906232082E+04 -0.76369476942E+03  0.18164015606E+04  0.46999998093E+01 0. -1.
</event>
<event>
 5   0  0.5177000E-08  0.3701499E+04  0.7818609E-02  0.8067630E-01
        1   -1    0    0  501    0  0.00000000000E+00  0.00000000000E+00  0.11964110364E+04  0.11964110364E+04  0.50400001928E-02 0. -1.
       -1   -1    0    0    0  501  0.00000000000E+00  0.00000000000E+00 -0.28629575897E+04  0.28629575897E+04  0.50400001928E-02 0.  1.
    10030    2    1    2    0    0  0.00000000000E+00  0.00000000000E+00 -0.16665465533E+04  0.40593686260E+04  0.37014991865E+04 0.  0.
        2    1    3    3  502    0  0.37504354479E+03  0.13518924599E+04 -0.21570388470E+04  0.25731473862E+04  0.25500000920E-02 0.  1.
       -2    1    3    3    0  502 -0.37504354479E+03 -0.13518924599E+04  0.49049229364E+03  0.14862212399E+04  0.25500000920E-02 0. -1.
</event>
<event>
 5   0  0.5177000E-08  0.3694572E+04  0.7818609E-02  0.8069166E-01
       -1   -1    0    0    0  501  0.00000000000E+00  0.00000000000E+00  0.15229672395E+04  0.15229672395E+04  0.50400001928E-02 0. -1.
        1   -1    0    0  501    0  0.00000000000E+00  0.00000000000E+00 -0.22406685818E+04  0.22406685818E+04  0.50400001928E-02 0.  1.
    10030    2    1    2    0    0  0.00000000000E+00  0.00000000000E+00 -0.71770134228E+03  0.37636358214E+04  0.36945716097E+04 0.  0.
        2    1    3    3  502    0  0.15650224108E+04  0.83169151609E+03  0.17190612481E+03  0.17806059755E+04  0.25500000920E-02 0. -1.
       -2    1    3    3    0  502 -0.15650224108E+04 -0.83169151609E+03 -0.88960746709E+03  0.19830298459E+04  0.25500000920E-02 0.  1.
</event>
<event>
 5   0  0.5177000E-08  0.3701822E+04  0.7818609E-02  0.8067558E-01
        3   -1    0    0  501    0  0.00000000000E+00  0.00000000000E+00  0.18030178910E+04  0.18030178939E+04  0.10100000352E+00 0. -1.
       -3   -1    0    0    0  501  0.00000000000E+00  0.00000000000E+00 -0.19000757701E+04  0.19000757727E+04  0.10100000352E+00 0.  1.
    10030    2    1    2    0    0  0.00000000000E+00  0.00000000000E+00 -0.97057879018E+02  0.37030936666E+04  0.37018215073E+04 0.  0.
        2    1    3    3  502    0  0.87022390717E+03 -0.51259802988E+03  0.15030760596E+04  0.18108793526E+04  0.25500000920E-02 0. -1.
       -2    1    3    3    0  502 -0.87022390717E+03  0.51259802988E+03 -0.16001339386E+04  0.18922143140E+04  0.25500000920E-02 0.  1.
</event>
<event>
 5   0  0.5181371E-08  0.3703896E+04  0.7818609E-02  0.8067099E-01
        1   -1    0    0  501    0  0.00000000000E+00  0.00000000000E+00  0.21542601731E+04  0.21542601731E+04  0.50400001928E-02 0.  1.
       -1   -1    0    0    0  501  0.00000000000E+00  0.00000000000E+00 -0.15920599685E+04  0.15920599686E+04  0.50400001928E-02 0. -1.
    10030    2    1    2    0    0  0.00000000000E+00  0.00000000000E+00  0.56220020456E+03  0.37463201417E+04  0.37038959939E+04 0.  0.
        5    1    3    3  502    0  0.14073190114E+04 -0.47511336321E+03  0.13998476056E+04  0.20410475047E+04  0.46999998093E+01 0.  1.
       -5    1    3    3    0  502 -0.14073190114E+04  0.47511336321E+03 -0.83764740101E+03  0.17052726369E+04  0.46999998093E+01 0. -1.
</event>
<event>
 5   0  0.5177000E-08  0.3708121E+04  0.7818609E-02  0.8066164E-01
        1   -1    0    0  501    0  0.00000000000E+00  0.00000000000E+00  0.15991729126E+04  0.15991729126E+04  0.50400001928E-02 0.  1.
       -1   -1    0    0    0  501  0.00000000000E+00  0.00000000000E+00 -0.21495743866E+04  0.21495743866E+04  0.50400001928E-02 0. -1.
    10030    2    1    2    0    0  0.00000000000E+00  0.00000000000E+00 -0.55040147393E+03  0.37487472992E+04  0.37081214288E+04 0.  0.
        2    1    3    3  502    0  0.65629249678E+03 -0.14194942758E+04  0.73163080766E+03  0.17265478502E+04  0.25500000920E-02 0.  1.
       -2    1    3    3    0  502 -0.65629249678E+03  0.14194942758E+04 -0.12820322816E+04  0.20221994490E+04  0.25500000920E-02 0. -1.
</event>
<event>
 5   0  0.5177000E-08  0.3701369E+04  0.7818609E-02  0.8067659E-01
        1   -1    0    0  501    0  0.00000000000E+00  0.00000000000E+00  0.11212032616E+04  0.11212032616E+04  0.50400001928E-02 0. -1.
       -1   -1    0    0    0  501  0.00000000000E+00  0.00000000000E+00 -0.30547827560E+04  0.30547827560E+04  0.50400001928E-02 0.  1.
    10030    2    1    2    0    0  0.00000000000E+00  0.00000000000E+00 -0.19335794944E+04  0.41759860176E+04  0.37013686061E+04 0.  0.
        2    1    3    3  502    0 -0.68024391688E+03  0.17180753730E+04 -0.85108388762E+03  0.20344184814E+04  0.25500000920E-02 0.  1.
       -2    1    3    3    0  502  0.68024391688E+03 -0.17180753730E+04 -0.10824956068E+04  0.21415675362E+04  0.25500000920E-02 0. -1.
</event>
<event>
 5   0  0.5177000E-08  0.3685722E+04  0.7818609E-02  0.8071133E-01
        1   -1    0    0  501    0  0.00000000000E+00  0.00000000000E+00  0.25811151009E+04  0.25811151009E+04  0.50400001928E-02 0.  1.
       -1   -1    0    0    0  501  0.00000000000E+00  0.00000000000E+00 -0.13157631791E+04  0.13157631791E+04  0.50400001928E-02 0. -1.
    10030    2    1    2    0    0  0.00000000000E+00  0.00000000000E+00  0.12653519218E+04  0.38968782800E+04  0.36857217534E+04 0.  0.
        2    1    3    3  502    0  0.61494457568E+03  0.17093604904E+04  0.30497375879E+03  0.18420312459E+04  0.25500000920E-02 0. -1.
       -2    1    3    3    0  502 -0.61494457568E+03 -0.17093604904E+04  0.96037816301E+03  0.20548470341E+04  0.25500000920E-02 0.  1.
</event>
<event>
 5   0  0.1558258E-07  0.3680178E+04  0.7818609E-02  0.8072369E-01
       -2   -1    0    0    0  501  0.00000000000E+00  0.00000000000E+00  0.13806043218E+04  0.13806043218E+04  0.25500000920E-02 0. -1.
        2   -1    0    0  501    0  0.00000000000E+00  0.00000000000E+00 -0.24524961781E+04  0.24524961781E+04  0.25500000920E-02 0.  1.
    10030    2    1    2    0    0  0.00000000000E+00  0.00000000000E+00 -0.10718918562E+04  0.38331004999E+04  0.36801776168E+04 0.  0.
        1    1    3    3  502    0  0.12439475628E+04 -0.97416501851E+03 -0.15182822739E+04  0.21912517166E+04  0.50400001928E-02 0.  1.
       -1    1    3    3    0  502 -0.12439475628E+04  0.97416501851E+03  0.44639041766E+03  0.16418487833E+04  0.50400001928E-02 0. -1.
</event>
<event>
 5   0  0.5181371E-08  0.3658033E+04  0.7818609E-02  0.8077326E-01
       -1   -1    0    0    0  501  0.00000000000E+00  0.00000000000E+00  0.16843898068E+04  0.16843898068E+04  0.50400001928E-02 0.  1.
        1   -1    0    0  501    0  0.00000000000E+00  0.00000000000E+00 -0.19860610494E+04  0.19860610494E+04  0.50400001928E-02 0. -1.
    10030    2    1    2    0    0  0.00000000000E+00  0.00000000000E+00 -0.30167124260E+03  0.36704508562E+04  0.36580327977E+04 0.  0.
        5    1    3    3  502    0  0.10927672047E+04 -0.13447938417E+04  0.43653031497E+03  0.17869503200E+04  0.46999998093E+01 0.  1.
       -5    1    3    3    0  502 -0.10927672047E+04  0.13447938417E+04 -0.73820155757E+03  0.18835005362E+04  0.46999998093E+01 0. -1.
</event>
<event>
 5   0  0.5177000E-08  0.3702828E+04  0.7818609E-02  0.8067335E-01
        1   -1    0    0  501    0  0.00000000000E+00  0.00000000000E+00  0.28111369723E+04  0.28111369724E+04  0.50400001928E-02 0.  1.
       -1   -1    0    0    0  501  0.00000000000E+00  0.00000000000E+00 -0.12193408836E+04  0.12193408836E+04  0.50400001928E-02 0. -1.
    10030    2    1    2    0    0  0.00000000000E+00  0.00000000000E+00  0.15917960887E+04  0.40304778560E+04  0.37028282379E+04 0.  0.
        2    1    3    3  502    0 -0.23079037573E+03  0.36605856196E+03 -0.11635197759E+04  0.12413868604E+04  0.25500000920E-02 0. -1.
       -2    1    3    3    0  502  0.23079037573E+03 -0.36605856196E+03  0.27553158646E+04  0.27890909956E+04  0.25500000920E-02 0.  1.
</event>
<event>
 5   0  0.5177000E-08  0.3698512E+04  0.7818609E-02  0.8068292E-01
        1   -1    0    0  501    0  0.00000000000E+00  0.00000000000E+00  0.11010488784E+04  0.11010488784E+04  0.50400001928E-02 0.  1.
       -1   -1    0    0    0  501  0.00000000000E+00  0.00000000000E+00 -0.31059004480E+04  0.31059004480E+04  0.50400001928E-02 0. -1.
    10030    2    1    2    0    0  0.00000000000E+00  0.00000000000E+00 -0.20048515696E+04  0.42069493265E+04  0.36985122440E+04 0.  0.
        1    1    3    3  502    0 -0.12699831420E+04 -0.13015886842E+04 -0.62046942144E+03  0.19214506465E+04  0.50400001928E-02 0.  1.
       -1    1    3    3    0  502  0.12699831420E+04  0.13015886842E+04 -0.13843821482E+04  0.22854986800E+04  0.50400001928E-02 0. -1.
</event>
<event>
 5   0  0.1686284E-07  0.3756126E+04  0.7818609E-02  0.8055636E-01
       -2   -1    0    0    0  501  0.00000000000E+00  0.00000000000E+00  0.12551678832E+04  0.12551678832E+04  0.25500000920E-02 0. -1.
        2   -1    0    0  501    0  0.00000000000E+00  0.00000000000E+00 -0.28100780427E+04  0.28100780427E+04  0.25500000920E-02 0.  1.
    10030    2    1    2    0    0  0.00000000000E+00  0.00000000000E+00 -0.15549101596E+04  0.40652459259E+04  0.37561255082E+04 0.  0.
        5    1    3    3  502    0 -0.80250612535E+03  0.30614560133E+03 -0.25850400954E+04  0.27240035968E+04  0.46999998093E+01 0.  1.
       -5    1    3    3    0  502  0.80250612535E+03 -0.30614560133E+03  0.10301299359E+04  0.13412423290E+04  0.46999998093E+01 0. -1.
</event>
<event>
 5   0  0.1686284E-07  0.3708664E+04  0.7818609E-02  0.8066045E-01
        2   -1    0    0  501    0  0.00000000000E+00  0.00000000000E+00  0.28452455840E+04  0.28452455840E+04  0.25500000920E-02 0. -1.
       -2   -1    0    0    0  501  0.00000000000E+00  0.00000000000E+00 -0.12085235610E+04  0.12085235610E+04  0.25500000920E-02 0.  1.
    10030    2    1    2    0    0  0.00000000000E+00  0.00000000000E+00  0.16367220229E+04  0.40537691450E+04  0.37086635465E+04 0.  0.
        5    1    3    3  502    0  0.22015023498E+02  0.95563049739E+03 -0.91846342860E+03  0.13256362504E+04  0.46999998093E+01 0.  1.
       -5    1    3    3    0  502 -0.22015023498E+02 -0.95563049739E+03  0.25551854515E+04  0.27281328946E+04  0.46999998093E+01 0. -1.
</event>
<event>
 5   0  0.1666189E-07  0.3707091E+04  0.7818609E-02  0.8066392E-01
       -2   -1    0    0    0  501  0.00000000000E+00  0.00000000000E+00  0.16994904677E+04  0.16994904677E+04  0.25500000920E-02 0. -1.
        2   -1    0    0  501    0  0.00000000000E+00  0.00000000000E+00 -0.20215656925E+04  0.20215656925E+04  0.25500000920E-02 0.  1.
    10030    2    1    2    0    0  0.00000000000E+00  0.00000000000E+00 -0.32207522476E+03  0.37210561602E+04  0.37070913796E+04 0.  0.
        4    1    3    3  502    0 -0.41098085652E+02 -0.14933010130E+02 -0.20210474596E+04  0.20215208369E+04  0.12699999809E+01 0.  1.
       -4    1    3    3    0  502  0.41098085652E+02  0.14933010130E+02  0.16989722348E+04  0.16995353233E+04  0.12699999809E+01 0. -1.
</event>
<event>
 5   0  0.5181371E-08  0.3689053E+04  0.7818609E-02  0.8070392E-01
       -1   -1    0    0    0  501  0.00000000000E+00  0.00000000000E+00  0.14376771251E+04  0.14376771251E+04  0.50400001928E-02 0.  1.
        1   -1    0    0  501    0  0.00000000000E+00  0.00000000000E+00 -0.23665101009E+04  0.23665101009E+04  0.50400001928E-02 0. -1.
    10030    2    1    2    0    0  0.00000000000E+00  0.00000000000E+00 -0.92883297578E+03  0.38041872260E+04  0.36890526906E+04 0.  0.
        5    1    3    3  502    0 -0.32732059287E+03 -0.52159917801E+03  0.13285400107E+04  0.14643241182E+04  0.46999998093E+01 0.  1.
       -5    1    3    3    0  502  0.32732059287E+03  0.52159917801E+03 -0.22573729865E+04  0.23398631078E+04  0.46999998093E+01 0. -1.
</event>
<event>
 5   0  0.1658770E-07  0.3692802E+04  0.7818609E-02  0.8069559E-01
        2   -1    0    0  501    0  0.00000000000E+00  0.00000000000E+00  0.15567363016E+04  0.15567363016E+04  0.25500000920E-02 0. -1.
       -2   -1    0    0    0  501  0.00000000000E+00  0.00000000000E+00 -0.21899644198E+04  0.21899644198E+04  0.25500000920E-02 0.  1.
    10030    2    1    2    0    0  0.00000000000E+00  0.00000000000E+00 -0.63322811817E+03  0.37467007214E+04  0.36928022484E+04 0.  0.
        2    1    3    3  502    0  0.13130271398E+04  0.10402707150E+04 -0.11044745692E+04  0.20065062932E+04  0.25500000920E-02 0.  1.
       -2    1    3    3    0  502 -0.13130271398E+04 -0.10402707150E+04  0.47124645104E+03  0.17401944282E+04  0.25500000920E-02 0. -1.
</event>
<event>
 5   0  0.5177000E-08  0.3693613E+04  0.7818609E-02  0.8069379E-01
       -1   -1    0    0    0  501  0.00000000000E+00  0.00000000000E+00  0.18499594736E+04  0.18499594737E+04  0.50400001928E-02 0.  1.
        1   -1    0    0  501    0  0.00000000000E+00  0.00000000000E+00 -0.18436590960E+04  0.18436590960E+04  0.50400001928E-02 0. -1.
    10030    2    1    2    0    0  0.00000000000E+00  0.00000000000E+00  0.63003776632E+01  0.36936185696E+04  0.36936131962E+04 0.  0.
        2    1    3    3  502    0  0.59814601877E+03 -0.82069073852E+03  0.15456772018E+04  0.18494404452E+04  0.25500000920E-02 0.  1.
       -2    1    3    3    0  502 -0.59814601877E+03  0.82069073852E+03 -0.15393768241E+04  0.18441781245E+04  0.25500000920E-02 0. -1.
</event>
<event>
 5   0  0.1658770E-07  0.3625744E+04  0.7818609E-02  0.8084620E-01
        2   -1    0    0  501    0  0.00000000000E+00  0.00000000000E+00  0.23487121348E+04  0.23487121348E+04  0.25500000920E-02 0. -1.
       -2   -1    0    0    0  501  0.00000000000E+00  0.00000000000E+00 -0.13992799037E+04  0.13992799037E+04  0.25500000920E-02 0.  1.
    10030    2    1    2    0    0  0.00000000000E+00  0.00000000000E+00  0.94943223107E+03  0.37479920385E+04  0.36257444421E+04 0.  0.
        2    1    3    3  502    0  0.12979922284E+03 -0.44538467900E+03 -0.13368821934E+04  0.14150863400E+04  0.25500000920E-02 0.  1.
       -2    1    3    3    0  502 -0.12979922284E+03  0.44538467900E+03  0.22863144245E+04  0.23329056985E+04  0.25500000920E-02 0. -1.
</event>
<event>
 5   0  0.5181371E-08  0.3695648E+04  0.7818609E-02  0.8068927E-01
       -1   -1    0    0    0  501  0.00000000000E+00  0.00000000000E+00  0.19153376437E+04  0.19153376437E+04  0.50400001928E-02 0.  1.
        1   -1    0    0  501    0  0.00000000000E+00  0.00000000000E+00 -0.17826903690E+04  0.17826903690E+04  0.50400001928E-02 0. -1.
    10030    2    1    2    0    0  0.00000000000E+00  0.00000000000E+00  0.13264727464E+03  0.36980280127E+04  0.36956482359E+04 0.  0.
        5    1    3    3  502    0  0.74411470199E+03 -0.11659820403E+04 -0.11597045336E+04  0.18050367041E+04  0.46999998093E+01 0. -1.
       -5    1    3    3    0  502 -0.74411470199E+03  0.11659820403E+04  0.12923518082E+04  0.18929913086E+04  0.46999998093E+01 0.  1.
</event>
<event>
 5   0  0.1666189E-07  0.3724053E+04  0.7818609E-02  0.8062652E-01
        2   -1    0    0  501    0  0.00000000000E+00  0.00000000000E+00  0.21300599896E+04  0.21300599896E+04  0.25500000920E-02 0.  1.
       -2   -1    0    0    0  501  0.00000000000E+00  0.00000000000E+00 -0.16277202771E+04  0.16277202771E+04  0.25500000920E-02 0. -1.
    10030    2    1    2    0    0  0.00000000000E+00  0.00000000000E+00  0.50233971255E+03  0.37577802667E+04  0.37240525434E+04 0.  0.
        4    1    3    3  502    0  0.38604778718E+03  0.16050636769E+04 -0.61795426877E+03  0.17627057021E+04  0.12699999809E+01 0. -1.
       -4    1    3    3    0  502 -0.38604778718E+03 -0.16050636769E+04  0.11202939813E+04  0.19950745646E+04  0.12699999809E+01 0.  1.
</event>
<event>
 5   0  0.5177000E-08  0.3692497E+04  0.7818609E-02  0.8069627E-01
        1   -1    0    0  501    0  0.00000000000E+00  0.00000000000E+00  0.21009560694E+04  0.21009560694E+04  0.50400001928E-02 0. -1.
       -1   -1    0    0    0  501  0.00000000000E+00  0.00000000000E+00 -0.16224199213E+04  0.16224199213E+04  0.50400001928E-02 0.  1.
    10030    2    1    2    0    0  0.00000000000E+00  0.00000000000E+00  0.47853614815E+03  0.37233759907E+04  0.36924967059E+04 0.  0.
        1    1    3    3  502    0 -0.24969546656E+03 -0.17592175825E+04 -0.26636188380E+03  0.17967033650E+04  0.50400001928E-02 0. -1.
       -1    1    3    3    0  502  0.24969546656E+03  0.17592175825E+04  0.74489803195E+03  0.19266726257E+04  0.50400001928E-02 0.  1.
</event>
<event>
 5   0  0.5181371E-08  0.3694879E+04  0.7818609E-02  0.8069098E-01
       -1   -1    0    0    0  501  0.00000000000E+00  0.00000000000E+00  0.16827111631E+04  0.16827111631E+04  0.50400001928E-02 0. -1.
        1   -1    0    0  501    0  0.00000000000E+00  0.00000000000E+00 -0.20282940655E+04  0.20282940655E+04  0.50400001928E-02 0.  1.
    10030    2    1    2    0    0  0.00000000000E+00  0.00000000000E+00 -0.34558290242E+03  0.37110052286E+04  0.36948791948E+04 0.  0.
        5    1    3    3  502    0 -0.75289324925E+03 -0.57044739815E+03 -0.17674085833E+04  0.20039994185E+04  0.46999998093E+01 0.  1.
       -5    1    3    3    0  502  0.75289324925E+03  0.57044739815E+03  0.14218256809E+04  0.17070058101E+04  0.46999998093E+01 0. -1.
</event>
<event>
 5   0  0.5177000E-08  0.3675219E+04  0.7818609E-02  0.8073476E-01
        1   -1    0    0  501    0  0.00000000000E+00  0.00000000000E+00  0.23474305946E+04  0.23474305946E+04  0.50400001928E-02 0.  1.
       -1   -1    0    0    0  501  0.00000000000E+00  0.00000000000E+00 -0.14385123974E+04  0.14385123974E+04  0.50400001928E-02 0. -1.
    10030    2    1    2    0    0  0.00000000000E+00  0.00000000000E+00  0.90891819719E+03  0.37859429921E+04  0.36752186398E+04 0.  0.
        1    1    3    3  502    0 -0.89608271134E+03 -0.82910914032E+03  0.18693087604E+04  0.22326444934E+04  0.50400001928E-02 0.  1.
       -1    1    3    3    0  502  0.89608271134E+03  0.82910914032E+03 -0.96039056320E+03  0.15532984987E+04  0.50400001928E-02 0. -1.
</event>
<event>
 5   0  0.1658770E-07  0.3707133E+04  0.7818609E-02  0.8066383E-01
       -2   -1    0    0    0  501  0.00000000000E+00  0.00000000000E+00  0.12966284211E+04  0.12966284211E+04  0.25500000920E-02 0. -1.
        2   -1    0    0  501    0  0.00000000000E+00  0.00000000000E+00 -0.26497250925E+04  0.26497250925E+04  0.25500000920E-02 0.  1.
    10030    2    1    2    0    0  0.00000000000E+00  0.00000000000E+00 -0.13530966714E+04  0.39463535136E+04  0.37071330502E+04 0.  0.
        2    1    3    3  502    0 -0.61445126054E+03 -0.15261940488E+04  0.23229469216E+03  0.16615593430E+04  0.25500000920E-02 0. -1.
       -2    1    3    3    0  502  0.61445126054E+03  0.15261940488E+04 -0.15853913636E+04  0.22847941706E+04  0.25500000920E-02 0.  1.
</event>
<event>
 5   0  0.1587026E-07  0.3713130E+04  0.7818609E-02  0.8065058E-01
        2   -1    0    0  501    0  0.00000000000E+00  0.00000000000E+00  0.25034236057E+04  0.25034236057E+04  0.25500000920E-02 0.  1.
       -2   -1    0    0    0  501  0.00000000000E+00  0.00000000000E+00 -0.13768479172E+04  0.13768479172E+04  0.25500000920E-02 0. -1.
    10030    2    1    2    0    0  0.00000000000E+00  0.00000000000E+00  0.11265756885E+04  0.38802715229E+04  0.37131299883E+04 0.  0.
        3    1    3    3  502    0 -0.12071893558E+04 -0.81103945207E+03  0.17692455652E+04  0.22902665814E+04  0.10100000352E+00 0.  1.
       -3    1    3    3    0  502  0.12071893558E+04  0.81103945207E+03 -0.64266987670E+03  0.15900049416E+04  0.10100000352E+00 0. -1.
</event>
<event>
 5   0  0.5181371E-08  0.3672751E+04  0.7818609E-02  0.8074027E-01
       -1   -1    0    0    0  501  0.00000000000E+00  0.00000000000E+00  0.20744807862E+04  0.20744807862E+04  0.50400001928E-02 0. -1.
        1   -1    0    0  501    0  0.00000000000E+00  0.00000000000E+00 -0.16255995120E+04  0.16255995120E+04  0.50400001928E-02 0.  1.
    10030    2    1    2    0    0  0.00000000000E+00  0.00000000000E+00  0.44888127418E+03  0.37000802982E+04  0.36727509874E+04 0.  0.
        5    1    3    3  502    0  0.14468677676E+03 -0.14663088108E+04 -0.87973368590E+03  0.17160854408E+04  0.46999998093E+01 0.  1.
       -5    1    3    3    0  502 -0.14468677676E+03  0.14663088108E+04  0.13286149601E+04  0.19839948574E+04  0.46999998093E+01 0. -1.
</event>
<event>
 5   0  0.1686284E-07  0.3686265E+04  0.7818609E-02  0.8071012E-01
       -2   -1    0    0    0  501  0.00000000000E+00  0.00000000000E+00  0.18332277420E+04  0.18332277420E+04  0.25500000920E-02 0. -1.
        2   -1    0    0  501    0  0.00000000000E+00  0.00000000000E+00 -0.18530909090E+04  0.18530909090E+04  0.25500000920E-02 0.  1.
    10030    2    1    2    0    0  0.00000000000E+00  0.00000000000E+00 -0.19863166970E+02  0.36863186511E+04  0.36862651358E+04 0.  0.
        5    1    3    3  502    0 -0.58575866095E+03 -0.58965965488E+02  0.17366691011E+04  0.18337480336E+04  0.46999998093E+01 0. -1.
       -5    1    3    3    0  502  0.58575866095E+03  0.58965965488E+02 -0.17565322681E+04  0.18525706175E+04  0.46999998093E+01 0.  1.
</event>
<event>
 5   0  0.1686284E-07  0.3699122E+04  0.7818609E-02  0.8068156E-01
        2   -1    0    0  501    0  0.00000000000E+00  0.00000000000E+00  0.23872896673E+04  0.23872896673E+04  0.25500000920E-02 0.  1.
       -2   -1    0    0    0  501  0.00000000000E+00  0.00000000000E+00 -0.14329539662E+04  0.14329539662E+04  0.25500000920E-02 0. -1.
    10030    2    1    2    0    0  0.00000000000E+00  0.00000000000E+00  0.95433570117E+03  0.38202436335E+04  0.36991221646E+04 0.  0.
        5    1    3    3  502    0  0.47182323553E+03 -0.21329946469E+03  0.23109024696E+04  0.23682073687E+04  0.46999998093E+01 0.  1.
       -5    1    3    3    0  502 -0.47182323553E+03  0.21329946469E+03 -0.13565667684E+04  0.14520362648E+04  0.46999998093E+01 0. -1.
</event>
<event>
 5   0  0.1686284E-07  0.3693600E+04  0.7818609E-02  0.8069382E-01
       -2   -1    0    0    0  501  0.00000000000E+00  0.00000000000E+00  0.26966433942E+04  0.26966433942E+04  0.25500000920E-02 0.  1.
        2   -1    0    0  501    0  0.00000000000E+00  0.00000000000E+00 -0.12647836153E+04  0.12647836153E+04  0.25500000920E-02 0. -1.
    10030    2    1    2    0    0  0.00000000000E+00  0.00000000000E+00  0.14318597789E+04  0.39614270095E+04  0.36936000765E+04 0.  0.
        5    1    3    3  502    0 -0.14579968322E+04  0.10877295553E+04  0.37383761652E+03  0.18570640812E+04  0.46999998093E+01 0. -1.
       -5    1    3    3    0  502  0.14579968322E+04 -0.10877295553E+04  0.10580221624E+04  0.21043629283E+04  0.46999998093E+01 0.  1.
</event>
<event>
 5   0  0.5177000E-08  0.3718654E+04  0.7818609E-02  0.8063840E-01
        1   -1    0    0  501    0  0.00000000000E+00  0.00000000000E+00  0.12982605366E+04  0.12982605366E+04  0.50400001928E-02 0. -1.
       -1   -1    0    0    0  501  0.00000000000E+00  0.00000000000E+00 -0.26628689758E+04  0.26628689758E+04  0.50400001928E-02 0.  1.
    10030    2    1    2    0    0  0.00000000000E+00  0.00000000000E+00 -0.13646084391E+04  0.39611295124E+04  0.37186544370E+04 0.  0.
        1    1    3    3  502    0 -0.34374958549E+03  0.17831128870E+04 -0.11076430934E+04  0.21270939254E+04  0.50400001928E-02 0.  1.
       -1    1    3    3    0  502  0.34374958549E+03 -0.17831128870E+04 -0.25696534573E+03  0.18340355870E+04  0.50400001928E-02 0. -1.
</event>
<event>
 5   0  0.1666189E-07  0.3705042E+04  0.7818609E-02  0.8066845E-01
        2   -1    0    0  501    0  0.00000000000E+00  0.00000000000E+00  0.15512715011E+04  0.15512715011E+04  0.25500000920E-02 0.  1.
       -2   -1    0    0    0  501  0.00000000000E+00  0.00000000000E+00 -0.22122719115E+04  0.22122719115E+04  0.25500000920E-02 0. -1.
    10030    2    1    2    0    0  0.00000000000E+00  0.00000000000E+00 -0.66100041046E+03  0.37635434126E+04  0.37050421692E+04 0.  0.
        4    1    3    3  502    0  0.16311672232E+04 -0.65208669104E+03 -0.92792717892E+03  0.19866992789E+04  0.12699999809E+01 0.  1.
       -4    1    3    3    0  502 -0.16311672232E+04  0.65208669104E+03  0.26692676846E+03  0.17768441336E+04  0.12699999809E+01 0. -1.
</event>
<event>
 5   0  0.5177000E-08  0.3544936E+04  0.7818609E-02  0.8103222E-01
       -1   -1    0    0    0  501  0.00000000000E+00  0.00000000000E+00  0.14150340262E+04  0.14150340262E+04  0.50400001928E-02 0. -1.
        1   -1    0    0  501    0  0.00000000000E+00  0.00000000000E+00 -0.22201892112E+04  0.22201892112E+04  0.50400001928E-02 0.  1.
    10030    2    1    2    0    0  0.00000000000E+00  0.00000000000E+00 -0.80515518496E+03  0.36352232374E+04  0.35449362637E+04 0.  0.
        1    1    3    3  502    0  0.10406433222E+04 -0.20142394791E+03  0.10542144567E+04  0.14949509194E+04  0.50400001928E-02 0. -1.
       -1    1    3    3    0  502 -0.10406433222E+04  0.20142394791E+03 -0.18593696417E+04  0.21402723180E+04  0.50400001928E-02 0.  1.
</event>
<event>
 5   0  0.5177000E-08  0.3713329E+04  0.7818609E-02  0.8065014E-01
        1   -1    0    0  501    0  0.00000000000E+00  0.00000000000E+00  0.12592821497E+04  0.12592821497E+04  0.50400001928E-02 0. -1.
       -1   -1    0    0    0  501  0.00000000000E+00  0.00000000000E+00 -0.27374355404E+04  0.27374355404E+04  0.50400001928E-02 0.  1.
    10030    2    1    2    0    0  0.00000000000E+00  0.00000000000E+00 -0.14781533907E+04  0.39967176900E+04  0.37133293481E+04 0.  0.
        3    1    3    3  502    0  0.17143975919E+03 -0.18212096122E+04 -0.39700498785E+03  0.18718464182E+04  0.10100000352E+00 0. -1.
       -3    1    3    3    0  502 -0.17143975919E+03  0.18212096122E+04 -0.10811484029E+04  0.21248712718E+04  0.10100000352E+00 0.  1.
</event>
<event>
 5   0  0.5177000E-08  0.3707757E+04  0.7818609E-02  0.8066245E-01
        1   -1    0    0  501    0  0.00000000000E+00  0.00000000000E+00  0.22550955992E+04  0.22550955992E+04  0.50400001928E-02 0. -1.
       -1   -1    0    0    0  501  0.00000000000E+00  0.00000000000E+00 -0.15240438445E+04  0.15240438445E+04  0.50400001928E-02 0.  1.
    10030    2    1    2    0    0  0.00000000000E+00  0.00000000000E+00  0.73105175466E+03  0.37791394437E+04  0.37077565005E+04 0.  0.
        2    1    3    3  502    0  0.12605969815E+04 -0.13577489745E+04  0.29886381911E+03  0.18766743484E+04  0.25500000920E-02 0. -1.
       -2    1    3    3    0  502 -0.12605969815E+04  0.13577489745E+04  0.43218793555E+03  0.19024650954E+04  0.25500000920E-02 0.  1.
</event>
<event>
 5   0  0.1666189E-07  0.3693882E+04  0.7818609E-02  0.8069319E-01
       -2   -1    0    0    0  501  0.00000000000E+00  0.00000000000E+00  0.13549384265E+04  0.13549384265E+04  0.25500000920E-02 0.  1.
        2   -1    0    0  501    0  0.00000000000E+00  0.00000000000E+00 -0.25175984130E+04  0.25175984130E+04  0.25500000920E-02 0. -1.
    10030    2    1    2    0    0  0.00000000000E+00  0.00000000000E+00 -0.11626599865E+04  0.38725368396E+04  0.36938818781E+04 0.  0.
        4    1    3    3  502    0 -0.15139866621E+04  0.50447816053E+03  0.39344402012E+03  0.16436099408E+04  0.12699999809E+01 0.  1.
       -4    1    3    3    0  502  0.15139866621E+04 -0.50447816053E+03 -0.15561040067E+04  0.22289268988E+04  0.12699999809E+01 0. -1.
</event>
<event>
 5   0  0.5177000E-08  0.3664422E+04  0.7818609E-02  0.8075892E-01
        1   -1    0    0  501    0  0.00000000000E+00  0.00000000000E+00  0.23749222436E+04  0.23749222436E+04  0.50400001928E-02 0. -1.
       -1   -1    0    0    0  501  0.00000000000E+00  0.00000000000E+00 -0.14135190790E+04  0.14135190790E+04  0.50400001928E-02 0.  1.
    10030    2    1    2    0    0  0.00000000000E+00  0.00000000000E+00  0.96140316462E+03  0.37884413227E+04  0.36644224116E+04 0.  0.
        4    1    3    3  502    0 -0.56373214196E+03 -0.17386478222E+04  0.34868446435E+03  0.18607183145E+04  0.12699999809E+01 0.  1.
       -4    1    3    3    0  502  0.56373214196E+03  0.17386478222E+04  0.61271870027E+03  0.19277230081E+04  0.12699999809E+01 0. -1.
</event>
<event>
 5   0  0.5177000E-08  0.3706326E+04  0.7818609E-02  0.8066561E-01
       -1   -1    0    0    0  501  0.00000000000E+00  0.00000000000E+00  0.14038446112E+04  0.14038446112E+04  0.50400001928E-02 0.  1.
        1   -1    0    0  501    0  0.00000000000E+00  0.00000000000E+00 -0.24462921039E+04  0.24462921039E+04  0.50400001928E-02 0. -1.
    10030    2    1    2    0    0  0.00000000000E+00  0.00000000000E+00 -0.10424474927E+04  0.38501367150E+04  0.37063264764E+04 0.  0.
        3    1    3    3  502    0 -0.17795405938E+04  0.82543337767E+02  0.91103561234E+01  0.17814772343E+04  0.10100000352E+00 0.  1.
       -3    1    3    3    0  502  0.17795405938E+04 -0.82543337767E+02 -0.10515578488E+04  0.20686594807E+04  0.10100000352E+00 0. -1.
</event>
<event>
 5   0  0.1558258E-07  0.3697927E+04  0.7818609E-02  0.8068421E-01
        2   -1    0    0  501    0  0.00000000000E+00  0.00000000000E+00  0.25697441036E+04  0.25697441037E+04  0.25500000920E-02 0.  1.
       -2   -1    0    0    0  501  0.00000000000E+00  0.00000000000E+00 -0.13303524231E+04  0.13303524231E+04  0.25500000920E-02 0. -1.
    10030    2    1    2    0    0  0.00000000000E+00  0.00000000000E+00  0.12393916805E+04  0.39000965268E+04  0.36979266056E+04 0.  0.
        1    1    3    3  502    0  0.66289384542E+03  0.11670119947E+04 -0.72157058608E+03  0.15238140821E+04  0.50400001928E-02 0. -1.
       -1    1    3    3    0  502 -0.66289384542E+03 -0.11670119947E+04  0.19609622666E+04  0.23762824447E+04  0.50400001928E-02 0.  1.
</event>
<event>
 5   0  0.1686284E-07  0.3694390E+04  0.7818609E-02  0.8069206E-01
       -2   -1    0    0    0  501  0.00000000000E+00  0.00000000000E+00  0.16679269784E+04  0.16679269784E+04  0.25500000920E-02 0.  1.
        2   -1    0    0  501    0  0.00000000000E+00  0.00000000000E+00 -0.20457305470E+04  0.20457305470E+04  0.25500000920E-02 0. -1.
    10030    2    1    2    0    0  0.00000000000E+00  0.00000000000E+00 -0.37780356861E+03  0.37136575254E+04  0.36943898927E+04 0.  0.
        5    1    3    3  502    0 -0.14700947495E+04 -0.11091597798E+04 -0.33350295239E+03  0.18715395531E+04  0.46999998093E+01 0.  1.
       -5    1    3    3    0  502  0.14700947495E+04  0.11091597798E+04 -0.44300616224E+02  0.18421179723E+04  0.46999998093E+01 0. -1.
</event>
<event>
 5   0  0.5177000E-08  0.3732116E+04  0.7818609E-02  0.8060882E-01
       -1   -1    0    0    0  501  0.00000000000E+00  0.00000000000E+00  0.18987273635E+04  0.18987273635E+04  0.50400001928E-02 0. -1.
        1   -1    0    0  501    0  0.00000000000E+00  0.00000000000E+00 -0.18339503981E+04  0.18339503981E+04  0.50400001928E-02 0.  1.
    10030    2    1    2    0    0  0.00000000000E+00  0.00000000000E+00  0.64776965411E+02  0.37326777616E+04  0.37321156488E+04 0.  0.
        4    1    3    3  502    0  0.74561578659E+03 -0.12713288228E+04 -0.11123145096E+04  0.18464736819E+04  0.12699999809E+01 0.  1.
       -4    1    3    3    0  502 -0.74561578659E+03  0.12713288228E+04  0.11770914750E+04  0.18862040797E+04  0.12699999809E+01 0. -1.
</event>
<event>
 5   0  0.1666189E-07  0.3711330E+04  0.7818609E-02  0.8065456E-01
        2   -1    0    0  501    0  0.00000000000E+00  0.00000000000E+00  0.20645913691E+04  0.20645913691E+04  0.25500000920E-02 0.  1.
       -2   -1    0    0    0  501  0.00000000000E+00  0.00000000000E+00 -0.16678804928E+04  0.16678804928E+04  0.25500000920E-02 0. -1.
    10030    2    1    2    0    0  0.00000000000E+00  0.00000000000E+00  0.39671087622E+03  0.37324718619E+04  0.37113295031E+04 0.  0.
        4    1    3    3  502    0  0.74318035190E+03  0.99579303451E+03 -0.11877446596E+04  0.17189123865E+04  0.12699999809E+01 0. -1.
       -4    1    3    3    0  502 -0.74318035190E+03 -0.99579303451E+03  0.15844555359E+04  0.20135594754E+04  0.12699999809E+01 0.  1.
</event>
<event>
 5   0  0.1658770E-07  0.3701432E+04  0.7818609E-02  0.8067645E-01
       -2   -1    0    0    0  501  0.00000000000E+00  0.00000000000E+00  0.16741793256E+04  0.16741793256E+04  0.25500000920E-02 0.  1.
        2   -1    0    0  501    0  0.00000000000E+00  0.00000000000E+00 -0.20458674179E+04  0.20458674179E+04  0.25500000920E-02 0. -1.
    10030    2    1    2    0    0  0.00000000000E+00  0.00000000000E+00 -0.37168809237E+03  0.37200467435E+04  0.37014315793E+04 0.  0.
        2    1    3    3  502    0 -0.14242460695E+03  0.44695093802E+03 -0.19851267163E+04  0.20397985169E+04  0.25500000920E-02 0. -1.
       -2    1    3    3    0  502  0.14242460695E+03 -0.44695093802E+03  0.16134386240E+04  0.16802482266E+04  0.25500000920E-02 0.  1.
</event>
<event>
 5   0  0.5177000E-08  0.3711779E+04  0.7818609E-02  0.8065356E-01
        1   -1    0    0  501    0  0.00000000000E+00  0.00000000000E+00  0.15013470536E+04  0.15013470536E+04  0.50400001928E-02 0. -1.
       -1   -1    0    0    0  501  0.00000000000E+00  0.00000000000E+00 -0.22941570462E+04  0.22941570462E+04  0.50400001928E-02 0.  1.
    10030    2    1    2    0    0  0.00000000000E+00  0.00000000000E+00 -0.79280999259E+03  0.37955040998E+04  0.37117790461E+04 0.  0.
        1    1    3    3  502    0 -0.11947813956E+03 -0.83443591366E+03 -0.20871111964E+04  0.22509090311E+04  0.50400001928E-02 0.  1.
       -1    1    3    3    0  502  0.11947813956E+03  0.83443591366E+03  0.12943012039E+04  0.15445950687E+04  0.50400001928E-02 0. -1.
</event>
<event>
 5   0  0.1658770E-07  0.3705478E+04  0.7818609E-02  0.8066749E-01
       -2   -1    0    0    0  501  0.00000000000E+00  0.00000000000E+00  0.28725542320E+04  0.28725542320E+04  0.25500000920E-02 0. -1.
        2   -1    0    0  501    0  0.00000000000E+00  0.00000000000E+00 -0.11949790542E+04  0.11949790542E+04  0.25500000920E-02 0.  1.
    10030    2    1    2    0    0  0.00000000000E+00  0.00000000000E+00  0.16775751777E+04  0.40675332862E+04  0.37054781821E+04 0.  0.
        2    1    3    3  502    0 -0.27622026786E+03  0.18225836417E+04  0.10427764006E+04  0.21178978703E+04  0.25500000920E-02 0.  1.
       -2    1    3    3    0  502  0.27622026786E+03 -0.18225836417E+04  0.63479877719E+03  0.19496354159E+04  0.25500000920E-02 0. -1.
</event>
<event>
 5   0  0.5177000E-08  0.3701764E+04  0.7818609E-02  0.8067571E-01
       -1   -1    0    0    0  501  0.00000000000E+00  0.00000000000E+00  0.21918469875E+04  0.21918469875E+04  0.50400001928E-02 0.  1.
        1   -1    0    0  501    0  0.00000000000E+00  0.00000000000E+00 -0.15629573896E+04  0.15629573896E+04  0.50400001928E-02 0. -1.
    10030    2    1    2    0    0  0.00000000000E+00  0.00000000000E+00  0.62888959793E+03  0.37548043771E+04  0.37017636046E+04 0.  0.
        2    1    3    3  502    0 -0.11887876753E+04 -0.39447230204E+03 -0.10677760607E+04  0.16458949692E+04  0.25500000920E-02 0. -1.
       -2    1    3    3    0  502  0.11887876753E+04  0.39447230204E+03  0.16966656586E+04  0.21089094080E+04  0.25500000920E-02 0.  1.
</event>
<event>
 5   0  0.5177000E-08  0.3665151E+04  0.7818609E-02  0.8075729E-01
       -1   -1    0    0    0  501  0.00000000000E+00  0.00000000000E+00  0.21543222377E+04  0.21543222377E+04  0.50400001928E-02 0.  1.
        1   -1    0    0  501    0  0.00000000000E+00  0.00000000000E+00 -0.15588815386E+04  0.15588815386E+04  0.50400001928E-02 0. -1.
    10030    2    1    2    0    0  0.00000000000E+00  0.00000000000E+00  0.59544069916E+03  0.37132037763E+04  0.36651511099E+04 0.  0.
        4    1    3    3  502    0  0.17365829979E+04 -0.58485766913E+03  0.32153491405E+03  0.18604207362E+04  0.12699999809E+01 0. -1.
       -4    1    3    3    0  502 -0.17365829979E+04  0.58485766913E+03  0.27390578510E+03  0.18527830401E+04  0.12699999809E+01 0.  1.
</event>
<event>
 5   0  0.1558258E-07  0.3700555E+04  0.7818609E-02  0.8067839E-01
        2   -1    0    0  501    0  0.00000000000E+00  0.00000000000E+00  0.15833777806E+04  0.15833777806E+04  0.25500000920E-02 0.  1.
       -2   -1    0    0    0  501  0.00000000000E+00  0.00000000000E+00 -0.21621670043E+04  0.21621670043E+04  0.25500000920E-02 0. -1.
    10030    2    1    2    0    0  0.00000000000E+00  0.00000000000E+00 -0.57878922367E+03  0.37455447850E+04  0.37005551976E+04 0.  0.
        1    1    3    3  502    0  0.17586567716E+04 -0.32936800861E+03  0.18768524082E+03  0.17990504926E+04  0.50400001928E-02 0.  1.
       -1    1    3    3    0  502 -0.17586567716E+04  0.32936800861E+03 -0.76647446449E+03  0.19464942923E+04  0.50400001928E-02 0. -1.
</event>
<event>
 5   0  0.1658770E-07  0.3632901E+04  0.7818609E-02  0.8082997E-01
        2   -1    0    0  501    0  0.00000000000E+00  0.00000000000E+00  0.18267400450E+04  0.18267400450E+04  0.25500000920E-02 0.  1.
       -2   -1    0    0    0  501  0.00000000000E+00  0.00000000000E+00 -0.18062194036E+04  0.18062194036E+04  0.25500000920E-02 0. -1.
    10030    2    1    2    0    0  0.00000000000E+00  0.00000000000E+00  0.20520641450E+02  0.36329594486E+04  0.36329014931E+04 0.  0.
        2    1    3    3  502    0  0.59150945968E+03 -0.13185642553E+04  0.11107315002E+04  0.18226956964E+04  0.25500000920E-02 0.  1.
       -2    1    3    3    0  502 -0.59150945968E+03  0.13185642553E+04 -0.10902108587E+04  0.18102637522E+04  0.25500000920E-02 0. -1.
</event>
<event>
 5   0  0.5177000E-08  0.3707712E+04  0.7818609E-02  0.8066255E-01
       -1   -1    0    0    0  501  0.00000000000E+00  0.00000000000E+00  0.19754806853E+04  0.19754806853E+04  0.50400001928E-02 0.  1.
        1   -1    0    0  501    0  0.00000000000E+00  0.00000000000E+00 -0.17397192580E+04  0.17397192580E+04  0.50400001928E-02 0. -1.
    10030    2    1    2    0    0  0.00000000000E+00  0.00000000000E+00  0.23576142729E+03  0.37151999433E+04  0.37077118507E+04 0.  0.
        1    1    3    3  502    0 -0.11846583196E+03 -0.15061251774E+04  0.11944502115E+04  0.19259175764E+04  0.50400001928E-02 0.  1.
       -1    1    3    3    0  502  0.11846583196E+03  0.15061251774E+04 -0.95868878421E+03  0.17892823669E+04  0.50400001928E-02 0. -1.
</event>
<event>
 5   0  0.5177000E-08  0.3695585E+04  0.7818609E-02  0.8068941E-01
        1   -1    0    0  501    0  0.00000000000E+00  0.00000000000E+00  0.20489844672E+04  0.20489844673E+04  0.50400001928E-02 0.  1.
       -1   -1    0    0    0  501  0.00000000000E+00  0.00000000000E+00 -0.16663557448E+04  0.16663557448E+04  0.50400001928E-02 0. -1.
    10030    2    1    2    0    0  0.00000000000E+00  0.00000000000E+00  0.38262872242E+03  0.37153402121E+04  0.36955849540E+04 0.  0.
        2    1    3    3  502    0  0.18451857316E+04 -0.95900112457E+02  0.17047137999E+03  0.18555235669E+04  0.25500000920E-02 0. -1.
       -2    1    3    3    0  502 -0.18451857316E+04  0.95900112457E+02  0.21215734242E+03  0.18598166452E+04  0.25500000920E-02 0.  1.
</event>
<event>
 5   0  0.1558258E-07  0.3694178E+04  0.7818609E-02  0.8069253E-01
       -2   -1    0    0    0  501  0.00000000000E+00  0.00000000000E+00  0.14186737937E+04  0.14186737937E+04  0.25500000920E-02 0.  1.
        2   -1    0    0  501    0  0.00000000000E+00  0.00000000000E+00 -0.24048778714E+04  0.24048778714E+04  0.25500000920E-02 0. -1.
    10030    2    1    2    0    0  0.00000000000E+00  0.00000000000E+00 -0.98620407772E+03  0.38235516651E+04  0.36941776964E+04 0.  0.
        1    1    3    3  502    0 -0.41738772850E+03  0.17195082247E+04  0.55377247802E+02  0.17703072305E+04  0.50400001928E-02 0. -1.
       -1    1    3    3    0  502  0.41738772850E+03 -0.17195082247E+04 -0.10415813255E+04  0.20532444346E+04  0.50400001928E-02 0.  1.
</event>
<event>
 5   0  0.5177000E-08  0.3738169E+04  0.7818609E-02  0.8059555E-01
       -1   -1    0    0    0  501  0.00000000000E+00  0.00000000000E+00  0.17022492794E+04  0.17022492794E+04  0.50400001928E-02 0.  1.
        1   -1    0    0  501    0  0.00000000000E+00  0.00000000000E+00 -0.20522711367E+04  0.20522711367E+04  0.50400001928E-02 0. -1.
    10030    2    1    2    0    0  0.00000000000E+00  0.00000000000E+00 -0.35002185734E+03  0.37545204161E+04  0.37381691046E+04 0.  0.
        2    1    3    3  502    0 -0.49589364113E+03  0.14080491943E+04 -0.13046367577E+04  0.19825715893E+04  0.25500000920E-02 0. -1.
       -2    1    3    3    0  502  0.49589364113E+03 -0.14080491943E+04  0.95461490038E+03  0.17719488268E+04  0.25500000920E-02 0.  1.
</event>
<event>
 5   0  0.5177000E-08  0.3738737E+04  0.7818609E-02  0.8059431E-01
       -1   -1    0    0    0  501  0.00000000000E+00  0.00000000000E+00  0.16385688122E+04  0.16385688122E+04  0.50400001928E-02 0.  1.
        1   -1    0    0  501    0  0.00000000000E+00  0.00000000000E+00 -0.21326774144E+04  0.21326774144E+04  0.50400001928E-02 0. -1.
    10030    2    1    2    0    0  0.00000000000E+00  0.00000000000E+00 -0.49410860218E+03  0.37712462266E+04  0.37387370583E+04 0.  0.
        3    1    3    3  502    0  0.15305606459E+03 -0.17232107490E+04 -0.96149059600E+03  0.19792285418E+04  0.10100000352E+00 0. -1.
       -3    1    3    3    0  502 -0.15305606459E+03  0.17232107490E+04  0.46738199382E+03  0.17920176848E+04  0.10100000352E+00 0.  1.
</event>
<event>
 5   0  0.1666189E-07  0.3709392E+04  0.7818609E-02  0.8065884E-01
       -2   -1    0    0    0  501  0.00000000000E+00  0.00000000000E+00  0.18131556045E+04  0.18131556045E+04  0.25500000920E-02 0. -1.
        2   -1    0    0  501    0  0.00000000000E+00  0.00000000000E+00 -0.18971880105E+04  0.18971880105E+04  0.25500000920E-02 0.  1.
    10030    2    1    2    0    0  0.00000000000E+00  0.00000000000E+00 -0.84032405974E+02  0.37103436151E+04  0.37093919039E+04 0.  0.
        4    1    3    3  502    0  0.23440789876E+03 -0.22626838680E+03 -0.18683409009E+04  0.18965346770E+04  0.12699999809E+01 0.  1.
       -4    1    3    3    0  502 -0.23440789876E+03  0.22626838680E+03  0.17843084950E+04  0.18138089381E+04  0.12699999809E+01 0. -1.
</event>
<event>
 5   0  0.1666189E-07  0.3615872E+04  0.7818609E-02  0.8086866E-01
       -2   -1    0    0    0  501  0.00000000000E+00  0.00000000000E+00  0.20253747129E+04  0.20253747129E+04  0.25500000920E-02 0. -1.
        2   -1    0    0  501    0  0.00000000000E+00  0.00000000000E+00 -0.16138406156E+04  0.16138406156E+04  0.25500000920E-02 0.  1.
    10030    2    1    2    0    0  0.00000000000E+00  0.00000000000E+00  0.41153409721E+03  0.36392153285E+04  0.36158716645E+04 0.  0.
        4    1    3    3  502    0  0.12627204047E+04  0.67591782493E+03  0.13162043090E+04  0.19451794577E+04  0.12699999809E+01 0. -1.
       -4    1    3    3    0  502 -0.12627204047E+04 -0.67591782493E+03 -0.90467021184E+03  0.16940358708E+04  0.12699999809E+01 0.  1.
</event>
<event>
 5   0  0.1666189E-07  0.3800343E+04  0.7818609E-02  0.8046081E-01
        2   -1    0    0  501    0  0.00000000000E+00  0.00000000000E+00  0.27107617697E+04  0.27107617697E+04  0.25500000920E-02 0. -1.
       -2   -1    0    0    0  501  0.00000000000E+00  0.00000000000E+00 -0.13319696557E+04  0.13319696557E+04  0.25500000920E-02 0.  1.
    10030    2    1    2    0    0  0.00000000000E+00  0.00000000000E+00  0.13787921141E+04  0.40427314254E+04  0.38003433640E+04 0.  0.
        4    1    3    3  502    0 -0.14757053919E+04  0.11781016488E+04  0.46368169904E+03  0.19443847946E+04  0.12699999809E+01 0.  1.
       -4    1    3    3    0  502  0.14757053919E+04 -0.11781016488E+04  0.91511041502E+03  0.20983466308E+04  0.12699999809E+01 0. -1.
</event>
<event>
 5   0  0.1587026E-07  0.3711607E+04  0.7818609E-02  0.8065394E-01
       -2   -1    0    0    0  501  0.00000000000E+00  0.00000000000E+00  0.12324251859E+04  0.12324251859E+04  0.25500000920E-02 0.  1.
        2   -1    0    0  501    0  0.00000000000E+00  0.00000000000E+00 -0.27944954984E+04  0.27944954984E+04  0.25500000920E-02 0. -1.
    10030    2    1    2    0    0  0.00000000000E+00  0.00000000000E+00 -0.15620703126E+04  0.40269206843E+04  0.37116070019E+04 0.  0.
        3    1    3    3  502    0 -0.12609963887E+04  0.91091482226E+03 -0.18789999256E+04  0.24393684503E+04  0.10100000352E+00 0. -1.
       -3    1    3    3    0  502  0.12609963887E+04 -0.91091482226E+03  0.31692961303E+03  0.15875522340E+04  0.10100000352E+00 0.  1.
</event>
<event>
 5   0  0.5177000E-08  0.3681316E+04  0.7818609E-02  0.8072115E-01
       -1   -1    0    0    0  501  0.00000000000E+00  0.00000000000E+00  0.27752272300E+04  0.27752272300E+04  0.50400001928E-02 0. -1.
        1   -1    0    0  501    0  0.00000000000E+00  0.00000000000E+00 -0.12208087810E+04  0.12208087810E+04  0.50400001928E-02 0.  1.
    10030    2    1    2    0    0  0.00000000000E+00  0.00000000000E+00  0.15544184490E+04  0.39960360110E+04  0.36813159450E+04 0.  0.
        1    1    3    3  502    0  0.15207247359E+04 -0.99007064678E+03  0.44232478989E+03  0.18677512757E+04  0.50400001928E-02 0. -1.
       -1    1    3    3    0  502 -0.15207247359E+04  0.99007064678E+03  0.11120936591E+04  0.21282847353E+04  0.50400001928E-02 0.  1.
</event>
<event>
 5   0  0.1658770E-07  0.3694059E+04  0.7818609E-02  0.8069280E-01
        2   -1    0    0  501    0  0.00000000000E+00  0.00000000000E+00  0.21290172260E+04  0.21290172260E+04  0.25500000920E-02 0.  1.
       -2   -1    0    0    0  501  0.00000000000E+00  0.00000000000E+00 -0.16023906172E+04  0.16023906172E+04  0.25500000920E-02 0. -1.
    10030    2    1    2    0    0  0.00000000000E+00  0.00000000000E+00  0.52662660884E+03  0.37314078432E+04  0.36940585956E+04 0.  0.
        2    1    3    3  502    0 -0.14411574318E+04  0.71052156641E+03 -0.65679800536E+03  0.17358454019E+04  0.25500000920E-02 0. -1.
       -2    1    3    3    0  502  0.14411574318E+04 -0.71052156641E+03  0.11834246142E+04  0.19955624413E+04  0.25500000920E-02 0.  1.
</event>
<event>
 5   0  0.1558258E-07  0.3595797E+04  0.7818609E-02  0.8091455E-01
        2   -1    0    0  501    0  0.00000000000E+00  0.00000000000E+00  0.10248184036E+04  0.10248184036E+04  0.25500000920E-02 0. -1.
       -2   -1    0    0    0  501  0.00000000000E+00  0.00000000000E+00 -0.31541575664E+04  0.31541575664E+04  0.25500000920E-02 0.  1.
    10030    2    1    2    0    0  0.00000000000E+00  0.00000000000E+00 -0.21293391628E+04  0.41789759700E+04  0.35957968362E+04 0.  0.
        1    1    3    3  502    0  0.77190373266E+03  0.15969795745E+04 -0.72333647199E+03  0.19155664399E+04  0.50400001928E-02 0. -1.
       -1    1    3    3    0  502 -0.77190373266E+03 -0.15969795745E+04 -0.14060026908E+04  0.22634095300E+04  0.50400001928E-02 0.  1.
</event>
<event>
 5   0  0.5177000E-08  0.3697729E+04  0.7818609E-02  0.8068465E-01
       -1   -1    0    0    0  501  0.00000000000E+00  0.00000000000E+00  0.16162017619E+04  0.16162017619E+04  0.50400001928E-02 0.  1.
        1   -1    0    0  501    0  0.00000000000E+00  0.00000000000E+00 -0.21150202181E+04  0.21150202181E+04  0.50400001928E-02 0. -1.
    10030    2    1    2    0    0  0.00000000000E+00  0.00000000000E+00 -0.49881845620E+03  0.37312219799E+04  0.36977287098E+04 0.  0.
        2    1    3    3  502    0 -0.16817479845E+04  0.66168099691E+03 -0.64307289506E+03  0.19182389772E+04  0.25500000920E-02 0.  1.
       -2    1    3    3    0  502  0.16817479845E+04 -0.66168099691E+03  0.14425443886E+03  0.18129830028E+04  0.25500000920E-02 0. -1.
</event>
<event>
 5   0  0.5177000E-08  0.3698345E+04  0.7818609E-02  0.8068329E-01
       -1   -1    0    0    0  501  0.00000000000E+00  0.00000000000E+00  0.14669599048E+04  0.14669599048E+04  0.50400001928E-02 0.  1.
        1   -1    0    0  501    0  0.00000000000E+00  0.00000000000E+00 -0.23309692275E+04  0.23309692275E+04  0.50400001928E-02 0. -1.
    10030    2    1    2    0    0  0.00000000000E+00  0.00000000000E+00 -0.86400932264E+03  0.37979291323E+04  0.36983447087E+04 0.  0.
        2    1    3    3  502    0 -0.16394770873E+04 -0.84384683412E+03 -0.28869116709E+03  0.18663614841E+04  0.25500000920E-02 0.  1.
       -2    1    3    3    0  502  0.16394770873E+04  0.84384683412E+03 -0.57531815555E+03  0.19315676482E+04  0.25500000920E-02 0. -1.
</event>
<event>
 5   0  0.1558258E-07  0.3703149E+04  0.7818609E-02  0.8067264E-01
       -2   -1    0    0    0  501  0.00000000000E+00  0.00000000000E+00  0.13690965873E+04  0.13690965873E+04  0.25500000920E-02 0.  1.
        2   -1    0    0  501    0  0.00000000000E+00  0.00000000000E+00 -0.25040803326E+04  0.25040803326E+04  0.25500000920E-02 0. -1.
    10030    2    1    2    0    0  0.00000000000E+00  0.00000000000E+00 -0.11349837453E+04  0.38731769199E+04  0.37031488427E+04 0.  0.
        1    1    3    3  502    0 -0.12199921492E+03 -0.15568361789E+04  0.47302488797E+03  0.16316786574E+04  0.50400001928E-02 0.  1.
       -1    1    3    3    0  502  0.12199921492E+03  0.15568361789E+04 -0.16080086332E+04  0.22414982625E+04  0.50400001928E-02 0. -1.
</event>
<event>
 5   0  0.1666189E-07  0.3702402E+04  0.7818609E-02  0.8067430E-01
       -2   -1    0    0    0  501  0.00000000000E+00  0.00000000000E+00  0.18787988214E+04  0.18787988214E+04  0.25500000920E-02 0. -1.
        2   -1    0    0  501    0  0.00000000000E+00  0.00000000000E+00 -0.18240089357E+04  0.18240089357E+04  0.25500000920E-02 0.  1.
    10030    2    1    2    0    0  0.00000000000E+00  0.00000000000E+00  0.54789885739E+02  0.37028077570E+04  0.37024023760E+04 0.  0.
        4    1    3    3  502    0  0.14650913316E+04  0.45766923010E+03  0.10623949587E+04  0.18667186170E+04  0.12699999809E+01 0. -1.
       -4    1    3    3    0  502 -0.14650913316E+04 -0.45766923010E+03 -0.10076050729E+04  0.18360891400E+04  0.12699999809E+01 0.  1.
</event>
<event>
 5   0  0.1666189E-07  0.3705151E+04  0.7818609E-02  0.8066821E-01
       -2   -1    0    0    0  501  0.00000000000E+00  0.00000000000E+00  0.12848131978E+04  0.12848131978E+04  0.25500000920E-02 0. -1.
        2   -1    0    0  501    0  0.00000000000E+00  0.00000000000E+00 -0.26712335716E+04  0.26712335716E+04  0.25500000920E-02 0.  1.
    10030    2    1    2    0    0  0.00000000000E+00  0.00000000000E+00 -0.13864203738E+04  0.39560467694E+04  0.37051510885E+04 0.  0.
        4    1    3    3  502    0  0.53590004254E+03  0.72460712723E+03  0.10349689215E+04  0.13723726264E+04  0.12699999809E+01 0. -1.
       -4    1    3    3    0  502 -0.53590004254E+03 -0.72460712723E+03 -0.24213892953E+04  0.25836741429E+04  0.12699999809E+01 0.  1.
</event>
<event>
 5   0  0.5177000E-08  0.3700995E+04  0.7818609E-02  0.8067741E-01
        1   -1    0    0  501    0  0.00000000000E+00  0.00000000000E+00  0.22026291111E+04  0.22026291111E+04  0.50400001928E-02 0.  1.
       -1   -1    0    0    0  501  0.00000000000E+00  0.00000000000E+00 -0.15546608552E+04  0.15546608552E+04  0.50400001928E-02 0. -1.
    10030    2    1    2    0    0  0.00000000000E+00  0.00000000000E+00  0.64796825593E+03  0.37572899664E+04  0.37009951406E+04 0.  0.
        3    1    3    3  502    0  0.81446903866E+03  0.14370258982E+04  0.11709023427E+04  0.20247013492E+04  0.10100000352E+00 0.  1.
       -3    1    3    3    0  502 -0.81446903866E+03 -0.14370258982E+04 -0.52293408677E+03  0.17325886172E+04  0.10100000352E+00 0. -1.
</event>
<event>
 5   0  0.5181371E-08  0.3717481E+04  0.7818609E-02  0.8064099E-01
       -1   -1    0    0    0  501  0.00000000000E+00  0.00000000000E+00  0.20288182611E+04  0.20288182611E+04  0.50400001928E-02 0.  1.
        1   -1    0    0  501    0  0.00000000000E+00  0.00000000000E+00 -0.17029201794E+04  0.17029201794E+04  0.50400001928E-02 0. -1.
    10030    2    1    2    0    0  0.00000000000E+00  0.00000000000E+00  0.32589808165E+03  0.37317384406E+04  0.37174806293E+04 0.  0.
        5    1    3    3  502    0 -0.13222362489E+04  0.44374092136E+03 -0.10704532623E+04  0.17581544244E+04  0.46999998093E+01 0. -1.
       -5    1    3    3    0  502  0.13222362489E+04 -0.44374092136E+03  0.13963513439E+04  0.19735840162E+04  0.46999998093E+01 0.  1.
</event>
<event>
 5   0  0.1658770E-07  0.3801284E+04  0.7818609E-02  0.8045879E-01
        2   -1    0    0  501    0  0.00000000000E+00  0.00000000000E+00  0.19094424349E+04  0.19094424349E+04  0.25500000920E-02 0. -1.
       -2   -1    0    0    0  501  0.00000000000E+00  0.00000000000E+00 -0.18918824554E+04  0.18918824554E+04  0.25500000920E-02 0.  1.
    10030    2    1    2    0    0  0.00000000000E+00  0.00000000000E+00  0.17559979463E+02  0.38013248903E+04  0.38012843315E+04 0.  0.
        2    1    3    3  502    0 -0.13801850694E+04 -0.10371149627E+04 -0.78616394270E+03  0.18969902520E+04  0.25500000920E-02 0.  1.
       -2    1    3    3    0  502  0.13801850694E+04  0.10371149627E+04  0.80372392216E+03  0.19043346383E+04  0.25500000920E-02 0. -1.
</event>
<event>
 5   0  0.5177000E-08  0.3681589E+04  0.7818609E-02  0.8072054E-01
        1   -1    0    0  501    0  0.00000000000E+00  0.00000000000E+00  0.22018440913E+04  0.22018440913E+04  0.50400001928E-02 0.  1.
       -1   -1    0    0    0  501  0.00000000000E+00  0.00000000000E+00 -0.15389486270E+04  0.15389486270E+04  0.50400001928E-02 0. -1.
    10030    2    1    2    0    0  0.00000000000E+00  0.00000000000E+00  0.66289546434E+03  0.37407927183E+04  0.36815892987E+04 0.  0.
        2    1    3    3  502    0  0.82558688767E+02 -0.12627011056E+03 -0.15326564950E+04  0.15400636382E+04  0.25500000920E-02 0. -1.
       -2    1    3    3    0  502 -0.82558688767E+02  0.12627011056E+03  0.21955519593E+04  0.22007290801E+04  0.25500000920E-02 0.  1.
</event>
<event>
 5   0  0.5177000E-08  0.3762849E+04  0.7818609E-02  0.8054175E-01
       -1   -1    0    0    0  501  0.00000000000E+00  0.00000000000E+00  0.34172431330E+04  0.34172431330E+04  0.50400001928E-02 0. -1.
        1   -1    0    0  501    0  0.00000000000E+00  0.00000000000E+00 -0.10358522166E+04  0.10358522166E+04  0.50400001928E-02 0.  1.
    10030    2    1    2    0    0  0.00000000000E+00  0.00000000000E+00  0.23813909164E+04  0.44530953497E+04  0.37628493853E+04 0.  0.
        2    1    3    3  502    0 -0.81895428055E+03 -0.20283383729E+02 -0.81370641414E+03  0.11546495822E+04  0.25500000920E-02 0.  1.
       -2    1    3    3    0  502  0.81895428055E+03  0.20283383729E+02  0.31950973305E+04  0.32984457674E+04  0.25500000920E-02 0. -1.
</event>
<event>
 5   0  0.5177000E-08  0.3715420E+04  0.7818609E-02  0.8064553E-01
       -1   -1    0    0    0  501  0.00000000000E+00  0.00000000000E+00  0.28697437431E+04  0.28697437431E+04  0.50400001928E-02 0. -1.
        1   -1    0    0  501    0  0.00000000000E+00  0.00000000000E+00 -0.12025764721E+04  0.12025764721E+04  0.50400001928E-02 0.  1.
    10030    2    1    2    0    0  0.00000000000E+00  0.00000000000E+00  0.16671672710E+04  0.40723202153E+04  0.37154199259E+04 0.  0.
        1    1    3    3  502    0  0.49779650648E+03 -0.15589321016E+04 -0.13008595968E+03  0.16416433888E+04  0.50400001928E-02 0.  1.
       -1    1    3    3    0  502 -0.49779650648E+03  0.15589321016E+04  0.17972532307E+04  0.24306768264E+04  0.50400001928E-02 0. -1.
</event>
<event>
 5   0  0.1658770E-07  0.3726685E+04  0.7818609E-02  0.8062074E-01
       -2   -1    0    0    0  501  0.00000000000E+00  0.00000000000E+00  0.28131367565E+04  0.28131367565E+04  0.25500000920E-02 0.  1.
        2   -1    0    0  501    0  0.00000000000E+00  0.00000000000E+00 -0.12342253143E+04  0.12342253143E+04  0.25500000920E-02 0. -1.
    10030    2    1    2    0    0  0.00000000000E+00  0.00000000000E+00  0.15789114422E+04  0.40473620708E+04  0.37266846379E+04 0.  0.
        2    1    3    3  502    0 -0.16722187617E+04 -0.51792905560E+03  0.14827246969E+04  0.22941313434E+04  0.25500000920E-02 0.  1.
       -2    1    3    3    0  502  0.16722187617E+04  0.51792905560E+03  0.96186745249E+02  0.17532307275E+04  0.25500000920E-02 0. -1.
</event>
<event>
 5   0  0.1666189E-07  0.3683312E+04  0.7818609E-02  0.8071670E-01
        2   -1    0    0  501    0  0.00000000000E+00  0.00000000000E+00  0.23276273226E+04  0.23276273226E+04  0.25500000920E-02 0.  1.
       -2   -1    0    0    0  501  0.00000000000E+00  0.00000000000E+00 -0.14571479741E+04  0.14571479741E+04  0.25500000920E-02 0. -1.
    10030    2    1    2    0    0  0.00000000000E+00  0.00000000000E+00  0.87047934853E+03  0.37847752967E+04  0.36833123341E+04 0.  0.
        4    1    3    3  502    0  0.54876724110E+03 -0.49915738500E+03 -0.12968371410E+04  0.14940186622E+04  0.12699999809E+01 0. -1.
       -4    1    3    3    0  502 -0.54876724110E+03  0.49915738500E+03  0.21673164895E+04  0.22907566345E+04  0.12699999809E+01 0.  1.
</event>
<event>
 5   0  0.5177000E-08  0.3695741E+04  0.7818609E-02  0.8068906E-01
        1   -1    0    0  501    0  0.00000000000E+00  0.00000000000E+00  0.17066502612E+04  0.17066502612E+04  0.50400001928E-02 0.  1.
       -1   -1    0    0    0  501  0.00000000000E+00  0.00000000000E+00 -0.20007764323E+04  0.20007764323E+04  0.50400001928E-02 0. -1.
    10030    2    1    2    0    0  0.00000000000E+00  0.00000000000E+00 -0.29412617108E+03  0.37074266935E+04  0.36957411277E+04 0.  0.
        3    1    3    3  502    0  0.41706311048E+03  0.12827373857E+04 -0.14140961881E+04  0.19542325548E+04  0.10100000352E+00 0. -1.
       -3    1    3    3    0  502 -0.41706311048E+03 -0.12827373857E+04  0.11199700170E+04  0.17531941387E+04  0.10100000352E+00 0.  1.
</event>
<event>
 5   0  0.1558258E-07  0.3710813E+04  0.7818609E-02  0.8065570E-01
        2   -1    0    0  501    0  0.00000000000E+00  0.00000000000E+00  0.26786774529E+04  0.26786774529E+04  0.25500000920E-02 0.  1.
       -2   -1    0    0    0  501  0.00000000000E+00  0.00000000000E+00 -0.12851615187E+04  0.12851615187E+04  0.25500000920E-02 0. -1.
    10030    2    1    2    0    0  0.00000000000E+00  0.00000000000E+00  0.13935159342E+04  0.39638389716E+04  0.37108129478E+04 0.  0.
        1    1    3    3  502    0  0.29860416874E+03  0.42030949474E+03  0.26006207033E+04  0.26512360444E+04  0.50400001928E-02 0.  1.
       -1    1    3    3    0  502 -0.29860416874E+03 -0.42030949474E+03 -0.12071047691E+04  0.13126029272E+04  0.50400001928E-02 0. -1.
</event>
<event>
 5   0  0.5177000E-08  0.3699064E+04  0.7818609E-02  0.8068169E-01
       -1   -1    0    0    0  501  0.00000000000E+00  0.00000000000E+00  0.19926126327E+04  0.19926126327E+04  0.50400001928E-02 0.  1.
        1   -1    0    0  501    0  0.00000000000E+00  0.00000000000E+00 -0.17167251604E+04  0.17167251604E+04  0.50400001928E-02 0. -1.
    10030    2    1    2    0    0  0.00000000000E+00  0.00000000000E+00  0.27588747229E+03  0.37093377931E+04  0.36990637959E+04 0.  0.
        2    1    3    3  502    0  0.94730791891E+03  0.15878871898E+04  0.93207936263E+02  0.18513416054E+04  0.25500000920E-02 0. -1.
       -2    1    3    3    0  502 -0.94730791891E+03 -0.15878871898E+04  0.18267953602E+03  0.18579961877E+04  0.25500000920E-02 0.  1.
</event>
<event>
 5   0  0.5177000E-08  0.3702677E+04  0.7818609E-02  0.8067369E-01
       -1   -1    0    0    0  501  0.00000000000E+00  0.00000000000E+00  0.18741801717E+04  0.18741801717E+04  0.50400001928E-02 0. -1.
        1   -1    0    0  501    0  0.00000000000E+00  0.00000000000E+00 -0.18287755014E+04  0.18287755014E+04  0.50400001928E-02 0.  1.
    10030    2    1    2    0    0  0.00000000000E+00  0.00000000000E+00  0.45404670315E+02  0.37029556731E+04  0.37026772926E+04 0.  0.
        1    1    3    3  502    0 -0.16220887320E+04 -0.81124046071E+03  0.39444501620E+03  0.18560360477E+04  0.50400001928E-02 0. -1.
       -1    1    3    3    0  502  0.16220887320E+04  0.81124046071E+03 -0.34904034588E+03  0.18469196254E+04  0.50400001928E-02 0.  1.
</event>
<event>
 5   0  0.5177000E-08  0.3697203E+04  0.7818609E-02  0.8068582E-01
       -1   -1    0    0    0  501  0.00000000000E+00  0.00000000000E+00  0.27157363316E+04  0.27157363316E+04  0.50400001928E-02 0.  1.
        1   -1    0    0  501    0  0.00000000000E+00  0.00000000000E+00 -0.12583426832E+04  0.12583426832E+04  0.50400001928E-02 0. -1.
    10030    2    1    2    0    0  0.00000000000E+00  0.00000000000E+00  0.14573936484E+04  0.39740790148E+04  0.36972026952E+04 0.  0.
        3    1    3    3  502    0 -0.17658413951E+04 -0.49148786287E+03  0.47078913254E+03  0.18924583402E+04  0.10100000352E+00 0.  1.
       -3    1    3    3    0  502  0.17658413951E+04  0.49148786287E+03  0.98660451590E+03  0.20816206746E+04  0.10100000352E+00 0. -1.
</event>
<event>
 5   0  0.5177000E-08  0.3762136E+04  0.7818609E-02  0.8054329E-01
        1   -1    0    0  501    0  0.00000000000E+00  0.00000000000E+00  0.17997853551E+04  0.17997853551E+04  0.50400001928E-02 0.  1.
       -1   -1    0    0    0  501  0.00000000000E+00  0.00000000000E+00 -0.19660219128E+04  0.19660219128E+04  0.50400001928E-02 0. -1.
    10030    2    1    2    0    0  0.00000000000E+00  0.00000000000E+00 -0.16623655771E+03  0.37658072680E+04  0.37621363328E+04 0.  0.
        1    1    3    3  502    0  0.14303312832E+04 -0.10854112580E+04 -0.64442588267E+03  0.19076818123E+04  0.50400001928E-02 0.  1.
       -1    1    3    3    0  502 -0.14303312832E+04  0.10854112580E+04  0.47818932496E+03  0.18581254557E+04  0.50400001928E-02 0. -1.
</event>
<event>
 5   0  0.5177000E-08  0.3751822E+04  0.7818609E-02  0.8056573E-01
       -1   -1    0    0    0  501  0.00000000000E+00  0.00000000000E+00  0.26344742478E+04  0.26344742478E+04  0.50400001928E-02 0.  1.
        1   -1    0    0  501    0  0.00000000000E+00  0.00000000000E+00 -0.13357664212E+04  0.13357664212E+04  0.50400001928E-02 0. -1.
    10030    2    1    2    0    0  0.00000000000E+00  0.00000000000E+00  0.12987078266E+04  0.39702406689E+04  0.37518220840E+04 0.  0.
        1    1    3    3  502    0  0.59860838297E+03 -0.26820530803E+03  0.25091606487E+04  0.25934828406E+04  0.50400001928E-02 0.  1.
       -1    1    3    3    0  502 -0.59860838297E+03  0.26820530803E+03 -0.12104528221E+04  0.13767578284E+04  0.50400001928E-02 0. -1.
</event>
<event>
 5   0  0.5177000E-08  0.3687446E+04  0.7818609E-02  0.8070750E-01
       -1   -1    0    0    0  501  0.00000000000E+00  0.00000000000E+00  0.12752747818E+04  0.12752747818E+04  0.50400001928E-02 0.  1.
        1   -1    0    0  501    0  0.00000000000E+00  0.00000000000E+00 -0.26655550403E+04  0.26655550403E+04  0.50400001928E-02 0. -1.
    10030    2    1    2    0    0  0.00000000000E+00  0.00000000000E+00 -0.13902802585E+04  0.39408298221E+04  0.36874463372E+04 0.  0.
        2    1    3    3  502    0 -0.16105529440E+04 -0.81884460870E+03 -0.30257405759E+03  0.18319220341E+04  0.25500000920E-02 0. -1.
       -2    1    3    3    0  502  0.16105529440E+04  0.81884460870E+03 -0.10877062009E+04  0.21089077880E+04  0.25500000920E-02 0.  1.
</event>
<event>
 5   0  0.5177000E-08  0.3700586E+04  0.7818609E-02  0.8067832E-01
       -1   -1    0    0    0  501  0.00000000000E+00  0.00000000000E+00  0.21682544198E+04  0.21682544198E+04  0.50400001928E-02 0.  1.
        1   -1    0    0  501    0  0.00000000000E+00  0.00000000000E+00 -0.15789586770E+04  0.15789586770E+04  0.50400001928E-02 0. -1.
    10030    2    1    2    0    0  0.00000000000E+00  0.00000000000E+00  0.58929574281E+03  0.37472130969E+04  0.37005859699E+04 0.  0.
        1    1    3    3  502    0 -0.99282652857E+03 -0.10542787478E+04  0.14608429663E+04  0.20570051935E+04  0.50400001928E-02 0.  1.
       -1    1    3    3    0  502  0.99282652857E+03  0.10542787478E+04 -0.87154722347E+03  0.16902079034E+04  0.50400001928E-02 0. -1.
</event>
<event>
 5   0  0.1658770E-07  0.3715985E+04  0.7818609E-02  0.8064429E-01
       -2   -1    0    0    0  501  0.00000000000E+00  0.00000000000E+00  0.12682084905E+04  0.12682084905E+04  0.25500000920E-02 0. -1.
        2   -1    0    0  501    0  0.00000000000E+00  0.00000000000E+00 -0.27220569790E+04  0.27220569791E+04  0.25500000920E-02 0.  1.
    10030    2    1    2    0    0  0.00000000000E+00  0.00000000000E+00 -0.14538484885E+04  0.39902654696E+04  0.37159848075E+04 0.  0.
        2    1    3    3  502    0  0.29340641639E+03 -0.26810461745E+03  0.12220260185E+04  0.12850350194E+04  0.25500000920E-02 0. -1.
       -2    1    3    3    0  502 -0.29340641639E+03  0.26810461745E+03 -0.26758745071E+04  0.27052304502E+04  0.25500000920E-02 0.  1.
</event>
<event>
 5   0  0.5177000E-08  0.3700671E+04  0.7818609E-02  0.8067813E-01
       -1   -1    0    0    0  501  0.00000000000E+00  0.00000000000E+00  0.20807843080E+04  0.20807843080E+04  0.50400001928E-02 0.  1.
        1   -1    0    0  501    0  0.00000000000E+00  0.00000000000E+00 -0.16454092583E+04  0.16454092583E+04  0.50400001928E-02 0. -1.
    10030    2    1    2    0    0  0.00000000000E+00  0.00000000000E+00  0.43537504978E+03  0.37261935663E+04  0.37006711634E+04 0.  0.
        2    1    3    3  502    0  0.73776455758E+03  0.13926421261E+04 -0.75853147440E+03  0.17490336279E+04  0.25500000920E-02 0. -1.
       -2    1    3    3    0  502 -0.73776455758E+03 -0.13926421261E+04  0.11939065242E+04  0.19771599384E+04  0.25500000920E-02 0.  1.
</event>
<event>
 5   0  0.5181371E-08  0.3701251E+04  0.7818609E-02  0.8067685E-01
       -1   -1    0    0    0  501  0.00000000000E+00  0.00000000000E+00  0.18337683707E+04  0.18337683707E+04  0.50400001928E-02 0.  1.
        1   -1    0    0  501    0  0.00000000000E+00  0.00000000000E+00 -0.18676377744E+04  0.18676377744E+04  0.50400001928E-02 0. -1.
    10030    2    1    2    0    0  0.00000000000E+00  0.00000000000E+00 -0.33869403735E+02  0.37014061451E+04  0.37012511823E+04 0.  0.
        5    1    3    3  502    0 -0.10083078812E+04 -0.67976934236E+03  0.13781225732E+04  0.18379377190E+04  0.46999998093E+01 0.  1.
       -5    1    3    3    0  502  0.10083078812E+04  0.67976934236E+03 -0.14119919769E+04  0.18634684261E+04  0.46999998093E+01 0. -1.
</event>
<event>
 5   0  0.1558258E-07  0.3695967E+04  0.7818609E-02  0.8068856E-01
        2   -1    0    0  501    0  0.00000000000E+00  0.00000000000E+00  0.16679515086E+04  0.16679515086E+04  0.25500000920E-02 0.  1.
       -2   -1    0    0    0  501  0.00000000000E+00  0.00000000000E+00 -0.20474471479E+04  0.20474471479E+04  0.25500000920E-02 0. -1.
    10030    2    1    2    0    0  0.00000000000E+00  0.00000000000E+00 -0.37949563933E+03  0.37153986565E+04  0.36959667527E+04 0.  0.
        1    1    3    3  502    0 -0.12979776255E+04 -0.10532134343E+04 -0.98195082894E+03  0.19386159715E+04  0.50400001928E-02 0. -1.
       -1    1    3    3    0  502  0.12979776255E+04  0.10532134343E+04  0.60245518960E+03  0.17767826851E+04  0.50400001928E-02 0.  1.
</event>
<event>
 5   0  0.1558258E-07  0.3686634E+04  0.7818609E-02  0.8070930E-01
       -2   -1    0    0    0  501  0.00000000000E+00  0.00000000000E+00  0.30235537911E+04  0.30235537911E+04  0.25500000920E-02 0. -1.
        2   -1    0    0  501    0  0.00000000000E+00  0.00000000000E+00 -0.11237828224E+04  0.11237828224E+04  0.25500000920E-02 0.  1.
    10030    2    1    2    0    0  0.00000000000E+00  0.00000000000E+00  0.18997709687E+04  0.41473366135E+04  0.36866341359E+04 0.  0.
        1    1    3    3  502    0  0.15025151913E+04  0.10622415194E+03 -0.24543075685E+03  0.15261296560E+04  0.50400001928E-02 0.  1.
       -1    1    3    3    0  502 -0.15025151913E+04 -0.10622415194E+03  0.21452017256E+04  0.26212069575E+04  0.50400001928E-02 0. -1.
</event>
<event>
 5   0  0.1658770E-07  0.3695146E+04  0.7818609E-02  0.8069038E-01
       -2   -1    0    0    0  501  0.00000000000E+00  0.00000000000E+00  0.15980218970E+04  0.15980218970E+04  0.25500000920E-02 0.  1.
        2   -1    0    0  501    0  0.00000000000E+00  0.00000000000E+00 -0.21360951382E+04  0.21360951382E+04  0.25500000920E-02 0. -1.
    10030    2    1    2    0    0  0.00000000000E+00  0.00000000000E+00 -0.53807324124E+03  0.37341170352E+04  0.36951464408E+04 0.  0.
        2    1    3    3  502    0  0.21727643969E+03 -0.12459896679E+03  0.15807858947E+04  0.16005055448E+04  0.25500000920E-02 0.  1.
       -2    1    3    3    0  502 -0.21727643969E+03  0.12459896679E+03 -0.21188591360E+04  0.21336114904E+04  0.25500000920E-02 0. -1.
</event>
<event>
 5   0  0.1686284E-07  0.3707623E+04  0.7818609E-02  0.8066275E-01
       -2   -1    0    0    0  501  0.00000000000E+00  0.00000000000E+00  0.12234319758E+04  0.12234319758E+04  0.25500000920E-02 0. -1.
        2   -1    0    0  501    0  0.00000000000E+00  0.00000000000E+00 -0.28089975637E+04  0.28089975637E+04  0.25500000920E-02 0.  1.
    10030    2    1    2    0    0  0.00000000000E+00  0.00000000000E+00 -0.15855655879E+04  0.40324295395E+04  0.37076231952E+04 0.  0.
        5    1    3    3  502    0  0.15572658582E+03  0.16369830803E+04  0.13814036613E+03  0.16501724836E+04  0.46999998093E+01 0. -1.
       -5    1    3    3    0  502 -0.15572658582E+03 -0.16369830803E+04 -0.17237059540E+04  0.23822570560E+04  0.46999998093E+01 0.  1.
</event>
<event>
 5   0  0.5177000E-08  0.3704266E+04  0.7818609E-02  0.8067017E-01
        1   -1    0    0  501    0  0.00000000000E+00  0.00000000000E+00  0.21461799192E+04  0.21461799192E+04  0.50400001928E-02 0.  1.
       -1   -1    0    0    0  501  0.00000000000E+00  0.00000000000E+00 -0.15983729625E+04  0.15983729625E+04  0.50400001928E-02 0. -1.
    10030    2    1    2    0    0  0.00000000000E+00  0.00000000000E+00  0.54780695671E+03  0.37445528817E+04  0.37042656252E+04 0.  0.
        4    1    3    3  502    0 -0.26494744050E+03 -0.69525507540E+03  0.19884686930E+04  0.21231076568E+04  0.12699999809E+01 0.  1.
       -4    1    3    3    0  502  0.26494744050E+03  0.69525507540E+03 -0.14406617363E+04  0.16214452250E+04  0.12699999809E+01 0. -1.
</event>
<event>
 5   0  0.1558258E-07  0.3711408E+04  0.7818609E-02  0.8065438E-01
       -2   -1    0    0    0  501  0.00000000000E+00  0.00000000000E+00  0.28098782254E+04  0.28098782254E+04  0.25500000920E-02 0.  1.
        2   -1    0    0  501    0  0.00000000000E+00  0.00000000000E+00 -0.12255470471E+04  0.12255470471E+04  0.25500000920E-02 0. -1.
    10030    2    1    2    0    0  0.00000000000E+00  0.00000000000E+00  0.15843311783E+04  0.40354252725E+04  0.37114083374E+04 0.  0.
        1    1    3    3  502    0 -0.72655045810E+03 -0.15675801133E+03 -0.10566297428E+04  0.12918649526E+04  0.50400001928E-02 0. -1.
       -1    1    3    3    0  502  0.72655045810E+03  0.15675801133E+03  0.26409609211E+04  0.27435603199E+04  0.50400001928E-02 0.  1.
</event>
<event>
 5   0  0.5177000E-08  0.3692470E+04  0.7818609E-02  0.8069633E-01
       -1   -1    0    0    0  501  0.00000000000E+00  0.00000000000E+00  0.19644719480E+04  0.19644719480E+04  0.50400001928E-02 0.  1.
        1   -1    0    0  501    0  0.00000000000E+00  0.00000000000E+00 -0.17351147391E+04  0.17351147391E+04  0.50400001928E-02 0. -1.
    10030    2    1    2    0    0  0.00000000000E+00  0.00000000000E+00  0.22935720890E+03  0.36995866870E+04  0.36924703012E+04 0.  0.
        1    1    3    3  502    0 -0.11666601058E+04  0.28073101021E+03 -0.12911215911E+04  0.17626402542E+04  0.50400001928E-02 0. -1.
       -1    1    3    3    0  502  0.11666601058E+04 -0.28073101021E+03  0.15204788000E+04  0.19369464329E+04  0.50400001928E-02 0.  1.
</event>
<event>
 5   0  0.5177000E-08  0.3693769E+04  0.7818609E-02  0.8069344E-01
        1   -1    0    0  501    0  0.00000000000E+00  0.00000000000E+00  0.20049836998E+04  0.20049836998E+04  0.50400001928E-02 0. -1.
       -1   -1    0    0    0  501  0.00000000000E+00  0.00000000000E+00 -0.17012521452E+04  0.17012521452E+04  0.50400001928E-02 0.  1.
    10030    2    1    2    0    0  0.00000000000E+00  0.00000000000E+00  0.30373155459E+03  0.37062358450E+04  0.36937692513E+04 0.  0.
        2    1    3    3  502    0  0.14544152916E+04 -0.68651477992E+03  0.10628708748E+04  0.19277761488E+04  0.25500000920E-02 0. -1.
       -2    1    3    3    0  502 -0.14544152916E+04  0.68651477992E+03 -0.75913932017E+03  0.17784596962E+04  0.25500000920E-02 0.  1.
</event>
<event>
 5   0  0.5177000E-08  0.3696461E+04  0.7818609E-02  0.8068746E-01
        1   -1    0    0  501    0  0.00000000000E+00  0.00000000000E+00  0.18170168734E+04  0.18170168734E+04  0.50400001928E-02 0. -1.
       -1   -1    0    0    0  501  0.00000000000E+00  0.00000000000E+00 -0.18799807609E+04  0.18799807609E+04  0.50400001928E-02 0.  1.
    10030    2    1    2    0    0  0.00000000000E+00  0.00000000000E+00 -0.62963887525E+02  0.36969976344E+04  0.36964614238E+04 0.  0.
        3    1    3    3  502    0  0.12111019368E+04  0.12578001622E+04  0.57451650833E+03  0.18381780050E+04  0.10100000352E+00 0. -1.
       -3    1    3    3    0  502 -0.12111019368E+04 -0.12578001622E+04 -0.63748039585E+03  0.18588196294E+04  0.10100000352E+00 0.  1.
</event>
<event>
 5   0  0.5181371E-08  0.3681569E+04  0.7818609E-02  0.8072059E-01
       -1   -1    0    0    0  501  0.00000000000E+00  0.00000000000E+00  0.26185614848E+04  0.26185614848E+04  0.50400001928E-02 0. -1.
        1   -1    0    0  501    0  0.00000000000E+00  0.00000000000E+00 -0.12940264173E+04  0.12940264173E+04  0.50400001928E-02 0.  1.
    10030    2    1    2    0    0  0.00000000000E+00  0.00000000000E+00  0.13245350674E+04  0.39125879021E+04  0.36815690876E+04 0.  0.
        5    1    3    3  502    0  0.10537563765E+04  0.11706095099E+04 -0.35026982818E+03  0.16135179479E+04  0.46999998093E+01 0.  1.
       -5    1    3    3    0  502 -0.10537563765E+04 -0.11706095099E+04  0.16748048956E+04  0.22990699542E+04  0.46999998093E+01 0. -1.
</event>
<event>
 5   0  0.5177000E-08  0.3683733E+04  0.7818609E-02  0.8071576E-01
       -1   -1    0    0    0  501  0.00000000000E+00  0.00000000000E+00  0.13917615193E+04  0.13917615193E+04  0.50400001928E-02 0.  1.
        1   -1    0    0  501    0  0.00000000000E+00  0.00000000000E+00 -0.24375389878E+04  0.24375389878E+04  0.50400001928E-02 0. -1.
    10030    2    1    2    0    0  0.00000000000E+00  0.00000000000E+00 -0.10457774685E+04  0.38293005071E+04  0.36837334133E+04 0.  0.
        2    1    3    3  502    0 -0.13725925636E+03  0.35108681590E+03 -0.23970101227E+04  0.24264706024E+04  0.25500000920E-02 0. -1.
       -2    1    3    3    0  502  0.13725925636E+03 -0.35108681590E+03  0.13512326542E+04  0.14028299047E+04  0.25500000920E-02 0.  1.
</event>
<event>
 5   0  0.1558258E-07  0.3707515E+04  0.7818609E-02  0.8066298E-01
        2   -1    0    0  501    0  0.00000000000E+00  0.00000000000E+00  0.26456406306E+04  0.26456406306E+04  0.25500000920E-02 0. -1.
       -2   -1    0    0    0  501  0.00000000000E+00  0.00000000000E+00 -0.12988978021E+04  0.12988978021E+04  0.25500000920E-02 0.  1.
    10030    2    1    2    0    0  0.00000000000E+00  0.00000000000E+00  0.13467428285E+04  0.39445384327E+04  0.37075149630E+04 0.  0.
        1    1    3    3  502    0  0.98987389614E+01  0.18133339671E+04  0.26387735950E+03  0.18324599102E+04  0.50400001928E-02 0.  1.
       -1    1    3    3    0  502 -0.98987389614E+01 -0.18133339671E+04  0.10828654690E+04  0.21120785225E+04  0.50400001928E-02 0. -1.
</event>
<event>
 5   0  0.1587026E-07  0.3674712E+04  0.7818609E-02  0.8073589E-01
       -2   -1    0    0    0  501  0.00000000000E+00  0.00000000000E+00  0.12644177265E+04  0.12644177265E+04  0.25500000920E-02 0. -1.
        2   -1    0    0  501    0  0.00000000000E+00  0.00000000000E+00 -0.26699065055E+04  0.26699065055E+04  0.25500000920E-02 0.  1.
    10030    2    1    2    0    0  0.00000000000E+00  0.00000000000E+00 -0.14054887790E+04  0.39343242321E+04  0.36747120234E+04 0.  0.
        3    1    3    3  502    0 -0.93177880795E+03  0.15826570647E+04 -0.64546748476E+03  0.19467006487E+04  0.10100000352E+00 0. -1.
       -3    1    3    3    0  502  0.93177880795E+03 -0.15826570647E+04 -0.76002129423E+03  0.19876235834E+04  0.10100000352E+00 0.  1.
</event>
<event>
 5   0  0.5177000E-08  0.3691946E+04  0.7818609E-02  0.8069749E-01
       -1   -1    0    0    0  501  0.00000000000E+00  0.00000000000E+00  0.23413057555E+04  0.23413057555E+04  0.50400001928E-02 0. -1.
        1   -1    0    0  501    0  0.00000000000E+00  0.00000000000E+00 -0.14554341695E+04  0.14554341695E+04  0.50400001928E-02 0.  1.
    10030    2    1    2    0    0  0.00000000000E+00  0.00000000000E+00  0.88587158599E+03  0.37967399251E+04  0.36919460440E+04 0.  0.
        1    1    3    3  502    0  0.11503813304E+02  0.93886550208E+03  0.20773928720E+04  0.22797284736E+04  0.50400001928E-02 0. -1.
       -1    1    3    3    0  502 -0.11503813304E+02 -0.93886550208E+03 -0.11915212860E+04  0.15170114514E+04  0.50400001928E-02 0.  1.
</event>
<event>
 5   0  0.5177000E-08  0.3692748E+04  0.7818609E-02  0.8069571E-01
       -1   -1    0    0    0  501  0.00000000000E+00  0.00000000000E+00  0.18589168410E+04  0.18589168410E+04  0.50400001928E-02 0. -1.
        1   -1    0    0  501    0  0.00000000000E+00  0.00000000000E+00 -0.18339162647E+04  0.18339162647E+04  0.50400001928E-02 0.  1.
    10030    2    1    2    0    0  0.00000000000E+00  0.00000000000E+00  0.25000576305E+02  0.36928331056E+04  0.36927484774E+04 0.  0.
        2    1    3    3  502    0 -0.17711509799E+04 -0.38560944062E+03 -0.33883011547E+03  0.18440380368E+04  0.25500000920E-02 0. -1.
       -2    1    3    3    0  502  0.17711509799E+04  0.38560944062E+03  0.36383069178E+03  0.18487950688E+04  0.25500000920E-02 0.  1.
</event>
<event>
 5   0  0.5177000E-08  0.3706668E+04  0.7818609E-02  0.8066486E-01
       -1   -1    0    0    0  501  0.00000000000E+00  0.00000000000E+00  0.15282196940E+04  0.15282196940E+04  0.50400001928E-02 0. -1.
        1   -1    0    0  501    0  0.00000000000E+00  0.00000000000E+00 -0.22476127557E+04  0.22476127557E+04  0.50400001928E-02 0.  1.
    10030    2    1    2    0    0  0.00000000000E+00  0.00000000000E+00 -0.71939306173E+03  0.37758324498E+04  0.37066675480E+04 0.  0.
        1    1    3    3  502    0 -0.65199046248E+03  0.15796470437E+04 -0.10903458655E+04  0.20271236894E+04  0.50400001928E-02 0.  1.
       -1    1    3    3    0  502  0.65199046248E+03 -0.15796470437E+04  0.37095280379E+03  0.17487087603E+04  0.50400001928E-02 0. -1.
</event>
<event>
 5   0  0.5177000E-08  0.3698999E+04  0.7818609E-02  0.8068184E-01
       -1   -1    0    0    0  501  0.00000000000E+00  0.00000000000E+00  0.11230737460E+04  0.11230737460E+04  0.50400001928E-02 0. -1.
        1   -1    0    0  501    0  0.00000000000E+00  0.00000000000E+00 -0.30457906967E+04  0.30457906967E+04  0.50400001928E-02 0.  1.
    10030    2    1    2    0    0  0.00000000000E+00  0.00000000000E+00 -0.19227169507E+04  0.41688644428E+04  0.36989985496E+04 0.  0.
        4    1    3    3  502    0 -0.10462292800E+03 -0.13064676101E+04 -0.24320474541E+04  0.27627269147E+04  0.12699999809E+01 0.  1.
       -4    1    3    3    0  502  0.10462292800E+03  0.13064676101E+04  0.50933050340E+03  0.14061375281E+04  0.12699999809E+01 0. -1.
</event>
<event>
 5   0  0.5177000E-08  0.3695908E+04  0.7818609E-02  0.8068869E-01
       -1   -1    0    0    0  501  0.00000000000E+00  0.00000000000E+00  0.28116163723E+04  0.28116163723E+04  0.50400001928E-02 0. -1.
        1   -1    0    0  501    0  0.00000000000E+00  0.00000000000E+00 -0.12145800297E+04  0.12145800297E+04  0.50400001928E-02 0.  1.
    10030    2    1    2    0    0  0.00000000000E+00  0.00000000000E+00  0.15970363426E+04  0.40261964020E+04  0.36959075189E+04 0.  0.
        3    1    3    3  502    0  0.14154168615E+04  0.46485100241E+03 -0.39255397550E+03  0.15406459619E+04  0.10100000352E+00 0.  1.
       -3    1    3    3    0  502 -0.14154168615E+04 -0.46485100241E+03  0.19895903181E+04  0.24855504401E+04  0.10100000352E+00 0. -1.
</event>
<event>
 5   0  0.1558258E-07  0.3578602E+04  0.7818609E-02  0.8095411E-01
       -2   -1    0    0    0  501  0.00000000000E+00  0.00000000000E+00  0.14900029083E+04  0.14900029083E+04  0.25500000920E-02 0.  1.
        2   -1    0    0  501    0  0.00000000000E+00  0.00000000000E+00 -0.21487197442E+04  0.21487197442E+04  0.25500000920E-02 0. -1.
    10030    2    1    2    0    0  0.00000000000E+00  0.00000000000E+00 -0.65871683593E+03  0.36387226525E+04  0.35786023350E+04 0.  0.
        1    1    3    3  502    0  0.41578574882E+03 -0.94782595061E+03 -0.18134498994E+04  0.20880259480E+04  0.50400001928E-02 0. -1.
       -1    1    3    3    0  502 -0.41578574882E+03  0.94782595061E+03  0.11547330635E+04  0.15506967046E+04  0.50400001928E-02 0.  1.
</event>
<event>
 5   0  0.5181371E-08  0.3631675E+04  0.7818609E-02  0.8083275E-01
        1   -1    0    0  501    0  0.00000000000E+00  0.00000000000E+00  0.10088559328E+04  0.10088559328E+04  0.50400001928E-02 0. -1.
       -1   -1    0    0    0  501  0.00000000000E+00  0.00000000000E+00 -0.32683213466E+04  0.32683213466E+04  0.50400001928E-02 0.  1.
    10030    2    1    2    0    0  0.00000000000E+00  0.00000000000E+00 -0.22594654138E+04  0.42771772794E+04  0.36316747546E+04 0.  0.
        5    1    3    3  502    0  0.10540983077E+04  0.45590692123E+03  0.52677312396E+03  0.12635214194E+04  0.46999998093E+01 0. -1.
       -5    1    3    3    0  502 -0.10540983077E+04 -0.45590692123E+03 -0.27862385377E+04  0.30136558600E+04  0.46999998093E+01 0.  1.
</event>
<event>
 5   0  0.1658770E-07  0.3691859E+04  0.7818609E-02  0.8069768E-01
        2   -1    0    0  501    0  0.00000000000E+00  0.00000000000E+00  0.21028884886E+04  0.21028884886E+04  0.25500000920E-02 0. -1.
       -2   -1    0    0    0  501  0.00000000000E+00  0.00000000000E+00 -0.16203690728E+04  0.16203690728E+04  0.25500000920E-02 0.  1.
    10030    2    1    2    0    0  0.00000000000E+00  0.00000000000E+00  0.48251941574E+03  0.37232575614E+04  0.36918588654E+04 0.  0.
        2    1    3    3  502    0  0.10581979419E+04  0.40817232508E+03 -0.12275153189E+04  0.16712813615E+04  0.25500000920E-02 0.  1.
       -2    1    3    3    0  502 -0.10581979419E+04 -0.40817232508E+03  0.17100347346E+04  0.20519761999E+04  0.25500000920E-02 0. -1.
</event>
<event>
 5   0  0.5177000E-08  0.3705588E+04  0.7818609E-02  0.8066725E-01
       -1   -1    0    0    0  501  0.00000000000E+00  0.00000000000E+00  0.18901343142E+04  0.18901343142E+04  0.50400001928E-02 0. -1.
        1   -1    0    0  501    0  0.00000000000E+00  0.00000000000E+00 -0.18161912408E+04  0.18161912408E+04  0.50400001928E-02 0.  1.
    10030    2    1    2    0    0  0.00000000000E+00  0.00000000000E+00  0.73943073374E+02  0.37063255550E+04  0.37055878807E+04 0.  0.
        4    1    3    3  502    0  0.13409436137E+04  0.12576627522E+04  0.26723117717E+03  0.18577565740E+04  0.12699999809E+01 0.  1.
       -4    1    3    3    0  502 -0.13409436137E+04 -0.12576627522E+04 -0.19328810380E+03  0.18485689810E+04  0.12699999809E+01 0. -1.
</event>
<event>
 5   0  0.1587026E-07  0.3704358E+04  0.7818609E-02  0.8066997E-01
        2   -1    0    0  501    0  0.00000000000E+00  0.00000000000E+00  0.19991424680E+04  0.19991424680E+04  0.25500000920E-02 0. -1.
       -2   -1    0    0    0  501  0.00000000000E+00  0.00000000000E+00 -0.17160193196E+04  0.17160193196E+04  0.25500000920E-02 0.  1.
    10030    2    1    2    0    0  0.00000000000E+00  0.00000000000E+00  0.28312314841E+03  0.37151617876E+04  0.37043580268E+04 0.  0.
        3    1    3    3  502    0  0.71934360909E+02 -0.71852843354E+03 -0.15690239999E+04  0.17272214637E+04  0.10100000352E+00 0.  1.
       -3    1    3    3    0  502 -0.71934360909E+02  0.71852843354E+03  0.18521471483E+04  0.19879403239E+04  0.10100000352E+00 0. -1.
</event>
<event>
 5   0  0.5177000E-08  0.3699428E+04  0.7818609E-02  0.8068089E-01
       -1   -1    0    0    0  501  0.00000000000E+00  0.00000000000E+00  0.15158302631E+04  0.15158302631E+04  0.50400001928E-02 0.  1.
        1   -1    0    0  501    0  0.00000000000E+00  0.00000000000E+00 -0.22571399898E+04  0.22571399898E+04  0.50400001928E-02 0. -1.
    10030    2    1    2    0    0  0.00000000000E+00  0.00000000000E+00 -0.74130972673E+03  0.37729702529E+04  0.36994275798E+04 0.  0.
        1    1    3    3  502    0 -0.89951728912E+03 -0.41106006628E+03 -0.19648473129E+04  0.21997105934E+04  0.50400001928E-02 0. -1.
       -1    1    3    3    0  502  0.89951728912E+03  0.41106006628E+03  0.12235375862E+04  0.15732596595E+04  0.50400001928E-02 0.  1.
</event>
<event>
 5   0  0.1587026E-07  0.3695655E+04  0.7818609E-02  0.8068925E-01
       -2   -1    0    0    0  501  0.00000000000E+00  0.00000000000E+00  0.13456794258E+04  0.13456794258E+04  0.25500000920E-02 0.  1.
        2   -1    0    0  501    0  0.00000000000E+00  0.00000000000E+00 -0.25373553384E+04  0.25373553384E+04  0.25500000920E-02 0. -1.
    10030    2    1    2    0    0  0.00000000000E+00  0.00000000000E+00 -0.11916759126E+04  0.38830347643E+04  0.36956552193E+04 0.  0.
        3    1    3    3  502    0 -0.13121036958E+04 -0.12993186252E+04 -0.66726925264E+03  0.19634391419E+04  0.10100000352E+00 0. -1.
       -3    1    3    3    0  502  0.13121036958E+04  0.12993186252E+04 -0.52440665994E+03  0.19195956224E+04  0.10100000352E+00 0.  1.
</event>
<event>
 5   0  0.5181371E-08  0.3685953E+04  0.7818609E-02  0.8071082E-01
       -1   -1    0    0    0  501  0.00000000000E+00  0.00000000000E+00  0.15428636581E+04  0.15428636581E+04  0.50400001928E-02 0.  1.
        1   -1    0    0  501    0  0.00000000000E+00  0.00000000000E+00 -0.22014667475E+04  0.22014667475E+04  0.50400001928E-02 0. -1.
    10030    2    1    2    0    0  0.00000000000E+00  0.00000000000E+00 -0.65860308941E+03  0.37443304056E+04  0.36859533580E+04 0.  0.
        5    1    3    3  502    0  0.65696241244E+03 -0.90737443035E+03  0.11573008379E+04  0.16106816221E+04  0.46999998093E+01 0.  1.
       -5    1    3    3    0  502 -0.65696241244E+03  0.90737443035E+03 -0.18159039273E+04  0.21336487836E+04  0.46999998093E+01 0. -1.
</event>
<event>
 5   0  0.5181371E-08  0.3641065E+04  0.7818609E-02  0.8081149E-01
        1   -1    0    0  501    0  0.00000000000E+00  0.00000000000E+00  0.21585604301E+04  0.21585604301E+04  0.50400001928E-02 0.  1.
       -1   -1    0    0    0  501  0.00000000000E+00  0.00000000000E+00 -0.15354394084E+04  0.15354394084E+04  0.50400001928E-02 0. -1.
    10030    2    1    2    0    0  0.00000000000E+00  0.00000000000E+00  0.62312102173E+03  0.36939998385E+04  0.36410650913E+04 0.  0.
        5    1    3    3  502    0 -0.59671677802E+03  0.16059429897E+04 -0.31317832672E+03  0.17416160752E+04  0.46999998093E+01 0. -1.
       -5    1    3    3    0  502  0.59671677802E+03 -0.16059429897E+04  0.93629934845E+03  0.19523837633E+04  0.46999998093E+01 0.  1.
</event>
<event>
 5   0  0.5177000E-08  0.3704303E+04  0.7818609E-02  0.8067009E-01
       -1   -1    0    0    0  501  0.00000000000E+00  0.00000000000E+00  0.21515859927E+04  0.21515859927E+04  0.50400001928E-02 0. -1.
        1   -1    0    0  501    0  0.00000000000E+00  0.00000000000E+00 -0.15943889598E+04  0.15943889598E+04  0.50400001928E-02 0.  1.
    10030    2    1    2    0    0  0.00000000000E+00  0.00000000000E+00  0.55719703292E+03  0.37459749525E+04  0.37043028779E+04 0.  0.
        3    1    3    3  502    0  0.14490633648E+04  0.21845479392E+03 -0.86682097086E+03  0.17026114465E+04  0.10100000352E+00 0.  1.
       -3    1    3    3    0  502 -0.14490633648E+04 -0.21845479392E+03  0.14240180038E+04  0.20433635059E+04  0.10100000352E+00 0. -1.
</event>
<event>
 5   0  0.1686284E-07  0.3701184E+04  0.7818609E-02  0.8067699E-01
        2   -1    0    0  501    0  0.00000000000E+00  0.00000000000E+00  0.19378942961E+04  0.19378942961E+04  0.25500000920E-02 0. -1.
       -2   -1    0    0    0  501  0.00000000000E+00  0.00000000000E+00 -0.17672227371E+04  0.17672227371E+04  0.25500000920E-02 0.  1.
    10030    2    1    2    0    0  0.00000000000E+00  0.00000000000E+00  0.17067155905E+03  0.37051170332E+04  0.37011840604E+04 0.  0.
        5    1    3    3  502    0 -0.48962422287E+02 -0.91716810800E+03  0.16936151272E+04  0.19266418833E+04  0.46999998093E+01 0. -1.
       -5    1    3    3    0  502  0.48962422287E+02  0.91716810800E+03 -0.15229435682E+04  0.17784751500E+04  0.46999998093E+01 0.  1.
</event>
<event>
 5   0  0.1558258E-07  0.3701818E+04  0.7818609E-02  0.8067559E-01
       -2   -1    0    0    0  501  0.00000000000E+00  0.00000000000E+00  0.20473770845E+04  0.20473770845E+04  0.25500000920E-02 0.  1.
        2   -1    0    0  501    0  0.00000000000E+00  0.00000000000E+00 -0.16732939420E+04  0.16732939420E+04  0.25500000920E-02 0. -1.
    10030    2    1    2    0    0  0.00000000000E+00  0.00000000000E+00  0.37408314246E+03  0.37206710265E+04  0.37018177549E+04 0.  0.
        1    1    3    3  502    0  0.17321339731E+04  0.46787727827E+03 -0.26987951529E+03  0.18143958226E+04  0.50400001928E-02 0.  1.
       -1    1    3    3    0  502 -0.17321339731E+04 -0.46787727827E+03  0.64396265776E+03  0.19062752039E+04  0.50400001928E-02 0. -1.
</event>
<event>
 5   0  0.1558258E-07  0.3696905E+04  0.7818609E-02  0.8068648E-01
       -2   -1    0    0    0  501  0.00000000000E+00  0.00000000000E+00  0.13114642709E+04  0.13114642709E+04  0.25500000920E-02 0. -1.
        2   -1    0    0  501    0  0.00000000000E+00  0.00000000000E+00 -0.26053141591E+04  0.26053141591E+04  0.25500000920E-02 0.  1.
    10030    2    1    2    0    0  0.00000000000E+00  0.00000000000E+00 -0.12938498882E+04  0.39167784300E+04  0.36969048861E+04 0.  0.
        1    1    3    3  502    0 -0.60342099752E+03 -0.22820404634E+03  0.11883177736E+04  0.13521438969E+04  0.50400001928E-02 0. -1.
       -1    1    3    3    0  502  0.60342099752E+03  0.22820404634E+03 -0.24821676618E+04  0.25646345331E+04  0.50400001928E-02 0.  1.
</event>
<event>
 5   0  0.5177000E-08  0.3693690E+04  0.7818609E-02  0.8069362E-01
        1   -1    0    0  501    0  0.00000000000E+00  0.00000000000E+00  0.21934931993E+04  0.21934931993E+04  0.50400001928E-02 0.  1.
       -1   -1    0    0    0  501  0.00000000000E+00  0.00000000000E+00 -0.15549796346E+04  0.15549796346E+04  0.50400001928E-02 0. -1.
    10030    2    1    2    0    0  0.00000000000E+00  0.00000000000E+00  0.63851356466E+03  0.37484728340E+04  0.36936904330E+04 0.  0.
        2    1    3    3  502    0  0.53338484421E+03 -0.14104160418E+04  0.14014041670E+04  0.20585690278E+04  0.25500000920E-02 0.  1.
       -2    1    3    3    0  502 -0.53338484421E+03  0.14104160418E+04 -0.76289060232E+03  0.16899038062E+04  0.25500000920E-02 0. -1.
</event>
<event>
 5   0  0.5177000E-08  0.3541138E+04  0.7818609E-02  0.8104109E-01
       -4   -1    0    0    0  501  0.00000000000E+00  0.00000000000E+00  0.17693013486E+04  0.17693018044E+04  0.12699999809E+01 0. -1.
        4   -1    0    0  501    0  0.00000000000E+00  0.00000000000E+00 -0.17718365450E+04  0.17718370002E+04  0.12699999809E+01 0.  1.
    10030    2    1    2    0    0  0.00000000000E+00  0.00000000000E+00 -0.25351963921E+01  0.35411388046E+04  0.35411378971E+04 0.  0.
        1    1    3    3  502    0 -0.14381135597E+04 -0.24891277150E+03 -0.10036581100E+04  0.17712870406E+04  0.50400001928E-02 0.  1.
       -1    1    3    3    0  502  0.14381135597E+04  0.24891277150E+03  0.10011229136E+04  0.17698517640E+04  0.50400001928E-02 0. -1.
</event>
<event>
 5   0  0.1658770E-07  0.3707963E+04  0.7818609E-02  0.8066199E-01
        2   -1    0    0  501    0  0.00000000000E+00  0.00000000000E+00  0.21719169777E+04  0.21719169777E+04  0.25500000920E-02 0.  1.
       -2   -1    0    0    0  501  0.00000000000E+00  0.00000000000E+00 -0.15825866179E+04  0.15825866179E+04  0.25500000920E-02 0. -1.
    10030    2    1    2    0    0  0.00000000000E+00  0.00000000000E+00  0.58933035984E+03  0.37545035956E+04  0.37079626449E+04 0.  0.
        2    1    3    3  502    0 -0.14777312863E+04  0.10276692646E+04  0.74459927241E+03  0.19478762662E+04  0.25500000920E-02 0.  1.
       -2    1    3    3    0  502  0.14777312863E+04 -0.10276692646E+04 -0.15526891257E+03  0.18066273294E+04  0.25500000920E-02 0. -1.
</event>
<event>
 5   0  0.5181371E-08  0.3688741E+04  0.7818609E-02  0.8070461E-01
       -1   -1    0    0    0  501  0.00000000000E+00  0.00000000000E+00  0.23605283279E+04  0.23605283279E+04  0.50400001928E-02 0.  1.
        1   -1    0    0  501    0  0.00000000000E+00  0.00000000000E+00 -0.14410771203E+04  0.14410771203E+04  0.50400001928E-02 0. -1.
    10030    2    1    2    0    0  0.00000000000E+00  0.00000000000E+00  0.91945120761E+03  0.38016054482E+04  0.36887414467E+04 0.  0.
        5    1    3    3  502    0  0.17447331366E+04  0.44575136888E+03  0.87053614904E+03  0.20001608129E+04  0.46999998093E+01 0. -1.
       -5    1    3    3    0  502 -0.17447331366E+04 -0.44575136888E+03  0.48915058571E+02  0.18014446352E+04  0.46999998093E+01 0.  1.
</event>
<event>
 5   0  0.5177000E-08  0.3709547E+04  0.7818609E-02  0.8065849E-01
        1   -1    0    0  501    0  0.00000000000E+00  0.00000000000E+00  0.15936655073E+04  0.15936655073E+04  0.50400001928E-02 0. -1.
       -1   -1    0    0    0  501  0.00000000000E+00  0.00000000000E+00 -0.21586622419E+04  0.21586622419E+04  0.50400001928E-02 0.  1.
    10030    2    1    2    0    0  0.00000000000E+00  0.00000000000E+00 -0.56499673463E+03  0.37523277492E+04  0.37095474424E+04 0.  0.
        4    1    3    3  502    0 -0.86926751752E+03  0.36473491751E+03 -0.18982695775E+04  0.21194543115E+04  0.12699999809E+01 0.  1.
       -4    1    3    3    0  502  0.86926751752E+03 -0.36473491751E+03  0.13332728428E+04  0.16328734376E+04  0.12699999809E+01 0. -1.
</event>
<event>
 5   0  0.5177000E-08  0.3709419E+04  0.7818609E-02  0.8065878E-01
        1   -1    0    0  501    0  0.00000000000E+00  0.00000000000E+00  0.11461249075E+04  0.11461249075E+04  0.50400001928E-02 0.  1.
       -1   -1    0    0    0  501  0.00000000000E+00  0.00000000000E+00 -0.30013718460E+04  0.30013718460E+04  0.50400001928E-02 0. -1.
    10030    2    1    2    0    0  0.00000000000E+00  0.00000000000E+00 -0.18552469385E+04  0.41474967535E+04  0.37094188382E+04 0.  0.
        3    1    3    3  502    0  0.11127831723E+03 -0.16929805534E+04 -0.89883885011E+02  0.16990129902E+04  0.10100000352E+00 0.  1.
       -3    1    3    3    0  502 -0.11127831723E+03  0.16929805534E+04 -0.17653630535E+04  0.24484837632E+04  0.10100000352E+00 0. -1.
</event>
<event>
 5   0  0.5181371E-08  0.3676138E+04  0.7818609E-02  0.8073271E-01
       -1   -1    0    0    0  501  0.00000000000E+00  0.00000000000E+00  0.23841614001E+04  0.23841614001E+04  0.50400001928E-02 0. -1.
        1   -1    0    0  501    0  0.00000000000E+00  0.00000000000E+00 -0.14170589823E+04  0.14170589823E+04  0.50400001928E-02 0.  1.
    10030    2    1    2    0    0  0.00000000000E+00  0.00000000000E+00  0.96710241781E+03  0.38012203824E+04  0.36761378251E+04 0.  0.
        5    1    3    3  502    0  0.51212142366E+03  0.46859482459E+03 -0.12763061123E+04  0.14528691767E+04  0.46999998093E+01 0.  1.
       -5    1    3    3    0  502 -0.51212142366E+03 -0.46859482459E+03  0.22434085302E+04  0.23483512057E+04  0.46999998093E+01 0. -1.
</event>
<event>
 5   0  0.1658770E-07  0.3683891E+04  0.7818609E-02  0.8071541E-01
       -2   -1    0    0    0  501  0.00000000000E+00  0.00000000000E+00  0.12160638574E+04  0.12160638574E+04  0.25500000920E-02 0.  1.
        2   -1    0    0  501    0  0.00000000000E+00  0.00000000000E+00 -0.27899543071E+04  0.27899543071E+04  0.25500000920E-02 0. -1.
    10030    2    1    2    0    0  0.00000000000E+00  0.00000000000E+00 -0.15738904497E+04  0.40060181644E+04  0.36838906588E+04 0.  0.
        2    1    3    3  502    0  0.15922047728E+04  0.95731056445E+01  0.22007258758E+03  0.16073704075E+04  0.25500000920E-02 0.  1.
       -2    1    3    3    0  502 -0.15922047728E+04 -0.95731056445E+01 -0.17939630373E+04  0.23986477570E+04  0.25500000920E-02 0. -1.
</event>
<event>
 5   0  0.1658770E-07  0.3697899E+04  0.7818609E-02  0.8068428E-01
       -2   -1    0    0    0  501  0.00000000000E+00  0.00000000000E+00  0.14545364832E+04  0.14545364832E+04  0.25500000920E-02 0.  1.
        2   -1    0    0  501    0  0.00000000000E+00  0.00000000000E+00 -0.23503115148E+04  0.23503115148E+04  0.25500000920E-02 0. -1.
    10030    2    1    2    0    0  0.00000000000E+00  0.00000000000E+00 -0.89577503156E+03  0.38048479980E+04  0.36978987791E+04 0.  0.
        2    1    3    3  502    0  0.55799058919E+03  0.20138567283E+03 -0.22497358532E+04  0.23266329956E+04  0.25500000920E-02 0. -1.
       -2    1    3    3    0  502 -0.55799058919E+03 -0.20138567283E+03  0.13539608216E+04  0.14782150024E+04  0.25500000920E-02 0.  1.
</event>
<event>
 5   0  0.5177000E-08  0.3700885E+04  0.7818609E-02  0.8067766E-01
        1   -1    0    0  501    0  0.00000000000E+00  0.00000000000E+00  0.16686563843E+04  0.16686563843E+04  0.50400001928E-02 0.  1.
       -1   -1    0    0    0  501  0.00000000000E+00  0.00000000000E+00 -0.20520331026E+04  0.20520331026E+04  0.50400001928E-02 0. -1.
    10030    2    1    2    0    0  0.00000000000E+00  0.00000000000E+00 -0.38337671828E+03  0.37206894869E+04  0.37008853738E+04 0.  0.
        4    1    3    3  502    0 -0.14072931188E+04  0.12648243801E+03  0.10095547747E+04  0.17365696603E+04  0.12699999809E+01 0.  1.
       -4    1    3    3    0  502  0.14072931188E+04 -0.12648243801E+03 -0.13929314929E+04  0.19841198266E+04  0.12699999809E+01 0. -1.
</event>
<event>
 5   0  0.5177000E-08  0.3627694E+04  0.7818609E-02  0.8084177E-01
        1   -1    0    0  501    0  0.00000000000E+00  0.00000000000E+00  0.20471432898E+04  0.20471432898E+04  0.50400001928E-02 0. -1.
       -1   -1    0    0    0  501  0.00000000000E+00  0.00000000000E+00 -0.16071377951E+04  0.16071377951E+04  0.50400001928E-02 0.  1.
    10030    2    1    2    0    0  0.00000000000E+00  0.00000000000E+00  0.44000549474E+03  0.36542810849E+04  0.36276942281E+04 0.  0.
        1    1    3    3  502    0 -0.11310042801E+04 -0.14040757910E+04  0.42005796629E+03  0.18512288360E+04  0.50400001928E-02 0.  1.
       -1    1    3    3    0  502  0.11310042801E+04  0.14040757910E+04  0.19947528454E+02  0.18030522489E+04  0.50400001928E-02 0. -1.
</event>
<event>
 5   0  0.5177000E-08  0.3702289E+04  0.7818609E-02  0.8067455E-01
        1   -1    0    0  501    0  0.00000000000E+00  0.00000000000E+00  0.21400421949E+04  0.21400421949E+04  0.50400001928E-02 0. -1.
       -1   -1    0    0    0  501  0.00000000000E+00  0.00000000000E+00 -0.16012464873E+04  0.16012464873E+04  0.50400001928E-02 0.  1.
    10030    2    1    2    0    0  0.00000000000E+00  0.00000000000E+00  0.53879570754E+03  0.37412886822E+04  0.37022885070E+04 0.  0.
        1    1    3    3  502    0 -0.11152525770E+04 -0.82326016938E+03  0.15091833211E+04  0.20491900629E+04  0.50400001928E-02 0. -1.
       -1    1    3    3    0  502  0.11152525770E+04  0.82326016938E+03 -0.97038761355E+03  0.16920986193E+04  0.50400001928E-02 0.  1.
</event>
<event>
 5   0  0.5181371E-08  0.3695844E+04  0.7818609E-02  0.8068883E-01
        1   -1    0    0  501    0  0.00000000000E+00  0.00000000000E+00  0.13825272966E+04  0.13825272966E+04  0.50400001928E-02 0. -1.
       -1   -1    0    0    0  501  0.00000000000E+00  0.00000000000E+00 -0.24699810269E+04  0.24699810269E+04  0.50400001928E-02 0.  1.
    10030    2    1    2    0    0  0.00000000000E+00  0.00000000000E+00 -0.10874537303E+04  0.38525083235E+04  0.36958442563E+04 0.  0.
        5    1    3    3  502    0 -0.26687305803E+03 -0.10391547253E+04  0.10246205367E+04  0.14835542142E+04  0.46999998093E+01 0. -1.
       -5    1    3    3    0  502  0.26687305803E+03  0.10391547253E+04 -0.21120742670E+04  0.23689541093E+04  0.46999998093E+01 0.  1.
</event>
<event>
 5   0  0.1558258E-07  0.3710488E+04  0.7818609E-02  0.8065642E-01
        2   -1    0    0  501    0  0.00000000000E+00  0.00000000000E+00  0.18264217602E+04  0.18264217602E+04  0.25500000920E-02 0. -1.
       -2   -1    0    0    0  501  0.00000000000E+00  0.00000000000E+00 -0.18845211159E+04  0.18845211159E+04  0.25500000920E-02 0.  1.
    10030    2    1    2    0    0  0.00000000000E+00  0.00000000000E+00 -0.58099355633E+02  0.37109428761E+04  0.37104880399E+04 0.  0.
        1    1    3    3  502    0  0.16421500644E+04  0.58264763653E+03 -0.66614838532E+03  0.18654459986E+04  0.50400001928E-02 0. -1.
       -1    1    3    3    0  502 -0.16421500644E+04 -0.58264763653E+03  0.60804902968E+03  0.18454968775E+04  0.50400001928E-02 0.  1.
</event>
<event>
 5   0  0.1587026E-07  0.3713531E+04  0.7818609E-02  0.8064970E-01
        2   -1    0    0  501    0  0.00000000000E+00  0.00000000000E+00  0.32268961261E+04  0.32268961261E+04  0.25500000920E-02 0.  1.
       -2   -1    0    0    0  501  0.00000000000E+00  0.00000000000E+00 -0.10683881845E+04  0.10683881845E+04  0.25500000920E-02 0. -1.
    10030    2    1    2    0    0  0.00000000000E+00  0.00000000000E+00  0.21585079416E+04  0.42952843105E+04  0.37135307693E+04 0.  0.
        3    1    3    3  502    0 -0.33513011514E+03 -0.65095789607E+03 -0.89437143075E+03  0.11558367717E+04  0.10100000352E+00 0. -1.
       -3    1    3    3    0  502  0.33513011514E+03  0.65095789607E+03  0.30528793724E+04  0.31394475388E+04  0.10100000352E+00 0.  1.
</event>
<event>
 5   0  0.1558258E-07  0.3715042E+04  0.7818609E-02  0.8064636E-01
       -2   -1    0    0    0  501  0.00000000000E+00  0.00000000000E+00  0.20197538925E+04  0.20197538925E+04  0.25500000920E-02 0. -1.
        2   -1    0    0  501    0  0.00000000000E+00  0.00000000000E+00 -0.17083195455E+04  0.17083195455E+04  0.25500000920E-02 0.  1.
    10030    2    1    2    0    0  0.00000000000E+00  0.00000000000E+00  0.31143434702E+03  0.37280734379E+04  0.37150424232E+04 0.  0.
        1    1    3    3  502    0  0.93580034943E+03 -0.59545125744E+03 -0.13395093911E+04  0.17391290645E+04  0.50400001928E-02 0.  1.
       -1    1    3    3    0  502 -0.93580034943E+03  0.59545125744E+03  0.16509437382E+04  0.19889443734E+04  0.50400001928E-02 0. -1.
</event>
<event>
 5   0  0.1587026E-07  0.3698022E+04  0.7818609E-02  0.8068400E-01
        2   -1    0    0  501    0  0.00000000000E+00  0.00000000000E+00  0.19934779784E+04  0.19934779784E+04  0.25500000920E-02 0.  1.
       -2   -1    0    0    0  501  0.00000000000E+00  0.00000000000E+00 -0.17150133513E+04  0.17150133513E+04  0.25500000920E-02 0. -1.
    10030    2    1    2    0    0  0.00000000000E+00  0.00000000000E+00  0.27846462707E+03  0.37084913297E+04  0.36980218218E+04 0.  0.
        3    1    3    3  502    0 -0.36647343985E+03  0.17066708108E+04  0.75072357991E+03  0.19001615569E+04  0.10100000352E+00 0.  1.
       -3    1    3    3    0  502  0.36647343985E+03 -0.17066708108E+04 -0.47225895284E+03  0.18083297729E+04  0.10100000352E+00 0. -1.
</event>
<event>
 5   0  0.1686284E-07  0.3740648E+04  0.7818609E-02  0.8059013E-01
        2   -1    0    0  501    0  0.00000000000E+00  0.00000000000E+00  0.12734586891E+04  0.12734586891E+04  0.25500000920E-02 0. -1.
       -2   -1    0    0    0  501  0.00000000000E+00  0.00000000000E+00 -0.27469373785E+04  0.27469373785E+04  0.25500000920E-02 0.  1.
    10030    2    1    2    0    0  0.00000000000E+00  0.00000000000E+00 -0.14734786894E+04  0.40203960677E+04  0.37406476836E+04 0.  0.
        5    1    3    3  502    0 -0.12740548083E+04 -0.62999927433E+03 -0.20433779816E+04  0.24890822417E+04  0.46999998093E+01 0.  1.
       -5    1    3    3    0  502  0.12740548083E+04  0.62999927433E+03  0.56989929219E+03  0.15313138259E+04  0.46999998093E+01 0. -1.
</event>
<event>
 5   0  0.1686284E-07  0.3702846E+04  0.7818609E-02  0.8067331E-01
       -2   -1    0    0    0  501  0.00000000000E+00  0.00000000000E+00  0.20974086887E+04  0.20974086887E+04  0.25500000920E-02 0. -1.
        2   -1    0    0  501    0  0.00000000000E+00  0.00000000000E+00 -0.16342867290E+04  0.16342867290E+04  0.25500000920E-02 0.  1.
    10030    2    1    2    0    0  0.00000000000E+00  0.00000000000E+00  0.46312195968E+03  0.37316954178E+04  0.37028460326E+04 0.  0.
        5    1    3    3  502    0  0.69206494262E+03 -0.17135273483E+04  0.11836832453E+03  0.18517999374E+04  0.46999998093E+01 0. -1.
       -5    1    3    3    0  502 -0.69206494262E+03  0.17135273483E+04  0.34475363515E+03  0.18798954803E+04  0.46999998093E+01 0.  1.
</event>
<event>
 5   0  0.5177000E-08  0.3640793E+04  0.7818609E-02  0.8081211E-01
        1   -1    0    0  501    0  0.00000000000E+00  0.00000000000E+00  0.17624697717E+04  0.17624697717E+04  0.50400001928E-02 0. -1.
       -1   -1    0    0    0  501  0.00000000000E+00  0.00000000000E+00 -0.18802270057E+04  0.18802270058E+04  0.50400001928E-02 0.  1.
    10030    2    1    2    0    0  0.00000000000E+00  0.00000000000E+00 -0.11775723408E+03  0.36426967774E+04  0.36407929145E+04 0.  0.
        3    1    3    3  502    0  0.16892019967E+04  0.55511727025E+03 -0.44931938161E+03  0.18339701432E+04  0.10100000352E+00 0.  1.
       -3    1    3    3    0  502 -0.16892019967E+04 -0.55511727025E+03  0.33156214753E+03  0.18087266342E+04  0.10100000352E+00 0. -1.
</event>
<event>
 5   0  0.1558258E-07  0.3735464E+04  0.7818609E-02  0.8060148E-01
        2   -1    0    0  501    0  0.00000000000E+00  0.00000000000E+00  0.18261737969E+04  0.18261737969E+04  0.25500000920E-02 0. -1.
       -2   -1    0    0    0  501  0.00000000000E+00  0.00000000000E+00 -0.19102362224E+04  0.19102362224E+04  0.25500000920E-02 0.  1.
    10030    2    1    2    0    0  0.00000000000E+00  0.00000000000E+00 -0.84062425584E+02  0.37364100193E+04  0.37354642738E+04 0.  0.
        1    1    3    3  502    0  0.10341011455E+04  0.57763178497E+03  0.14024257005E+04  0.18357073579E+04  0.50400001928E-02 0. -1.
       -1    1    3    3    0  502 -0.10341011455E+04 -0.57763178497E+03 -0.14864881261E+04  0.19007026615E+04  0.50400001928E-02 0.  1.
</event>
<event>
 5   0  0.5177000E-08  0.3687828E+04  0.7818609E-02  0.8070665E-01
        1   -1    0    0  501    0  0.00000000000E+00  0.00000000000E+00  0.13726273281E+04  0.13726273282E+04  0.50400001928E-02 0.  1.
       -1   -1    0    0    0  501  0.00000000000E+00  0.00000000000E+00 -0.24770155514E+04  0.24770155514E+04  0.50400001928E-02 0. -1.
    10030    2    1    2    0    0  0.00000000000E+00  0.00000000000E+00 -0.11043882233E+04  0.38496428796E+04  0.36878282162E+04 0.  0.
        3    1    3    3  502    0  0.27110091433E+03  0.13846028508E+04  0.68707794644E+03  0.15692982110E+04  0.10100000352E+00 0.  1.
       -3    1    3    3    0  502 -0.27110091433E+03 -0.13846028508E+04 -0.17914661697E+04  0.22803446686E+04  0.10100000352E+00 0. -1.
</event>
<event>
 5   0  0.5177000E-08  0.3679235E+04  0.7818609E-02  0.8072579E-01
        1   -1    0    0  501    0  0.00000000000E+00  0.00000000000E+00  0.24180233664E+04  0.24180233664E+04  0.50400001928E-02 0. -1.
       -1   -1    0    0    0  501  0.00000000000E+00  0.00000000000E+00 -0.13995700961E+04  0.13995700961E+04  0.50400001928E-02 0.  1.
    10030    2    1    2    0    0  0.00000000000E+00  0.00000000000E+00  0.10184532702E+04  0.38175934625E+04  0.36792353528E+04 0.  0.
        2    1    3    3  502    0  0.24212034806E+03  0.14764200775E+04 -0.60142517816E+03  0.16124982955E+04  0.25500000920E-02 0.  1.
       -2    1    3    3    0  502 -0.24212034806E+03 -0.14764200775E+04  0.16198784484E+04  0.22050951670E+04  0.25500000920E-02 0. -1.
</event>
<event>
 5   0  0.5177000E-08  0.3692449E+04  0.7818609E-02  0.8069637E-01
       -1   -1    0    0    0  501  0.00000000000E+00  0.00000000000E+00  0.12397879193E+04  0.12397879193E+04  0.50400001928E-02 0. -1.
        1   -1    0    0  501    0  0.00000000000E+00  0.00000000000E+00 -0.27492965964E+04  0.27492965964E+04  0.50400001928E-02 0.  1.
    10030    2    1    2    0    0  0.00000000000E+00  0.00000000000E+00 -0.15095086771E+04  0.39890845157E+04  0.36924488930E+04 0.  0.
        4    1    3    3  502    0  0.11843030500E+04 -0.70293064250E+03  0.57360089245E+03  0.14918796195E+04  0.12699999809E+01 0. -1.
       -4    1    3    3    0  502 -0.11843030500E+04  0.70293064250E+03 -0.20831095695E+04  0.24972048963E+04  0.12699999809E+01 0.  1.
</event>
<event>
 5   0  0.1666189E-07  0.3699925E+04  0.7818609E-02  0.8067978E-01
       -2   -1    0    0    0  501  0.00000000000E+00  0.00000000000E+00  0.24629247631E+04  0.24629247631E+04  0.25500000920E-02 0.  1.
        2   -1    0    0  501    0  0.00000000000E+00  0.00000000000E+00 -0.13895518433E+04  0.13895518433E+04  0.25500000920E-02 0. -1.
    10030    2    1    2    0    0  0.00000000000E+00  0.00000000000E+00  0.10733729199E+04  0.38524766064E+04  0.36999252124E+04 0.  0.
        4    1    3    3  502    0 -0.10355669617E+04 -0.92045637984E+03 -0.73971197892E+03  0.15706095326E+04  0.12699999809E+01 0. -1.
       -4    1    3    3    0  502  0.10355669617E+04  0.92045637984E+03  0.18130848988E+04  0.22818670738E+04  0.12699999809E+01 0.  1.
</event>
<event>
 5   0  0.5177000E-08  0.3672791E+04  0.7818609E-02  0.8074018E-01
        3   -1    0    0  501    0  0.00000000000E+00  0.00000000000E+00  0.14565905790E+04  0.14565905825E+04  0.10100000352E+00 0. -1.
       -3   -1    0    0    0  501  0.00000000000E+00  0.00000000000E+00 -0.23152346357E+04  0.23152346379E+04  0.10100000352E+00 0.  1.
    10030    2    1    2    0    0  0.00000000000E+00  0.00000000000E+00 -0.85864405671E+03  0.37718252205E+04  0.36727912924E+04 0.  0.
        2    1    3    3  502    0  0.11757859308E+04  0.13604282187E+04 -0.81235555517E+03  0.19731089786E+04  0.25500000920E-02 0.  1.
       -2    1    3    3    0  502 -0.11757859308E+04 -0.13604282187E+04 -0.46288501535E+02  0.17987162419E+04  0.25500000920E-02 0. -1.
</event>
<event>
 5   0  0.5181371E-08  0.3696983E+04  0.7818609E-02  0.8068631E-01
        1   -1    0    0  501    0  0.00000000000E+00  0.00000000000E+00  0.98457045828E+03  0.98457045829E+03  0.50400001928E-02 0.  1.
       -1   -1    0    0    0  501  0.00000000000E+00  0.00000000000E+00 -0.34704690047E+04  0.34704690047E+04  0.50400001928E-02 0. -1.
    10030    2    1    2    0    0  0.00000000000E+00  0.00000000000E+00 -0.24858985464E+04  0.44550394630E+04  0.36969832342E+04 0.  0.
        5    1    3    3  502    0 -0.15009727667E+04 -0.10137348919E+04 -0.79802485790E+03  0.19792532534E+04  0.46999998093E+01 0.  1.
       -5    1    3    3    0  502  0.15009727667E+04  0.10137348919E+04 -0.16878736885E+04  0.24757862096E+04  0.46999998093E+01 0. -1.
</event>
<event>
 5   0  0.5181371E-08  0.3707663E+04  0.7818609E-02  0.8066266E-01
       -1   -1    0    0    0  501  0.00000000000E+00  0.00000000000E+00  0.12065541346E+04  0.12065541346E+04  0.50400001928E-02 0. -1.
        1   -1    0    0  501    0  0.00000000000E+00  0.00000000000E+00 -0.28483527047E+04  0.28483527047E+04  0.50400001928E-02 0.  1.
    10030    2    1    2    0    0  0.00000000000E+00  0.00000000000E+00 -0.16417985700E+04  0.40549068393E+04  0.37076632710E+04 0.  0.
        5    1    3    3  502    0  0.17295093248E+04 -0.61091702190E+03 -0.52693667135E+03  0.19084303649E+04  0.46999998093E+01 0.  1.
       -5    1    3    3    0  502 -0.17295093248E+04  0.61091702190E+03 -0.11148618987E+04  0.21464764744E+04  0.46999998093E+01 0. -1.
</event>
<event>
 5   0  0.1686284E-07  0.3701783E+04  0.7818609E-02  0.8067567E-01
        2   -1    0    0  501    0  0.00000000000E+00  0.00000000000E+00  0.20862497484E+04  0.20862497484E+04  0.25500000920E-02 0.  1.
       -2   -1    0    0    0  501  0.00000000000E+00  0.00000000000E+00 -0.16420852111E+04  0.16420852111E+04  0.25500000920E-02 0. -1.
    10030    2    1    2    0    0  0.00000000000E+00  0.00000000000E+00  0.44416453731E+03  0.37283349595E+04  0.37017832776E+04 0.  0.
        5    1    3    3  502    0 -0.12975044168E+04 -0.10308331432E+04 -0.60823560375E+03  0.17652499314E+04  0.46999998093E+01 0. -1.
       -5    1    3    3    0  502  0.12975044168E+04  0.10308331432E+04  0.10524001411E+04  0.19630850281E+04  0.46999998093E+01 0.  1.
</event>
<event>
 5   0  0.1558258E-07  0.3681928E+04  0.7818609E-02  0.8071979E-01
       -2   -1    0    0    0  501  0.00000000000E+00  0.00000000000E+00  0.15531380073E+04  0.15531380073E+04  0.25500000920E-02 0.  1.
        2   -1    0    0  501    0  0.00000000000E+00  0.00000000000E+00 -0.21821297770E+04  0.21821297770E+04  0.25500000920E-02 0. -1.
    10030    2    1    2    0    0  0.00000000000E+00  0.00000000000E+00 -0.62899176970E+03  0.37352677842E+04  0.36819281326E+04 0.  0.
        1    1    3    3  502    0  0.56144187312E+03  0.77585050222E+03  0.12805368075E+04  0.15990420551E+04  0.50400001928E-02 0.  1.
       -1    1    3    3    0  502 -0.56144187312E+03 -0.77585050222E+03 -0.19095285772E+04  0.21362257291E+04  0.50400001928E-02 0. -1.
</event>
<event>
 5   0  0.5177000E-08  0.3661315E+04  0.7818609E-02  0.8076589E-01
        1   -1    0    0  501    0  0.00000000000E+00  0.00000000000E+00  0.12843290486E+04  0.12843290486E+04  0.50400001928E-02 0. -1.
       -1   -1    0    0    0  501  0.00000000000E+00  0.00000000000E+00 -0.26093840272E+04  0.26093840272E+04  0.50400001928E-02 0.  1.
    10030    2    1    2    0    0  0.00000000000E+00  0.00000000000E+00 -0.13250549786E+04  0.38937130759E+04  0.36613154495E+04 0.  0.
        2    1    3    3  502    0  0.77025998160E+03  0.12923156649E+04  0.44671570397E+03  0.15693741228E+04  0.25500000920E-02 0. -1.
       -2    1    3    3    0  502 -0.77025998160E+03 -0.12923156649E+04 -0.17717706826E+04  0.23243389531E+04  0.25500000920E-02 0.  1.
</event>
<event>
 5   0  0.1686284E-07  0.3701370E+04  0.7818609E-02  0.8067658E-01
        2   -1    0    0  501    0  0.00000000000E+00  0.00000000000E+00  0.11136971170E+04  0.11136971170E+04  0.25500000920E-02 0.  1.
       -2   -1    0    0    0  501  0.00000000000E+00  0.00000000000E+00 -0.30753737870E+04  0.30753737870E+04  0.25500000920E-02 0. -1.
    10030    2    1    2    0    0  0.00000000000E+00  0.00000000000E+00 -0.19616766700E+04  0.41890709040E+04  0.37013699735E+04 0.  0.
        5    1    3    3  502    0  0.50277830210E+02  0.13881520922E+04  0.40320963698E+03  0.14464073398E+04  0.46999998093E+01 0.  1.
       -5    1    3    3    0  502 -0.50277830210E+02 -0.13881520922E+04 -0.23648863070E+04  0.27426635642E+04  0.46999998093E+01 0. -1.
</event>
<event>
 5   0  0.1558258E-07  0.3716840E+04  0.7818609E-02  0.8064240E-01
        2   -1    0    0  501    0  0.00000000000E+00  0.00000000000E+00  0.15713966104E+04  0.15713966104E+04  0.25500000920E-02 0. -1.
       -2   -1    0    0    0  501  0.00000000000E+00  0.00000000000E+00 -0.21978694232E+04  0.21978694232E+04  0.25500000920E-02 0.  1.
    10030    2    1    2    0    0  0.00000000000E+00  0.00000000000E+00 -0.62647281278E+03  0.37692660336E+04  0.37168398199E+04 0.  0.
        1    1    3    3  502    0 -0.39739640080E+03 -0.10642707102E+04 -0.18047393235E+04  0.21325290314E+04  0.50400001928E-02 0.  1.
       -1    1    3    3    0  502  0.39739640080E+03  0.10642707102E+04  0.11782665108E+04  0.16367370022E+04  0.50400001928E-02 0. -1.
</event>
<event>
 5   0  0.1558258E-07  0.3687564E+04  0.7818609E-02  0.8070723E-01
        2   -1    0    0  501    0  0.00000000000E+00  0.00000000000E+00  0.24248427984E+04  0.24248427984E+04  0.25500000920E-02 0.  1.
       -2   -1    0    0    0  501  0.00000000000E+00  0.00000000000E+00 -0.14019595646E+04  0.14019595646E+04  0.25500000920E-02 0. -1.
    10030    2    1    2    0    0  0.00000000000E+00  0.00000000000E+00  0.10228832339E+04  0.38268023630E+04  0.36875637236E+04 0.  0.
        1    1    3    3  502    0  0.44818745066E+03 -0.17767842037E+04  0.72335153342E+03  0.19700435372E+04  0.50400001928E-02 0.  1.
       -1    1    3    3    0  502 -0.44818745066E+03  0.17767842037E+04  0.29953170044E+03  0.18567588258E+04  0.50400001928E-02 0. -1.
</event>
<event>
 5   0  0.1587026E-07  0.3682630E+04  0.7818609E-02  0.8071822E-01
        2   -1    0    0  501    0  0.00000000000E+00  0.00000000000E+00  0.21153800585E+04  0.21153800585E+04  0.25500000920E-02 0. -1.
       -2   -1    0    0    0  501  0.00000000000E+00  0.00000000000E+00 -0.16027576910E+04  0.16027576910E+04  0.25500000920E-02 0.  1.
    10030    2    1    2    0    0  0.00000000000E+00  0.00000000000E+00  0.51262236752E+03  0.37181377494E+04  0.36826303958E+04 0.  0.
        3    1    3    3  502    0  0.11543254149E+04  0.90880082348E+03 -0.86437104793E+03  0.17045595968E+04  0.10100000352E+00 0.  1.
       -3    1    3    3    0  502 -0.11543254149E+04 -0.90880082348E+03  0.13769934154E+04  0.20135781526E+04  0.10100000352E+00 0. -1.
</event>
<event>
 5   0  0.5177000E-08  0.3696968E+04  0.7818609E-02  0.8068634E-01
       -1   -1    0    0    0  501  0.00000000000E+00  0.00000000000E+00  0.16083109792E+04  0.16083109792E+04  0.50400001928E-02 0. -1.
        1   -1    0    0  501    0  0.00000000000E+00  0.00000000000E+00 -0.21245221474E+04  0.21245221474E+04  0.50400001928E-02 0.  1.
    10030    2    1    2    0    0  0.00000000000E+00  0.00000000000E+00 -0.51621116828E+03  0.37328331266E+04  0.36969675656E+04 0.  0.
        4    1    3    3  502    0  0.56242103392E+03 -0.66823032905E+03  0.13868220213E+04  0.16389405492E+04  0.12699999809E+01 0. -1.
       -4    1    3    3    0  502 -0.56242103392E+03  0.66823032905E+03 -0.19030331896E+04  0.20938925774E+04  0.12699999809E+01 0.  1.
</event>
<event>
 5   0  0.5177000E-08  0.3689233E+04  0.7818609E-02  0.8070352E-01
       -1   -1    0    0    0  501  0.00000000000E+00  0.00000000000E+00  0.24272877077E+04  0.24272877077E+04  0.50400001928E-02 0. -1.
        1   -1    0    0  501    0  0.00000000000E+00  0.00000000000E+00 -0.14018155351E+04  0.14018155351E+04  0.50400001928E-02 0.  1.
    10030    2    1    2    0    0  0.00000000000E+00  0.00000000000E+00  0.10254721726E+04  0.38291032428E+04  0.36892327749E+04 0.  0.
        4    1    3    3  502    0 -0.80166027020E+03 -0.93914856679E+03  0.19350743384E+04  0.22954680410E+04  0.12699999809E+01 0. -1.
       -4    1    3    3    0  502  0.80166027020E+03  0.93914856679E+03 -0.90960216576E+03  0.15336352018E+04  0.12699999809E+01 0.  1.
</event>
<event>
 5   0  0.5177000E-08  0.3665837E+04  0.7818609E-02  0.8075575E-01
        1   -1    0    0  501    0  0.00000000000E+00  0.00000000000E+00  0.20029941540E+04  0.20029941540E+04  0.50400001928E-02 0. -1.
       -1   -1    0    0    0  501  0.00000000000E+00  0.00000000000E+00 -0.16772839682E+04  0.16772839682E+04  0.50400001928E-02 0.  1.
    10030    2    1    2    0    0  0.00000000000E+00  0.00000000000E+00  0.32571018586E+03  0.36802781222E+04  0.36658368665E+04 0.  0.
        1    1    3    3  502    0  0.75786603120E+03  0.16497546699E+02 -0.15125380904E+04  0.16918642278E+04  0.50400001928E-02 0.  1.
       -1    1    3    3    0  502 -0.75786603120E+03 -0.16497546699E+02  0.18382482763E+04  0.19884138944E+04  0.50400001928E-02 0. -1.
</event>
<event>
 5   0  0.1686284E-07  0.3694716E+04  0.7818609E-02  0.8069134E-01
        2   -1    0    0  501    0  0.00000000000E+00  0.00000000000E+00  0.21532400373E+04  0.21532400373E+04  0.25500000920E-02 0.  1.
       -2   -1    0    0    0  501  0.00000000000E+00  0.00000000000E+00 -0.15849289045E+04  0.15849289045E+04  0.25500000920E-02 0. -1.
    10030    2    1    2    0    0  0.00000000000E+00  0.00000000000E+00  0.56831113276E+03  0.37381689418E+04  0.36947164294E+04 0.  0.
        5    1    3    3  502    0 -0.15819081855E+04  0.90510012792E+03  0.58948365272E+03  0.19155032800E+04  0.46999998093E+01 0.  1.
       -5    1    3    3    0  502  0.15819081855E+04 -0.90510012792E+03 -0.21172519963E+02  0.18226656618E+04  0.46999998093E+01 0. -1.
</event>
<event>
 5   0  0.5177000E-08  0.3720110E+04  0.7818609E-02  0.8063520E-01
       -1   -1    0    0    0  501  0.00000000000E+00  0.00000000000E+00  0.13305012279E+04  0.13305012279E+04  0.50400001928E-02 0. -1.
        1   -1    0    0  501    0  0.00000000000E+00  0.00000000000E+00 -0.26003772511E+04  0.26003772511E+04  0.50400001928E-02 0.  1.
    10030    2    1    2    0    0  0.00000000000E+00  0.00000000000E+00 -0.12698760232E+04  0.39308784791E+04  0.37201102810E+04 0.  0.
        3    1    3    3  502    0  0.63742779965E+03  0.26608127823E+03 -0.24598334438E+04  0.25549743693E+04  0.10100000352E+00 0.  1.
       -3    1    3    3    0  502 -0.63742779965E+03 -0.26608127823E+03  0.11899574206E+04  0.13759041098E+04  0.10100000352E+00 0. -1.
</event>
<event>
 5   0  0.1686284E-07  0.3677363E+04  0.7818609E-02  0.8072997E-01
       -2   -1    0    0    0  501  0.00000000000E+00  0.00000000000E+00  0.16712336125E+04  0.16712336125E+04  0.25500000920E-02 0. -1.
        2   -1    0    0  501    0  0.00000000000E+00  0.00000000000E+00 -0.20229069193E+04  0.20229069193E+04  0.25500000920E-02 0.  1.
    10030    2    1    2    0    0  0.00000000000E+00  0.00000000000E+00 -0.35167330681E+03  0.36941405318E+04  0.36773632067E+04 0.  0.
        5    1    3    3  502    0  0.15624021212E+04  0.40760950103E+03  0.70765409769E+03  0.17629640682E+04  0.46999998093E+01 0. -1.
       -5    1    3    3    0  502 -0.15624021212E+04 -0.40760950103E+03 -0.10593274045E+04  0.19311764636E+04  0.46999998093E+01 0.  1.
</event>
<event>
 5   0  0.1558258E-07  0.3709214E+04  0.7818609E-02  0.8065923E-01
        2   -1    0    0  501    0  0.00000000000E+00  0.00000000000E+00  0.24046640673E+04  0.24046640673E+04  0.25500000920E-02 0.  1.
       -2   -1    0    0    0  501  0.00000000000E+00  0.00000000000E+00 -0.14303732974E+04  0.14303732974E+04  0.25500000920E-02 0. -1.
    10030    2    1    2    0    0  0.00000000000E+00  0.00000000000E+00  0.97429076994E+03  0.38350373647E+04  0.37092140790E+04 0.  0.
        1    1    3    3  502    0 -0.37462384716E+03  0.90624013228E+03 -0.11404042360E+04  0.15040399017E+04  0.50400001928E-02 0. -1.
       -1    1    3    3    0  502  0.37462384716E+03 -0.90624013228E+03  0.21146950060E+04  0.23309974630E+04  0.50400001928E-02 0.  1.
</event>
<event>
 5   0  0.1666189E-07  0.3712646E+04  0.7818609E-02  0.8065165E-01
        2   -1    0    0  501    0  0.00000000000E+00  0.00000000000E+00  0.26166775288E+04  0.26166775288E+04  0.25500000920E-02 0.  1.
       -2   -1    0    0    0  501  0.00000000000E+00  0.00000000000E+00 -0.13169124446E+04  0.13169124446E+04  0.25500000920E-02 0. -1.
    10030    2    1    2    0    0  0.00000000000E+00  0.00000000000E+00  0.12997650842E+04  0.39335899734E+04  0.37126460651E+04 0.  0.
        4    1    3    3  502    0  0.59456717130E+02 -0.50293791604E+03 -0.12423023497E+04  0.13415656486E+04  0.12699999809E+01 0. -1.
       -4    1    3    3    0  502 -0.59456717130E+02  0.50293791604E+03  0.25420674339E+04  0.25920243247E+04  0.12699999809E+01 0.  1.
</event>
<event>
 5   0  0.1686284E-07  0.3703555E+04  0.7818609E-02  0.8067174E-01
       -2   -1    0    0    0  501  0.00000000000E+00  0.00000000000E+00  0.19094313843E+04  0.19094313843E+04  0.25500000920E-02 0. -1.
        2   -1    0    0  501    0  0.00000000000E+00  0.00000000000E+00 -0.17958643477E+04  0.17958643477E+04  0.25500000920E-02 0.  1.
    10030    2    1    2    0    0  0.00000000000E+00  0.00000000000E+00  0.11356703654E+03  0.37052957320E+04  0.37035549125E+04 0.  0.
        5    1    3    3  502    0  0.80586487530E+03 -0.16663372690E+04  0.23560515475E+01  0.18509796682E+04  0.46999998093E+01 0.  1.
       -5    1    3    3    0  502 -0.80586487530E+03  0.16663372690E+04  0.11121098499E+03  0.18543160638E+04  0.46999998093E+01 0. -1.
</event>
<event>
 5   0  0.5177000E-08  0.3707966E+04  0.7818609E-02  0.8066199E-01
       -1   -1    0    0    0  501  0.00000000000E+00  0.00000000000E+00  0.18064694091E+04  0.18064694091E+04  0.50400001928E-02 0.  1.
        1   -1    0    0  501    0  0.00000000000E+00  0.00000000000E+00 -0.19027462757E+04  0.19027462758E+04  0.50400001928E-02 0. -1.
    10030    2    1    2    0    0  0.00000000000E+00  0.00000000000E+00 -0.96276866647E+02  0.37092156849E+04  0.37079659871E+04 0.  0.
        4    1    3    3  502    0  0.12787280472E+03  0.18297915733E+04  0.22169804724E+03  0.18476039330E+04  0.12699999809E+01 0.  1.
       -4    1    3    3    0  502 -0.12787280472E+03 -0.18297915733E+04 -0.31797491389E+03  0.18616117519E+04  0.12699999809E+01 0. -1.
</event>
<event>
 5   0  0.1558258E-07  0.3659119E+04  0.7818609E-02  0.8077082E-01
        2   -1    0    0  501    0  0.00000000000E+00  0.00000000000E+00  0.17334667470E+04  0.17334667470E+04  0.25500000920E-02 0. -1.
       -2   -1    0    0    0  501  0.00000000000E+00  0.00000000000E+00 -0.19309789498E+04  0.19309789498E+04  0.25500000920E-02 0.  1.
    10030    2    1    2    0    0  0.00000000000E+00  0.00000000000E+00 -0.19751220276E+03  0.36644456967E+04  0.36591189095E+04 0.  0.
        1    1    3    3  502    0 -0.89653385756E+03 -0.10854806231E+04  0.10713825592E+04  0.17691528281E+04  0.50400001928E-02 0. -1.
       -1    1    3    3    0  502  0.89653385756E+03  0.10854806231E+04 -0.12688947620E+04  0.18952928686E+04  0.50400001928E-02 0.  1.
</event>
<event>
 5   0  0.5177000E-08  0.3692434E+04  0.7818609E-02  0.8069641E-01
        1   -1    0    0  501    0  0.00000000000E+00  0.00000000000E+00  0.30133683874E+04  0.30133683874E+04  0.50400001928E-02 0.  1.
       -1   -1    0    0    0  501  0.00000000000E+00  0.00000000000E+00 -0.11311318939E+04  0.11311318939E+04  0.50400001928E-02 0. -1.
    10030    2    1    2    0    0  0.00000000000E+00  0.00000000000E+00  0.18822364935E+04  0.41445002813E+04  0.36924339350E+04 0.  0.
        4    1    3    3  502    0 -0.12949036301E+04  0.93064694340E+03  0.19854228162E+04  0.25465240066E+04  0.12699999809E+01 0. -1.
       -4    1    3    3    0  502  0.12949036301E+04 -0.93064694340E+03 -0.10318632263E+03  0.15979762747E+04  0.12699999809E+01 0.  1.
</event>
<event>
 5   0  0.5177000E-08  0.3713960E+04  0.7818609E-02  0.8064875E-01
       -1   -1    0    0    0  501  0.00000000000E+00  0.00000000000E+00  0.19355343581E+04  0.19355343581E+04  0.50400001928E-02 0. -1.
        1   -1    0    0  501    0  0.00000000000E+00  0.00000000000E+00 -0.17816139029E+04  0.17816139029E+04  0.50400001928E-02 0.  1.
    10030    2    1    2    0    0  0.00000000000E+00  0.00000000000E+00  0.15392045517E+03  0.37171482611E+04  0.37139601086E+04 0.  0.
        2    1    3    3  502    0  0.14996775313E+04 -0.10713064939E+04  0.30440983574E+03  0.18679924116E+04  0.25500000920E-02 0. -1.
       -2    1    3    3    0  502 -0.14996775313E+04  0.10713064939E+04 -0.15048938057E+03  0.18491558494E+04  0.25500000920E-02 0.  1.
</event>
<event>
 5   0  0.5177000E-08  0.3689886E+04  0.7818609E-02  0.8070207E-01
        1   -1    0    0  501    0  0.00000000000E+00  0.00000000000E+00  0.18080451891E+04  0.18080451891E+04  0.50400001928E-02 0.  1.
       -1   -1    0    0    0  501  0.00000000000E+00  0.00000000000E+00 -0.18825934716E+04  0.18825934716E+04  0.50400001928E-02 0. -1.
    10030    2    1    2    0    0  0.00000000000E+00  0.00000000000E+00 -0.74548282533E+02  0.36906386608E+04  0.36898856727E+04 0.  0.
        2    1    3    3  502    0  0.54097607592E+03 -0.51390834174E+03 -0.17249409558E+04  0.18794090027E+04  0.25500000920E-02 0. -1.
       -2    1    3    3    0  502 -0.54097607592E+03  0.51390834174E+03  0.16503926732E+04  0.18112296581E+04  0.25500000920E-02 0.  1.
</event>
<event>
 5   0  0.5177000E-08  0.3708938E+04  0.7818609E-02  0.8065984E-01
       -1   -1    0    0    0  501  0.00000000000E+00  0.00000000000E+00  0.22787520792E+04  0.22787520792E+04  0.50400001928E-02 0. -1.
        1   -1    0    0  501    0  0.00000000000E+00  0.00000000000E+00 -0.15091832511E+04  0.15091832511E+04  0.50400001928E-02 0.  1.
    10030    2    1    2    0    0  0.00000000000E+00  0.00000000000E+00  0.76956882809E+03  0.37879353303E+04  0.37089375683E+04 0.  0.
        1    1    3    3  502    0 -0.55982988173E+03 -0.27517548155E+03  0.21683845671E+04  0.22563294691E+04  0.50400001928E-02 0. -1.
       -1    1    3    3    0  502  0.55982988173E+03  0.27517548155E+03 -0.13988157391E+04  0.15316058612E+04  0.50400001928E-02 0.  1.
</event>
<event>
 5   0  0.5177000E-08  0.3713558E+04  0.7818609E-02  0.8064964E-01
       -1   -1    0    0    0  501  0.00000000000E+00  0.00000000000E+00  0.16827504386E+04  0.16827504386E+04  0.50400001928E-02 0.  1.
        1   -1    0    0  501    0  0.00000000000E+00  0.00000000000E+00 -0.20488051205E+04  0.20488051205E+04  0.50400001928E-02 0. -1.
    10030    2    1    2    0    0  0.00000000000E+00  0.00000000000E+00 -0.36605468190E+03  0.37315555591E+04  0.37135577093E+04 0.  0.
        4    1    3    3  502    0  0.26725766225E+03  0.49438931448E+03  0.15952326788E+04  0.16913356748E+04  0.12699999809E+01 0.  1.
       -4    1    3    3    0  502 -0.26725766225E+03 -0.49438931448E+03 -0.19612873607E+04  0.20402198843E+04  0.12699999809E+01 0. -1.
</event>
<event>
 5   0  0.1666189E-07  0.3684705E+04  0.7818609E-02  0.8071360E-01
       -2   -1    0    0    0  501  0.00000000000E+00  0.00000000000E+00  0.14667834631E+04  0.14667834631E+04  0.25500000920E-02 0.  1.
        2   -1    0    0  501    0  0.00000000000E+00  0.00000000000E+00 -0.23140855463E+04  0.23140855463E+04  0.25500000920E-02 0. -1.
    10030    2    1    2    0    0  0.00000000000E+00  0.00000000000E+00 -0.84730208320E+03  0.37808690094E+04  0.36847048248E+04 0.  0.
        4    1    3    3  502    0 -0.95885765616E+03  0.28188111735E+03 -0.20117500432E+04  0.22463314133E+04  0.12699999809E+01 0. -1.
       -4    1    3    3    0  502  0.95885765616E+03 -0.28188111735E+03  0.11644479600E+04  0.15345375960E+04  0.12699999809E+01 0.  1.
</event>
<event>
 5   0  0.1666189E-07  0.3702925E+04  0.7818609E-02  0.8067314E-01
        2   -1    0    0  501    0  0.00000000000E+00  0.00000000000E+00  0.21390612845E+04  0.21390612845E+04  0.25500000920E-02 0. -1.
       -2   -1    0    0    0  501  0.00000000000E+00  0.00000000000E+00 -0.16025318972E+04  0.16025318972E+04  0.25500000920E-02 0.  1.
    10030    2    1    2    0    0  0.00000000000E+00  0.00000000000E+00  0.53652938729E+03  0.37415931817E+04  0.37029252968E+04 0.  0.
        4    1    3    3  502    0 -0.30219047699E+03  0.18256886812E+04  0.32764984279E+03  0.18793121820E+04  0.12699999809E+01 0.  1.
       -4    1    3    3    0  502  0.30219047699E+03 -0.18256886812E+04  0.20887954450E+03  0.18622809997E+04  0.12699999809E+01 0. -1.
</event>
<event>
 5   0  0.5181371E-08  0.3710460E+04  0.7818609E-02  0.8065648E-01
        1   -1    0    0  501    0  0.00000000000E+00  0.00000000000E+00  0.11408440428E+04  0.11408440428E+04  0.50400001928E-02 0.  1.
       -1   -1    0    0    0  501  0.00000000000E+00  0.00000000000E+00 -0.30169572536E+04  0.30169572536E+04  0.50400001928E-02 0. -1.
    10030    2    1    2    0    0  0.00000000000E+00  0.00000000000E+00 -0.18761132108E+04  0.41578012964E+04  0.37104596535E+04 0.  0.
        5    1    3    3  502    0  0.14479975007E+04 -0.98239300468E+03 -0.16288747290E+04  0.23906166047E+04  0.46999998093E+01 0. -1.
       -5    1    3    3    0  502 -0.14479975007E+04  0.98239300468E+03 -0.24723848181E+03  0.17671846917E+04  0.46999998093E+01 0.  1.
</event>
<event>
 5   0  0.1658770E-07  0.3694492E+04  0.7818609E-02  0.8069184E-01
        2   -1    0    0  501    0  0.00000000000E+00  0.00000000000E+00  0.30091532669E+04  0.30091532669E+04  0.25500000920E-02 0. -1.
       -2   -1    0    0    0  501  0.00000000000E+00  0.00000000000E+00 -0.11339792592E+04  0.11339792592E+04  0.25500000920E-02 0.  1.
    10030    2    1    2    0    0  0.00000000000E+00  0.00000000000E+00  0.18751740076E+04  0.41431325261E+04  0.36944917878E+04 0.  0.
        2    1    3    3  502    0  0.96539825049E+03  0.59488089240E+03  0.25728993683E+04  0.28117055709E+04  0.25500000920E-02 0. -1.
       -2    1    3    3    0  502 -0.96539825049E+03 -0.59488089240E+03 -0.69772536064E+03  0.13314269552E+04  0.25500000920E-02 0.  1.
</event>
<event>
 5   0  0.5181371E-08  0.3699135E+04  0.7818609E-02  0.8068154E-01
        1   -1    0    0  501    0  0.00000000000E+00  0.00000000000E+00  0.22682848010E+04  0.22682848010E+04  0.50400001928E-02 0. -1.
       -1   -1    0    0    0  501  0.00000000000E+00  0.00000000000E+00 -0.15081437257E+04  0.15081437257E+04  0.50400001928E-02 0.  1.
    10030    2    1    2    0    0  0.00000000000E+00  0.00000000000E+00  0.76014107528E+03  0.37764285266E+04  0.36991347586E+04 0.  0.
        5    1    3    3  502    0 -0.43210708354E+03 -0.55544151095E+03  0.21262624592E+04  0.22396977339E+04  0.46999998093E+01 0. -1.
       -5    1    3    3    0  502  0.43210708354E+03  0.55544151095E+03 -0.13661213839E+04  0.15367307928E+04  0.46999998093E+01 0.  1.
</event>
<event>
 5   0  0.1558258E-07  0.3726365E+04  0.7818609E-02  0.8062144E-01
        2   -1    0    0  501    0  0.00000000000E+00  0.00000000000E+00  0.16308502167E+04  0.16308502167E+04  0.25500000920E-02 0. -1.
       -2   -1    0    0    0  501  0.00000000000E+00  0.00000000000E+00 -0.21286127917E+04  0.21286127917E+04  0.25500000920E-02 0.  1.
    10030    2    1    2    0    0  0.00000000000E+00  0.00000000000E+00 -0.49776257498E+03  0.37594630084E+04  0.37263647876E+04 0.  0.
        1    1    3    3  502    0 -0.11183265818E+04 -0.14850844580E+04 -0.12401426882E+03  0.18631987896E+04  0.50400001928E-02 0. -1.
       -1    1    3    3    0  502  0.11183265818E+04  0.14850844580E+04 -0.37374830616E+03  0.18962642187E+04  0.50400001928E-02 0.  1.
</event>
<event>
 5   0  0.1666189E-07  0.3663302E+04  0.7818609E-02  0.8076143E-01
       -2   -1    0    0    0  501  0.00000000000E+00  0.00000000000E+00  0.18241495570E+04  0.18241495570E+04  0.25500000920E-02 0. -1.
        2   -1    0    0  501    0  0.00000000000E+00  0.00000000000E+00 -0.18391837447E+04  0.18391837447E+04  0.25500000920E-02 0.  1.
    10030    2    1    2    0    0  0.00000000000E+00  0.00000000000E+00 -0.15034187661E+02  0.36633333018E+04  0.36633024517E+04 0.  0.
        4    1    3    3  502    0  0.14780234643E+04  0.99719781618E+03 -0.42702957154E+03  0.18333883149E+04  0.12699999809E+01 0. -1.
       -4    1    3    3    0  502 -0.14780234643E+04 -0.99719781618E+03  0.41199538388E+03  0.18299449868E+04  0.12699999809E+01 0.  1.
</event>
<event>
 5   0  0.5181371E-08  0.3713454E+04  0.7818609E-02  0.8064987E-01
       -1   -1    0    0    0  501  0.00000000000E+00  0.00000000000E+00  0.16429385109E+04  0.16429385109E+04  0.50400001928E-02 0.  1.
        1   -1    0    0  501    0  0.00000000000E+00  0.00000000000E+00 -0.20983349761E+04  0.20983349761E+04  0.50400001928E-02 0. -1.
    10030    2    1    2    0    0  0.00000000000E+00  0.00000000000E+00 -0.45539646525E+03  0.37412734870E+04  0.37134541016E+04 0.  0.
        5    1    3    3  502    0 -0.11476127240E+04 -0.25333855246E+03  0.12205047980E+04  0.16943581198E+04  0.46999998093E+01 0.  1.
       -5    1    3    3    0  502  0.11476127240E+04  0.25333855246E+03 -0.16759012632E+04  0.20469153672E+04  0.46999998093E+01 0. -1.
</event>
<event>
 5   0  0.1666189E-07  0.3535407E+04  0.7818609E-02  0.8105450E-01
        2   -1    0    0  501    0  0.00000000000E+00  0.00000000000E+00  0.18580864652E+04  0.18580864652E+04  0.25500000920E-02 0.  1.
       -2   -1    0    0    0  501  0.00000000000E+00  0.00000000000E+00 -0.16817173409E+04  0.16817173409E+04  0.25500000920E-02 0. -1.
    10030    2    1    2    0    0  0.00000000000E+00  0.00000000000E+00  0.17636912432E+03  0.35398038062E+04  0.35354073200E+04 0.  0.
        4    1    3    3  502    0  0.11048130523E+04 -0.47123545312E+03  0.13867553398E+04  0.18346026050E+04  0.12699999809E+01 0.  1.
       -4    1    3    3    0  502 -0.11048130523E+04  0.47123545312E+03 -0.12103862155E+04  0.17052012012E+04  0.12699999809E+01 0. -1.
</event>
<event>
 5   0  0.1686284E-07  0.3706064E+04  0.7818609E-02  0.8066619E-01
        2   -1    0    0  501    0  0.00000000000E+00  0.00000000000E+00  0.19210340242E+04  0.19210340242E+04  0.25500000920E-02 0.  1.
       -2   -1    0    0    0  501  0.00000000000E+00  0.00000000000E+00 -0.17874371650E+04  0.17874371650E+04  0.25500000920E-02 0. -1.
    10030    2    1    2    0    0  0.00000000000E+00  0.00000000000E+00  0.13359685917E+03  0.37084711892E+04  0.37060640092E+04 0.  0.
        5    1    3    3  502    0  0.88398086647E+03  0.11758958052E+04  0.11942744382E+04  0.18948526699E+04  0.46999998093E+01 0.  1.
       -5    1    3    3    0  502 -0.88398086647E+03 -0.11758958052E+04 -0.10606775790E+04  0.18136185193E+04  0.46999998093E+01 0. -1.
</event>
<event>
 5   0  0.1558258E-07  0.3692554E+04  0.7818609E-02  0.8069614E-01
       -2   -1    0    0    0  501  0.00000000000E+00  0.00000000000E+00  0.18341281700E+04  0.18341281700E+04  0.25500000920E-02 0. -1.
        2   -1    0    0  501    0  0.00000000000E+00  0.00000000000E+00 -0.18585060783E+04  0.18585060783E+04  0.25500000920E-02 0.  1.
    10030    2    1    2    0    0  0.00000000000E+00  0.00000000000E+00 -0.24377908230E+02  0.36926342483E+04  0.36925537788E+04 0.  0.
        1    1    3    3  502    0  0.15801007108E+04 -0.78910701354E+03  0.52571701135E+03  0.18427659947E+04  0.50400001928E-02 0.  1.
       -1    1    3    3    0  502 -0.15801007108E+04  0.78910701354E+03 -0.55009491958E+03  0.18498682536E+04  0.50400001928E-02 0. -1.
</event>
<event>
 5   0  0.5177000E-08  0.3707978E+04  0.7818609E-02  0.8066196E-01
        1   -1    0    0  501    0  0.00000000000E+00  0.00000000000E+00  0.19856792532E+04  0.19856792532E+04  0.50400001928E-02 0.  1.
       -1   -1    0    0    0  501  0.00000000000E+00  0.00000000000E+00 -0.17310326088E+04  0.17310326088E+04  0.50400001928E-02 0. -1.
    10030    2    1    2    0    0  0.00000000000E+00  0.00000000000E+00  0.25464664433E+03  0.37167118620E+04  0.37079781757E+04 0.  0.
        4    1    3    3  502    0 -0.14914713121E+04 -0.10488588760E+04  0.46379583564E+03  0.18814089950E+04  0.12699999809E+01 0.  1.
       -4    1    3    3    0  502  0.14914713121E+04  0.10488588760E+04 -0.20914919131E+03  0.18353028670E+04  0.12699999809E+01 0. -1.
</event>
<event>
 5   0  0.1558258E-07  0.3681480E+04  0.7818609E-02  0.8072079E-01
       -2   -1    0    0    0  501  0.00000000000E+00  0.00000000000E+00  0.23405196684E+04  0.23405196684E+04  0.25500000920E-02 0. -1.
        2   -1    0    0  501    0  0.00000000000E+00  0.00000000000E+00 -0.14476800384E+04  0.14476800384E+04  0.25500000920E-02 0.  1.
    10030    2    1    2    0    0  0.00000000000E+00  0.00000000000E+00  0.89283963002E+03  0.37881997068E+04  0.36814799217E+04 0.  0.
        1    1    3    3  502    0  0.68856966206E+03  0.46973794183E+03 -0.12423570888E+04  0.14960725416E+04  0.50400001928E-02 0.  1.
       -1    1    3    3    0  502 -0.68856966206E+03 -0.46973794183E+03  0.21351967188E+04  0.22921271652E+04  0.50400001928E-02 0. -1.
</event>
<event>
 5   0  0.5177000E-08  0.3721157E+04  0.7818609E-02  0.8063289E-01
       -1   -1    0    0    0  501  0.00000000000E+00  0.00000000000E+00  0.23890674134E+04  0.23890674134E+04  0.50400001928E-02 0.  1.
        1   -1    0    0  501    0  0.00000000000E+00  0.00000000000E+00 -0.14489973205E+04  0.14489973205E+04  0.50400001928E-02 0. -1.
    10030    2    1    2    0    0  0.00000000000E+00  0.00000000000E+00  0.94007009284E+03  0.38380647339E+04  0.37211569602E+04 0.  0.
        2    1    3    3  502    0  0.16287260818E+04  0.75186189709E+03 -0.39141735780E+02  0.17943179866E+04  0.25500000920E-02 0. -1.
       -2    1    3    3    0  502 -0.16287260818E+04 -0.75186189709E+03  0.97921182862E+03  0.20437467473E+04  0.25500000920E-02 0.  1.
</event>
<event>
 5   0  0.1587026E-07  0.3694006E+04  0.7818609E-02  0.8069291E-01
        2   -1    0    0  501    0  0.00000000000E+00  0.00000000000E+00  0.19970767943E+04  0.19970767943E+04  0.25500000920E-02 0. -1.
       -2   -1    0    0    0  501  0.00000000000E+00  0.00000000000E+00 -0.17082071380E+04  0.17082071380E+04  0.25500000920E-02 0.  1.
    10030    2    1    2    0    0  0.00000000000E+00  0.00000000000E+00  0.28886965629E+03  0.37052839322E+04  0.36940064077E+04 0.  0.
        3    1    3    3  502    0 -0.14959445865E+04  0.10827499438E+04  0.17951556598E+03  0.18553769146E+04  0.10100000352E+00 0.  1.
       -3    1    3    3    0  502  0.14959445865E+04 -0.10827499438E+04  0.10935409031E+03  0.18499070176E+04  0.10100000352E+00 0. -1.
</event>
<event>
 5   0  0.5177000E-08  0.3689898E+04  0.7818609E-02  0.8070204E-01
        1   -1    0    0  501    0  0.00000000000E+00  0.00000000000E+00  0.19208254028E+04  0.19208254028E+04  0.50400001928E-02 0. -1.
       -1   -1    0    0    0  501  0.00000000000E+00  0.00000000000E+00 -0.17720700221E+04  0.17720700221E+04  0.50400001928E-02 0.  1.
    10030    2    1    2    0    0  0.00000000000E+00  0.00000000000E+00  0.14875538073E+03  0.36928954249E+04  0.36898981633E+04 0.  0.
        4    1    3    3  502    0  0.79042858891E+03 -0.14011576582E+04 -0.82958096845E+03  0.18100348984E+04  0.12699999809E+01 0.  1.
       -4    1    3    3    0  502 -0.79042858891E+03  0.14011576582E+04  0.97833634918E+03  0.18828605265E+04  0.12699999809E+01 0. -1.
</event>
<event>
 5   0  0.5177000E-08  0.3694256E+04  0.7818609E-02  0.8069236E-01
        1   -1    0    0  501    0  0.00000000000E+00  0.00000000000E+00  0.28082683883E+04  0.28082683883E+04  0.50400001928E-02 0.  1.
       -1   -1    0    0    0  501  0.00000000000E+00  0.00000000000E+00 -0.12149415775E+04  0.12149415775E+04  0.50400001928E-02 0. -1.
    10030    2    1    2    0    0  0.00000000000E+00  0.00000000000E+00  0.15933268108E+04  0.40232099658E+04  0.36942560961E+04 0.  0.
        1    1    3    3  502    0 -0.49144585041E+03  0.20256902537E+03  0.27231735387E+04  0.27745679585E+04  0.50400001928E-02 0.  1.
       -1    1    3    3    0  502  0.49144585041E+03 -0.20256902537E+03 -0.11298467280E+04  0.12486420074E+04  0.50400001928E-02 0. -1.
</event>
<event>
 5   0  0.1558258E-07  0.3692325E+04  0.7818609E-02  0.8069665E-01
        2   -1    0    0  501    0  0.00000000000E+00  0.00000000000E+00  0.17541756626E+04  0.17541756626E+04  0.25500000920E-02 0. -1.
       -2   -1    0    0    0  501  0.00000000000E+00  0.00000000000E+00 -0.19429730454E+04  0.19429730454E+04  0.25500000920E-02 0.  1.
    10030    2    1    2    0    0  0.00000000000E+00  0.00000000000E+00 -0.18879738281E+03  0.36971487080E+04  0.36923250286E+04 0.  0.
        1    1    3    3  502    0 -0.14016832007E+03  0.45436239723E+03  0.16918106113E+04  0.17573603758E+04  0.50400001928E-02 0. -1.
       -1    1    3    3    0  502  0.14016832007E+03 -0.45436239723E+03 -0.18806079941E+04  0.19397883321E+04  0.50400001928E-02 0.  1.
</event>
<event>
 5   0  0.1666189E-07  0.3698154E+04  0.7818609E-02  0.8068371E-01
        2   -1    0    0  501    0  0.00000000000E+00  0.00000000000E+00  0.27819249442E+04  0.27819249442E+04  0.25500000920E-02 0.  1.
       -2   -1    0    0    0  501  0.00000000000E+00  0.00000000000E+00 -0.12290362329E+04  0.12290362329E+04  0.25500000920E-02 0. -1.
    10030    2    1    2    0    0  0.00000000000E+00  0.00000000000E+00  0.15528887113E+04  0.40109611770E+04  0.36981544335E+04 0.  0.
        4    1    3    3  502    0  0.16935090305E+04  0.39747631456E+03  0.14564751377E+04  0.22687621507E+04  0.12699999809E+01 0.  1.
       -4    1    3    3    0  502 -0.16935090305E+04 -0.39747631456E+03  0.96413573607E+02  0.17421990263E+04  0.12699999809E+01 0. -1.
</event>
<event>
 5   0  0.5177000E-08  0.3684034E+04  0.7818609E-02  0.8071509E-01
       -3   -1    0    0    0  501  0.00000000000E+00  0.00000000000E+00  0.16546792834E+04  0.16546792864E+04  0.10100000352E+00 0.  1.
        3   -1    0    0  501    0  0.00000000000E+00  0.00000000000E+00 -0.20505649002E+04  0.20505649027E+04  0.10100000352E+00 0. -1.
    10030    2    1    2    0    0  0.00000000000E+00  0.00000000000E+00 -0.39588561686E+03  0.37052441891E+04  0.36840343483E+04 0.  0.
        2    1    3    3  502    0  0.12566220692E+04  0.54669383127E+03  0.10400189655E+04  0.17203524693E+04  0.25500000920E-02 0.  1.
       -2    1    3    3    0  502 -0.12566220692E+04 -0.54669383127E+03 -0.14359045824E+04  0.19848917199E+04  0.25500000920E-02 0. -1.
</event>
<event>
 5   0  0.1558258E-07  0.3699470E+04  0.7818609E-02  0.8068079E-01
       -2   -1    0    0    0  501  0.00000000000E+00  0.00000000000E+00  0.13934295977E+04  0.13934295977E+04  0.25500000920E-02 0.  1.
        2   -1    0    0  501    0  0.00000000000E+00  0.00000000000E+00 -0.24554670229E+04  0.24554670229E+04  0.25500000920E-02 0. -1.
    10030    2    1    2    0    0  0.00000000000E+00  0.00000000000E+00 -0.10620374252E+04  0.38488966207E+04  0.36994704627E+04 0.  0.
        1    1    3    3  502    0  0.83219877686E+03 -0.16376488207E+04 -0.30529466412E+03  0.18621636062E+04  0.50400001928E-02 0. -1.
       -1    1    3    3    0  502 -0.83219877686E+03  0.16376488207E+04 -0.75674276108E+03  0.19867330145E+04  0.50400001928E-02 0.  1.
</event>
<event>
 5   0  0.1587026E-07  0.3663169E+04  0.7818609E-02  0.8076173E-01
        2   -1    0    0  501    0  0.00000000000E+00  0.00000000000E+00  0.18311023436E+04  0.18311023436E+04  0.25500000920E-02 0. -1.
       -2   -1    0    0    0  501  0.00000000000E+00  0.00000000000E+00 -0.18320665951E+04  0.18320665951E+04  0.25500000920E-02 0.  1.
    10030    2    1    2    0    0  0.00000000000E+00  0.00000000000E+00 -0.96425151782E+00  0.36631689386E+04  0.36631688117E+04 0.  0.
        3    1    3    3  502    0 -0.18119687605E+04  0.26729497296E+03 -0.53845546611E+01  0.18315857598E+04  0.10100000352E+00 0.  1.
       -3    1    3    3    0  502  0.18119687605E+04 -0.26729497296E+03  0.44203031433E+01  0.18315831789E+04  0.10100000352E+00 0. -1.
</event>
<event>
 5   0  0.5177000E-08  0.3713899E+04  0.7818609E-02  0.8064889E-01
       -1   -1    0    0    0  501  0.00000000000E+00  0.00000000000E+00  0.27352986656E+04  0.27352986656E+04  0.50400001928E-02 0.  1.
        1   -1    0    0  501    0  0.00000000000E+00  0.00000000000E+00 -0.12606523829E+04  0.12606523829E+04  0.50400001928E-02 0. -1.
    10030    2    1    2    0    0  0.00000000000E+00  0.00000000000E+00  0.14746462827E+04  0.39959510486E+04  0.37138986420E+04 0.  0.
        1    1    3    3  502    0  0.16325403334E+04  0.65274049679E+03  0.94449154108E+02  0.17607324440E+04  0.50400001928E-02 0.  1.
       -1    1    3    3    0  502 -0.16325403334E+04 -0.65274049679E+03  0.13801971286E+04  0.22352186046E+04  0.50400001928E-02 0. -1.
</event>
<event>
 5   0  0.5177000E-08  0.3687976E+04  0.7818609E-02  0.8070632E-01
       -1   -1    0    0    0  501  0.00000000000E+00  0.00000000000E+00  0.12952715403E+04  0.12952715403E+04  0.50400001928E-02 0. -1.
        1   -1    0    0  501    0  0.00000000000E+00  0.00000000000E+00 -0.26251578246E+04  0.26251578246E+04  0.50400001928E-02 0.  1.
    10030    2    1    2    0    0  0.00000000000E+00  0.00000000000E+00 -0.13298862843E+04  0.39204293649E+04  0.36879762575E+04 0.  0.
        1    1    3    3  502    0  0.54543308538E+03  0.50829496793E+03 -0.24577901610E+04  0.25683834411E+04  0.50400001928E-02 0.  1.
       -1    1    3    3    0  502 -0.54543308538E+03 -0.50829496793E+03  0.11279038767E+04  0.13520459238E+04  0.50400001928E-02 0. -1.
</event>
<event>
 5   0  0.5177000E-08  0.3719930E+04  0.7818609E-02  0.8063559E-01
        1   -1    0    0  501    0  0.00000000000E+00  0.00000000000E+00  0.18041466999E+04  0.18041466999E+04  0.50400001928E-02 0.  1.
       -1   -1    0    0    0  501  0.00000000000E+00  0.00000000000E+00 -0.19175106003E+04  0.19175106003E+04  0.50400001928E-02 0. -1.
    10030    2    1    2    0    0  0.00000000000E+00  0.00000000000E+00 -0.11336390033E+03  0.37216573002E+04  0.37199303335E+04 0.  0.
        3    1    3    3  502    0 -0.32783041509E+03 -0.88897476347E+03  0.15445989732E+04  0.18120526785E+04  0.10100000352E+00 0.  1.
       -3    1    3    3    0  502  0.32783041509E+03  0.88897476347E+03 -0.16579628736E+04  0.19096046218E+04  0.10100000352E+00 0. -1.
</event>
<event>
 5   0  0.5181371E-08  0.3639903E+04  0.7818609E-02  0.8081412E-01
       -1   -1    0    0    0  501  0.00000000000E+00  0.00000000000E+00  0.20481873830E+04  0.20481873830E+04  0.50400001928E-02 0.  1.
        1   -1    0    0  501    0  0.00000000000E+00  0.00000000000E+00 -0.16171483284E+04  0.16171483284E+04  0.50400001928E-02 0. -1.
    10030    2    1    2    0    0  0.00000000000E+00  0.00000000000E+00  0.43103905461E+03  0.36653357114E+04  0.36399026375E+04 0.  0.
        5    1    3    3  502    0 -0.21244037274E+03 -0.13174459018E+04 -0.10306271879E+04  0.16861225064E+04  0.46999998093E+01 0. -1.
       -5    1    3    3    0  502  0.21244037274E+03  0.13174459018E+04  0.14616662425E+04  0.19792132050E+04  0.46999998093E+01 0.  1.
</event>
<event>
 5   0  0.5181371E-08  0.3666991E+04  0.7818609E-02  0.8075317E-01
        1   -1    0    0  501    0  0.00000000000E+00  0.00000000000E+00  0.24080789389E+04  0.24080789389E+04  0.50400001928E-02 0.  1.
       -1   -1    0    0    0  501  0.00000000000E+00  0.00000000000E+00 -0.13960117290E+04  0.13960117290E+04  0.50400001928E-02 0. -1.
    10030    2    1    2    0    0  0.00000000000E+00  0.00000000000E+00  0.10120672098E+04  0.38040906679E+04  0.36669913788E+04 0.  0.
        5    1    3    3  502    0 -0.74991911995E+03 -0.17189290212E+03  0.22325150778E+04  0.23613706865E+04  0.46999998093E+01 0.  1.
       -5    1    3    3    0  502  0.74991911995E+03  0.17189290212E+03 -0.12204478680E+04  0.14427199814E+04  0.46999998093E+01 0. -1.
</event>
<event>
 5   0  0.1666189E-07  0.3703401E+04  0.7818609E-02  0.8067209E-01
        2   -1    0    0  501    0  0.00000000000E+00  0.00000000000E+00  0.20871628801E+04  0.20871628801E+04  0.25500000920E-02 0.  1.
       -2   -1    0    0    0  501  0.00000000000E+00  0.00000000000E+00 -0.16428013622E+04  0.16428013622E+04  0.25500000920E-02 0. -1.
    10030    2    1    2    0    0  0.00000000000E+00  0.00000000000E+00  0.44436151793E+03  0.37299642423E+04  0.37034006116E+04 0.  0.
        4    1    3    3  502    0 -0.82644984297E+03  0.46596429873E+03 -0.13793982354E+04  0.16741813448E+04  0.12699999809E+01 0. -1.
       -4    1    3    3    0  502  0.82644984297E+03 -0.46596429873E+03  0.18237597533E+04  0.20557828975E+04  0.12699999809E+01 0.  1.
</event>
<event>
 5   0  0.1558258E-07  0.3696114E+04  0.7818609E-02  0.8068824E-01
       -2   -1    0    0    0  501  0.00000000000E+00  0.00000000000E+00  0.24976268885E+04  0.24976268885E+04  0.25500000920E-02 0.  1.
        2   -1    0    0  501    0  0.00000000000E+00  0.00000000000E+00 -0.13674235833E+04  0.13674235833E+04  0.25500000920E-02 0. -1.
    10030    2    1    2    0    0  0.00000000000E+00  0.00000000000E+00  0.11302033053E+04  0.38650504718E+04  0.36961135857E+04 0.  0.
        1    1    3    3  502    0 -0.18511217427E+03  0.62871463616E+03  0.23720165294E+04  0.24608963868E+04  0.50400001928E-02 0.  1.
       -1    1    3    3    0  502  0.18511217427E+03 -0.62871463616E+03 -0.12418132241E+04  0.14041540850E+04  0.50400001928E-02 0. -1.
</event>
<event>
 5   0  0.5177000E-08  0.3704531E+04  0.7818609E-02  0.8066959E-01
       -1   -1    0    0    0  501  0.00000000000E+00  0.00000000000E+00  0.12846657632E+04  0.12846657632E+04  0.50400001928E-02 0.  1.
        1   -1    0    0  501    0  0.00000000000E+00  0.00000000000E+00 -0.26706452992E+04  0.26706452992E+04  0.50400001928E-02 0. -1.
    10030    2    1    2    0    0  0.00000000000E+00  0.00000000000E+00 -0.13859795361E+04  0.39553110624E+04  0.37045305136E+04 0.  0.
        2    1    3    3  502    0 -0.15871182226E+03  0.27499104516E+03 -0.26413740151E+04  0.26603883561E+04  0.25500000920E-02 0. -1.
       -2    1    3    3    0  502  0.15871182226E+03 -0.27499104516E+03  0.12553944790E+04  0.12949227063E+04  0.25500000920E-02 0.  1.
</event>
<event>
 5   0  0.1686284E-07  0.3702591E+04  0.7818609E-02  0.8067388E-01
        2   -1    0    0  501    0  0.00000000000E+00  0.00000000000E+00  0.18167240354E+04  0.18167240354E+04  0.25500000920E-02 0.  1.
       -2   -1    0    0    0  501  0.00000000000E+00  0.00000000000E+00 -0.18865243836E+04  0.18865243836E+04  0.25500000920E-02 0. -1.
    10030    2    1    2    0    0  0.00000000000E+00  0.00000000000E+00 -0.69800348151E+02  0.37032484190E+04  0.37025905477E+04 0.  0.
        5    1    3    3  502    0 -0.10695062379E+03  0.79189013292E+03  0.16353497386E+04  0.18201426527E+04  0.46999998093E+01 0.  1.
       -5    1    3    3    0  502  0.10695062379E+03 -0.79189013292E+03 -0.17051500868E+04  0.18831057663E+04  0.46999998093E+01 0. -1.
</event>
<event>
 5   0  0.5177000E-08  0.3705926E+04  0.7818609E-02  0.8066650E-01
       -1   -1    0    0    0  501  0.00000000000E+00  0.00000000000E+00  0.33662907786E+04  0.33662907786E+04  0.50400001928E-02 0.  1.
        1   -1    0    0  501    0  0.00000000000E+00  0.00000000000E+00 -0.10199568943E+04  0.10199568944E+04  0.50400001928E-02 0. -1.
    10030    2    1    2    0    0  0.00000000000E+00  0.00000000000E+00  0.23463338843E+04  0.43862476730E+04  0.37059257888E+04 0.  0.
        2    1    3    3  502    0 -0.15805350931E+04  0.95799678944E+03  0.10160475874E+04  0.21090760368E+04  0.25500000920E-02 0.  1.
       -2    1    3    3    0  502  0.15805350931E+04 -0.95799678944E+03  0.13302862969E+04  0.22771716362E+04  0.25500000920E-02 0. -1.
</event>
<event>
 5   0  0.1658770E-07  0.3696862E+04  0.7818609E-02  0.8068658E-01
       -2   -1    0    0    0  501  0.00000000000E+00  0.00000000000E+00  0.17931401201E+04  0.17931401201E+04  0.25500000920E-02 0. -1.
        2   -1    0    0  501    0  0.00000000000E+00  0.00000000000E+00 -0.19054262903E+04  0.19054262903E+04  0.25500000920E-02 0.  1.
    10030    2    1    2    0    0  0.00000000000E+00  0.00000000000E+00 -0.11228617026E+03  0.36985664104E+04  0.36968615484E+04 0.  0.
        2    1    3    3  502    0  0.68288351381E+03 -0.11605947756E+04 -0.13229759042E+04  0.18877434598E+04  0.25500000920E-02 0.  1.
       -2    1    3    3    0  502 -0.68288351381E+03  0.11605947756E+04  0.12106897340E+04  0.18108229507E+04  0.25500000920E-02 0. -1.
</event>
<event>
 5   0  0.1587026E-07  0.3689955E+04  0.7818609E-02  0.8070192E-01
        2   -1    0    0  501    0  0.00000000000E+00  0.00000000000E+00  0.22409245573E+04  0.22409245574E+04  0.25500000920E-02 0.  1.
       -2   -1    0    0    0  501  0.00000000000E+00  0.00000000000E+00 -0.15189899756E+04  0.15189899756E+04  0.25500000920E-02 0. -1.
    10030    2    1    2    0    0  0.00000000000E+00  0.00000000000E+00  0.72193458174E+03  0.37599145330E+04  0.36899549801E+04 0.  0.
        3    1    3    3  502    0 -0.72560336557E+03  0.23010107471E+03 -0.13515198715E+04  0.15511456160E+04  0.10100000352E+00 0. -1.
       -3    1    3    3    0  502  0.72560336557E+03 -0.23010107471E+03  0.20734544532E+04  0.22087689170E+04  0.10100000352E+00 0.  1.
</event>
<event>
 5   0  0.1558258E-07  0.3696011E+04  0.7818609E-02  0.8068846E-01
       -2   -1    0    0    0  501  0.00000000000E+00  0.00000000000E+00  0.13696047652E+04  0.13696047652E+04  0.25500000920E-02 0.  1.
        2   -1    0    0  501    0  0.00000000000E+00  0.00000000000E+00 -0.24935113654E+04  0.24935113654E+04  0.25500000920E-02 0. -1.
    10030    2    1    2    0    0  0.00000000000E+00  0.00000000000E+00 -0.11239066002E+04  0.38631161306E+04  0.36960113897E+04 0.  0.
        1    1    3    3  502    0 -0.65139293817E+03 -0.25893636223E+01 -0.23695375742E+04  0.24574433422E+04  0.50400001928E-02 0. -1.
       -1    1    3    3    0  502  0.65139293817E+03  0.25893636223E+01  0.12456309740E+04  0.14056727884E+04  0.50400001928E-02 0.  1.
</event>
<event>
 5   0  0.1666189E-07  0.3754032E+04  0.7818609E-02  0.8056092E-01
       -2   -1    0    0    0  501  0.00000000000E+00  0.00000000000E+00  0.27525830137E+04  0.27525830137E+04  0.25500000920E-02 0.  1.
        2   -1    0    0  501    0  0.00000000000E+00  0.00000000000E+00 -0.12799572610E+04  0.12799572610E+04  0.25500000920E-02 0. -1.
    10030    2    1    2    0    0  0.00000000000E+00  0.00000000000E+00  0.14726257527E+04  0.40325402748E+04  0.37540317607E+04 0.  0.
        4    1    3    3  502    0 -0.22086101468E+03 -0.18057676244E+04  0.12327820336E+04  0.21975735384E+04  0.12699999809E+01 0.  1.
       -4    1    3    3    0  502  0.22086101468E+03  0.18057676244E+04  0.23984371911E+03  0.18349667364E+04  0.12699999809E+01 0. -1.
</event>
<event>
 5   0  0.5181371E-08  0.3683031E+04  0.7818609E-02  0.8071733E-01
       -1   -1    0    0    0  501  0.00000000000E+00  0.00000000000E+00  0.16769597832E+04  0.16769597832E+04  0.50400001928E-02 0. -1.
        1   -1    0    0  501    0  0.00000000000E+00  0.00000000000E+00 -0.20222186900E+04  0.20222186900E+04  0.50400001928E-02 0.  1.
    10030    2    1    2    0    0  0.00000000000E+00  0.00000000000E+00 -0.34525890681E+03  0.36991784732E+04  0.36830310430E+04 0.  0.
        5    1    3    3  502    0 -0.11558524914E+04 -0.38633193944E+02  0.12667165831E+04  0.17152493980E+04  0.46999998093E+01 0. -1.
       -5    1    3    3    0  502  0.11558524914E+04  0.38633193944E+02 -0.16119754899E+04  0.19839290752E+04  0.46999998093E+01 0.  1.
</event>
<event>
 5   0  0.5177000E-08  0.3704024E+04  0.7818609E-02  0.8067071E-01
       -1   -1    0    0    0  501  0.00000000000E+00  0.00000000000E+00  0.17989252355E+04  0.17989252355E+04  0.50400001928E-02 0. -1.
        1   -1    0    0  501    0  0.00000000000E+00  0.00000000000E+00 -0.19066648933E+04  0.19066648933E+04  0.50400001928E-02 0.  1.
    10030    2    1    2    0    0  0.00000000000E+00  0.00000000000E+00 -0.10773965783E+03  0.37055901288E+04  0.37040235378E+04 0.  0.
        4    1    3    3  502    0  0.65301686494E+03 -0.16576475131E+03  0.16719792146E+04  0.18026161782E+04  0.12699999809E+01 0. -1.
       -4    1    3    3    0  502 -0.65301686494E+03  0.16576475131E+03 -0.17797188725E+04  0.19029739506E+04  0.12699999809E+01 0.  1.
</event>
<event>
 5   0  0.5177000E-08  0.3712161E+04  0.7818609E-02  0.8065272E-01
       -3   -1    0    0    0  501  0.00000000000E+00  0.00000000000E+00  0.14408276273E+04  0.14408276308E+04  0.10100000352E+00 0. -1.
        3   -1    0    0  501    0  0.00000000000E+00  0.00000000000E+00 -0.23910115020E+04  0.23910115042E+04  0.10100000352E+00 0.  1.
    10030    2    1    2    0    0  0.00000000000E+00  0.00000000000E+00 -0.95018387473E+03  0.38318391350E+04  0.37121613328E+04 0.  0.
        4    1    3    3  502    0 -0.77966835726E+03  0.16166669052E+04  0.12950143181E+02  0.17948994258E+04  0.12699999809E+01 0.  1.
       -4    1    3    3    0  502  0.77966835726E+03 -0.16166669052E+04 -0.96313401791E+03  0.20369397092E+04  0.12699999809E+01 0. -1.
</event>
<event>
 5   0  0.1587026E-07  0.3693648E+04  0.7818609E-02  0.8069371E-01
        2   -1    0    0  501    0  0.00000000000E+00  0.00000000000E+00  0.15191450524E+04  0.15191450524E+04  0.25500000920E-02 0. -1.
       -2   -1    0    0    0  501  0.00000000000E+00  0.00000000000E+00 -0.22451826149E+04  0.22451826149E+04  0.25500000920E-02 0.  1.
    10030    2    1    2    0    0  0.00000000000E+00  0.00000000000E+00 -0.72603756251E+03  0.37643276672E+04  0.36936475528E+04 0.  0.
        3    1    3    3  502    0 -0.18011718249E+04 -0.20567176944E+03 -0.38009812312E+01  0.18128803814E+04  0.10100000352E+00 0. -1.
       -3    1    3    3    0  502  0.18011718249E+04  0.20567176944E+03 -0.72223658128E+03  0.19514472858E+04  0.10100000352E+00 0.  1.
</event>
<event>
 5   0  0.1658770E-07  0.3719888E+04  0.7818609E-02  0.8063569E-01
        2   -1    0    0  501    0  0.00000000000E+00  0.00000000000E+00  0.17567929584E+04  0.17567929584E+04  0.25500000920E-02 0. -1.
       -2   -1    0    0    0  501  0.00000000000E+00  0.00000000000E+00 -0.19691511160E+04  0.19691511160E+04  0.25500000920E-02 0.  1.
    10030    2    1    2    0    0  0.00000000000E+00  0.00000000000E+00 -0.21235815765E+03  0.37259440744E+04  0.37198875331E+04 0.  0.
        2    1    3    3  502    0 -0.76456961417E+03 -0.16152042837E+04 -0.62271167763E+03  0.18924115320E+04  0.25500000920E-02 0.  1.
       -2    1    3    3    0  502  0.76456961417E+03  0.16152042837E+04  0.41035351999E+03  0.18335325425E+04  0.25500000920E-02 0. -1.
</event>
<event>
 5   0  0.1686284E-07  0.3734576E+04  0.7818609E-02  0.8060342E-01
       -2   -1    0    0    0  501  0.00000000000E+00  0.00000000000E+00  0.12801772366E+04  0.12801772366E+04  0.25500000920E-02 0. -1.
        2   -1    0    0  501    0  0.00000000000E+00  0.00000000000E+00 -0.27236583353E+04  0.27236583353E+04  0.25500000920E-02 0.  1.
    10030    2    1    2    0    0  0.00000000000E+00  0.00000000000E+00 -0.14434810988E+04  0.40038355719E+04  0.37345764960E+04 0.  0.
        5    1    3    3  502    0 -0.18014723391E+04 -0.86750291896E+02 -0.12402587578E+04  0.21888563402E+04  0.46999998093E+01 0. -1.
       -5    1    3    3    0  502  0.18014723391E+04  0.86750291896E+02 -0.20322234092E+03  0.18149792317E+04  0.46999998093E+01 0.  1.
</event>
<event>
 5   0  0.5177000E-08  0.3643575E+04  0.7818609E-02  0.8080583E-01
        1   -1    0    0  501    0  0.00000000000E+00  0.00000000000E+00  0.19798907559E+04  0.19798907559E+04  0.50400001928E-02 0.  1.
       -1   -1    0    0    0  501  0.00000000000E+00  0.00000000000E+00 -0.16763095852E+04  0.16763095852E+04  0.50400001928E-02 0. -1.
    10030    2    1    2    0    0  0.00000000000E+00  0.00000000000E+00  0.30358117070E+03  0.36562003411E+04  0.36435750860E+04 0.  0.
        4    1    3    3  502    0 -0.15620564444E+04 -0.41098024742E+02  0.10916248818E+04  0.19061363747E+04  0.12699999809E+01 0.  1.
       -4    1    3    3    0  502  0.15620564444E+04  0.41098024742E+02 -0.78804371114E+03  0.17500639665E+04  0.12699999809E+01 0. -1.
</event>
<event>
 5   0  0.5177000E-08  0.3740756E+04  0.7818609E-02  0.8058989E-01
       -1   -1    0    0    0  501  0.00000000000E+00  0.00000000000E+00  0.16376300951E+04  0.16376300951E+04  0.50400001928E-02 0. -1.
        1   -1    0    0  501    0  0.00000000000E+00  0.00000000000E+00 -0.21362053725E+04  0.21362053725E+04  0.50400001928E-02 0.  1.
    10030    2    1    2    0    0  0.00000000000E+00  0.00000000000E+00 -0.49857527739E+03  0.37738354677E+04  0.37407561842E+04 0.  0.
        1    1    3    3  502    0 -0.54219183092E+03 -0.12005331076E+04  0.10902576809E+04  0.17099454771E+04  0.50400001928E-02 0. -1.
       -1    1    3    3    0  502  0.54219183092E+03  0.12005331076E+04 -0.15888329582E+04  0.20638899906E+04  0.50400001928E-02 0.  1.
</event>
<event>
 5   0  0.1658770E-07  0.3651779E+04  0.7818609E-02  0.8078733E-01
        2   -1    0    0  501    0  0.00000000000E+00  0.00000000000E+00  0.19753670676E+04  0.19753670676E+04  0.25500000920E-02 0. -1.
       -2   -1    0    0    0  501  0.00000000000E+00  0.00000000000E+00 -0.16877230447E+04  0.16877230447E+04  0.25500000920E-02 0.  1.
    10030    2    1    2    0    0  0.00000000000E+00  0.00000000000E+00  0.28764402290E+03  0.36630901122E+04  0.36517790303E+04 0.  0.
        2    1    3    3  502    0  0.64918940780E+03 -0.81665398206E+03  0.16469633761E+04  0.19495791792E+04  0.25500000920E-02 0. -1.
       -2    1    3    3    0  502 -0.64918940780E+03  0.81665398206E+03 -0.13593193532E+04  0.17135109331E+04  0.25500000920E-02 0.  1.
</event>
<event>
 5   0  0.5177000E-08  0.3694078E+04  0.7818609E-02  0.8069276E-01
       -1   -1    0    0    0  501  0.00000000000E+00  0.00000000000E+00  0.20743470794E+04  0.20743470794E+04  0.50400001928E-02 0.  1.
        1   -1    0    0  501    0  0.00000000000E+00  0.00000000000E+00 -0.16446390260E+04  0.16446390260E+04  0.50400001928E-02 0. -1.
    10030    2    1    2    0    0  0.00000000000E+00  0.00000000000E+00  0.42970805343E+03  0.37189861054E+04  0.36940775088E+04 0.  0.
        4    1    3    3  502    0  0.78343743131E+03  0.32142490875E+03 -0.14376959918E+04  0.16685501367E+04  0.12699999809E+01 0. -1.
       -4    1    3    3    0  502 -0.78343743131E+03 -0.32142490875E+03  0.18674040453E+04  0.20504359687E+04  0.12699999809E+01 0.  1.
</event>
<event>
 5   0  0.1666189E-07  0.3713726E+04  0.7818609E-02  0.8064927E-01
        2   -1    0    0  501    0  0.00000000000E+00  0.00000000000E+00  0.19341349541E+04  0.19341349541E+04  0.25500000920E-02 0. -1.
       -2   -1    0    0    0  501  0.00000000000E+00  0.00000000000E+00 -0.17826778302E+04  0.17826778302E+04  0.25500000920E-02 0.  1.
    10030    2    1    2    0    0  0.00000000000E+00  0.00000000000E+00  0.15145712384E+03  0.37168127843E+04  0.37137256244E+04 0.  0.
        4    1    3    3  502    0 -0.51677044801E+03 -0.10144227100E+04 -0.13924035215E+04  0.17985811936E+04  0.12699999809E+01 0.  1.
       -4    1    3    3    0  502  0.51677044801E+03  0.10144227100E+04  0.15438606453E+04  0.19182315907E+04  0.12699999809E+01 0. -1.
</event>
<event>
 5   0  0.5181371E-08  0.3698913E+04  0.7818609E-02  0.8068203E-01
       -1   -1    0    0    0  501  0.00000000000E+00  0.00000000000E+00  0.24218688214E+04  0.24218688214E+04  0.50400001928E-02 0. -1.
        1   -1    0    0  501    0  0.00000000000E+00  0.00000000000E+00 -0.14123343408E+04  0.14123343408E+04  0.50400001928E-02 0.  1.
    10030    2    1    2    0    0  0.00000000000E+00  0.00000000000E+00  0.10095344805E+04  0.38342031622E+04  0.36989125458E+04 0.  0.
        5    1    3    3  502    0  0.13824489802E+04 -0.10553818717E+04 -0.14709828727E+03  0.17454672939E+04  0.46999998093E+01 0. -1.
       -5    1    3    3    0  502 -0.13824489802E+04  0.10553818717E+04  0.11566327678E+04  0.20887358683E+04  0.46999998093E+01 0.  1.
</event>
<event>
 5   0  0.1587026E-07  0.3680945E+04  0.7818609E-02  0.8072198E-01
        2   -1    0    0  501    0  0.00000000000E+00  0.00000000000E+00  0.13811243630E+04  0.13811243630E+04  0.25500000920E-02 0.  1.
       -2   -1    0    0    0  501  0.00000000000E+00  0.00000000000E+00 -0.24525949405E+04  0.24525949405E+04  0.25500000920E-02 0. -1.
    10030    2    1    2    0    0  0.00000000000E+00  0.00000000000E+00 -0.10714705775E+04  0.38337193035E+04  0.36809447835E+04 0.  0.
        3    1    3    3  502    0 -0.99505570921E+03  0.84227369970E+03 -0.18888002238E+04  0.22950222538E+04  0.10100000352E+00 0. -1.
       -3    1    3    3    0  502  0.99505570921E+03 -0.84227369970E+03  0.81732964638E+03  0.15386970497E+04  0.10100000352E+00 0.  1.
</event>
<event>
 5   0  0.1558258E-07  0.3741352E+04  0.7818609E-02  0.8058859E-01
        2   -1    0    0  501    0  0.00000000000E+00  0.00000000000E+00  0.19984090219E+04  0.19984090219E+04  0.25500000920E-02 0. -1.
       -2   -1    0    0    0  501  0.00000000000E+00  0.00000000000E+00 -0.17511071008E+04  0.17511071008E+04  0.25500000920E-02 0.  1.
    10030    2    1    2    0    0  0.00000000000E+00  0.00000000000E+00  0.24730192119E+03  0.37495161227E+04  0.37413517496E+04 0.  0.
        1    1    3    3  502    0  0.17940180879E+02  0.76001115280E+03 -0.15893154370E+04  0.17617781815E+04  0.50400001928E-02 0.  1.
       -1    1    3    3    0  502 -0.17940180879E+02 -0.76001115280E+03  0.18366173582E+04  0.19877379412E+04  0.50400001928E-02 0. -1.
</event>
<event>
 5   0  0.5177000E-08  0.3704011E+04  0.7818609E-02  0.8067074E-01
        1   -1    0    0  501    0  0.00000000000E+00  0.00000000000E+00  0.23898900642E+04  0.23898900642E+04  0.50400001928E-02 0.  1.
       -1   -1    0    0    0  501  0.00000000000E+00  0.00000000000E+00 -0.14351806522E+04  0.14351806523E+04  0.50400001928E-02 0. -1.
    10030    2    1    2    0    0  0.00000000000E+00  0.00000000000E+00  0.95470941191E+03  0.38250707164E+04  0.37040107889E+04 0.  0.
        3    1    3    3  502    0  0.92537564204E+03 -0.15898465059E+04  0.25588808612E+03  0.18572589249E+04  0.10100000352E+00 0. -1.
       -3    1    3    3    0  502 -0.92537564204E+03  0.15898465059E+04  0.69882132579E+03  0.19678117915E+04  0.10100000352E+00 0.  1.
</event>
<event>
 5   0  0.5177000E-08  0.3703888E+04  0.7818609E-02  0.8067101E-01
       -1   -1    0    0    0  501  0.00000000000E+00  0.00000000000E+00  0.23109747467E+04  0.23109747467E+04  0.50400001928E-02 0.  1.
        1   -1    0    0  501    0  0.00000000000E+00  0.00000000000E+00 -0.14840911998E+04  0.14840911998E+04  0.50400001928E-02 0. -1.
    10030    2    1    2    0    0  0.00000000000E+00  0.00000000000E+00  0.82688354690E+03  0.37950659465E+04  0.37038883809E+04 0.  0.
        4    1    3    3  502    0 -0.25905916637E+03  0.14754274982E+04  0.15291443306E+04  0.21406265323E+04  0.12699999809E+01 0.  1.
       -4    1    3    3    0  502  0.25905916637E+03 -0.14754274982E+04 -0.70226078367E+03  0.16544394142E+04  0.12699999809E+01 0. -1.
</event>
<event>
 5   0  0.5177000E-08  0.3692685E+04  0.7818609E-02  0.8069585E-01
       -1   -1    0    0    0  501  0.00000000000E+00  0.00000000000E+00  0.15985959908E+04  0.15985959908E+04  0.50400001928E-02 0. -1.
        1   -1    0    0  501    0  0.00000000000E+00  0.00000000000E+00 -0.21324841100E+04  0.21324841100E+04  0.50400001928E-02 0.  1.
    10030    2    1    2    0    0  0.00000000000E+00  0.00000000000E+00 -0.53388811918E+03  0.37310801009E+04  0.36926849575E+04 0.  0.
        4    1    3    3  502    0  0.10199711401E+04  0.14809529211E+04 -0.69012610437E+03  0.19260940616E+04  0.12699999809E+01 0.  1.
       -4    1    3    3    0  502 -0.10199711401E+04 -0.14809529211E+04  0.15623798519E+03  0.18049860393E+04  0.12699999809E+01 0. -1.
</event>
<event>
 5   0  0.5177000E-08  0.3630331E+04  0.7818609E-02  0.8083579E-01
       -1   -1    0    0    0  501  0.00000000000E+00  0.00000000000E+00  0.19211127132E+04  0.19211127132E+04  0.50400001928E-02 0. -1.
        1   -1    0    0  501    0  0.00000000000E+00  0.00000000000E+00 -0.17150616152E+04  0.17150616152E+04  0.50400001928E-02 0.  1.
    10030    2    1    2    0    0  0.00000000000E+00  0.00000000000E+00  0.20605109803E+03  0.36361743283E+04  0.36303314850E+04 0.  0.
        4    1    3    3  502    0  0.91023321373E+03 -0.17275260226E+02  0.16759039081E+04  0.19072174653E+04  0.12699999809E+01 0. -1.
       -4    1    3    3    0  502 -0.91023321373E+03  0.17275260226E+02 -0.14698528101E+04  0.17289568630E+04  0.12699999809E+01 0.  1.
</event>
<event>
 5   0  0.5177000E-08  0.3695480E+04  0.7818609E-02  0.8068964E-01
        1   -1    0    0  501    0  0.00000000000E+00  0.00000000000E+00  0.19198431502E+04  0.19198431502E+04  0.50400001928E-02 0. -1.
       -1   -1    0    0    0  501  0.00000000000E+00  0.00000000000E+00 -0.17783444379E+04  0.17783444379E+04  0.50400001928E-02 0.  1.
    10030    2    1    2    0    0  0.00000000000E+00  0.00000000000E+00  0.14149871228E+03  0.36981875881E+04  0.36954796104E+04 0.  0.
        3    1    3    3  502    0 -0.79667939303E+03 -0.83265441755E+03  0.15161522128E+04  0.19043972739E+04  0.10100000352E+00 0. -1.
       -3    1    3    3    0  502  0.79667939303E+03  0.83265441755E+03 -0.13746535005E+04  0.17937903141E+04  0.10100000352E+00 0.  1.
</event>
<event>
 5   0  0.1686284E-07  0.3697719E+04  0.7818609E-02  0.8068468E-01
       -2   -1    0    0    0  501  0.00000000000E+00  0.00000000000E+00  0.21028590680E+04  0.21028590680E+04  0.25500000920E-02 0. -1.
        2   -1    0    0  501    0  0.00000000000E+00  0.00000000000E+00 -0.16255396171E+04  0.16255396171E+04  0.25500000920E-02 0.  1.
    10030    2    1    2    0    0  0.00000000000E+00  0.00000000000E+00  0.47731945092E+03  0.37283986851E+04  0.36977186070E+04 0.  0.
        5    1    3    3  502    0 -0.99746169609E+03  0.18005923354E+03 -0.13204255576E+04  0.16646011251E+04  0.46999998093E+01 0.  1.
       -5    1    3    3    0  502  0.99746169609E+03 -0.18005923354E+03  0.17977450085E+04  0.20637975599E+04  0.46999998093E+01 0. -1.
</event>
<event>
 5   0  0.1658770E-07  0.3743431E+04  0.7818609E-02  0.8058405E-01
       -2   -1    0    0    0  501  0.00000000000E+00  0.00000000000E+00  0.30025103341E+04  0.30025103341E+04  0.25500000920E-02 0. -1.
        2   -1    0    0  501    0  0.00000000000E+00  0.00000000000E+00 -0.11667963444E+04  0.11667963444E+04  0.25500000920E-02 0.  1.
    10030    2    1    2    0    0  0.00000000000E+00  0.00000000000E+00  0.18357139897E+04  0.41693066785E+04  0.37434305560E+04 0.  0.
        2    1    3    3  502    0 -0.12301769235E+04 -0.13224319970E+04  0.14648017791E+04  0.23254689639E+04  0.25500000920E-02 0. -1.
       -2    1    3    3    0  502  0.12301769235E+04  0.13224319970E+04  0.37091221064E+03  0.18438377146E+04  0.25500000920E-02 0.  1.
</event>
<event>
 5   0  0.5177000E-08  0.3719548E+04  0.7818609E-02  0.8063644E-01
       -1   -1    0    0    0  501  0.00000000000E+00  0.00000000000E+00  0.10397103489E+04  0.10397103489E+04  0.50400001928E-02 0. -1.
        1   -1    0    0  501    0  0.00000000000E+00  0.00000000000E+00 -0.33266559056E+04  0.33266559056E+04  0.50400001928E-02 0.  1.
    10030    2    1    2    0    0  0.00000000000E+00  0.00000000000E+00 -0.22869455567E+04  0.43663662545E+04  0.37195475920E+04 0.  0.
        2    1    3    3  502    0 -0.40499984098E+03 -0.13612520330E+04  0.26604805132E+03  0.14449268266E+04  0.25500000920E-02 0. -1.
       -2    1    3    3    0  502  0.40499984098E+03  0.13612520330E+04 -0.25529936080E+04  0.29214394279E+04  0.25500000920E-02 0.  1.
</event>
<event>
 5   0  0.5177000E-08  0.3739701E+04  0.7818609E-02  0.8059220E-01
       -1   -1    0    0    0  501  0.00000000000E+00  0.00000000000E+00  0.30694211323E+04  0.30694211323E+04  0.50400001928E-02 0.  1.
        1   -1    0    0  501    0  0.00000000000E+00  0.00000000000E+00 -0.11390882228E+04  0.11390882228E+04  0.50400001928E-02 0. -1.
    10030    2    1    2    0    0  0.00000000000E+00  0.00000000000E+00  0.19303329094E+04  0.42085093551E+04  0.37397013050E+04 0.  0.
        1    1    3    3  502    0  0.14041154027E+04 -0.66748089369E+03 -0.20394674927E+03  0.15680131008E+04  0.50400001928E-02 0. -1.
       -1    1    3    3    0  502 -0.14041154027E+04  0.66748089369E+03  0.21342796587E+04  0.26404962543E+04  0.50400001928E-02 0.  1.
</event>
<event>
 5   0  0.5177000E-08  0.3726151E+04  0.7818609E-02  0.8062191E-01
        1   -1    0    0  501    0  0.00000000000E+00  0.00000000000E+00  0.16204428389E+04  0.16204428389E+04  0.50400001928E-02 0.  1.
       -1   -1    0    0    0  501  0.00000000000E+00  0.00000000000E+00 -0.21420385218E+04  0.21420385218E+04  0.50400001928E-02 0. -1.
    10030    2    1    2    0    0  0.00000000000E+00  0.00000000000E+00 -0.52159568293E+03  0.37624813607E+04  0.37261513567E+04 0.  0.
        3    1    3    3  502    0 -0.16540018880E+04 -0.69661428318E+03  0.24413498544E+03  0.18112414545E+04  0.10100000352E+00 0.  1.
       -3    1    3    3    0  502  0.16540018880E+04  0.69661428318E+03 -0.76573066836E+03  0.19512399062E+04  0.10100000352E+00 0. -1.
</event>
<event>
 5   0  0.5177000E-08  0.3688881E+04  0.7818609E-02  0.8070430E-01
       -1   -1    0    0    0  501  0.00000000000E+00  0.00000000000E+00  0.20485198558E+04  0.20485198558E+04  0.50400001928E-02 0.  1.
        1   -1    0    0  501    0  0.00000000000E+00  0.00000000000E+00 -0.16606923333E+04  0.16606923333E+04  0.50400001928E-02 0. -1.
    10030    2    1    2    0    0  0.00000000000E+00  0.00000000000E+00  0.38782752248E+03  0.37092121891E+04  0.36888812500E+04 0.  0.
        1    1    3    3  502    0  0.11949445441E+04  0.90874490205E+03 -0.88355703095E+03  0.17419479864E+04  0.50400001928E-02 0. -1.
       -1    1    3    3    0  502 -0.11949445441E+04 -0.90874490205E+03  0.12713845534E+04  0.19672642027E+04  0.50400001928E-02 0.  1.
</event>
<event>
 5   0  0.5177000E-08  0.3703971E+04  0.7818609E-02  0.8067082E-01
       -1   -1    0    0    0  501  0.00000000000E+00  0.00000000000E+00  0.21271012168E+04  0.21271012168E+04  0.50400001928E-02 0. -1.
        1   -1    0    0  501    0  0.00000000000E+00  0.00000000000E+00 -0.16124529865E+04  0.16124529865E+04  0.50400001928E-02 0.  1.
    10030    2    1    2    0    0  0.00000000000E+00  0.00000000000E+00  0.51464823029E+03  0.37395542033E+04  0.37039712254E+04 0.  0.
        4    1    3    3  502    0  0.18315794252E+04 -0.56549417026E+02  0.52816994574E+03  0.19070516857E+04  0.12699999809E+01 0.  1.
       -4    1    3    3    0  502 -0.18315794252E+04  0.56549417026E+02 -0.13521715448E+02  0.18325025176E+04  0.12699999809E+01 0. -1.
</event>
<event>
 5   0  0.5177000E-08  0.3707470E+04  0.7818609E-02  0.8066308E-01
       -1   -1    0    0    0  501  0.00000000000E+00  0.00000000000E+00  0.14262720998E+04  0.14262720998E+04  0.50400001928E-02 0. -1.
        1   -1    0    0  501    0  0.00000000000E+00  0.00000000000E+00 -0.24093110322E+04  0.24093110322E+04  0.50400001928E-02 0.  1.
    10030    2    1    2    0    0  0.00000000000E+00  0.00000000000E+00 -0.98303893240E+03  0.38355831320E+04  0.37074698137E+04 0.  0.
        4    1    3    3  502    0  0.12071180359E+04  0.69122568381E+03 -0.17591790568E+04  0.22426857705E+04  0.12699999809E+01 0.  1.
       -4    1    3    3    0  502 -0.12071180359E+04 -0.69122568381E+03  0.77614012439E+03  0.15928973614E+04  0.12699999809E+01 0. -1.
</event>
<event>
 5   0  0.5177000E-08  0.3693985E+04  0.7818609E-02  0.8069296E-01
       -1   -1    0    0    0  501  0.00000000000E+00  0.00000000000E+00  0.30829093123E+04  0.30829093124E+04  0.50400001928E-02 0.  1.
        1   -1    0    0  501    0  0.00000000000E+00  0.00000000000E+00 -0.11065461873E+04  0.11065461873E+04  0.50400001928E-02 0. -1.
    10030    2    1    2    0    0  0.00000000000E+00  0.00000000000E+00  0.19763631251E+04  0.41894554996E+04  0.36939851355E+04 0.  0.
        3    1    3    3  502    0  0.31974921317E+03 -0.87910702221E+03  0.27943732806E+04  0.29467933007E+04  0.10100000352E+00 0.  1.
       -3    1    3    3    0  502 -0.31974921317E+03  0.87910702221E+03 -0.81801015549E+03  0.12426621989E+04  0.10100000352E+00 0. -1.
</event>
<event>
 5   0  0.1658770E-07  0.3717606E+04  0.7818609E-02  0.8064071E-01
        2   -1    0    0  501    0  0.00000000000E+00  0.00000000000E+00  0.23470559503E+04  0.23470559503E+04  0.25500000920E-02 0.  1.
       -2   -1    0    0    0  501  0.00000000000E+00  0.00000000000E+00 -0.14721202034E+04  0.14721202034E+04  0.25500000920E-02 0. -1.
    10030    2    1    2    0    0  0.00000000000E+00  0.00000000000E+00  0.87493574684E+03  0.38191761537E+04  0.37176059409E+04 0.  0.
        2    1    3    3  502    0 -0.18414264139E+04  0.21623969041E+02  0.17791994632E+03  0.18501281959E+04  0.25500000920E-02 0. -1.
       -2    1    3    3    0  502  0.18414264139E+04 -0.21623969041E+02  0.69701580052E+03  0.19690479578E+04  0.25500000920E-02 0.  1.
</event>
<event>
 5   0  0.5177000E-08  0.3699405E+04  0.7818609E-02  0.8068094E-01
        3   -1    0    0  501    0  0.00000000000E+00  0.00000000000E+00  0.11290205855E+04  0.11290205900E+04  0.10100000352E+00 0. -1.
       -3   -1    0    0    0  501  0.00000000000E+00  0.00000000000E+00 -0.30304134659E+04  0.30304134676E+04  0.10100000352E+00 0.  1.
    10030    2    1    2    0    0  0.00000000000E+00  0.00000000000E+00 -0.19013928804E+04  0.41594340576E+04  0.36994049243E+04 0.  0.
        4    1    3    3  502    0  0.15467468518E+04 -0.54809441635E+03 -0.19103982382E+04  0.25184233866E+04  0.12699999809E+01 0.  1.
       -4    1    3    3    0  502 -0.15467468518E+04  0.54809441635E+03  0.90053578643E+01  0.16410106710E+04  0.12699999809E+01 0. -1.
</event>
<event>
 5   0  0.1558258E-07  0.3703419E+04  0.7818609E-02  0.8067204E-01
       -2   -1    0    0    0  501  0.00000000000E+00  0.00000000000E+00  0.21256438534E+04  0.21256438534E+04  0.25500000920E-02 0. -1.
        2   -1    0    0  501    0  0.00000000000E+00  0.00000000000E+00 -0.16130776829E+04  0.16130776829E+04  0.25500000920E-02 0.  1.
    10030    2    1    2    0    0  0.00000000000E+00  0.00000000000E+00  0.51256617049E+03  0.37387215364E+04  0.37034193183E+04 0.  0.
        1    1    3    3  502    0 -0.46304847006E+03  0.82493127756E+03  0.18632807249E+04  0.20896747494E+04  0.50400001928E-02 0. -1.
       -1    1    3    3    0  502  0.46304847006E+03 -0.82493127756E+03 -0.13507145544E+04  0.16490467870E+04  0.50400001928E-02 0.  1.
</event>
<event>
 5   0  0.5177000E-08  0.3699099E+04  0.7818609E-02  0.8068162E-01
       -1   -1    0    0    0  501  0.00000000000E+00  0.00000000000E+00  0.21640486000E+04  0.21640486000E+04  0.50400001928E-02 0.  1.
        1   -1    0    0  501    0  0.00000000000E+00  0.00000000000E+00 -0.15807561517E+04  0.15807561517E+04  0.50400001928E-02 0. -1.
    10030    2    1    2    0    0  0.00000000000E+00  0.00000000000E+00  0.58329244828E+03  0.37448047517E+04  0.36990988833E+04 0.  0.
        3    1    3    3  502    0  0.61992156426E+03 -0.12093203821E+04 -0.97847710485E+03  0.16745674031E+04  0.10100000352E+00 0. -1.
       -3    1    3    3    0  502 -0.61992156426E+03  0.12093203821E+04  0.15617695531E+04  0.20702373486E+04  0.10100000352E+00 0.  1.
</event>
<event>
 5   0  0.1558258E-07  0.3712029E+04  0.7818609E-02  0.8065301E-01
       -2   -1    0    0    0  501  0.00000000000E+00  0.00000000000E+00  0.15396408170E+04  0.15396408170E+04  0.25500000920E-02 0. -1.
        2   -1    0    0  501    0  0.00000000000E+00  0.00000000000E+00 -0.22373979057E+04  0.22373979057E+04  0.25500000920E-02 0.  1.
    10030    2    1    2    0    0  0.00000000000E+00  0.00000000000E+00 -0.69775708871E+03  0.37770387228E+04  0.37120286311E+04 0.  0.
        1    1    3    3  502    0 -0.27425013757E+03 -0.61568944831E+03 -0.21084714619E+04  0.22135804798E+04  0.50400001928E-02 0.  1.
       -1    1    3    3    0  502  0.27425013757E+03  0.61568944831E+03  0.14107143732E+04  0.15634582430E+04  0.50400001928E-02 0. -1.
</event>
<event>
 5   0  0.5177000E-08  0.3698804E+04  0.7818609E-02  0.8068227E-01
        1   -1    0    0  501    0  0.00000000000E+00  0.00000000000E+00  0.18820652535E+04  0.18820652535E+04  0.50400001928E-02 0. -1.
       -1   -1    0    0    0  501  0.00000000000E+00  0.00000000000E+00 -0.18173055429E+04  0.18173055429E+04  0.50400001928E-02 0.  1.
    10030    2    1    2    0    0  0.00000000000E+00  0.00000000000E+00  0.64759710616E+02  0.36993707965E+04  0.36988039242E+04 0.  0.
        1    1    3    3  502    0 -0.39443919179E+03 -0.11580914948E+04 -0.13547463357E+04  0.18254029200E+04  0.50400001928E-02 0.  1.
       -1    1    3    3    0  502  0.39443919179E+03  0.11580914948E+04  0.14195060464E+04  0.18739678764E+04  0.50400001928E-02 0. -1.
</event>
<event>
 5   0  0.1686284E-07  0.3697442E+04  0.7818609E-02  0.8068529E-01
       -2   -1    0    0    0  501  0.00000000000E+00  0.00000000000E+00  0.18554740633E+04  0.18554740633E+04  0.25500000920E-02 0. -1.
        2   -1    0    0  501    0  0.00000000000E+00  0.00000000000E+00 -0.18419929431E+04  0.18419929431E+04  0.25500000920E-02 0.  1.
    10030    2    1    2    0    0  0.00000000000E+00  0.00000000000E+00  0.13481120233E+02  0.36974670064E+04  0.36974424300E+04 0.  0.
        5    1    3    3  502    0  0.35018340137E+03  0.81886628034E+03  0.16268061550E+04  0.18546403305E+04  0.46999998093E+01 0. -1.
       -5    1    3    3    0  502 -0.35018340137E+03 -0.81886628034E+03 -0.16133250348E+04  0.18428266759E+04  0.46999998093E+01 0.  1.
</event>
<event>
 5   0  0.5177000E-08  0.3694011E+04  0.7818609E-02  0.8069290E-01
        1   -1    0    0  501    0  0.00000000000E+00  0.00000000000E+00  0.19123540914E+04  0.19123540914E+04  0.50400001928E-02 0.  1.
       -1   -1    0    0    0  501  0.00000000000E+00  0.00000000000E+00 -0.17838902753E+04  0.17838902753E+04  0.50400001928E-02 0. -1.
    10030    2    1    2    0    0  0.00000000000E+00  0.00000000000E+00  0.12846381607E+03  0.36962443667E+04  0.36940112976E+04 0.  0.
        2    1    3    3  502    0 -0.70303029556E+03 -0.17006072405E+04  0.22279941910E+03  0.18536332334E+04  0.25500000920E-02 0. -1.
       -2    1    3    3    0  502  0.70303029556E+03  0.17006072405E+04 -0.94335603021E+02  0.18426111334E+04  0.25500000920E-02 0.  1.
</event>
<event>
 5   0  0.1587026E-07  0.3697138E+04  0.7818609E-02  0.8068596E-01
        2   -1    0    0  501    0  0.00000000000E+00  0.00000000000E+00  0.23298537017E+04  0.23298537017E+04  0.25500000920E-02 0. -1.
       -2   -1    0    0    0  501  0.00000000000E+00  0.00000000000E+00 -0.14667048298E+04  0.14667048298E+04  0.25500000920E-02 0.  1.
    10030    2    1    2    0    0  0.00000000000E+00  0.00000000000E+00  0.86314887189E+03  0.37965585315E+04  0.36971381781E+04 0.  0.
        3    1    3    3  502    0  0.89945321229E+03  0.10779321368E+04  0.16665167970E+04  0.21790438311E+04  0.10100000352E+00 0. -1.
       -3    1    3    3    0  502 -0.89945321229E+03 -0.10779321368E+04 -0.80336792514E+03  0.16175147004E+04  0.10100000352E+00 0.  1.
</event>
<event>
 5   0  0.1658770E-07  0.3709193E+04  0.7818609E-02  0.8065928E-01
        2   -1    0    0  501    0  0.00000000000E+00  0.00000000000E+00  0.17558213503E+04  0.17558213503E+04  0.25500000920E-02 0.  1.
       -2   -1    0    0    0  501  0.00000000000E+00  0.00000000000E+00 -0.19589284884E+04  0.19589284884E+04  0.25500000920E-02 0. -1.
    10030    2    1    2    0    0  0.00000000000E+00  0.00000000000E+00 -0.20310713812E+03  0.37147498386E+04  0.37091931541E+04 0.  0.
        2    1    3    3  502    0 -0.62850798244E+03 -0.16262525884E+04  0.53169795292E+03  0.18227513484E+04  0.25500000920E-02 0.  1.
       -2    1    3    3    0  502  0.62850798244E+03  0.16262525884E+04 -0.73480509104E+03  0.18919984902E+04  0.25500000920E-02 0. -1.
</event>
<event>
 5   0  0.5177000E-08  0.3696784E+04  0.7818609E-02  0.8068675E-01
        1   -1    0    0  501    0  0.00000000000E+00  0.00000000000E+00  0.23202376744E+04  0.23202376744E+04  0.50400001928E-02 0. -1.
       -1   -1    0    0    0  501  0.00000000000E+00  0.00000000000E+00 -0.14725011094E+04  0.14725011094E+04  0.50400001928E-02 0.  1.
    10030    2    1    2    0    0  0.00000000000E+00  0.00000000000E+00  0.84773656506E+03  0.37927387838E+04  0.36967837641E+04 0.  0.
        2    1    3    3  502    0  0.15875060407E+04 -0.87033388280E+03  0.41507064138E+02  0.18109056665E+04  0.25500000920E-02 0. -1.
       -2    1    3    3    0  502 -0.15875060407E+04  0.87033388280E+03  0.80622950092E+03  0.19818331173E+04  0.25500000920E-02 0.  1.
</event>
<event>
 5   0  0.1686284E-07  0.3700704E+04  0.7818609E-02  0.8067806E-01
       -2   -1    0    0    0  501  0.00000000000E+00  0.00000000000E+00  0.34464726002E+04  0.34464726002E+04  0.25500000920E-02 0. -1.
        2   -1    0    0  501    0  0.00000000000E+00  0.00000000000E+00 -0.99342244200E+03  0.99342244200E+03  0.25500000920E-02 0.  1.
    10030    2    1    2    0    0  0.00000000000E+00  0.00000000000E+00  0.24530501582E+04  0.44398950422E+04  0.37007043798E+04 0.  0.
        5    1    3    3  502    0 -0.63206873685E+03 -0.16689042762E+04  0.18130863630E+04  0.25440237068E+04  0.46999998093E+01 0. -1.
       -5    1    3    3    0  502  0.63206873685E+03  0.16689042762E+04  0.63996379515E+03  0.18958713353E+04  0.46999998093E+01 0.  1.
</event>
<event>
 5   0  0.1686284E-07  0.3714617E+04  0.7818609E-02  0.8064730E-01
        2   -1    0    0  501    0  0.00000000000E+00  0.00000000000E+00  0.93341721888E+03  0.93341721888E+03  0.25500000920E-02 0. -1.
       -2   -1    0    0    0  501  0.00000000000E+00  0.00000000000E+00 -0.36956627690E+04  0.36956627690E+04  0.25500000920E-02 0.  1.
    10030    2    1    2    0    0  0.00000000000E+00  0.00000000000E+00 -0.27622455501E+04  0.46290799878E+04  0.37146172151E+04 0.  0.
        5    1    3    3  502    0  0.96638361436E+03  0.11097846765E+04 -0.27932448354E+04  0.31571756554E+04  0.46999998093E+01 0.  1.
       -5    1    3    3    0  502 -0.96638361436E+03 -0.11097846765E+04  0.30999285311E+02  0.14719043325E+04  0.46999998093E+01 0. -1.
</event>
<event>
 5   0  0.1587026E-07  0.3701874E+04  0.7818609E-02  0.8067547E-01
       -2   -1    0    0    0  501  0.00000000000E+00  0.00000000000E+00  0.27554804306E+04  0.27554804306E+04  0.25500000920E-02 0.  1.
        2   -1    0    0  501    0  0.00000000000E+00  0.00000000000E+00 -0.12433286098E+04  0.12433286098E+04  0.25500000920E-02 0. -1.
    10030    2    1    2    0    0  0.00000000000E+00  0.00000000000E+00  0.15121518208E+04  0.39988090404E+04  0.37018739325E+04 0.  0.
        3    1    3    3  502    0  0.22839022377E+03 -0.13564788439E+04 -0.58171813428E+03  0.14935169721E+04  0.10100000352E+00 0. -1.
       -3    1    3    3    0  502 -0.22839022377E+03  0.13564788439E+04  0.20938699551E+04  0.25052920682E+04  0.10100000352E+00 0.  1.
</event>
<event>
 5   0  0.1558258E-07  0.3697999E+04  0.7818609E-02  0.8068406E-01
       -2   -1    0    0    0  501  0.00000000000E+00  0.00000000000E+00  0.12358493286E+04  0.12358493286E+04  0.25500000920E-02 0.  1.
        2   -1    0    0  501    0  0.00000000000E+00  0.00000000000E+00 -0.27663552459E+04  0.27663552459E+04  0.25500000920E-02 0. -1.
    10030    2    1    2    0    0  0.00000000000E+00  0.00000000000E+00 -0.15305059172E+04  0.40022045745E+04  0.36979985254E+04 0.  0.
        1    1    3    3  502    0  0.15057111607E+02  0.18107180776E+04 -0.11700127113E+04  0.21558887768E+04  0.50400001928E-02 0. -1.
       -1    1    3    3    0  502 -0.15057111607E+02 -0.18107180776E+04 -0.36049320592E+03  0.18463157977E+04  0.50400001928E-02 0.  1.
</event>
<event>
 5   0  0.5181371E-08  0.3710038E+04  0.7818609E-02  0.8065741E-01
        1   -1    0    0  501    0  0.00000000000E+00  0.00000000000E+00  0.17375434916E+04  0.17375434916E+04  0.50400001928E-02 0.  1.
       -1   -1    0    0    0  501  0.00000000000E+00  0.00000000000E+00 -0.19804368569E+04  0.19804368569E+04  0.50400001928E-02 0. -1.
    10030    2    1    2    0    0  0.00000000000E+00  0.00000000000E+00 -0.24289336522E+03  0.37179803485E+04  0.37100378280E+04 0.  0.
        5    1    3    3  502    0  0.13050341082E+03 -0.18462305552E+04  0.32168886704E+01  0.18508459800E+04  0.46999998093E+01 0.  1.
       -5    1    3    3    0  502 -0.13050341082E+03  0.18462305552E+04 -0.24611025389E+03  0.18671343686E+04  0.46999998093E+01 0. -1.
</event>
<event>
 5   0  0.5177000E-08  0.3691037E+04  0.7818609E-02  0.8069951E-01
       -1   -1    0    0    0  501  0.00000000000E+00  0.00000000000E+00  0.14230781961E+04  0.14230781961E+04  0.50400001928E-02 0. -1.
        1   -1    0    0  501    0  0.00000000000E+00  0.00000000000E+00 -0.23933598280E+04  0.23933598280E+04  0.50400001928E-02 0.  1.
    10030    2    1    2    0    0  0.00000000000E+00  0.00000000000E+00 -0.97028163189E+03  0.38164380240E+04  0.36910368118E+04 0.  0.
        1    1    3    3  502    0 -0.10370815904E+03 -0.16497368923E+04 -0.13337252815E+04  0.21239609983E+04  0.50400001928E-02 0. -1.
       -1    1    3    3    0  502  0.10370815904E+03  0.16497368923E+04  0.36344364959E+03  0.16924770257E+04  0.50400001928E-02 0.  1.
</event>
<event>
 5   0  0.1658770E-07  0.3675144E+04  0.7818609E-02  0.8073493E-01
        2   -1    0    0  501    0  0.00000000000E+00  0.00000000000E+00  0.21243993843E+04  0.21243993843E+04  0.25500000920E-02 0. -1.
       -2   -1    0    0    0  501  0.00000000000E+00  0.00000000000E+00 -0.15894707693E+04  0.15894707693E+04  0.25500000920E-02 0.  1.
    10030    2    1    2    0    0  0.00000000000E+00  0.00000000000E+00  0.53492861498E+03  0.37138701535E+04  0.36751439284E+04 0.  0.
        2    1    3    3  502    0 -0.37542152434E+03 -0.54383142654E+03 -0.14652394376E+04  0.16073644736E+04  0.25500000920E-02 0.  1.
       -2    1    3    3    0  502  0.37542152434E+03  0.54383142654E+03  0.20001680525E+04  0.21065056800E+04  0.25500000920E-02 0. -1.
</event>
<event>
 5   0  0.5177000E-08  0.3693140E+04  0.7818609E-02  0.8069484E-01
       -1   -1    0    0    0  501  0.00000000000E+00  0.00000000000E+00  0.14838057642E+04  0.14838057642E+04  0.50400001928E-02 0. -1.
        1   -1    0    0  501    0  0.00000000000E+00  0.00000000000E+00 -0.22980237423E+04  0.22980237423E+04  0.50400001928E-02 0.  1.
    10030    2    1    2    0    0  0.00000000000E+00  0.00000000000E+00 -0.81421797810E+03  0.37818295066E+04  0.36931400597E+04 0.  0.
        2    1    3    3  502    0 -0.20174031432E+02 -0.49528569376E+03 -0.22286194823E+04  0.22830811871E+04  0.25500000920E-02 0.  1.
       -2    1    3    3    0  502  0.20174031432E+02  0.49528569376E+03  0.14144015042E+04  0.14987483195E+04  0.25500000920E-02 0. -1.
</event>
<event>
 5   0  0.1558258E-07  0.3696299E+04  0.7818609E-02  0.8068783E-01
       -2   -1    0    0    0  501  0.00000000000E+00  0.00000000000E+00  0.23231968700E+04  0.23231968700E+04  0.25500000920E-02 0.  1.
        2   -1    0    0  501    0  0.00000000000E+00  0.00000000000E+00 -0.14702394899E+04  0.14702394899E+04  0.25500000920E-02 0. -1.
    10030    2    1    2    0    0  0.00000000000E+00  0.00000000000E+00  0.85295738008E+03  0.37934363599E+04  0.36962985708E+04 0.  0.
        1    1    3    3  502    0 -0.16791846340E+04 -0.54043802582E+02  0.12168300516E+04  0.20744293534E+04  0.50400001928E-02 0.  1.
       -1    1    3    3    0  502  0.16791846340E+04  0.54043802582E+02 -0.36387267155E+03  0.17190070066E+04  0.50400001928E-02 0. -1.
</event>
<event>
 5   0  0.1686284E-07  0.3701875E+04  0.7818609E-02  0.8067546E-01
       -2   -1    0    0    0  501  0.00000000000E+00  0.00000000000E+00  0.21749008784E+04  0.21749008784E+04  0.25500000920E-02 0.  1.
        2   -1    0    0  501    0  0.00000000000E+00  0.00000000000E+00 -0.15752301872E+04  0.15752301872E+04  0.25500000920E-02 0. -1.
    10030    2    1    2    0    0  0.00000000000E+00  0.00000000000E+00  0.59967069116E+03  0.37501310656E+04  0.37018749400E+04 0.  0.
        5    1    3    3  502    0 -0.68546503647E+03 -0.17132891617E+04  0.44567504002E+03  0.18983862618E+04  0.46999998093E+01 0.  1.
       -5    1    3    3    0  502  0.68546503647E+03  0.17132891617E+04  0.15399565114E+03  0.18517448038E+04  0.46999998093E+01 0. -1.
</event>
<event>
 5   0  0.5181371E-08  0.3713390E+04  0.7818609E-02  0.8065001E-01
       -1   -1    0    0    0  501  0.00000000000E+00  0.00000000000E+00  0.11411163371E+04  0.11411163371E+04  0.50400001928E-02 0.  1.
        1   -1    0    0  501    0  0.00000000000E+00  0.00000000000E+00 -0.30210035474E+04  0.30210035474E+04  0.50400001928E-02 0. -1.
    10030    2    1    2    0    0  0.00000000000E+00  0.00000000000E+00 -0.18798872103E+04  0.41621198845E+04  0.37133900966E+04 0.  0.
        5    1    3    3  502    0  0.12461537348E+04 -0.68084709666E+03 -0.22806692859E+04  0.26866198804E+04  0.46999998093E+01 0. -1.
       -5    1    3    3    0  502 -0.12461537348E+04  0.68084709666E+03  0.40078207568E+03  0.14755000041E+04  0.46999998093E+01 0.  1.
</event>
<event>
 5   0  0.5181371E-08  0.3703264E+04  0.7818609E-02  0.8067239E-01
        1   -1    0    0  501    0  0.00000000000E+00  0.00000000000E+00  0.14119708218E+04  0.14119708218E+04  0.50400001928E-02 0.  1.
       -1   -1    0    0    0  501  0.00000000000E+00  0.00000000000E+00 -0.24281958059E+04  0.24281958059E+04  0.50400001928E-02 0. -1.
    10030    2    1    2    0    0  0.00000000000E+00  0.00000000000E+00 -0.10162249841E+04  0.38401666277E+04  0.37032643046E+04 0.  0.
        5    1    3    3  502    0  0.10479968906E+04 -0.14896456464E+04 -0.16235261173E+03  0.18285847246E+04  0.46999998093E+01 0.  1.
       -5    1    3    3    0  502 -0.10479968906E+04  0.14896456464E+04 -0.85387237236E+03  0.20115819031E+04  0.46999998093E+01 0. -1.
</event>
<event>
 5   0  0.1558258E-07  0.3699487E+04  0.7818609E-02  0.8068076E-01
       -2   -1    0    0    0  501  0.00000000000E+00  0.00000000000E+00  0.14167266999E+04  0.14167266999E+04  0.25500000920E-02 0.  1.
        2   -1    0    0  501    0  0.00000000000E+00  0.00000000000E+00 -0.24151097769E+04  0.24151097769E+04  0.25500000920E-02 0. -1.
    10030    2    1    2    0    0  0.00000000000E+00  0.00000000000E+00 -0.99838307708E+03  0.38318364768E+04  0.36994867234E+04 0.  0.
        1    1    3    3  502    0  0.16789902083E+03  0.37083500468E+03 -0.23681392153E+04  0.24028716206E+04  0.50400001928E-02 0. -1.
       -1    1    3    3    0  502 -0.16789902083E+03 -0.37083500468E+03  0.13697561383E+04  0.14289648562E+04  0.50400001928E-02 0.  1.
</event>
<event>
 5   0  0.1666189E-07  0.3699657E+04  0.7818609E-02  0.8068038E-01
        2   -1    0    0  501    0  0.00000000000E+00  0.00000000000E+00  0.22352962278E+04  0.22352962278E+04  0.25500000920E-02 0.  1.
       -2   -1    0    0    0  501  0.00000000000E+00  0.00000000000E+00 -0.15308327079E+04  0.15308327079E+04  0.25500000920E-02 0. -1.
    10030    2    1    2    0    0  0.00000000000E+00  0.00000000000E+00  0.70446351991E+03  0.37661289358E+04  0.36996565124E+04 0.  0.
        4    1    3    3  502    0 -0.14913396393E+04 -0.31464933378E+03 -0.71482164693E+03  0.16834695491E+04  0.12699999809E+01 0. -1.
       -4    1    3    3    0  502  0.14913396393E+04  0.31464933378E+03  0.14192851668E+04  0.20826593866E+04  0.12699999809E+01 0.  1.
</event>
<event>
 5   0  0.5177000E-08  0.3726763E+04  0.7818609E-02  0.8062056E-01
       -1   -1    0    0    0  501  0.00000000000E+00  0.00000000000E+00  0.26802606900E+04  0.26802606900E+04  0.50400001928E-02 0.  1.
        1   -1    0    0  501    0  0.00000000000E+00  0.00000000000E+00 -0.12954678006E+04  0.12954678006E+04  0.50400001928E-02 0. -1.
    10030    2    1    2    0    0  0.00000000000E+00  0.00000000000E+00  0.13847928894E+04  0.39757284906E+04  0.37267634328E+04 0.  0.
        2    1    3    3  502    0  0.83767941454E+03 -0.11758632082E+04  0.19491585598E+04  0.24256092384E+04  0.25500000920E-02 0.  1.
       -2    1    3    3    0  502 -0.83767941454E+03  0.11758632082E+04 -0.56436567046E+03  0.15501192522E+04  0.25500000920E-02 0. -1.
</event>
<event>
 5   0  0.5177000E-08  0.3668556E+04  0.7818609E-02  0.8074966E-01
       -1   -1    0    0    0  501  0.00000000000E+00  0.00000000000E+00  0.17149598270E+04  0.17149598271E+04  0.50400001928E-02 0.  1.
        1   -1    0    0  501    0  0.00000000000E+00  0.00000000000E+00 -0.19618976924E+04  0.19618976924E+04  0.50400001928E-02 0. -1.
    10030    2    1    2    0    0  0.00000000000E+00  0.00000000000E+00 -0.24693786532E+03  0.36768575194E+04  0.36685559705E+04 0.  0.
        4    1    3    3  502    0 -0.14342363045E+04 -0.27864558096E+03 -0.12349857005E+04  0.19130782604E+04  0.12699999809E+01 0. -1.
       -4    1    3    3    0  502  0.14342363045E+04  0.27864558096E+03  0.98804783519E+03  0.17637792590E+04  0.12699999809E+01 0.  1.
</event>
<event>
 5   0  0.1587026E-07  0.3566727E+04  0.7818609E-02  0.8098156E-01
        2   -1    0    0  501    0  0.00000000000E+00  0.00000000000E+00  0.20106128708E+04  0.20106128708E+04  0.25500000920E-02 0. -1.
       -2   -1    0    0    0  501  0.00000000000E+00  0.00000000000E+00 -0.15817992426E+04  0.15817992426E+04  0.25500000920E-02 0.  1.
    10030    2    1    2    0    0  0.00000000000E+00  0.00000000000E+00  0.42881362817E+03  0.35924121135E+04  0.35667273046E+04 0.  0.
        3    1    3    3  502    0  0.41049949213E+03 -0.33945079307E+03  0.19286175060E+04  0.20008253718E+04  0.10100000352E+00 0. -1.
       -3    1    3    3    0  502 -0.41049949213E+03  0.33945079307E+03 -0.14998038778E+04  0.15915867416E+04  0.10100000352E+00 0.  1.
</event>
<event>
 5   0  0.5177000E-08  0.3663221E+04  0.7818609E-02  0.8076162E-01
        1   -1    0    0  501    0  0.00000000000E+00  0.00000000000E+00  0.31369470993E+04  0.31369470994E+04  0.50400001928E-02 0.  1.
       -1   -1    0    0    0  501  0.00000000000E+00  0.00000000000E+00 -0.10694467589E+04  0.10694467590E+04  0.50400001928E-02 0. -1.
    10030    2    1    2    0    0  0.00000000000E+00  0.00000000000E+00  0.20675003404E+04  0.42063938583E+04  0.36632214830E+04 0.  0.
        1    1    3    3  502    0  0.99223181648E+03  0.10404499901E+04  0.23367983402E+04  0.27436629972E+04  0.50400001928E-02 0.  1.
       -1    1    3    3    0  502 -0.99223181648E+03 -0.10404499901E+04 -0.26929799975E+03  0.14627308611E+04  0.50400001928E-02 0. -1.
</event>
<event>
 5   0  0.1587026E-07  0.3759964E+04  0.7818609E-02  0.8054802E-01
       -2   -1    0    0    0  501  0.00000000000E+00  0.00000000000E+00  0.17442672766E+04  0.17442672766E+04  0.25500000920E-02 0.  1.
        2   -1    0    0  501    0  0.00000000000E+00  0.00000000000E+00 -0.20262560306E+04  0.20262560306E+04  0.25500000920E-02 0. -1.
    10030    2    1    2    0    0  0.00000000000E+00  0.00000000000E+00 -0.28198875407E+03  0.37705233072E+04  0.37599638765E+04 0.  0.
        3    1    3    3  502    0 -0.10142449371E+03  0.95617392655E+03 -0.17610115611E+04  0.20064190077E+04  0.10100000352E+00 0. -1.
       -3    1    3    3    0  502  0.10142449371E+03 -0.95617392655E+03  0.14790228070E+04  0.17641042995E+04  0.10100000352E+00 0.  1.
</event>
<event>
 5   0  0.5177000E-08  0.3686821E+04  0.7818609E-02  0.8070889E-01
        1   -1    0    0  501    0  0.00000000000E+00  0.00000000000E+00  0.26054909891E+04  0.26054909891E+04  0.50400001928E-02 0. -1.
       -1   -1    0    0    0  501  0.00000000000E+00  0.00000000000E+00 -0.13042313344E+04  0.13042313344E+04  0.50400001928E-02 0.  1.
    10030    2    1    2    0    0  0.00000000000E+00  0.00000000000E+00  0.13012596547E+04  0.39097223235E+04  0.36868213895E+04 0.  0.
        2    1    3    3  502    0  0.14764088955E+04  0.10863997439E+04  0.85766485279E+03  0.20237679289E+04  0.25500000920E-02 0.  1.
       -2    1    3    3    0  502 -0.14764088955E+04 -0.10863997439E+04  0.44359480193E+03  0.18859543946E+04  0.25500000920E-02 0. -1.
</event>
<event>
 5   0  0.1558258E-07  0.3692740E+04  0.7818609E-02  0.8069573E-01
       -2   -1    0    0    0  501  0.00000000000E+00  0.00000000000E+00  0.19718390457E+04  0.19718390457E+04  0.25500000920E-02 0.  1.
        2   -1    0    0  501    0  0.00000000000E+00  0.00000000000E+00 -0.17288850431E+04  0.17288850431E+04  0.25500000920E-02 0. -1.
    10030    2    1    2    0    0  0.00000000000E+00  0.00000000000E+00  0.24295400262E+03  0.37007240887E+04  0.36927404639E+04 0.  0.
        1    1    3    3  502    0  0.11395390467E+03 -0.14125504338E+04  0.13075892868E+04  0.19282307858E+04  0.50400001928E-02 0.  1.
       -1    1    3    3    0  502 -0.11395390467E+03  0.14125504338E+04 -0.10646352842E+04  0.17724933029E+04  0.50400001928E-02 0. -1.
</event>
<event>
 5   0  0.1658770E-07  0.3701520E+04  0.7818609E-02  0.8067625E-01
        2   -1    0    0  501    0  0.00000000000E+00  0.00000000000E+00  0.24447884160E+04  0.24447884160E+04  0.25500000920E-02 0.  1.
       -2   -1    0    0    0  501  0.00000000000E+00  0.00000000000E+00 -0.14010669242E+04  0.14010669242E+04  0.25500000920E-02 0. -1.
    10030    2    1    2    0    0  0.00000000000E+00  0.00000000000E+00  0.10437214918E+04  0.38458553401E+04  0.37015197885E+04 0.  0.
        2    1    3    3  502    0  0.16352780851E+03 -0.18187769616E+03  0.24279231183E+04  0.24402113656E+04  0.25500000920E-02 0.  1.
       -2    1    3    3    0  502 -0.16352780851E+03  0.18187769616E+03 -0.13842016265E+04  0.14056439746E+04  0.25500000920E-02 0. -1.
</event>
<event>
 5   0  0.5177000E-08  0.3702980E+04  0.7818609E-02  0.8067302E-01
        1   -1    0    0  501    0  0.00000000000E+00  0.00000000000E+00  0.16153522411E+04  0.16153522411E+04  0.50400001928E-02 0.  1.
       -1   -1    0    0    0  501  0.00000000000E+00  0.00000000000E+00 -0.21221471443E+04  0.21221471443E+04  0.50400001928E-02 0. -1.
    10030    2    1    2    0    0  0.00000000000E+00  0.00000000000E+00 -0.50679490318E+03  0.37374993855E+04  0.37029799598E+04 0.  0.
        4    1    3    3  502    0 -0.27814024698E+03 -0.18027470494E+04  0.66980215899E+02  0.18253073394E+04  0.12699999809E+01 0. -1.
       -4    1    3    3    0  502  0.27814024698E+03  0.18027470494E+04 -0.57377511907E+03  0.19121920461E+04  0.12699999809E+01 0.  1.
</event>
<event>
 5   0  0.1666189E-07  0.3690643E+04  0.7818609E-02  0.8070039E-01
        2   -1    0    0  501    0  0.00000000000E+00  0.00000000000E+00  0.18263407348E+04  0.18263407348E+04  0.25500000920E-02 0.  1.
       -2   -1    0    0    0  501  0.00000000000E+00  0.00000000000E+00 -0.18644990532E+04  0.18644990532E+04  0.25500000920E-02 0. -1.
    10030    2    1    2    0    0  0.00000000000E+00  0.00000000000E+00 -0.38158318429E+02  0.36908397880E+04  0.36906425299E+04 0.  0.
        4    1    3    3  502    0  0.54015399021E+03  0.67598195224E+03 -0.16490408158E+04  0.18622715049E+04  0.12699999809E+01 0. -1.
       -4    1    3    3    0  502 -0.54015399021E+03 -0.67598195224E+03  0.16108824973E+04  0.18285682831E+04  0.12699999809E+01 0.  1.
</event>
<event>
 5   0  0.1686284E-07  0.3704022E+04  0.7818609E-02  0.8067071E-01
       -2   -1    0    0    0  501  0.00000000000E+00  0.00000000000E+00  0.16604688799E+04  0.16604688799E+04  0.25500000920E-02 0.  1.
        2   -1    0    0  501    0  0.00000000000E+00  0.00000000000E+00 -0.20656479094E+04  0.20656479094E+04  0.25500000920E-02 0. -1.
    10030    2    1    2    0    0  0.00000000000E+00  0.00000000000E+00 -0.40517902942E+03  0.37261167893E+04  0.37040216362E+04 0.  0.
        5    1    3    3  502    0 -0.11044981137E+03 -0.14943108776E+04  0.89236918956E+03  0.17439922649E+04  0.46999998093E+01 0.  1.
       -5    1    3    3    0  502  0.11044981137E+03  0.14943108776E+04 -0.12975482190E+04  0.19821245244E+04  0.46999998093E+01 0. -1.
</event>
<event>
 5   0  0.5177000E-08  0.3701816E+04  0.7818609E-02  0.8067559E-01
        1   -1    0    0  501    0  0.00000000000E+00  0.00000000000E+00  0.96975307829E+03  0.96975307831E+03  0.50400001928E-02 0. -1.
       -1   -1    0    0    0  501  0.00000000000E+00  0.00000000000E+00 -0.35327145454E+04  0.35327145454E+04  0.50400001928E-02 0.  1.
    10030    2    1    2    0    0  0.00000000000E+00  0.00000000000E+00 -0.25629614671E+04  0.45024676237E+04  0.37018162057E+04 0.  0.
        1    1    3    3  502    0 -0.11784130730E+04 -0.31931229670E+03 -0.29734930077E+04  0.32143861592E+04  0.50400001928E-02 0.  1.
       -1    1    3    3    0  502  0.11784130730E+04  0.31931229670E+03  0.41053154056E+03  0.12880814646E+04  0.50400001928E-02 0. -1.
</event>
<event>
 5   0  0.1666189E-07  0.3711301E+04  0.7818609E-02  0.8065462E-01
        2   -1    0    0  501    0  0.00000000000E+00  0.00000000000E+00  0.29614011081E+04  0.29614011081E+04  0.25500000920E-02 0. -1.
       -2   -1    0    0    0  501  0.00000000000E+00  0.00000000000E+00 -0.11627732433E+04  0.11627732433E+04  0.25500000920E-02 0.  1.
    10030    2    1    2    0    0  0.00000000000E+00  0.00000000000E+00  0.17986278648E+04  0.41241743513E+04  0.37113005651E+04 0.  0.
        4    1    3    3  502    0  0.78413508314E+03  0.11939600625E+04  0.22155810822E+04  0.26361353539E+04  0.12699999809E+01 0. -1.
       -4    1    3    3    0  502 -0.78413508314E+03 -0.11939600625E+04 -0.41695321739E+03  0.14880389974E+04  0.12699999809E+01 0.  1.
</event>
<event>
 5   0  0.5177000E-08  0.3700217E+04  0.7818609E-02  0.8067914E-01
       -1   -1    0    0    0  501  0.00000000000E+00  0.00000000000E+00  0.12646629951E+04  0.12646629951E+04  0.50400001928E-02 0.  1.
        1   -1    0    0  501    0  0.00000000000E+00  0.00000000000E+00 -0.27065723102E+04  0.27065723102E+04  0.50400001928E-02 0. -1.
    10030    2    1    2    0    0  0.00000000000E+00  0.00000000000E+00 -0.14419093151E+04  0.39712353054E+04  0.37002172068E+04 0.  0.
        3    1    3    3  502    0 -0.65525593904E+02  0.99209792119E+03  0.95356367774E+03  0.13776195362E+04  0.10100000352E+00 0.  1.
       -3    1    3    3    0  502  0.65525593904E+02 -0.99209792119E+03 -0.23954729928E+04  0.25936157692E+04  0.10100000352E+00 0. -1.
</event>
<event>
 5   0  0.5177000E-08  0.3703810E+04  0.7818609E-02  0.8067118E-01
       -1   -1    0    0    0  501  0.00000000000E+00  0.00000000000E+00  0.16866250637E+04  0.16866250637E+04  0.50400001928E-02 0.  1.
        1   -1    0    0  501    0  0.00000000000E+00  0.00000000000E+00 -0.20333810070E+04  0.20333810070E+04  0.50400001928E-02 0. -1.
    10030    2    1    2    0    0  0.00000000000E+00  0.00000000000E+00 -0.34675594337E+03  0.37200060707E+04  0.37038095904E+04 0.  0.
        2    1    3    3  502    0 -0.14190764275E+04  0.76953625395E+03  0.73810770441E+03  0.17750399817E+04  0.25500000920E-02 0.  1.
       -2    1    3    3    0  502  0.14190764275E+04 -0.76953625395E+03 -0.10848636478E+04  0.19449660890E+04  0.25500000920E-02 0. -1.
</event>
<event>
 5   0  0.5177000E-08  0.3756129E+04  0.7818609E-02  0.8055635E-01
       -1   -1    0    0    0  501  0.00000000000E+00  0.00000000000E+00  0.16799937799E+04  0.16799937799E+04  0.50400001928E-02 0.  1.
        1   -1    0    0  501    0  0.00000000000E+00  0.00000000000E+00 -0.20994881879E+04  0.20994881879E+04  0.50400001928E-02 0. -1.
    10030    2    1    2    0    0  0.00000000000E+00  0.00000000000E+00 -0.41949440795E+03  0.37794819678E+04  0.37561294422E+04 0.  0.
        2    1    3    3  502    0  0.13118352423E+04  0.16837596666E+03 -0.15514029921E+04  0.20386548047E+04  0.25500000920E-02 0. -1.
       -2    1    3    3    0  502 -0.13118352423E+04 -0.16837596666E+03  0.11319085841E+04  0.17408271631E+04  0.25500000920E-02 0.  1.
</event>
<event>
 5   0  0.5177000E-08  0.3732252E+04  0.7818609E-02  0.8060852E-01
       -1   -1    0    0    0  501  0.00000000000E+00  0.00000000000E+00  0.14418385515E+04  0.14418385515E+04  0.50400001928E-02 0. -1.
        1   -1    0    0  501    0  0.00000000000E+00  0.00000000000E+00 -0.24152672315E+04  0.24152672315E+04  0.50400001928E-02 0.  1.
    10030    2    1    2    0    0  0.00000000000E+00  0.00000000000E+00 -0.97342868000E+03  0.38571057830E+04  0.37322515491E+04 0.  0.
        1    1    3    3  502    0  0.10264831262E+04 -0.69297993101E+03 -0.19293110192E+04  0.22926250897E+04  0.50400001928E-02 0.  1.
       -1    1    3    3    0  502 -0.10264831262E+04  0.69297993101E+03  0.95588233921E+03  0.15644806933E+04  0.50400001928E-02 0. -1.
</event>
<event>
 5   0  0.5181371E-08  0.3708068E+04  0.7818609E-02  0.8066176E-01
        1   -1    0    0  501    0  0.00000000000E+00  0.00000000000E+00  0.19514024514E+04  0.19514024514E+04  0.50400001928E-02 0.  1.
       -1   -1    0    0    0  501  0.00000000000E+00  0.00000000000E+00 -0.17615234547E+04  0.17615234547E+04  0.50400001928E-02 0. -1.
    10030    2    1    2    0    0  0.00000000000E+00  0.00000000000E+00  0.18987899668E+03  0.37129259061E+04  0.37080675224E+04 0.  0.
        5    1    3    3  502    0  0.98756648214E+03  0.79560591681E+03  0.14491695617E+04  0.19257182660E+04  0.46999998093E+01 0.  1.
       -5    1    3    3    0  502 -0.98756648214E+03 -0.79560591681E+03 -0.12592905651E+04  0.17872076401E+04  0.46999998093E+01 0. -1.
</event>
<event>
 5   0  0.5177000E-08  0.3716286E+04  0.7818609E-02  0.8064362E-01
       -1   -1    0    0    0  501  0.00000000000E+00  0.00000000000E+00  0.13775009846E+04  0.13775009846E+04  0.50400001928E-02 0. -1.
        1   -1    0    0  501    0  0.00000000000E+00  0.00000000000E+00 -0.25064917576E+04  0.25064917576E+04  0.50400001928E-02 0.  1.
    10030    2    1    2    0    0  0.00000000000E+00  0.00000000000E+00 -0.11289907730E+04  0.38839927422E+04  0.37162857070E+04 0.  0.
        2    1    3    3  502    0 -0.16789555198E+04 -0.19726517387E+02 -0.13962843907E+04  0.21837790348E+04  0.25500000920E-02 0. -1.
       -2    1    3    3    0  502  0.16789555198E+04  0.19726517387E+02  0.26729361769E+03  0.17002137075E+04  0.25500000920E-02 0.  1.
</event>
<event>
 5   0  0.1666189E-07  0.3698686E+04  0.7818609E-02  0.8068253E-01
       -2   -1    0    0    0  501  0.00000000000E+00  0.00000000000E+00  0.20587715570E+04  0.20587715570E+04  0.25500000920E-02 0.  1.
        2   -1    0    0  501    0  0.00000000000E+00  0.00000000000E+00 -0.16612188024E+04  0.16612188024E+04  0.25500000920E-02 0. -1.
    10030    2    1    2    0    0  0.00000000000E+00  0.00000000000E+00  0.39755275458E+03  0.37199903594E+04  0.36986862643E+04 0.  0.
        4    1    3    3  502    0 -0.10018907621E+04  0.13005096146E+03  0.17566884298E+04  0.20264881456E+04  0.12699999809E+01 0.  1.
       -4    1    3    3    0  502  0.10018907621E+04 -0.13005096146E+03 -0.13591356752E+04  0.16935022139E+04  0.12699999809E+01 0. -1.
</event>
<event>
 5   0  0.1666189E-07  0.3696205E+04  0.7818609E-02  0.8068803E-01
        2   -1    0    0  501    0  0.00000000000E+00  0.00000000000E+00  0.23276778127E+04  0.23276778127E+04  0.25500000920E-02 0.  1.
       -2   -1    0    0    0  501  0.00000000000E+00  0.00000000000E+00 -0.14673348389E+04  0.14673348389E+04  0.25500000920E-02 0. -1.
    10030    2    1    2    0    0  0.00000000000E+00  0.00000000000E+00  0.86034297378E+03  0.37950126517E+04  0.36962049448E+04 0.  0.
        4    1    3    3  502    0 -0.81970298231E+03 -0.48862624728E+03 -0.11947964623E+04  0.15291202660E+04  0.12699999809E+01 0. -1.
       -4    1    3    3    0  502  0.81970298231E+03  0.48862624728E+03  0.20551394361E+04  0.22658923857E+04  0.12699999809E+01 0.  1.
</event>
<event>
 5   0  0.1558258E-07  0.3619922E+04  0.7818609E-02  0.8085944E-01
        2   -1    0    0  501    0  0.00000000000E+00  0.00000000000E+00  0.25708658962E+04  0.25708658962E+04  0.25500000920E-02 0. -1.
       -2   -1    0    0    0  501  0.00000000000E+00  0.00000000000E+00 -0.12742625406E+04  0.12742625406E+04  0.25500000920E-02 0.  1.
    10030    2    1    2    0    0  0.00000000000E+00  0.00000000000E+00  0.12966033556E+04  0.38451284369E+04  0.36199216061E+04 0.  0.
        1    1    3    3  502    0 -0.45647574573E+03 -0.12668576888E+04  0.19329472318E+04  0.23557554014E+04  0.50400001928E-02 0. -1.
       -1    1    3    3    0  502  0.45647574573E+03  0.12668576888E+04 -0.63634387623E+03  0.14893730355E+04  0.50400001928E-02 0.  1.
</event>
<event>
 5   0  0.5177000E-08  0.3721398E+04  0.7818609E-02  0.8063236E-01
       -1   -1    0    0    0  501  0.00000000000E+00  0.00000000000E+00  0.27549067611E+04  0.27549067611E+04  0.50400001928E-02 0. -1.
        1   -1    0    0  501    0  0.00000000000E+00  0.00000000000E+00 -0.12567397838E+04  0.12567397838E+04  0.50400001928E-02 0.  1.
    10030    2    1    2    0    0  0.00000000000E+00  0.00000000000E+00  0.14981669773E+04  0.40116465449E+04  0.37213980853E+04 0.  0.
        4    1    3    3  502    0 -0.14534788458E+04  0.22604530023E+03 -0.47931099299E+03  0.15470739717E+04  0.12699999809E+01 0.  1.
       -4    1    3    3    0  502  0.14534788458E+04 -0.22604530023E+03  0.19774779703E+04  0.24645725733E+04  0.12699999809E+01 0. -1.
</event>
<event>
 5   0  0.5177000E-08  0.3703798E+04  0.7818609E-02  0.8067121E-01
        1   -1    0    0  501    0  0.00000000000E+00  0.00000000000E+00  0.15787815752E+04  0.15787815752E+04  0.50400001928E-02 0.  1.
       -1   -1    0    0    0  501  0.00000000000E+00  0.00000000000E+00 -0.21722639308E+04  0.21722639308E+04  0.50400001928E-02 0. -1.
    10030    2    1    2    0    0  0.00000000000E+00  0.00000000000E+00 -0.59348235560E+03  0.37510455060E+04  0.37037981966E+04 0.  0.
        4    1    3    3  502    0  0.50619625995E+03 -0.34984953181E+03 -0.20657050128E+04  0.21554044079E+04  0.12699999809E+01 0. -1.
       -4    1    3    3    0  502 -0.50619625995E+03  0.34984953181E+03  0.14722226572E+04  0.15956410981E+04  0.12699999809E+01 0.  1.
</event>
<event>
 5   0  0.1686284E-07  0.3698719E+04  0.7818609E-02  0.8068246E-01
        2   -1    0    0  501    0  0.00000000000E+00  0.00000000000E+00  0.26710976174E+04  0.26710976174E+04  0.25500000920E-02 0. -1.
       -2   -1    0    0    0  501  0.00000000000E+00  0.00000000000E+00 -0.12804215250E+04  0.12804215250E+04  0.25500000920E-02 0.  1.
    10030    2    1    2    0    0  0.00000000000E+00  0.00000000000E+00  0.13906760923E+04  0.39515191424E+04  0.36987191755E+04 0.  0.
        5    1    3    3  502    0 -0.68277763161E+03 -0.88796597968E+03  0.22674584369E+04  0.25290430459E+04  0.46999998093E+01 0. -1.
       -5    1    3    3    0  502  0.68277763161E+03  0.88796597968E+03 -0.87678234453E+03  0.14224760964E+04  0.46999998093E+01 0.  1.
</event>
<event>
 5   0  0.5181371E-08  0.3686765E+04  0.7818609E-02  0.8070901E-01
        1   -1    0    0  501    0  0.00000000000E+00  0.00000000000E+00  0.23584375007E+04  0.23584375007E+04  0.50400001928E-02 0.  1.
       -1   -1    0    0    0  501  0.00000000000E+00  0.00000000000E+00 -0.14408090624E+04  0.14408090624E+04  0.50400001928E-02 0. -1.
    10030    2    1    2    0    0  0.00000000000E+00  0.00000000000E+00  0.91762843835E+03  0.37992465631E+04  0.36867645024E+04 0.  0.
        5    1    3    3  502    0  0.31787047513E+03 -0.14215250155E+04  0.16229987800E+04  0.21808076803E+04  0.46999998093E+01 0.  1.
       -5    1    3    3    0  502 -0.31787047513E+03  0.14215250155E+04 -0.70537034163E+03  0.16184388828E+04  0.46999998093E+01 0. -1.
</event>
<event>
 5   0  0.5177000E-08  0.3715261E+04  0.7818609E-02  0.8064588E-01
       -3   -1    0    0    0  501  0.00000000000E+00  0.00000000000E+00  0.29635090241E+04  0.29635090259E+04  0.10100000352E+00 0.  1.
        3   -1    0    0  501    0  0.00000000000E+00  0.00000000000E+00 -0.11644275624E+04  0.11644275668E+04  0.10100000352E+00 0. -1.
    10030    2    1    2    0    0  0.00000000000E+00  0.00000000000E+00  0.17990814617E+04  0.41279365926E+04  0.37152612838E+04 0.  0.
        4    1    3    3  502    0 -0.39118243310E+03  0.90209183272E+03  0.26506738259E+04  0.28271658449E+04  0.12699999809E+01 0.  1.
       -4    1    3    3    0  502  0.39118243310E+03 -0.90209183272E+03 -0.85159236411E+03  0.13007707477E+04  0.12699999809E+01 0. -1.
</event>
<event>
 5   0  0.1658770E-07  0.3709905E+04  0.7818609E-02  0.8065770E-01
       -2   -1    0    0    0  501  0.00000000000E+00  0.00000000000E+00  0.15260294356E+04  0.15260294356E+04  0.25500000920E-02 0. -1.
        2   -1    0    0  501    0  0.00000000000E+00  0.00000000000E+00 -0.22547717160E+04  0.22547717160E+04  0.25500000920E-02 0.  1.
    10030    2    1    2    0    0  0.00000000000E+00  0.00000000000E+00 -0.72874228040E+03  0.37808011515E+04  0.37099045859E+04 0.  0.
        2    1    3    3  502    0  0.32217383735E+03 -0.52734922948E+02 -0.22252647627E+04  0.22490843064E+04  0.25500000920E-02 0.  1.
       -2    1    3    3    0  502 -0.32217383735E+03  0.52734922948E+02  0.14965224823E+04  0.15317168451E+04  0.25500000920E-02 0. -1.
</event>
<event>
 5   0  0.5177000E-08  0.3704034E+04  0.7818609E-02  0.8067068E-01
       -1   -1    0    0    0  501  0.00000000000E+00  0.00000000000E+00  0.20539191004E+04  0.20539191004E+04  0.50400001928E-02 0. -1.
        1   -1    0    0  501    0  0.00000000000E+00  0.00000000000E+00 -0.16699621339E+04  0.16699621339E+04  0.50400001928E-02 0.  1.
    10030    2    1    2    0    0  0.00000000000E+00  0.00000000000E+00  0.38395696653E+03  0.37238812343E+04  0.37040340839E+04 0.  0.
        3    1    3    3  502    0  0.71323142589E+03 -0.14558914464E+04  0.10921240412E+04  0.19547516216E+04  0.10100000352E+00 0. -1.
       -3    1    3    3    0  502 -0.71323142589E+03  0.14558914464E+04 -0.70816707466E+03  0.17691296127E+04  0.10100000352E+00 0.  1.
</event>
<event>
 5   0  0.1587026E-07  0.3706494E+04  0.7818609E-02  0.8066524E-01
       -2   -1    0    0    0  501  0.00000000000E+00  0.00000000000E+00  0.19120521806E+04  0.19120521806E+04  0.25500000920E-02 0.  1.
        2   -1    0    0  501    0  0.00000000000E+00  0.00000000000E+00 -0.17962499290E+04  0.17962499290E+04  0.25500000920E-02 0. -1.
    10030    2    1    2    0    0  0.00000000000E+00  0.00000000000E+00  0.11580225156E+03  0.37083021096E+04  0.37064935417E+04 0.  0.
        3    1    3    3  502    0 -0.17292545175E+04 -0.31950958403E+03 -0.52729112667E+03  0.18358767669E+04  0.10100000352E+00 0. -1.
       -3    1    3    3    0  502  0.17292545175E+04  0.31950958403E+03  0.64309337823E+03  0.18724253427E+04  0.10100000352E+00 0.  1.
</event>
<event>
 5   0  0.1666189E-07  0.3719955E+04  0.7818609E-02  0.8063554E-01
        2   -1    0    0  501    0  0.00000000000E+00  0.00000000000E+00  0.28219971158E+04  0.28219971158E+04  0.25500000920E-02 0. -1.
       -2   -1    0    0    0  501  0.00000000000E+00  0.00000000000E+00 -0.12259105170E+04  0.12259105170E+04  0.25500000920E-02 0.  1.
    10030    2    1    2    0    0  0.00000000000E+00  0.00000000000E+00  0.15960865988E+04  0.40479076328E+04  0.37199548079E+04 0.  0.
        4    1    3    3  502    0 -0.41689552823E+03 -0.74891417118E+03  0.25942794564E+04  0.27322082329E+04  0.12699999809E+01 0. -1.
       -4    1    3    3    0  502  0.41689552823E+03  0.74891417118E+03 -0.99819285752E+03  0.13156993999E+04  0.12699999809E+01 0.  1.
</event>
<event>
 5   0  0.1666189E-07  0.3686431E+04  0.7818609E-02  0.8070976E-01
       -2   -1    0    0    0  501  0.00000000000E+00  0.00000000000E+00  0.11346735268E+04  0.11346735268E+04  0.25500000920E-02 0. -1.
        2   -1    0    0  501    0  0.00000000000E+00  0.00000000000E+00 -0.29942032510E+04  0.29942032510E+04  0.25500000920E-02 0.  1.
    10030    2    1    2    0    0  0.00000000000E+00  0.00000000000E+00 -0.18595297241E+04  0.41288767778E+04  0.36864308825E+04 0.  0.
        4    1    3    3  502    0  0.38619907060E+03 -0.12949084547E+03 -0.29431623190E+04  0.29712158539E+04  0.12699999809E+01 0.  1.
       -4    1    3    3    0  502 -0.38619907060E+03  0.12949084547E+03  0.10836325949E+04  0.11576609239E+04  0.12699999809E+01 0. -1.
</event>
<event>
 5   0  0.5177000E-08  0.3697404E+04  0.7818609E-02  0.8068537E-01
        1   -1    0    0  501    0  0.00000000000E+00  0.00000000000E+00  0.18444224494E+04  0.18444224494E+04  0.50400001928E-02 0.  1.
       -1   -1    0    0    0  501  0.00000000000E+00  0.00000000000E+00 -0.18529918005E+04  0.18529918006E+04  0.50400001928E-02 0. -1.
    10030    2    1    2    0    0  0.00000000000E+00  0.00000000000E+00 -0.85693511472E+01  0.36974142500E+04  0.36974043195E+04 0.  0.
        2    1    3    3  502    0 -0.17590168803E+03 -0.92123577984E+03 -0.15974251412E+04  0.18523994838E+04  0.25500000920E-02 0. -1.
       -2    1    3    3    0  502  0.17590168803E+03  0.92123577984E+03  0.15888557900E+04  0.18450147662E+04  0.25500000920E-02 0.  1.
</event>
<event>
 5   0  0.1558258E-07  0.3681823E+04  0.7818609E-02  0.8072002E-01
       -2   -1    0    0    0  501  0.00000000000E+00  0.00000000000E+00  0.20395218913E+04  0.20395218913E+04  0.25500000920E-02 0. -1.
        2   -1    0    0  501    0  0.00000000000E+00  0.00000000000E+00 -0.16616422988E+04  0.16616422988E+04  0.25500000920E-02 0.  1.
    10030    2    1    2    0    0  0.00000000000E+00  0.00000000000E+00  0.37787959251E+03  0.37011641901E+04  0.36818233765E+04 0.  0.
        1    1    3    3  502    0  0.14040753424E+04 -0.11136543374E+04  0.61222450264E+03  0.18937984032E+04  0.50400001928E-02 0.  1.
       -1    1    3    3    0  502 -0.14040753424E+04  0.11136543374E+04 -0.23434491013E+03  0.18073657868E+04  0.50400001928E-02 0. -1.
</event>
<event>
 5   0  0.5177000E-08  0.3687968E+04  0.7818609E-02  0.8070633E-01
        1   -1    0    0  501    0  0.00000000000E+00  0.00000000000E+00  0.26692590071E+04  0.26692590071E+04  0.50400001928E-02 0.  1.
       -1   -1    0    0    0  501  0.00000000000E+00  0.00000000000E+00 -0.12738656763E+04  0.12738656763E+04  0.50400001928E-02 0. -1.
    10030    2    1    2    0    0  0.00000000000E+00  0.00000000000E+00  0.13953933308E+04  0.39431246833E+04  0.36879682375E+04 0.  0.
        1    1    3    3  502    0 -0.12632857163E+04 -0.96954583960E+03  0.16917336676E+04  0.23233322487E+04  0.50400001928E-02 0.  1.
       -1    1    3    3    0  502  0.12632857163E+04  0.96954583960E+03 -0.29634033676E+03  0.16197924346E+04  0.50400001928E-02 0. -1.
</event>
<event>
 5   0  0.5181371E-08  0.3691527E+04  0.7818609E-02  0.8069842E-01
        1   -1    0    0  501    0  0.00000000000E+00  0.00000000000E+00  0.10581070032E+04  0.10581070032E+04  0.50400001928E-02 0.  1.
       -1   -1    0    0    0  501  0.00000000000E+00  0.00000000000E+00 -0.32197528263E+04  0.32197528263E+04  0.50400001928E-02 0. -1.
    10030    2    1    2    0    0  0.00000000000E+00  0.00000000000E+00 -0.21616458231E+04  0.42778598295E+04  0.36915270629E+04 0.  0.
        5    1    3    3  502    0  0.38265260449E+03  0.11076894936E+04 -0.27332954131E+04  0.29739409771E+04  0.46999998093E+01 0. -1.
       -5    1    3    3    0  502 -0.38265260449E+03 -0.11076894936E+04  0.57164959001E+03  0.13039188524E+04  0.46999998093E+01 0.  1.
</event>
<event>
 5   0  0.1558258E-07  0.3693269E+04  0.7818609E-02  0.8069455E-01
        2   -1    0    0  501    0  0.00000000000E+00  0.00000000000E+00  0.20148051092E+04  0.20148051092E+04  0.25500000920E-02 0. -1.
       -2   -1    0    0    0  501  0.00000000000E+00  0.00000000000E+00 -0.16925007271E+04  0.16925007271E+04  0.25500000920E-02 0.  1.
    10030    2    1    2    0    0  0.00000000000E+00  0.00000000000E+00  0.32230438208E+03  0.37073058362E+04  0.36932690734E+04 0.  0.
        1    1    3    3  502    0 -0.26100341037E+03 -0.17599011348E+04  0.65768796333E+03  0.18968205612E+04  0.50400001928E-02 0. -1.
       -1    1    3    3    0  502  0.26100341037E+03  0.17599011348E+04 -0.33538358124E+03  0.18104852750E+04  0.50400001928E-02 0.  1.
</event>
<event>
 5   0  0.5181371E-08  0.3711228E+04  0.7818609E-02  0.8065478E-01
        1   -1    0    0  501    0  0.00000000000E+00  0.00000000000E+00  0.12703404941E+04  0.12703404941E+04  0.50400001928E-02 0.  1.
       -1   -1    0    0    0  501  0.00000000000E+00  0.00000000000E+00 -0.27105363652E+04  0.27105363652E+04  0.50400001928E-02 0. -1.
    10030    2    1    2    0    0  0.00000000000E+00  0.00000000000E+00 -0.14401958711E+04  0.39808768594E+04  0.37112284250E+04 0.  0.
        5    1    3    3  502    0  0.28860297271E+03 -0.12786854861E+04 -0.21288993780E+04  0.25001125774E+04  0.46999998093E+01 0. -1.
       -5    1    3    3    0  502 -0.28860297271E+03  0.12786854861E+04  0.68870350687E+03  0.14807642820E+04  0.46999998093E+01 0.  1.
</event>
<event>
 5   0  0.5177000E-08  0.3682326E+04  0.7818609E-02  0.8071890E-01
        1   -1    0    0  501    0  0.00000000000E+00  0.00000000000E+00  0.22450160972E+04  0.22450160972E+04  0.50400001928E-02 0. -1.
       -1   -1    0    0    0  501  0.00000000000E+00  0.00000000000E+00 -0.15099581938E+04  0.15099581938E+04  0.50400001928E-02 0.  1.
    10030    2    1    2    0    0  0.00000000000E+00  0.00000000000E+00  0.73505790332E+03  0.37549742910E+04  0.36823255973E+04 0.  0.
        3    1    3    3  502    0  0.63509511629E+01 -0.15249524977E+04  0.14195611951E+04  0.20834285329E+04  0.10100000352E+00 0. -1.
       -3    1    3    3    0  502 -0.63509511629E+01  0.15249524977E+04 -0.68450329177E+03  0.16715457581E+04  0.10100000352E+00 0.  1.
</event>
<event>
 5   0  0.5177000E-08  0.3684084E+04  0.7818609E-02  0.8071498E-01
       -1   -1    0    0    0  501  0.00000000000E+00  0.00000000000E+00  0.11904628217E+04  0.11904628217E+04  0.50400001928E-02 0.  1.
        1   -1    0    0  501    0  0.00000000000E+00  0.00000000000E+00 -0.28502521200E+04  0.28502521200E+04  0.50400001928E-02 0. -1.
    10030    2    1    2    0    0  0.00000000000E+00  0.00000000000E+00 -0.16597892983E+04  0.40407149417E+04  0.36840842451E+04 0.  0.
        4    1    3    3  502    0 -0.13106110622E+04 -0.12785359456E+04 -0.10513349474E+04  0.21113176703E+04  0.12699999809E+01 0.  1.
       -4    1    3    3    0  502  0.13106110622E+04  0.12785359456E+04 -0.60845435089E+03  0.19293972713E+04  0.12699999809E+01 0. -1.
</event>
<event>
 5   0  0.1686284E-07  0.3691469E+04  0.7818609E-02  0.8069855E-01
        2   -1    0    0  501    0  0.00000000000E+00  0.00000000000E+00  0.10644391193E+04  0.10644391193E+04  0.25500000920E-02 0. -1.
       -2   -1    0    0    0  501  0.00000000000E+00  0.00000000000E+00 -0.32004980805E+04  0.32004980805E+04  0.25500000920E-02 0.  1.
    10030    2    1    2    0    0  0.00000000000E+00  0.00000000000E+00 -0.21360589613E+04  0.42649371998E+04  0.36914687364E+04 0.  0.
        5    1    3    3  502    0 -0.10233579998E+04  0.40010340445E+03 -0.27814441847E+04  0.29906183596E+04  0.46999998093E+01 0.  1.
       -5    1    3    3    0  502  0.10233579998E+04 -0.40010340445E+03  0.64538522340E+03  0.12743188402E+04  0.46999998093E+01 0. -1.
</event>
<event>
 5   0  0.1558258E-07  0.3677117E+04  0.7818609E-02  0.8073052E-01
        2   -1    0    0  501    0  0.00000000000E+00  0.00000000000E+00  0.25228947135E+04  0.25228947135E+04  0.25500000920E-02 0. -1.
       -2   -1    0    0    0  501  0.00000000000E+00  0.00000000000E+00 -0.13398491202E+04  0.13398491202E+04  0.25500000920E-02 0.  1.
    10030    2    1    2    0    0  0.00000000000E+00  0.00000000000E+00  0.11830455933E+04  0.38627438337E+04  0.36771174918E+04 0.  0.
        1    1    3    3  502    0  0.14942749877E+04  0.68984246300E+03  0.14523780462E+04  0.21950267315E+04  0.50400001928E-02 0. -1.
       -1    1    3    3    0  502 -0.14942749877E+04 -0.68984246300E+03 -0.26933245288E+03  0.16677171022E+04  0.50400001928E-02 0.  1.
</event>
<event>
 5   0  0.5177000E-08  0.3700222E+04  0.7818609E-02  0.8067913E-01
       -1   -1    0    0    0  501  0.00000000000E+00  0.00000000000E+00  0.16479749557E+04  0.16479749557E+04  0.50400001928E-02 0.  1.
        1   -1    0    0  501    0  0.00000000000E+00  0.00000000000E+00 -0.20770409078E+04  0.20770409078E+04  0.50400001928E-02 0. -1.
    10030    2    1    2    0    0  0.00000000000E+00  0.00000000000E+00 -0.42906595212E+03  0.37250158635E+04  0.37002223706E+04 0.  0.
        2    1    3    3  502    0  0.17332058618E+04 -0.27261518803E+03  0.37641807554E+03  0.17944392349E+04  0.25500000920E-02 0.  1.
       -2    1    3    3    0  502 -0.17332058618E+04  0.27261518803E+03 -0.80548402766E+03  0.19305766286E+04  0.25500000920E-02 0. -1.
</event>
<event>
 5   0  0.5181371E-08  0.3680051E+04  0.7818609E-02  0.8072397E-01
       -1   -1    0    0    0  501  0.00000000000E+00  0.00000000000E+00  0.12553250128E+04  0.12553250129E+04  0.50400001928E-02 0.  1.
        1   -1    0    0  501    0  0.00000000000E+00  0.00000000000E+00 -0.26970649228E+04  0.26970649228E+04  0.50400001928E-02 0. -1.
    10030    2    1    2    0    0  0.00000000000E+00  0.00000000000E+00 -0.14417399099E+04  0.39523899356E+04  0.36800505751E+04 0.  0.
        5    1    3    3  502    0  0.92268106427E+03 -0.15659573161E+04 -0.41311890381E+03  0.18639345431E+04  0.46999998093E+01 0.  1.
       -5    1    3    3    0  502 -0.92268106427E+03  0.15659573161E+04 -0.10286210061E+04  0.20884553925E+04  0.46999998093E+01 0. -1.
</event>
<event>
 5   0  0.1587026E-07  0.3678762E+04  0.7818609E-02  0.8072685E-01
       -2   -1    0    0    0  501  0.00000000000E+00  0.00000000000E+00  0.24878910943E+04  0.24878910943E+04  0.25500000920E-02 0.  1.
        2   -1    0    0  501    0  0.00000000000E+00  0.00000000000E+00 -0.13599161641E+04  0.13599161641E+04  0.25500000920E-02 0. -1.
    10030    2    1    2    0    0  0.00000000000E+00  0.00000000000E+00  0.11279749301E+04  0.38478072584E+04  0.36787624624E+04 0.  0.
        3    1    3    3  502    0 -0.32081398129E+03  0.18074832396E+04  0.68509235513E+03  0.19594052203E+04  0.10100000352E+00 0. -1.
       -3    1    3    3    0  502  0.32081398129E+03 -0.18074832396E+04  0.44288257499E+03  0.18884020381E+04  0.10100000352E+00 0.  1.
</event>
<event>
 5   0  0.1558258E-07  0.3710389E+04  0.7818609E-02  0.8065663E-01
        2   -1    0    0  501    0  0.00000000000E+00  0.00000000000E+00  0.23165088268E+04  0.23165088268E+04  0.25500000920E-02 0.  1.
       -2   -1    0    0    0  501  0.00000000000E+00  0.00000000000E+00 -0.14857473706E+04  0.14857473706E+04  0.25500000920E-02 0. -1.
    10030    2    1    2    0    0  0.00000000000E+00  0.00000000000E+00  0.83076145623E+03  0.38022561974E+04  0.37103891432E+04 0.  0.
        1    1    3    3  502    0 -0.16896030836E+04  0.62460578340E+02 -0.36712692411E+03  0.17301566641E+04  0.50400001928E-02 0. -1.
       -1    1    3    3    0  502  0.16896030836E+04 -0.62460578340E+02  0.11978883803E+04  0.20720995333E+04  0.50400001928E-02 0.  1.
</event>
<event>
 5   0  0.5177000E-08  0.3693128E+04  0.7818609E-02  0.8069486E-01
       -3   -1    0    0    0  501  0.00000000000E+00  0.00000000000E+00  0.17713742178E+04  0.17713742207E+04  0.10100000352E+00 0. -1.
        3   -1    0    0  501    0  0.00000000000E+00  0.00000000000E+00 -0.19249457943E+04  0.19249457970E+04  0.10100000352E+00 0.  1.
    10030    2    1    2    0    0  0.00000000000E+00  0.00000000000E+00 -0.15357157651E+03  0.36963200177E+04  0.36931284088E+04 0.  0.
        3    1    3    3  502    0  0.52565814788E+03 -0.17330728241E+03 -0.18399686423E+04  0.19214152382E+04  0.10100000352E+00 0.  1.
       -3    1    3    3    0  502 -0.52565814788E+03  0.17330728241E+03  0.16863970658E+04  0.17749047795E+04  0.10100000352E+00 0. -1.
</event>
<event>
 5   0  0.5177000E-08  0.3697375E+04  0.7818609E-02  0.8068544E-01
        1   -1    0    0  501    0  0.00000000000E+00  0.00000000000E+00  0.17227870890E+04  0.17227870891E+04  0.50400001928E-02 0.  1.
       -1   -1    0    0    0  501  0.00000000000E+00  0.00000000000E+00 -0.19837886292E+04  0.19837886292E+04  0.50400001928E-02 0. -1.
    10030    2    1    2    0    0  0.00000000000E+00  0.00000000000E+00 -0.26100154010E+03  0.37065757182E+04  0.36973749811E+04 0.  0.
        2    1    3    3  502    0  0.63792868486E+03 -0.13430538954E+03  0.16037331167E+04  0.17311703712E+04  0.25500000920E-02 0.  1.
       -2    1    3    3    0  502 -0.63792868486E+03  0.13430538954E+03 -0.18647346568E+04  0.19754053470E+04  0.25500000920E-02 0. -1.
</event>
<event>
 5   0  0.5181371E-08  0.3697441E+04  0.7818609E-02  0.8068529E-01
       -1   -1    0    0    0  501  0.00000000000E+00  0.00000000000E+00  0.31540838895E+04  0.31540838895E+04  0.50400001928E-02 0. -1.
        1   -1    0    0  501    0  0.00000000000E+00  0.00000000000E+00 -0.10836007365E+04  0.10836007366E+04  0.50400001928E-02 0.  1.
    10030    2    1    2    0    0  0.00000000000E+00  0.00000000000E+00  0.20704831530E+04  0.42376846261E+04  0.36974410750E+04 0.  0.
        5    1    3    3  502    0  0.13094128043E+04 -0.10604564191E+04  0.16343021245E+03  0.16928854755E+04  0.46999998093E+01 0.  1.
       -5    1    3    3    0  502 -0.13094128043E+04  0.10604564191E+04  0.19070529406E+04  0.25447991506E+04  0.46999998093E+01 0. -1.
</event>
<event>
 5   0  0.5177000E-08  0.3836884E+04  0.7818609E-02  0.8038286E-01
       -1   -1    0    0    0  501  0.00000000000E+00  0.00000000000E+00  0.17889761769E+04  0.17889761769E+04  0.50400001928E-02 0. -1.
        1   -1    0    0  501    0  0.00000000000E+00  0.00000000000E+00 -0.20572772207E+04  0.20572772208E+04  0.50400001928E-02 0.  1.
    10030    2    1    2    0    0  0.00000000000E+00  0.00000000000E+00 -0.26830104388E+03  0.38462533976E+04  0.38368841198E+04 0.  0.
        2    1    3    3  502    0  0.78309643288E+03 -0.36517500440E+02  0.16210809821E+04  0.18006879523E+04  0.25500000920E-02 0. -1.
       -2    1    3    3    0  502 -0.78309643288E+03  0.36517500440E+02 -0.18893820260E+04  0.20455654453E+04  0.25500000920E-02 0.  1.
</event>
<event>
 5   0  0.5181371E-08  0.3690528E+04  0.7818609E-02  0.8070064E-01
        1   -1    0    0  501    0  0.00000000000E+00  0.00000000000E+00  0.17169514103E+04  0.17169514103E+04  0.50400001928E-02 0. -1.
       -1   -1    0    0    0  501  0.00000000000E+00  0.00000000000E+00 -0.19831652812E+04  0.19831652812E+04  0.50400001928E-02 0.  1.
    10030    2    1    2    0    0  0.00000000000E+00  0.00000000000E+00 -0.26621387095E+03  0.37001166915E+04  0.36905275647E+04 0.  0.
        5    1    3    3  502    0  0.15998159544E+04  0.35030346770E+03  0.71930962768E+03  0.17887291684E+04  0.46999998093E+01 0. -1.
       -5    1    3    3    0  502 -0.15998159544E+04 -0.35030346770E+03 -0.98552349863E+03  0.19113875232E+04  0.46999998093E+01 0.  1.
</event>
<event>
 5   0  0.5177000E-08  0.3694577E+04  0.7818609E-02  0.8069165E-01
       -1   -1    0    0    0  501  0.00000000000E+00  0.00000000000E+00  0.17993879399E+04  0.17993879399E+04  0.50400001928E-02 0. -1.
        1   -1    0    0  501    0  0.00000000000E+00  0.00000000000E+00 -0.18964638256E+04  0.18964638256E+04  0.50400001928E-02 0.  1.
    10030    2    1    2    0    0  0.00000000000E+00  0.00000000000E+00 -0.97075885748E+02  0.36958517655E+04  0.36945766395E+04 0.  0.
        2    1    3    3  502    0 -0.11383678657E+04 -0.14137499190E+04  0.29495194742E+03  0.18389037175E+04  0.25500000920E-02 0. -1.
       -2    1    3    3    0  502  0.11383678657E+04  0.14137499190E+04 -0.39202783317E+03  0.18569480480E+04  0.25500000920E-02 0.  1.
</event>
<event>
 5   0  0.1587026E-07  0.3723375E+04  0.7818609E-02  0.8062801E-01
        2   -1    0    0  501    0  0.00000000000E+00  0.00000000000E+00  0.12839218287E+04  0.12839218287E+04  0.25500000920E-02 0.  1.
       -2   -1    0    0    0  501  0.00000000000E+00  0.00000000000E+00 -0.26994481690E+04  0.26994481690E+04  0.25500000920E-02 0. -1.
    10030    2    1    2    0    0  0.00000000000E+00  0.00000000000E+00 -0.14155263403E+04  0.39833699976E+04  0.37233750440E+04 0.  0.
        3    1    3    3  502    0  0.13099977581E+04  0.12311678913E+04 -0.12252899778E+04  0.21755928026E+04  0.10100000352E+00 0.  1.
       -3    1    3    3    0  502 -0.13099977581E+04 -0.12311678913E+04 -0.19023636250E+03  0.18077771950E+04  0.10100000352E+00 0. -1.
</event>
<event>
 5   0  0.1658770E-07  0.3733221E+04  0.7818609E-02  0.8060639E-01
        2   -1    0    0  501    0  0.00000000000E+00  0.00000000000E+00  0.20968674894E+04  0.20968674894E+04  0.25500000920E-02 0.  1.
       -2   -1    0    0    0  501  0.00000000000E+00  0.00000000000E+00 -0.16616383154E+04  0.16616383154E+04  0.25500000920E-02 0. -1.
    10030    2    1    2    0    0  0.00000000000E+00  0.00000000000E+00  0.43522917406E+03  0.37585058048E+04  0.37332213235E+04 0.  0.
        2    1    3    3  502    0 -0.72969147605E+03 -0.20188442965E+01  0.19473258003E+04  0.20795507925E+04  0.25500000920E-02 0.  1.
       -2    1    3    3    0  502  0.72969147605E+03  0.20188442965E+01 -0.15120966263E+04  0.16789550123E+04  0.25500000920E-02 0. -1.
</event>
<event>
 5   0  0.1558258E-07  0.3780106E+04  0.7818609E-02  0.8050438E-01
       -2   -1    0    0    0  501  0.00000000000E+00  0.00000000000E+00  0.25461147508E+04  0.25461147508E+04  0.25500000920E-02 0. -1.
        2   -1    0    0  501    0  0.00000000000E+00  0.00000000000E+00 -0.14030400723E+04  0.14030400723E+04  0.25500000920E-02 0.  1.
    10030    2    1    2    0    0  0.00000000000E+00  0.00000000000E+00  0.11430746785E+04  0.39491548231E+04  0.37801063605E+04 0.  0.
        1    1    3    3  502    0 -0.19450595181E+02 -0.12113075953E+04  0.20871588628E+04  0.24132709203E+04  0.50400001928E-02 0. -1.
       -1    1    3    3    0  502  0.19450595181E+02  0.12113075953E+04 -0.94408418426E+03  0.15358839029E+04  0.50400001928E-02 0.  1.
</event>
<event>
 5   0  0.5177000E-08  0.3743661E+04  0.7818609E-02  0.8058354E-01
       -1   -1    0    0    0  501  0.00000000000E+00  0.00000000000E+00  0.20493865177E+04  0.20493865177E+04  0.50400001928E-02 0.  1.
        1   -1    0    0  501    0  0.00000000000E+00  0.00000000000E+00 -0.17096578179E+04  0.17096578179E+04  0.50400001928E-02 0. -1.
    10030    2    1    2    0    0  0.00000000000E+00  0.00000000000E+00  0.33972869979E+03  0.37590443356E+04  0.37436611395E+04 0.  0.
        2    1    3    3  502    0  0.74841676978E+03  0.66333795099E+03  0.17586444918E+04  0.20231103151E+04  0.25500000920E-02 0.  1.
       -2    1    3    3    0  502 -0.74841676978E+03 -0.66333795099E+03 -0.14189157920E+04  0.17359340205E+04  0.25500000920E-02 0. -1.
</event>
<event>
 5   0  0.1666189E-07  0.3706257E+04  0.7818609E-02  0.8066577E-01
       -2   -1    0    0    0  501  0.00000000000E+00  0.00000000000E+00  0.17075956002E+04  0.17075956002E+04  0.25500000920E-02 0. -1.
        2   -1    0    0  501    0  0.00000000000E+00  0.00000000000E+00 -0.20110645984E+04  0.20110645984E+04  0.25500000920E-02 0.  1.
    10030    2    1    2    0    0  0.00000000000E+00  0.00000000000E+00 -0.30346899817E+03  0.37186601986E+04  0.37062569042E+04 0.  0.
        4    1    3    3  502    0 -0.11880140700E+04 -0.17024610654E+03 -0.15684521565E+04  0.19749442897E+04  0.12699999809E+01 0.  1.
       -4    1    3    3    0  502  0.11880140700E+04  0.17024610654E+03  0.12649831583E+04  0.17437159089E+04  0.12699999809E+01 0. -1.
</event>
<event>
 5   0  0.5177000E-08  0.3730826E+04  0.7818609E-02  0.8061165E-01
        1   -1    0    0  501    0  0.00000000000E+00  0.00000000000E+00  0.21266857764E+04  0.21266857764E+04  0.50400001928E-02 0.  1.
       -1   -1    0    0    0  501  0.00000000000E+00  0.00000000000E+00 -0.16362383485E+04  0.16362383485E+04  0.50400001928E-02 0. -1.
    10030    2    1    2    0    0  0.00000000000E+00  0.00000000000E+00  0.49044742791E+03  0.37629241249E+04  0.37308255507E+04 0.  0.
        1    1    3    3  502    0 -0.75687212931E+03  0.13734358606E+04  0.12641546686E+04  0.20142662459E+04  0.50400001928E-02 0.  1.
       -1    1    3    3    0  502  0.75687212931E+03 -0.13734358606E+04 -0.77370724070E+03  0.17486578790E+04  0.50400001928E-02 0. -1.
</event>
<event>
 5   0  0.5177000E-08  0.3700827E+04  0.7818609E-02  0.8067779E-01
        1   -1    0    0  501    0  0.00000000000E+00  0.00000000000E+00  0.16774716440E+04  0.16774716440E+04  0.50400001928E-02 0. -1.
       -1   -1    0    0    0  501  0.00000000000E+00  0.00000000000E+00 -0.20411849161E+04  0.20411849161E+04  0.50400001928E-02 0.  1.
    10030    2    1    2    0    0  0.00000000000E+00  0.00000000000E+00 -0.36371327207E+03  0.37186565601E+04  0.37008268357E+04 0.  0.
        4    1    3    3  502    0 -0.11188913330E+04  0.11206945039E+04 -0.11436274608E+04  0.19533968793E+04  0.12699999809E+01 0.  1.
       -4    1    3    3    0  502  0.11188913330E+04 -0.11206945039E+04  0.77991418872E+03  0.17652596808E+04  0.12699999809E+01 0. -1.
</event>
<event>
 5   0  0.1587026E-07  0.3712492E+04  0.7818609E-02  0.8065199E-01
        2   -1    0    0  501    0  0.00000000000E+00  0.00000000000E+00  0.21835440620E+04  0.21835440620E+04  0.25500000920E-02 0.  1.
       -2   -1    0    0    0  501  0.00000000000E+00  0.00000000000E+00 -0.15780073436E+04  0.15780073436E+04  0.25500000920E-02 0. -1.
    10030    2    1    2    0    0  0.00000000000E+00  0.00000000000E+00  0.60553671840E+03  0.37615514057E+04  0.37124916512E+04 0.  0.
        3    1    3    3  502    0  0.23007023781E+03  0.18416506280E+04  0.27010565923E+03  0.18755176425E+04  0.10100000352E+00 0.  1.
       -3    1    3    3    0  502 -0.23007023781E+03 -0.18416506280E+04  0.33543105917E+03  0.18860337632E+04  0.10100000352E+00 0. -1.
</event>
<event>
 5   0  0.5181371E-08  0.3683798E+04  0.7818609E-02  0.8071562E-01
       -1   -1    0    0    0  501  0.00000000000E+00  0.00000000000E+00  0.16990894712E+04  0.16990894712E+04  0.50400001928E-02 0. -1.
        1   -1    0    0  501    0  0.00000000000E+00  0.00000000000E+00 -0.19967122514E+04  0.19967122514E+04  0.50400001928E-02 0.  1.
    10030    2    1    2    0    0  0.00000000000E+00  0.00000000000E+00 -0.29762278011E+03  0.36958017226E+04  0.36837984545E+04 0.  0.
        5    1    3    3  502    0 -0.24007594610E+03 -0.13641038030E+04 -0.13669154235E+04  0.19459947354E+04  0.46999998093E+01 0.  1.
       -5    1    3    3    0  502  0.24007594610E+03  0.13641038030E+04  0.10692926434E+04  0.17498069872E+04  0.46999998093E+01 0. -1.
</event>
<event>
 5   0  0.1587026E-07  0.3700323E+04  0.7818609E-02  0.8067890E-01
       -2   -1    0    0    0  501  0.00000000000E+00  0.00000000000E+00  0.17419327943E+04  0.17419327943E+04  0.25500000920E-02 0.  1.
        2   -1    0    0  501    0  0.00000000000E+00  0.00000000000E+00 -0.19651146904E+04  0.19651146904E+04  0.25500000920E-02 0. -1.
    10030    2    1    2    0    0  0.00000000000E+00  0.00000000000E+00 -0.22318189615E+03  0.37070474847E+04  0.37003230798E+04 0.  0.
        3    1    3    3  502    0  0.86972098442E+03  0.73199491672E+03  0.13508105795E+04  0.17654802125E+04  0.10100000352E+00 0. -1.
       -3    1    3    3    0  502 -0.86972098442E+03 -0.73199491672E+03 -0.15739924757E+04  0.19415672722E+04  0.10100000352E+00 0.  1.
</event>
<event>
 5   0  0.5177000E-08  0.3791877E+04  0.7818609E-02  0.8047900E-01
        1   -1    0    0  501    0  0.00000000000E+00  0.00000000000E+00  0.22563841380E+04  0.22563841380E+04  0.50400001928E-02 0. -1.
       -1   -1    0    0    0  501  0.00000000000E+00  0.00000000000E+00 -0.15930718290E+04  0.15930718290E+04  0.50400001928E-02 0.  1.
    10030    2    1    2    0    0  0.00000000000E+00  0.00000000000E+00  0.66331230902E+03  0.38494559670E+04  0.37918765833E+04 0.  0.
        4    1    3    3  502    0  0.12034572151E+04  0.32072905073E+03  0.17828394888E+04  0.21747861155E+04  0.12699999809E+01 0. -1.
       -4    1    3    3    0  502 -0.12034572151E+04 -0.32072905073E+03 -0.11195271797E+04  0.16746698515E+04  0.12699999809E+01 0.  1.
</event>
<event>
 5   0  0.5181371E-08  0.3698946E+04  0.7818609E-02  0.8068195E-01
        1   -1    0    0  501    0  0.00000000000E+00  0.00000000000E+00  0.26492938648E+04  0.26492938648E+04  0.50400001928E-02 0.  1.
       -1   -1    0    0    0  501  0.00000000000E+00  0.00000000000E+00 -0.12911179590E+04  0.12911179590E+04  0.50400001928E-02 0. -1.
    10030    2    1    2    0    0  0.00000000000E+00  0.00000000000E+00  0.13581759058E+04  0.39404118238E+04  0.36989462756E+04 0.  0.
        5    1    3    3  502    0  0.21235064569E+03  0.58429071759E+03 -0.11764689057E+04  0.13306350422E+04  0.46999998093E+01 0. -1.
       -5    1    3    3    0  502 -0.21235064569E+03 -0.58429071759E+03  0.25346448115E+04  0.26097767816E+04  0.46999998093E+01 0.  1.
</event>
<event>
 5   0  0.1587026E-07  0.3693212E+04  0.7818609E-02  0.8069468E-01
       -2   -1    0    0    0  501  0.00000000000E+00  0.00000000000E+00  0.17796351062E+04  0.17796351063E+04  0.25500000920E-02 0. -1.
        2   -1    0    0  501    0  0.00000000000E+00  0.00000000000E+00 -0.19160970786E+04  0.19160970786E+04  0.25500000920E-02 0.  1.
    10030    2    1    2    0    0  0.00000000000E+00  0.00000000000E+00 -0.13646197233E+03  0.36957321848E+04  0.36932119506E+04 0.  0.
        3    1    3    3  502    0 -0.49531198139E+03 -0.10167277537E+04 -0.15289820057E+04  0.19018031623E+04  0.10100000352E+00 0.  1.
       -3    1    3    3    0  502  0.49531198139E+03  0.10167277537E+04  0.13925200334E+04  0.17939290225E+04  0.10100000352E+00 0. -1.
</event>
<event>
 5   0  0.5177000E-08  0.3682602E+04  0.7818609E-02  0.8071828E-01
       -1   -1    0    0    0  501  0.00000000000E+00  0.00000000000E+00  0.15890089493E+04  0.15890089493E+04  0.50400001928E-02 0.  1.
        1   -1    0    0  501    0  0.00000000000E+00  0.00000000000E+00 -0.21336507694E+04  0.21336507694E+04  0.50400001928E-02 0. -1.
    10030    2    1    2    0    0  0.00000000000E+00  0.00000000000E+00 -0.54464182015E+03  0.37226597187E+04  0.36826024316E+04 0.  0.
        1    1    3    3  502    0  0.64923540323E+03 -0.11761069563E+03  0.14654039550E+04  0.16070929146E+04  0.50400001928E-02 0.  1.
       -1    1    3    3    0  502 -0.64923540323E+03  0.11761069563E+03 -0.20100457752E+04  0.21155668042E+04  0.50400001928E-02 0. -1.
</event>
<event>
 5   0  0.1686284E-07  0.3654926E+04  0.7818609E-02  0.8078025E-01
       -2   -1    0    0    0  501  0.00000000000E+00  0.00000000000E+00  0.19665805709E+04  0.19665805709E+04  0.25500000920E-02 0.  1.
        2   -1    0    0  501    0  0.00000000000E+00  0.00000000000E+00 -0.16981867668E+04  0.16981867668E+04  0.25500000920E-02 0. -1.
    10030    2    1    2    0    0  0.00000000000E+00  0.00000000000E+00  0.26839380413E+03  0.36647673377E+04  0.36549260465E+04 0.  0.
        5    1    3    3  502    0  0.70274695360E+03  0.16664166263E+04 -0.12880949960E+03  0.18131220672E+04  0.46999998093E+01 0. -1.
       -5    1    3    3    0  502 -0.70274695360E+03 -0.16664166263E+04  0.39720330373E+03  0.18516452705E+04  0.46999998093E+01 0.  1.
</event>
<event>
 5   0  0.5177000E-08  0.3712895E+04  0.7818609E-02  0.8065110E-01
       -1   -1    0    0    0  501  0.00000000000E+00  0.00000000000E+00  0.17075554087E+04  0.17075554087E+04  0.50400001928E-02 0. -1.
        1   -1    0    0  501    0  0.00000000000E+00  0.00000000000E+00 -0.20183225935E+04  0.20183225935E+04  0.50400001928E-02 0.  1.
    10030    2    1    2    0    0  0.00000000000E+00  0.00000000000E+00 -0.31076718485E+03  0.37258780022E+04  0.37128951836E+04 0.  0.
        2    1    3    3  502    0  0.52507998242E+03 -0.17647630541E+04 -0.39348955859E+03  0.18827988894E+04  0.25500000920E-02 0.  1.
       -2    1    3    3    0  502 -0.52507998242E+03  0.17647630541E+04  0.82722373731E+02  0.18430791128E+04  0.25500000920E-02 0. -1.
</event>
<event>
 5   0  0.5177000E-08  0.3673401E+04  0.7818609E-02  0.8073882E-01
       -1   -1    0    0    0  501  0.00000000000E+00  0.00000000000E+00  0.14742494988E+04  0.14742494988E+04  0.50400001928E-02 0. -1.
        1   -1    0    0  501    0  0.00000000000E+00  0.00000000000E+00 -0.22882614529E+04  0.22882614529E+04  0.50400001928E-02 0.  1.
    10030    2    1    2    0    0  0.00000000000E+00  0.00000000000E+00 -0.81401195411E+03  0.37625109516E+04  0.36734007676E+04 0.  0.
        3    1    3    3  502    0 -0.15136811068E+04  0.69500025207E+03  0.38586016616E+03  0.17097204220E+04  0.10100000352E+00 0. -1.
       -3    1    3    3    0  502  0.15136811068E+04 -0.69500025207E+03 -0.11998721203E+04  0.20527905296E+04  0.10100000352E+00 0.  1.
</event>
<event>
 5   0  0.5181371E-08  0.3697069E+04  0.7818609E-02  0.8068612E-01
       -1   -1    0    0    0  501  0.00000000000E+00  0.00000000000E+00  0.15521998978E+04  0.15521998978E+04  0.50400001928E-02 0. -1.
        1   -1    0    0  501    0  0.00000000000E+00  0.00000000000E+00 -0.22014429525E+04  0.22014429525E+04  0.50400001928E-02 0.  1.
    10030    2    1    2    0    0  0.00000000000E+00  0.00000000000E+00 -0.64924305471E+03  0.37536428502E+04  0.36970688529E+04 0.  0.
        5    1    3    3  502    0  0.98466912638E+03 -0.10379939276E+03 -0.19095049300E+04  0.21509483420E+04  0.46999998093E+01 0.  1.
       -5    1    3    3    0  502 -0.98466912638E+03  0.10379939276E+03  0.12602618753E+04  0.16026945082E+04  0.46999998093E+01 0. -1.
</event>
<event>
 5   0  0.1658770E-07  0.3711480E+04  0.7818609E-02  0.8065422E-01
       -2   -1    0    0    0  501  0.00000000000E+00  0.00000000000E+00  0.15756811509E+04  0.15756811509E+04  0.25500000920E-02 0.  1.
        2   -1    0    0  501    0  0.00000000000E+00  0.00000000000E+00 -0.21855759344E+04  0.21855759344E+04  0.25500000920E-02 0. -1.
    10030    2    1    2    0    0  0.00000000000E+00  0.00000000000E+00 -0.60989478347E+03  0.37612570853E+04  0.37114799224E+04 0.  0.
        2    1    3    3  502    0  0.14102656639E+04 -0.93691297076E+03  0.46492248599E+03  0.17557927200E+04  0.25500000920E-02 0.  1.
       -2    1    3    3    0  502 -0.14102656639E+04  0.93691297076E+03 -0.10748172695E+04  0.20054643653E+04  0.25500000920E-02 0. -1.
</event>
<event>
 5   0  0.1558258E-07  0.3705527E+04  0.7818609E-02  0.8066738E-01
       -2   -1    0    0    0  501  0.00000000000E+00  0.00000000000E+00  0.14669873713E+04  0.14669873713E+04  0.25500000920E-02 0.  1.
        2   -1    0    0  501    0  0.00000000000E+00  0.00000000000E+00 -0.23399877220E+04  0.23399877220E+04  0.25500000920E-02 0. -1.
    10030    2    1    2    0    0  0.00000000000E+00  0.00000000000E+00 -0.87300035077E+03  0.38069750933E+04  0.37055269192E+04 0.  0.
        1    1    3    3  502    0 -0.13316846651E+04  0.14264854632E+03  0.87878374507E+03  0.16018718818E+04  0.50400001928E-02 0. -1.
       -1    1    3    3    0  502  0.13316846651E+04 -0.14264854632E+03 -0.17517840958E+04  0.22051032115E+04  0.50400001928E-02 0.  1.
</event>
<event>
 5   0  0.5177000E-08  0.3757470E+04  0.7818609E-02  0.8055344E-01
       -1   -1    0    0    0  501  0.00000000000E+00  0.00000000000E+00  0.28814961350E+04  0.28814961350E+04  0.50400001928E-02 0. -1.
        1   -1    0    0  501    0  0.00000000000E+00  0.00000000000E+00 -0.12249352023E+04  0.12249352023E+04  0.50400001928E-02 0.  1.
    10030    2    1    2    0    0  0.00000000000E+00  0.00000000000E+00  0.16565609327E+04  0.41064313374E+04  0.37574704529E+04 0.  0.
        1    1    3    3  502    0  0.12944536355E+04  0.17815888395E+03  0.23035737414E+04  0.26483585076E+04  0.50400001928E-02 0. -1.
       -1    1    3    3    0  502 -0.12944536355E+04 -0.17815888395E+03 -0.64701280871E+03  0.14580728298E+04  0.50400001928E-02 0.  1.
</event>
<event>
 5   0  0.5177000E-08  0.3670910E+04  0.7818609E-02  0.8074439E-01
        1   -1    0    0  501    0  0.00000000000E+00  0.00000000000E+00  0.10556506502E+04  0.10556506502E+04  0.50400001928E-02 0. -1.
       -1   -1    0    0    0  501  0.00000000000E+00  0.00000000000E+00 -0.31912965534E+04  0.31912965534E+04  0.50400001928E-02 0.  1.
    10030    2    1    2    0    0  0.00000000000E+00  0.00000000000E+00 -0.21356459031E+04  0.42469472036E+04  0.36709095776E+04 0.  0.
        3    1    3    3  502    0  0.76367179881E+03  0.52024054591E+03  0.76692510971E+03  0.12008409453E+04  0.10100000352E+00 0. -1.
       -3    1    3    3    0  502 -0.76367179881E+03 -0.52024054591E+03 -0.29025710128E+04  0.30461062583E+04  0.10100000352E+00 0.  1.
</event>
<event>
 5   0  0.5177000E-08  0.3606847E+04  0.7818609E-02  0.8088925E-01
       -1   -1    0    0    0  501  0.00000000000E+00  0.00000000000E+00  0.24612872208E+04  0.24612872208E+04  0.50400001928E-02 0.  1.
        1   -1    0    0  501    0  0.00000000000E+00  0.00000000000E+00 -0.13213965493E+04  0.13213965493E+04  0.50400001928E-02 0. -1.
    10030    2    1    2    0    0  0.00000000000E+00  0.00000000000E+00  0.11398906716E+04  0.37826837701E+04  0.36068470665E+04 0.  0.
        3    1    3    3  502    0  0.12070484298E+04  0.95844458649E+03 -0.41205425742E+03  0.15954217807E+04  0.10100000352E+00 0. -1.
       -3    1    3    3    0  502 -0.12070484298E+04 -0.95844458649E+03  0.15519449290E+04  0.21872619894E+04  0.10100000352E+00 0.  1.
</event>
<event>
 5   0  0.5177000E-08  0.3696130E+04  0.7818609E-02  0.8068820E-01
        1   -1    0    0  501    0  0.00000000000E+00  0.00000000000E+00  0.16564882038E+04  0.16564882038E+04  0.50400001928E-02 0.  1.
       -1   -1    0    0    0  501  0.00000000000E+00  0.00000000000E+00 -0.20617977486E+04  0.20617977486E+04  0.50400001928E-02 0. -1.
    10030    2    1    2    0    0  0.00000000000E+00  0.00000000000E+00 -0.40530954483E+03  0.37182859524E+04  0.36961296780E+04 0.  0.
        2    1    3    3  502    0 -0.70985756670E+03  0.16176764932E+04 -0.74864999955E+03  0.19186588606E+04  0.25500000920E-02 0.  1.
       -2    1    3    3    0  502  0.70985756670E+03 -0.16176764932E+04  0.34334045472E+03  0.17996270918E+04  0.25500000920E-02 0. -1.
</event>
<event>
 5   0  0.1558258E-07  0.3679694E+04  0.7818609E-02  0.8072477E-01
        2   -1    0    0  501    0  0.00000000000E+00  0.00000000000E+00  0.22710744714E+04  0.22710744714E+04  0.25500000920E-02 0.  1.
       -2   -1    0    0    0  501  0.00000000000E+00  0.00000000000E+00 -0.14905005442E+04  0.14905005442E+04  0.25500000920E-02 0. -1.
    10030    2    1    2    0    0  0.00000000000E+00  0.00000000000E+00  0.78057392720E+03  0.37615750157E+04  0.36796944089E+04 0.  0.
        1    1    3    3  502    0 -0.53548147008E+03  0.16945156094E+04 -0.96667995089E+02  0.17797382551E+04  0.50400001928E-02 0. -1.
       -1    1    3    3    0  502  0.53548147008E+03 -0.16945156094E+04  0.87724192229E+03  0.19818367606E+04  0.50400001928E-02 0.  1.
</event>
<event>
 5   0  0.1587026E-07  0.3686184E+04  0.7818609E-02  0.8071030E-01
        2   -1    0    0  501    0  0.00000000000E+00  0.00000000000E+00  0.17091470932E+04  0.17091470932E+04  0.25500000920E-02 0.  1.
       -2   -1    0    0    0  501  0.00000000000E+00  0.00000000000E+00 -0.19875344632E+04  0.19875344632E+04  0.25500000920E-02 0. -1.
    10030    2    1    2    0    0  0.00000000000E+00  0.00000000000E+00 -0.27838737009E+03  0.36966815564E+04  0.36861843418E+04 0.  0.
        3    1    3    3  502    0  0.86857551482E+02 -0.62263705760E+03 -0.18766885254E+04  0.19791869471E+04  0.10100000352E+00 0. -1.
       -3    1    3    3    0  502 -0.86857551482E+02  0.62263705760E+03  0.15983011553E+04  0.17174946093E+04  0.10100000352E+00 0.  1.
</event>
<event>
 5   0  0.5177000E-08  0.3689615E+04  0.7818609E-02  0.8070267E-01
        1   -1    0    0  501    0  0.00000000000E+00  0.00000000000E+00  0.17706281449E+04  0.17706281449E+04  0.50400001928E-02 0.  1.
       -1   -1    0    0    0  501  0.00000000000E+00  0.00000000000E+00 -0.19220947058E+04  0.19220947058E+04  0.50400001928E-02 0. -1.
    10030    2    1    2    0    0  0.00000000000E+00  0.00000000000E+00 -0.15146656091E+03  0.36927228507E+04  0.36896151470E+04 0.  0.
        3    1    3    3  502    0 -0.54977891061E+03 -0.14628767422E+04  0.90542389097E+03  0.18061167310E+04  0.10100000352E+00 0. -1.
       -3    1    3    3    0  502  0.54977891061E+03  0.14628767422E+04 -0.10568904519E+04  0.18866061197E+04  0.10100000352E+00 0.  1.
</event>
<event>
 5   0  0.1666189E-07  0.3697158E+04  0.7818609E-02  0.8068592E-01
       -2   -1    0    0    0  501  0.00000000000E+00  0.00000000000E+00  0.20862553780E+04  0.20862553780E+04  0.25500000920E-02 0.  1.
        2   -1    0    0  501    0  0.00000000000E+00  0.00000000000E+00 -0.16379799442E+04  0.16379799442E+04  0.25500000920E-02 0. -1.
    10030    2    1    2    0    0  0.00000000000E+00  0.00000000000E+00  0.44827543382E+03  0.37242353221E+04  0.36971580802E+04 0.  0.
        4    1    3    3  502    0 -0.13431186512E+04 -0.10324644320E+04  0.96934789779E+03  0.19518164551E+04  0.12699999809E+01 0.  1.
       -4    1    3    3    0  502  0.13431186512E+04  0.10324644320E+04 -0.52107246397E+03  0.17724188670E+04  0.12699999809E+01 0. -1.
</event>
<event>
 5   0  0.5177000E-08  0.3560855E+04  0.7818609E-02  0.8099518E-01
       -1   -1    0    0    0  501  0.00000000000E+00  0.00000000000E+00  0.15342930951E+04  0.15342930951E+04  0.50400001928E-02 0.  1.
        1   -1    0    0  501    0  0.00000000000E+00  0.00000000000E+00 -0.20660475642E+04  0.20660475642E+04  0.50400001928E-02 0. -1.
    10030    2    1    2    0    0  0.00000000000E+00  0.00000000000E+00 -0.53175446913E+03  0.36003406593E+04  0.35608552410E+04 0.  0.
        3    1    3    3  502    0  0.86339682117E+03 -0.31547844454E+03  0.12758065961E+04  0.15724704133E+04  0.10100000352E+00 0.  1.
       -3    1    3    3    0  502 -0.86339682117E+03  0.31547844454E+03 -0.18075610653E+04  0.20278702460E+04  0.10100000352E+00 0. -1.
</event>
<event>
 5   0  0.5177000E-08  0.3680516E+04  0.7818609E-02  0.8072294E-01
       -1   -1    0    0    0  501  0.00000000000E+00  0.00000000000E+00  0.19277482014E+04  0.19277482014E+04  0.50400001928E-02 0.  1.
        1   -1    0    0  501    0  0.00000000000E+00  0.00000000000E+00 -0.17567383785E+04  0.17567383785E+04  0.50400001928E-02 0. -1.
    10030    2    1    2    0    0  0.00000000000E+00  0.00000000000E+00  0.17100982292E+03  0.36844865800E+04  0.36805158604E+04 0.  0.
        3    1    3    3  502    0 -0.11878908112E+04  0.75706401015E+02 -0.13194810606E+04  0.17770330098E+04  0.10100000352E+00 0. -1.
       -3    1    3    3    0  502  0.11878908112E+04 -0.75706401015E+02  0.14904908835E+04  0.19074535702E+04  0.10100000352E+00 0.  1.
</event>
<event>
 5   0  0.1587026E-07  0.3703576E+04  0.7818609E-02  0.8067170E-01
        2   -1    0    0  501    0  0.00000000000E+00  0.00000000000E+00  0.16626858421E+04  0.16626858421E+04  0.25500000920E-02 0. -1.
       -2   -1    0    0    0  501  0.00000000000E+00  0.00000000000E+00 -0.20623967813E+04  0.20623967813E+04  0.25500000920E-02 0.  1.
    10030    2    1    2    0    0  0.00000000000E+00  0.00000000000E+00 -0.39971093927E+03  0.37250826234E+04  0.37035755313E+04 0.  0.
        3    1    3    3  502    0 -0.71826054189E+03 -0.12396162279E+04 -0.13799425681E+04  0.19891676903E+04  0.10100000352E+00 0.  1.
       -3    1    3    3    0  502  0.71826054189E+03  0.12396162279E+04  0.98023162887E+03  0.17359149331E+04  0.10100000352E+00 0. -1.
</event>
<event>
 5   0  0.5177000E-08  0.3670199E+04  0.7818609E-02  0.8074598E-01
       -1   -1    0    0    0  501  0.00000000000E+00  0.00000000000E+00  0.15769561448E+04  0.15769561449E+04  0.50400001928E-02 0.  1.
        1   -1    0    0  501    0  0.00000000000E+00  0.00000000000E+00 -0.21354996532E+04  0.21354996532E+04  0.50400001928E-02 0. -1.
    10030    2    1    2    0    0  0.00000000000E+00  0.00000000000E+00 -0.55854350834E+03  0.37124557980E+04  0.36701985235E+04 0.  0.
        4    1    3    3  502    0  0.13516824781E+04  0.11841729322E+04 -0.65540882029E+03  0.19128181799E+04  0.12699999809E+01 0. -1.
       -4    1    3    3    0  502 -0.13516824781E+04 -0.11841729322E+04  0.96865311947E+02  0.17996376181E+04  0.12699999809E+01 0.  1.
</event>
<event>
 5   0  0.5177000E-08  0.3705439E+04  0.7818609E-02  0.8066757E-01
        1   -1    0    0  501    0  0.00000000000E+00  0.00000000000E+00  0.13462491574E+04  0.13462491574E+04  0.50400001928E-02 0. -1.
       -1   -1    0    0    0  501  0.00000000000E+00  0.00000000000E+00 -0.25497287579E+04  0.25497287579E+04  0.50400001928E-02 0.  1.
    10030    2    1    2    0    0  0.00000000000E+00  0.00000000000E+00 -0.12034796005E+04  0.38959779153E+04  0.37054393488E+04 0.  0.
        3    1    3    3  502    0 -0.77807293513E+03 -0.16580851686E+04 -0.30823263917E+03  0.18573236899E+04  0.10100000352E+00 0.  1.
       -3    1    3    3    0  502  0.77807293513E+03  0.16580851686E+04 -0.89524696131E+03  0.20386542254E+04  0.10100000352E+00 0. -1.
</event>
<event>
 5   0  0.1658770E-07  0.3711954E+04  0.7818609E-02  0.8065318E-01
        2   -1    0    0  501    0  0.00000000000E+00  0.00000000000E+00  0.22053169998E+04  0.22053169998E+04  0.25500000920E-02 0. -1.
       -2   -1    0    0    0  501  0.00000000000E+00  0.00000000000E+00 -0.15619751516E+04  0.15619751516E+04  0.25500000920E-02 0.  1.
    10030    2    1    2    0    0  0.00000000000E+00  0.00000000000E+00  0.64334184825E+03  0.37672921514E+04  0.37119538548E+04 0.  0.
        2    1    3    3  502    0  0.54441176980E+03 -0.14342581426E+04 -0.73849268592E+03  0.17026015512E+04  0.25500000920E-02 0.  1.
       -2    1    3    3    0  502 -0.54441176980E+03  0.14342581426E+04  0.13818345342E+04  0.20646906002E+04  0.25500000920E-02 0. -1.
</event>
<event>
 5   0  0.5177000E-08  0.3702260E+04  0.7818609E-02  0.8067461E-01
       -1   -1    0    0    0  501  0.00000000000E+00  0.00000000000E+00  0.14962938096E+04  0.14962938097E+04  0.50400001928E-02 0.  1.
        1   -1    0    0  501    0  0.00000000000E+00  0.00000000000E+00 -0.22901129099E+04  0.22901129099E+04  0.50400001928E-02 0. -1.
    10030    2    1    2    0    0  0.00000000000E+00  0.00000000000E+00 -0.79381910024E+03  0.37864067195E+04  0.37022597264E+04 0.  0.
        4    1    3    3  502    0 -0.73827048280E+02  0.17164764220E+04  0.30791176539E+03  0.17454377699E+04  0.12699999809E+01 0.  1.
       -4    1    3    3    0  502  0.73827048280E+02 -0.17164764220E+04 -0.11017308656E+04  0.20409689497E+04  0.12699999809E+01 0. -1.
</event>
<event>
 5   0  0.1558258E-07  0.3705217E+04  0.7818609E-02  0.8066807E-01
       -2   -1    0    0    0  501  0.00000000000E+00  0.00000000000E+00  0.13826747338E+04  0.13826747338E+04  0.25500000920E-02 0.  1.
        2   -1    0    0  501    0  0.00000000000E+00  0.00000000000E+00 -0.24822594514E+04  0.24822594514E+04  0.25500000920E-02 0. -1.
    10030    2    1    2    0    0  0.00000000000E+00  0.00000000000E+00 -0.10995847176E+04  0.38649341852E+04  0.37052165530E+04 0.  0.
        1    1    3    3  502    0 -0.15195911967E+04 -0.50229706149E+02 -0.16539471973E+04  0.22466022701E+04  0.50400001928E-02 0. -1.
       -1    1    3    3    0  502  0.15195911967E+04  0.50229706149E+02  0.55436247971E+03  0.16183319151E+04  0.50400001928E-02 0.  1.
</event>
<event>
 5   0  0.5177000E-08  0.3716108E+04  0.7818609E-02  0.8064401E-01
        1   -1    0    0  501    0  0.00000000000E+00  0.00000000000E+00  0.13982995809E+04  0.13982995809E+04  0.50400001928E-02 0.  1.
       -1   -1    0    0    0  501  0.00000000000E+00  0.00000000000E+00 -0.24689737515E+04  0.24689737515E+04  0.50400001928E-02 0. -1.
    10030    2    1    2    0    0  0.00000000000E+00  0.00000000000E+00 -0.10706741706E+04  0.38672733324E+04  0.37161081588E+04 0.  0.
        2    1    3    3  502    0  0.71701308853E+03  0.79046908594E+03  0.10475260801E+04  0.14954129977E+04  0.25500000920E-02 0.  1.
       -2    1    3    3    0  502 -0.71701308853E+03 -0.79046908594E+03 -0.21182002508E+04  0.23718603347E+04  0.25500000920E-02 0. -1.
</event>
<event>
 5   0  0.5177000E-08  0.3644383E+04  0.7818609E-02  0.8080400E-01
        1   -1    0    0  501    0  0.00000000000E+00  0.00000000000E+00  0.23382374444E+04  0.23382374444E+04  0.50400001928E-02 0. -1.
       -1   -1    0    0    0  501  0.00000000000E+00  0.00000000000E+00 -0.14200362119E+04  0.14200362119E+04  0.50400001928E-02 0.  1.
    10030    2    1    2    0    0  0.00000000000E+00  0.00000000000E+00  0.91820123249E+03  0.37582736564E+04  0.36443829893E+04 0.  0.
        4    1    3    3  502    0  0.93650433208E+03  0.15546431756E+04  0.62673668668E+03  0.19200927725E+04  0.12699999809E+01 0. -1.
       -4    1    3    3    0  502 -0.93650433208E+03 -0.15546431756E+04  0.29146454580E+03  0.18381808839E+04  0.12699999809E+01 0.  1.
</event>
<event>
 5   0  0.1587026E-07  0.3647879E+04  0.7818609E-02  0.8079612E-01
        2   -1    0    0  501    0  0.00000000000E+00  0.00000000000E+00  0.16280521114E+04  0.16280521114E+04  0.25500000920E-02 0. -1.
       -2   -1    0    0    0  501  0.00000000000E+00  0.00000000000E+00 -0.20433956908E+04  0.20433956908E+04  0.25500000920E-02 0.  1.
    10030    2    1    2    0    0  0.00000000000E+00  0.00000000000E+00 -0.41534357943E+03  0.36714478022E+04  0.36478786541E+04 0.  0.
        3    1    3    3  502    0 -0.15798134233E+04  0.86347705339E+03 -0.50170932165E+03  0.18689877816E+04  0.10100000352E+00 0.  1.
       -3    1    3    3    0  502  0.15798134233E+04 -0.86347705339E+03  0.86365742222E+02  0.18024600206E+04  0.10100000352E+00 0. -1.
</event>
<event>
 5   0  0.5177000E-08  0.3689753E+04  0.7818609E-02  0.8070237E-01
       -1   -1    0    0    0  501  0.00000000000E+00  0.00000000000E+00  0.22719482852E+04  0.22719482852E+04  0.50400001928E-02 0. -1.
        1   -1    0    0  501    0  0.00000000000E+00  0.00000000000E+00 -0.14980836773E+04  0.14980836773E+04  0.50400001928E-02 0.  1.
    10030    2    1    2    0    0  0.00000000000E+00  0.00000000000E+00  0.77386460788E+03  0.37700319624E+04  0.36897526430E+04 0.  0.
        3    1    3    3  502    0  0.50697900758E+03  0.13214688496E+04 -0.82214000767E+03  0.16368328678E+04  0.10100000352E+00 0.  1.
       -3    1    3    3    0  502 -0.50697900758E+03 -0.13214688496E+04  0.15960046155E+04  0.21331990947E+04  0.10100000352E+00 0. -1.
</event>
<event>
 5   0  0.1658770E-07  0.3708759E+04  0.7818609E-02  0.8066023E-01
       -2   -1    0    0    0  501  0.00000000000E+00  0.00000000000E+00  0.17241501450E+04  0.17241501450E+04  0.25500000920E-02 0. -1.
        2   -1    0    0  501    0  0.00000000000E+00  0.00000000000E+00 -0.19944456424E+04  0.19944456424E+04  0.25500000920E-02 0.  1.
    10030    2    1    2    0    0  0.00000000000E+00  0.00000000000E+00 -0.27029549737E+03  0.37185957873E+04  0.37087592229E+04 0.  0.
        2    1    3    3  502    0  0.11881629121E+04 -0.38497742738E+03  0.12391754510E+04  0.17594017517E+04  0.25500000920E-02 0. -1.
       -2    1    3    3    0  502 -0.11881629121E+04  0.38497742738E+03 -0.15094709484E+04  0.19591940357E+04  0.25500000920E-02 0.  1.
</event>
<event>
 5   0  0.1587026E-07  0.3693127E+04  0.7818609E-02  0.8069487E-01
       -2   -1    0    0    0  501  0.00000000000E+00  0.00000000000E+00  0.14259805624E+04  0.14259805624E+04  0.25500000920E-02 0.  1.
        2   -1    0    0  501    0  0.00000000000E+00  0.00000000000E+00 -0.23911949316E+04  0.23911949316E+04  0.25500000920E-02 0. -1.
    10030    2    1    2    0    0  0.00000000000E+00  0.00000000000E+00 -0.96521436918E+03  0.38171754940E+04  0.36931273974E+04 0.  0.
        3    1    3    3  502    0 -0.94036961135E+03 -0.15539028891E+04 -0.13842318425E+03  0.18215570765E+04  0.10100000352E+00 0. -1.
       -3    1    3    3    0  502  0.94036961135E+03  0.15539028891E+04 -0.82679118493E+03  0.19956184175E+04  0.10100000352E+00 0.  1.
</event>
<event>
 5   0  0.1658770E-07  0.3707951E+04  0.7818609E-02  0.8066202E-01
        2   -1    0    0  501    0  0.00000000000E+00  0.00000000000E+00  0.28362660393E+04  0.28362660393E+04  0.25500000920E-02 0. -1.
       -2   -1    0    0    0  501  0.00000000000E+00  0.00000000000E+00 -0.12118839415E+04  0.12118839415E+04  0.25500000920E-02 0.  1.
    10030    2    1    2    0    0  0.00000000000E+00  0.00000000000E+00  0.16243820979E+04  0.40481499808E+04  0.37079510605E+04 0.  0.
        2    1    3    3  502    0 -0.11919247473E+04  0.20684519782E+03 -0.72161096120E+03  0.14086134737E+04  0.25500000920E-02 0.  1.
       -2    1    3    3    0  502  0.11919247473E+04 -0.20684519782E+03  0.23459930591E+04  0.26395365071E+04  0.25500000920E-02 0. -1.
</event>
<event>
 5   0  0.1658770E-07  0.3705811E+04  0.7818609E-02  0.8066675E-01
       -2   -1    0    0    0  501  0.00000000000E+00  0.00000000000E+00  0.12187158263E+04  0.12187158263E+04  0.25500000920E-02 0.  1.
        2   -1    0    0  501    0  0.00000000000E+00  0.00000000000E+00 -0.28171119495E+04  0.28171119495E+04  0.25500000920E-02 0. -1.
    10030    2    1    2    0    0  0.00000000000E+00  0.00000000000E+00 -0.15983961232E+04  0.40358277759E+04  0.37058110678E+04 0.  0.
        2    1    3    3  502    0 -0.18332703268E+04  0.26605508969E+03 -0.84267185341E+03  0.20351317536E+04  0.25500000920E-02 0.  1.
       -2    1    3    3    0  502  0.18332703268E+04 -0.26605508969E+03 -0.75572426978E+03  0.20006960223E+04  0.25500000920E-02 0. -1.
</event>
<event>
 5   0  0.5181371E-08  0.3712928E+04  0.7818609E-02  0.8065103E-01
        1   -1    0    0  501    0  0.00000000000E+00  0.00000000000E+00  0.22518923920E+04  0.22518923920E+04  0.50400001928E-02 0.  1.
       -1   -1    0    0    0  501  0.00000000000E+00  0.00000000000E+00 -0.15304722232E+04  0.15304722232E+04  0.50400001928E-02 0. -1.
    10030    2    1    2    0    0  0.00000000000E+00  0.00000000000E+00  0.72142016875E+03  0.37823646152E+04  0.37129280928E+04 0.  0.
        5    1    3    3  502    0 -0.13574309551E+04  0.27207580950E+02  0.16505152991E+04  0.21371901864E+04  0.46999998093E+01 0.  1.
       -5    1    3    3    0  502  0.13574309551E+04 -0.27207580950E+02 -0.92909513030E+03  0.16451744289E+04  0.46999998093E+01 0. -1.
</event>
<event>
 5   0  0.5177000E-08  0.3702166E+04  0.7818609E-02  0.8067482E-01
        1   -1    0    0  501    0  0.00000000000E+00  0.00000000000E+00  0.23197125165E+04  0.23197125165E+04  0.50400001928E-02 0.  1.
       -1   -1    0    0    0  501  0.00000000000E+00  0.00000000000E+00 -0.14771265799E+04  0.14771265799E+04  0.50400001928E-02 0. -1.
    10030    2    1    2    0    0  0.00000000000E+00  0.00000000000E+00  0.84258593659E+03  0.37968390964E+04  0.37021664014E+04 0.  0.
        1    1    3    3  502    0  0.85024689688E+03  0.12142052638E+04  0.15583815052E+04  0.21507596620E+04  0.50400001928E-02 0.  1.
       -1    1    3    3    0  502 -0.85024689688E+03 -0.12142052638E+04 -0.71579556859E+03  0.16460794344E+04  0.50400001928E-02 0. -1.
</event>
<event>
 5   0  0.1658770E-07  0.3722475E+04  0.7818609E-02  0.8062999E-01
       -2   -1    0    0    0  501  0.00000000000E+00  0.00000000000E+00  0.13346612856E+04  0.13346612856E+04  0.25500000920E-02 0.  1.
        2   -1    0    0  501    0  0.00000000000E+00  0.00000000000E+00 -0.25955689021E+04  0.25955689021E+04  0.25500000920E-02 0. -1.
    10030    2    1    2    0    0  0.00000000000E+00  0.00000000000E+00 -0.12609076165E+04  0.39302301877E+04  0.37224751592E+04 0.  0.
        2    1    3    3  502    0  0.10511804403E+04  0.83103462798E+03 -0.19942929132E+04  0.24026658308E+04  0.25500000920E-02 0. -1.
       -2    1    3    3    0  502 -0.10511804403E+04 -0.83103462798E+03  0.73338529675E+03  0.15275643569E+04  0.25500000920E-02 0.  1.
</event>
<event>
 5   0  0.1658770E-07  0.3612728E+04  0.7818609E-02  0.8087582E-01
        2   -1    0    0  501    0  0.00000000000E+00  0.00000000000E+00  0.19473787517E+04  0.19473787517E+04  0.25500000920E-02 0.  1.
       -2   -1    0    0    0  501  0.00000000000E+00  0.00000000000E+00 -0.16755607104E+04  0.16755607104E+04  0.25500000920E-02 0. -1.
    10030    2    1    2    0    0  0.00000000000E+00  0.00000000000E+00  0.27181804121E+03  0.36229394621E+04  0.36127282348E+04 0.  0.
        2    1    3    3  502    0  0.28941394495E+02 -0.15018669634E+04  0.11419940566E+04  0.18869532070E+04  0.25500000920E-02 0.  1.
       -2    1    3    3    0  502 -0.28941394495E+02  0.15018669634E+04 -0.87017601537E+03  0.17359862551E+04  0.25500000920E-02 0. -1.
</event>
<event>
 5   0  0.1587026E-07  0.3716450E+04  0.7818609E-02  0.8064326E-01
        2   -1    0    0  501    0  0.00000000000E+00  0.00000000000E+00  0.24461270128E+04  0.24461270128E+04  0.25500000920E-02 0.  1.
       -2   -1    0    0    0  501  0.00000000000E+00  0.00000000000E+00 -0.14116191612E+04  0.14116191612E+04  0.25500000920E-02 0. -1.
    10030    2    1    2    0    0  0.00000000000E+00  0.00000000000E+00  0.10345078516E+04  0.38577461740E+04  0.37164497908E+04 0.  0.
        3    1    3    3  502    0  0.84868851600E+03 -0.13133914499E+04 -0.52476971226E+03  0.16494400744E+04  0.10100000352E+00 0. -1.
       -3    1    3    3    0  502 -0.84868851600E+03  0.13133914499E+04  0.15592775639E+04  0.22083060996E+04  0.10100000352E+00 0.  1.
</event>
<event>
 5   0  0.5177000E-08  0.3690627E+04  0.7818609E-02  0.8070042E-01
       -1   -1    0    0    0  501  0.00000000000E+00  0.00000000000E+00  0.21937996663E+04  0.21937996663E+04  0.50400001928E-02 0. -1.
        1   -1    0    0  501    0  0.00000000000E+00  0.00000000000E+00 -0.15521844419E+04  0.15521844419E+04  0.50400001928E-02 0.  1.
    10030    2    1    2    0    0  0.00000000000E+00  0.00000000000E+00  0.64161522442E+03  0.37459841082E+04  0.36906268902E+04 0.  0.
        2    1    3    3  502    0  0.98613053500E+03 -0.48711074841E+03  0.18247378888E+04  0.21305864629E+04  0.25500000920E-02 0. -1.
       -2    1    3    3    0  502 -0.98613053500E+03  0.48711074841E+03 -0.11831226644E+04  0.16153976452E+04  0.25500000920E-02 0.  1.
</event>
<event>
 5   0  0.5177000E-08  0.3696436E+04  0.7818609E-02  0.8068752E-01
       -1   -1    0    0    0  501  0.00000000000E+00  0.00000000000E+00  0.12082094673E+04  0.12082094673E+04  0.50400001928E-02 0. -1.
        1   -1    0    0  501    0  0.00000000000E+00  0.00000000000E+00 -0.28272491301E+04  0.28272491301E+04  0.50400001928E-02 0.  1.
    10030    2    1    2    0    0  0.00000000000E+00  0.00000000000E+00 -0.16190396628E+04  0.40354585974E+04  0.36964356699E+04 0.  0.
        1    1    3    3  502    0 -0.40851080594E+03 -0.17720668381E+04 -0.11696326467E+04  0.21622077804E+04  0.50400001928E-02 0.  1.
       -1    1    3    3    0  502  0.40851080594E+03  0.17720668381E+04 -0.44940701607E+03  0.18732508170E+04  0.50400001928E-02 0. -1.
</event>
<event>
 5   0  0.1658770E-07  0.3686732E+04  0.7818609E-02  0.8070909E-01
        2   -1    0    0  501    0  0.00000000000E+00  0.00000000000E+00  0.14172601011E+04  0.14172601011E+04  0.25500000920E-02 0.  1.
       -2   -1    0    0    0  501  0.00000000000E+00  0.00000000000E+00 -0.23975826821E+04  0.23975826821E+04  0.25500000920E-02 0. -1.
    10030    2    1    2    0    0  0.00000000000E+00  0.00000000000E+00 -0.98032258103E+03  0.38148427832E+04  0.36867320350E+04 0.  0.
        2    1    3    3  502    0  0.15688928530E+04 -0.40728895752E+03  0.41823365105E+03  0.16739858022E+04  0.25500000920E-02 0.  1.
       -2    1    3    3    0  502 -0.15688928530E+04  0.40728895752E+03 -0.13985562321E+04  0.21408569811E+04  0.25500000920E-02 0. -1.
</event>
<event>
 5   0  0.1686284E-07  0.3711159E+04  0.7818609E-02  0.8065493E-01
        2   -1    0    0  501    0  0.00000000000E+00  0.00000000000E+00  0.11058966694E+04  0.11058966694E+04  0.25500000920E-02 0. -1.
       -2   -1    0    0    0  501  0.00000000000E+00  0.00000000000E+00 -0.31134685394E+04  0.31134685394E+04  0.25500000920E-02 0.  1.
    10030    2    1    2    0    0  0.00000000000E+00  0.00000000000E+00 -0.20075718699E+04  0.42193652088E+04  0.37111585728E+04 0.  0.
        5    1    3    3  502    0  0.24818049531E+03  0.12801391675E+04 -0.25047202941E+04  0.28238264267E+04  0.46999998093E+01 0.  1.
       -5    1    3    3    0  502 -0.24818049531E+03 -0.12801391675E+04  0.49714842420E+03  0.13955387821E+04  0.46999998093E+01 0. -1.
</event>
<event>
 5   0  0.5177000E-08  0.3702825E+04  0.7818609E-02  0.8067336E-01
        1   -1    0    0  501    0  0.00000000000E+00  0.00000000000E+00  0.17544074473E+04  0.17544074473E+04  0.50400001928E-02 0. -1.
       -1   -1    0    0    0  501  0.00000000000E+00  0.00000000000E+00 -0.19537807342E+04  0.19537807342E+04  0.50400001928E-02 0.  1.
    10030    2    1    2    0    0  0.00000000000E+00  0.00000000000E+00 -0.19937328688E+03  0.37081881816E+04  0.37028245816E+04 0.  0.
        2    1    3    3  502    0 -0.50275742180E+03  0.10126919351E+04  0.13685261921E+04  0.17751546183E+04  0.25500000920E-02 0. -1.
       -2    1    3    3    0  502  0.50275742180E+03 -0.10126919351E+04 -0.15678994789E+04  0.19330335632E+04  0.25500000920E-02 0.  1.
</event>
<event>
 5   0  0.5181371E-08  0.3738927E+04  0.7818609E-02  0.8059390E-01
        1   -1    0    0  501    0  0.00000000000E+00  0.00000000000E+00  0.15179885627E+04  0.15179885628E+04  0.50400001928E-02 0. -1.
       -1   -1    0    0    0  501  0.00000000000E+00  0.00000000000E+00 -0.23023185609E+04  0.23023185609E+04  0.50400001928E-02 0.  1.
    10030    2    1    2    0    0  0.00000000000E+00  0.00000000000E+00 -0.78432999814E+03  0.38203071236E+04  0.37389267140E+04 0.  0.
        5    1    3    3  502    0  0.11805357033E+04  0.14115314122E+04 -0.72917065448E+03  0.19793426706E+04  0.46999998093E+01 0.  1.
       -5    1    3    3    0  502 -0.11805357033E+04 -0.14115314122E+04 -0.55159343654E+02  0.18409644531E+04  0.46999998093E+01 0. -1.
</event>
<event>
 5   0  0.1666189E-07  0.3700317E+04  0.7818609E-02  0.8067892E-01
       -2   -1    0    0    0  501  0.00000000000E+00  0.00000000000E+00  0.18269101822E+04  0.18269101822E+04  0.25500000920E-02 0.  1.
        2   -1    0    0  501    0  0.00000000000E+00  0.00000000000E+00 -0.18737025722E+04  0.18737025722E+04  0.25500000920E-02 0. -1.
    10030    2    1    2    0    0  0.00000000000E+00  0.00000000000E+00 -0.46792390023E+02  0.37006127543E+04  0.37003169094E+04 0.  0.
        4    1    3    3  502    0  0.93717168107E+03  0.73896587093E+03 -0.14372713628E+04  0.18681841187E+04  0.12699999809E+01 0. -1.
       -4    1    3    3    0  502 -0.93717168107E+03 -0.73896587093E+03  0.13904789727E+04  0.18324286357E+04  0.12699999809E+01 0.  1.
</event>
<event>
 5   0  0.5177000E-08  0.3694552E+04  0.7818609E-02  0.8069170E-01
        1   -1    0    0  501    0  0.00000000000E+00  0.00000000000E+00  0.20874455974E+04  0.20874455974E+04  0.50400001928E-02 0. -1.
       -1   -1    0    0    0  501  0.00000000000E+00  0.00000000000E+00 -0.16347392364E+04  0.16347392364E+04  0.50400001928E-02 0.  1.
    10030    2    1    2    0    0  0.00000000000E+00  0.00000000000E+00  0.45270636106E+03  0.37221848338E+04  0.36945523257E+04 0.  0.
        3    1    3    3  502    0 -0.30528744486E+03 -0.15136167502E+04 -0.79522935636E+03  0.17368436401E+04  0.10100000352E+00 0.  1.
       -3    1    3    3    0  502  0.30528744486E+03  0.15136167502E+04  0.12479357174E+04  0.19853411938E+04  0.10100000352E+00 0. -1.
</event>
<event>
 5   0  0.5177000E-08  0.3711507E+04  0.7818609E-02  0.8065417E-01
        1   -1    0    0  501    0  0.00000000000E+00  0.00000000000E+00  0.24583939078E+04  0.24583939078E+04  0.50400001928E-02 0.  1.
       -1   -1    0    0    0  501  0.00000000000E+00  0.00000000000E+00 -0.14008417943E+04  0.14008417943E+04  0.50400001928E-02 0. -1.
    10030    2    1    2    0    0  0.00000000000E+00  0.00000000000E+00  0.10575521135E+04  0.38592357021E+04  0.37115069354E+04 0.  0.
        2    1    3    3  502    0  0.12937718313E+04  0.43932069881E+03  0.18345353205E+04  0.22874370090E+04  0.25500000920E-02 0.  1.
       -2    1    3    3    0  502 -0.12937718313E+04 -0.43932069881E+03 -0.77698320695E+03  0.15717986931E+04  0.25500000920E-02 0. -1.
</event>
<event>
 5   0  0.1658770E-07  0.3705005E+04  0.7818609E-02  0.8066854E-01
       -2   -1    0    0    0  501  0.00000000000E+00  0.00000000000E+00  0.25496257739E+04  0.25496257739E+04  0.25500000920E-02 0. -1.
        2   -1    0    0  501    0  0.00000000000E+00  0.00000000000E+00 -0.13459879502E+04  0.13459879502E+04  0.25500000920E-02 0.  1.
    10030    2    1    2    0    0  0.00000000000E+00  0.00000000000E+00  0.12036378237E+04  0.38956137240E+04  0.37050050305E+04 0.  0.
        2    1    3    3  502    0  0.96573738175E+03  0.60139121103E+03 -0.93539607235E+03  0.14728495821E+04  0.25500000920E-02 0.  1.
       -2    1    3    3    0  502 -0.96573738175E+03 -0.60139121103E+03  0.21390338960E+04  0.24227641420E+04  0.25500000920E-02 0. -1.
</event>
<event>
 5   0  0.1587026E-07  0.3686286E+04  0.7818609E-02  0.8071008E-01
        2   -1    0    0  501    0  0.00000000000E+00  0.00000000000E+00  0.19030473171E+04  0.19030473171E+04  0.25500000920E-02 0. -1.
       -2   -1    0    0    0  501  0.00000000000E+00  0.00000000000E+00 -0.17851239554E+04  0.17851239554E+04  0.25500000920E-02 0.  1.
    10030    2    1    2    0    0  0.00000000000E+00  0.00000000000E+00  0.11792336166E+03  0.36881712725E+04  0.36862855852E+04 0.  0.
        3    1    3    3  502    0  0.15213948580E+04 -0.77315713217E+03 -0.63764233593E+03  0.18218128399E+04  0.10100000352E+00 0. -1.
       -3    1    3    3    0  502 -0.15213948580E+04  0.77315713217E+03  0.75556569759E+03  0.18663584325E+04  0.10100000352E+00 0.  1.
</event>
<event>
 5   0  0.5177000E-08  0.3698525E+04  0.7818609E-02  0.8068289E-01
        1   -1    0    0  501    0  0.00000000000E+00  0.00000000000E+00  0.11839259673E+04  0.11839259673E+04  0.50400001928E-02 0. -1.
       -1   -1    0    0    0  501  0.00000000000E+00  0.00000000000E+00 -0.28885014581E+04  0.28885014581E+04  0.50400001928E-02 0.  1.
    10030    2    1    2    0    0  0.00000000000E+00  0.00000000000E+00 -0.17045754908E+04  0.40724274255E+04  0.36985250482E+04 0.  0.
        4    1    3    3  502    0  0.17139666469E+04  0.25690698912E+03 -0.14202821042E+03  0.17389239470E+04  0.12699999809E+01 0. -1.
       -4    1    3    3    0  502 -0.17139666469E+04 -0.25690698912E+03 -0.15625472804E+04  0.23335034785E+04  0.12699999809E+01 0.  1.
</event>
<event>
 5   0  0.1587026E-07  0.3704630E+04  0.7818609E-02  0.8066937E-01
       -2   -1    0    0    0  501  0.00000000000E+00  0.00000000000E+00  0.19747398791E+04  0.19747398791E+04  0.25500000920E-02 0.  1.
        2   -1    0    0  501    0  0.00000000000E+00  0.00000000000E+00 -0.17374795153E+04  0.17374795153E+04  0.25500000920E-02 0. -1.
    10030    2    1    2    0    0  0.00000000000E+00  0.00000000000E+00  0.23726036380E+03  0.37122193943E+04  0.37046295836E+04 0.  0.
        3    1    3    3  502    0  0.96584000802E+03 -0.91774000063E+03 -0.11708537141E+04  0.17736944663E+04  0.10100000352E+00 0. -1.
       -3    1    3    3    0  502 -0.96584000802E+03  0.91774000063E+03  0.14081140779E+04  0.19385249280E+04  0.10100000352E+00 0.  1.
</event>
<event>
 5   0  0.5177000E-08  0.3556106E+04  0.7818609E-02  0.8100621E-01
       -1   -1    0    0    0  501  0.00000000000E+00  0.00000000000E+00  0.12715968541E+04  0.12715968541E+04  0.50400001928E-02 0.  1.
        1   -1    0    0  501    0  0.00000000000E+00  0.00000000000E+00 -0.24862217750E+04  0.24862217750E+04  0.50400001928E-02 0. -1.
    10030    2    1    2    0    0  0.00000000000E+00  0.00000000000E+00 -0.12146249209E+04  0.37578186291E+04  0.35561056158E+04 0.  0.
        3    1    3    3  502    0 -0.22158438882E+03  0.13411352207E+04 -0.18185071768E+04  0.22703990142E+04  0.10100000352E+00 0. -1.
       -3    1    3    3    0  502  0.22158438882E+03 -0.13411352207E+04  0.60388225591E+03  0.14874196149E+04  0.10100000352E+00 0.  1.
</event>
<event>
 5   0  0.1658770E-07  0.3691979E+04  0.7818609E-02  0.8069742E-01
        2   -1    0    0  501    0  0.00000000000E+00  0.00000000000E+00  0.20154083368E+04  0.20154083368E+04  0.25500000920E-02 0. -1.
       -2   -1    0    0    0  501  0.00000000000E+00  0.00000000000E+00 -0.16908121646E+04  0.16908121646E+04  0.25500000920E-02 0.  1.
    10030    2    1    2    0    0  0.00000000000E+00  0.00000000000E+00  0.32459617221E+03  0.37062205014E+04  0.36919788366E+04 0.  0.
        2    1    3    3  502    0 -0.13670874936E+04  0.41675568858E+03 -0.10105680970E+04  0.17503889276E+04  0.25500000920E-02 0.  1.
       -2    1    3    3    0  502  0.13670874936E+04 -0.41675568858E+03  0.13351642692E+04  0.19558315738E+04  0.25500000920E-02 0. -1.
</event>
<event>
 5   0  0.1587026E-07  0.3685866E+04  0.7818609E-02  0.8071101E-01
       -2   -1    0    0    0  501  0.00000000000E+00  0.00000000000E+00  0.15011613127E+04  0.15011613127E+04  0.25500000920E-02 0.  1.
        2   -1    0    0  501    0  0.00000000000E+00  0.00000000000E+00 -0.22625164361E+04  0.22625164361E+04  0.25500000920E-02 0. -1.
    10030    2    1    2    0    0  0.00000000000E+00  0.00000000000E+00 -0.76135512342E+03  0.37636777488E+04  0.36858660547E+04 0.  0.
        3    1    3    3  502    0  0.17005289566E+04  0.18052148964E+03 -0.10822151789E+04  0.20237530591E+04  0.10100000352E+00 0. -1.
       -3    1    3    3    0  502 -0.17005289566E+04 -0.18052148964E+03  0.32086005551E+03  0.17399246897E+04  0.10100000352E+00 0.  1.
</event>
<event>
 5   0  0.1558258E-07  0.3696539E+04  0.7818609E-02  0.8068729E-01
       -2   -1    0    0    0  501  0.00000000000E+00  0.00000000000E+00  0.31521918144E+04  0.31521918144E+04  0.25500000920E-02 0. -1.
        2   -1    0    0  501    0  0.00000000000E+00  0.00000000000E+00 -0.10837220587E+04  0.10837220587E+04  0.25500000920E-02 0.  1.
    10030    2    1    2    0    0  0.00000000000E+00  0.00000000000E+00  0.20684697557E+04  0.42359138731E+04  0.36965388149E+04 0.  0.
        1    1    3    3  502    0 -0.51915854477E+03 -0.13121437803E+04  0.24020798138E+04  0.27858991954E+04  0.50400001928E-02 0. -1.
       -1    1    3    3    0  502  0.51915854477E+03  0.13121437803E+04 -0.33361005812E+03  0.14500146777E+04  0.50400001928E-02 0.  1.
</event>
<event>
 5   0  0.5177000E-08  0.3669640E+04  0.7818609E-02  0.8074724E-01
       -1   -1    0    0    0  501  0.00000000000E+00  0.00000000000E+00  0.14762063131E+04  0.14762063131E+04  0.50400001928E-02 0.  1.
        1   -1    0    0  501    0  0.00000000000E+00  0.00000000000E+00 -0.22805508692E+04  0.22805508692E+04  0.50400001928E-02 0. -1.
    10030    2    1    2    0    0  0.00000000000E+00  0.00000000000E+00 -0.80434455614E+03  0.37567571823E+04  0.36696395411E+04 0.  0.
        1    1    3    3  502    0 -0.17136334615E+03 -0.11584054531E+04  0.10439109056E+04  0.15687633884E+04  0.50400001928E-02 0.  1.
       -1    1    3    3    0  502  0.17136334615E+03  0.11584054531E+04 -0.18482554617E+04  0.21879937938E+04  0.50400001928E-02 0. -1.
</event>
<event>
 5   0  0.1587026E-07  0.3704223E+04  0.7818609E-02  0.8067027E-01
       -2   -1    0    0    0  501  0.00000000000E+00  0.00000000000E+00  0.13008268063E+04  0.13008268063E+04  0.25500000920E-02 0.  1.
        2   -1    0    0  501    0  0.00000000000E+00  0.00000000000E+00 -0.26370288716E+04  0.26370288716E+04  0.25500000920E-02 0. -1.
    10030    2    1    2    0    0  0.00000000000E+00  0.00000000000E+00 -0.13362020652E+04  0.39378556779E+04  0.37042234518E+04 0.  0.
        3    1    3    3  502    0  0.59636011561E+03 -0.19888487459E+03 -0.25201410020E+04  0.25973662162E+04  0.10100000352E+00 0. -1.
       -3    1    3    3    0  502 -0.59636011561E+03  0.19888487459E+03  0.11839389367E+04  0.13404894617E+04  0.10100000352E+00 0.  1.
</event>
<event>
 5   0  0.5177000E-08  0.3682715E+04  0.7818609E-02  0.8071803E-01
       -1   -1    0    0    0  501  0.00000000000E+00  0.00000000000E+00  0.17712318088E+04  0.17712318088E+04  0.50400001928E-02 0. -1.
        1   -1    0    0  501    0  0.00000000000E+00  0.00000000000E+00 -0.19142597386E+04  0.19142597386E+04  0.50400001928E-02 0.  1.
    10030    2    1    2    0    0  0.00000000000E+00  0.00000000000E+00 -0.14302792976E+03  0.36854915474E+04  0.36827151611E+04 0.  0.
        4    1    3    3  502    0  0.22369414953E+03  0.67594822139E+03 -0.17709258173E+04  0.19086971824E+04  0.12699999809E+01 0.  1.
       -4    1    3    3    0  502 -0.22369414953E+03 -0.67594822139E+03  0.16278978876E+04  0.17767943651E+04  0.12699999809E+01 0. -1.
</event>
<event>
 5   0  0.1686284E-07  0.3669503E+04  0.7818609E-02  0.8074754E-01
        2   -1    0    0  501    0  0.00000000000E+00  0.00000000000E+00  0.23479658630E+04  0.23479658630E+04  0.25500000920E-02 0. -1.
       -2   -1    0    0    0  501  0.00000000000E+00  0.00000000000E+00 -0.14337148154E+04  0.14337148154E+04  0.25500000920E-02 0.  1.
    10030    2    1    2    0    0  0.00000000000E+00  0.00000000000E+00  0.91425104765E+03  0.37816806784E+04  0.36695032055E+04 0.  0.
        5    1    3    3  502    0  0.56021819207E+02  0.69491294539E+03  0.22061367358E+04  0.23136775560E+04  0.46999998093E+01 0. -1.
       -5    1    3    3    0  502 -0.56021819207E+02 -0.69491294539E+03 -0.12918856882E+04  0.14680031224E+04  0.46999998093E+01 0.  1.
</event>
<event>
 5   0  0.5177000E-08  0.3688050E+04  0.7818609E-02  0.8070615E-01
       -1   -1    0    0    0  501  0.00000000000E+00  0.00000000000E+00  0.25279314322E+04  0.25279314322E+04  0.50400001928E-02 0.  1.
        1   -1    0    0  501    0  0.00000000000E+00  0.00000000000E+00 -0.13451424113E+04  0.13451424113E+04  0.50400001928E-02 0. -1.
    10030    2    1    2    0    0  0.00000000000E+00  0.00000000000E+00  0.11827890210E+04  0.38730738435E+04  0.36880497732E+04 0.  0.
        4    1    3    3  502    0 -0.10717214047E+04  0.87705235197E+03 -0.68732037761E+03  0.15460331535E+04  0.12699999809E+01 0. -1.
       -4    1    3    3    0  502  0.10717214047E+04 -0.87705235197E+03  0.18701093986E+04  0.23270406900E+04  0.12699999809E+01 0.  1.
</event>
<event>
 5   0  0.5181371E-08  0.3695208E+04  0.7818609E-02  0.8069025E-01
       -1   -1    0    0    0  501  0.00000000000E+00  0.00000000000E+00  0.27753316498E+04  0.27753316498E+04  0.50400001928E-02 0. -1.
        1   -1    0    0  501    0  0.00000000000E+00  0.00000000000E+00 -0.12299935561E+04  0.12299935561E+04  0.50400001928E-02 0.  1.
    10030    2    1    2    0    0  0.00000000000E+00  0.00000000000E+00  0.15453380937E+04  0.40053252059E+04  0.36952077318E+04 0.  0.
        5    1    3    3  502    0  0.72230620483E+02  0.88632600639E+02  0.27714867443E+04  0.27738482049E+04  0.46999998093E+01 0. -1.
       -5    1    3    3    0  502 -0.72230620483E+02 -0.88632600639E+02 -0.12261486506E+04  0.12314770009E+04  0.46999998093E+01 0.  1.
</event>
<event>
 5   0  0.1558258E-07  0.3679178E+04  0.7818609E-02  0.8072592E-01
       -2   -1    0    0    0  501  0.00000000000E+00  0.00000000000E+00  0.27580704019E+04  0.27580704019E+04  0.25500000920E-02 0. -1.
        2   -1    0    0  501    0  0.00000000000E+00  0.00000000000E+00 -0.12269768136E+04  0.12269768136E+04  0.25500000920E-02 0.  1.
    10030    2    1    2    0    0  0.00000000000E+00  0.00000000000E+00  0.15310935883E+04  0.39850472155E+04  0.36791784047E+04 0.  0.
        1    1    3    3  502    0  0.30718934961E+03 -0.11889241950E+04 -0.71806457316E+03  0.14225058064E+04  0.50400001928E-02 0.  1.
       -1    1    3    3    0  502 -0.30718934961E+03  0.11889241950E+04  0.22491581615E+04  0.25625414091E+04  0.50400001928E-02 0. -1.
</event>
<event>
 5   0  0.1666189E-07  0.3713000E+04  0.7818609E-02  0.8065087E-01
        2   -1    0    0  501    0  0.00000000000E+00  0.00000000000E+00  0.19010899932E+04  0.19010899932E+04  0.25500000920E-02 0. -1.
       -2   -1    0    0    0  501  0.00000000000E+00  0.00000000000E+00 -0.18129555011E+04  0.18129555011E+04  0.25500000920E-02 0.  1.
    10030    2    1    2    0    0  0.00000000000E+00  0.00000000000E+00  0.88134492141E+02  0.37140454943E+04  0.37129996290E+04 0.  0.
        4    1    3    3  502    0 -0.11075717651E+04 -0.81676567229E+03 -0.12023850998E+04  0.18274443684E+04  0.12699999809E+01 0.  1.
       -4    1    3    3    0  502  0.11075717651E+04  0.81676567229E+03  0.12905195920E+04  0.18866011260E+04  0.12699999809E+01 0. -1.
</event>
<event>
 5   0  0.1587026E-07  0.3699321E+04  0.7818609E-02  0.8068112E-01
        2   -1    0    0  501    0  0.00000000000E+00  0.00000000000E+00  0.20995799952E+04  0.20995799952E+04  0.25500000920E-02 0. -1.
       -2   -1    0    0    0  501  0.00000000000E+00  0.00000000000E+00 -0.16294901322E+04  0.16294901322E+04  0.25500000920E-02 0.  1.
    10030    2    1    2    0    0  0.00000000000E+00  0.00000000000E+00  0.47008986306E+03  0.37290701274E+04  0.36993214967E+04 0.  0.
        3    1    3    3  502    0 -0.10805614485E+04 -0.11654203102E+04 -0.71883485835E+03  0.17442881377E+04  0.10100000352E+00 0.  1.
       -3    1    3    3    0  502  0.10805614485E+04  0.11654203102E+04  0.11889247214E+04  0.19847819897E+04  0.10100000352E+00 0. -1.
</event>
<event>
 5   0  0.5177000E-08  0.3693251E+04  0.7818609E-02  0.8069459E-01
       -1   -1    0    0    0  501  0.00000000000E+00  0.00000000000E+00  0.23824023803E+04  0.23824023803E+04  0.50400001928E-02 0.  1.
        1   -1    0    0  501    0  0.00000000000E+00  0.00000000000E+00 -0.14313390793E+04  0.14313390794E+04  0.50400001928E-02 0. -1.
    10030    2    1    2    0    0  0.00000000000E+00  0.00000000000E+00  0.95106330095E+03  0.38137414596E+04  0.36932509417E+04 0.  0.
        4    1    3    3  502    0  0.12900780447E+04  0.72100257800E+03 -0.66778372880E+03  0.16217530022E+04  0.12699999809E+01 0. -1.
       -4    1    3    3    0  502 -0.12900780447E+04 -0.72100257800E+03  0.16188470297E+04  0.21919884574E+04  0.12699999809E+01 0.  1.
</event>
<event>
 5   0  0.5177000E-08  0.3694816E+04  0.7818609E-02  0.8069112E-01
        1   -1    0    0  501    0  0.00000000000E+00  0.00000000000E+00  0.21727214806E+04  0.21727214806E+04  0.50400001928E-02 0.  1.
       -1   -1    0    0    0  501  0.00000000000E+00  0.00000000000E+00 -0.15708026879E+04  0.15708026880E+04  0.50400001928E-02 0. -1.
    10030    2    1    2    0    0  0.00000000000E+00  0.00000000000E+00  0.60191879268E+03  0.37435241686E+04  0.36948162292E+04 0.  0.
        2    1    3    3  502    0 -0.13326004102E+03  0.13812902234E+04 -0.93462346937E+03  0.16730935267E+04  0.25500000920E-02 0. -1.
       -2    1    3    3    0  502  0.13326004102E+03 -0.13812902234E+04  0.15365422621E+04  0.20704306419E+04  0.25500000920E-02 0.  1.
</event>
<event>
 5   0  0.1686284E-07  0.3711568E+04  0.7818609E-02  0.8065403E-01
        2   -1    0    0  501    0  0.00000000000E+00  0.00000000000E+00  0.23449722069E+04  0.23449722069E+04  0.25500000920E-02 0. -1.
       -2   -1    0    0    0  501  0.00000000000E+00  0.00000000000E+00 -0.14686457160E+04  0.14686457160E+04  0.25500000920E-02 0.  1.
    10030    2    1    2    0    0  0.00000000000E+00  0.00000000000E+00  0.87632649089E+03  0.38136179229E+04  0.37115675319E+04 0.  0.
        5    1    3    3  502    0  0.12473413540E+04 -0.33128210695E+03 -0.93203275220E+03  0.15919533376E+04  0.46999998093E+01 0.  1.
       -5    1    3    3    0  502 -0.12473413540E+04  0.33128210695E+03  0.18083592431E+04  0.22216645854E+04  0.46999998093E+01 0. -1.
</event>
<event>
 5   0  0.5177000E-08  0.3714458E+04  0.7818609E-02  0.8064765E-01
        1   -1    0    0  501    0  0.00000000000E+00  0.00000000000E+00  0.23279790757E+04  0.23279790757E+04  0.50400001928E-02 0.  1.
       -1   -1    0    0    0  501  0.00000000000E+00  0.00000000000E+00 -0.14816709924E+04  0.14816709924E+04  0.50400001928E-02 0. -1.
    10030    2    1    2    0    0  0.00000000000E+00  0.00000000000E+00  0.84630808329E+03  0.38096500681E+04  0.37144577356E+04 0.  0.
        1    1    3    3  502    0 -0.61524327128E+03  0.80603148856E+03  0.20190146480E+04  0.22593430887E+04  0.50400001928E-02 0.  1.
       -1    1    3    3    0  502  0.61524327128E+03 -0.80603148856E+03 -0.11727065647E+04  0.15503069794E+04  0.50400001928E-02 0. -1.
</event>
<event>
 5   0  0.1587026E-07  0.3758518E+04  0.7818609E-02  0.8055116E-01
        2   -1    0    0  501    0  0.00000000000E+00  0.00000000000E+00  0.16055968075E+04  0.16055968075E+04  0.25500000920E-02 0.  1.
       -2   -1    0    0    0  501  0.00000000000E+00  0.00000000000E+00 -0.21995644720E+04  0.21995644720E+04  0.25500000920E-02 0. -1.
    10030    2    1    2    0    0  0.00000000000E+00  0.00000000000E+00 -0.59396766450E+03  0.38051612794E+04  0.37585176301E+04 0.  0.
        3    1    3    3  502    0  0.82970449742E+03 -0.15012273531E+04  0.48034711263E+03  0.17812429586E+04  0.10100000352E+00 0. -1.
       -3    1    3    3    0  502 -0.82970449742E+03  0.15012273531E+04 -0.10743147771E+04  0.20239183208E+04  0.10100000352E+00 0.  1.
</event>
<event>
 5   0  0.5177000E-08  0.3712260E+04  0.7818609E-02  0.8065250E-01
        1   -1    0    0  501    0  0.00000000000E+00  0.00000000000E+00  0.23657021181E+04  0.23657021181E+04  0.50400001928E-02 0. -1.
       -1   -1    0    0    0  501  0.00000000000E+00  0.00000000000E+00 -0.14563194912E+04  0.14563194912E+04  0.50400001928E-02 0.  1.
    10030    2    1    2    0    0  0.00000000000E+00  0.00000000000E+00  0.90938262686E+03  0.38220216093E+04  0.37122597457E+04 0.  0.
        2    1    3    3  502    0 -0.12675092048E+03 -0.12408826583E+03  0.23569558839E+04  0.23636211059E+04  0.25500000920E-02 0. -1.
       -2    1    3    3    0  502  0.12675092048E+03  0.12408826583E+03 -0.14475732571E+04  0.14584005034E+04  0.25500000920E-02 0.  1.
</event>
<event>
 5   0  0.5177000E-08  0.3720566E+04  0.7818609E-02  0.8063419E-01
       -1   -1    0    0    0  501  0.00000000000E+00  0.00000000000E+00  0.10488959806E+04  0.10488959806E+04  0.50400001928E-02 0.  1.
        1   -1    0    0  501    0  0.00000000000E+00  0.00000000000E+00 -0.32993288937E+04  0.32993288937E+04  0.50400001928E-02 0. -1.
    10030    2    1    2    0    0  0.00000000000E+00  0.00000000000E+00 -0.22504329131E+04  0.43482248744E+04  0.37205659867E+04 0.  0.
        4    1    3    3  502    0 -0.47137064420E+03  0.30323322655E+02  0.97764495206E+03  0.10857721001E+04  0.12699999809E+01 0.  1.
       -4    1    3    3    0  502  0.47137064420E+03 -0.30323322655E+02 -0.32280778651E+04  0.32624527743E+04  0.12699999809E+01 0. -1.
</event>
<event>
 5   0  0.5177000E-08  0.3699934E+04  0.7818609E-02  0.8067976E-01
       -3   -1    0    0    0  501  0.00000000000E+00  0.00000000000E+00  0.10892351293E+04  0.10892351340E+04  0.10100000352E+00 0. -1.
        3   -1    0    0  501    0  0.00000000000E+00  0.00000000000E+00 -0.31420013384E+04  0.31420013400E+04  0.10100000352E+00 0.  1.
    10030    2    1    2    0    0  0.00000000000E+00  0.00000000000E+00 -0.20527662091E+04  0.42312364740E+04  0.36999341872E+04 0.  0.
        5    1    3    3  502    0  0.10386653596E+04  0.61196860093E+03 -0.26311017481E+04  0.28941405973E+04  0.46999998093E+01 0.  1.
       -5    1    3    3    0  502 -0.10386653596E+04 -0.61196860093E+03  0.57833553908E+03  0.13370958767E+04  0.46999998093E+01 0. -1.
</event>
<event>
 5   0  0.1666189E-07  0.3790677E+04  0.7818609E-02  0.8048158E-01
       -2   -1    0    0    0  501  0.00000000000E+00  0.00000000000E+00  0.13303303418E+04  0.13303303418E+04  0.25500000920E-02 0. -1.
        2   -1    0    0  501    0  0.00000000000E+00  0.00000000000E+00 -0.27003130332E+04  0.27003130332E+04  0.25500000920E-02 0.  1.
    10030    2    1    2    0    0  0.00000000000E+00  0.00000000000E+00 -0.13699826914E+04  0.40306433750E+04  0.37906771745E+04 0.  0.
        4    1    3    3  502    0 -0.91156104108E+03  0.13650103867E+04  0.32268788224E+03  0.16728197660E+04  0.12699999809E+01 0. -1.
       -4    1    3    3    0  502  0.91156104108E+03 -0.13650103867E+04 -0.16926705736E+04  0.23578236089E+04  0.12699999809E+01 0.  1.
</event>
<event>
 5   0  0.5181371E-08  0.3673965E+04  0.7818609E-02  0.8073756E-01
       -1   -1    0    0    0  501  0.00000000000E+00  0.00000000000E+00  0.24305348276E+04  0.24305348276E+04  0.50400001928E-02 0. -1.
        1   -1    0    0  501    0  0.00000000000E+00  0.00000000000E+00 -0.13883793482E+04  0.13883793482E+04  0.50400001928E-02 0.  1.
    10030    2    1    2    0    0  0.00000000000E+00  0.00000000000E+00  0.10421554794E+04  0.38189141758E+04  0.36739648119E+04 0.  0.
        5    1    3    3  502    0  0.12930390865E+04 -0.12861707456E+04  0.74951397833E+03  0.19717957703E+04  0.46999998093E+01 0.  1.
       -5    1    3    3    0  502 -0.12930390865E+04  0.12861707456E+04  0.29264150107E+03  0.18471184055E+04  0.46999998093E+01 0. -1.
</event>
<event>
 5   0  0.1658770E-07  0.3704220E+04  0.7818609E-02  0.8067027E-01
        2   -1    0    0  501    0  0.00000000000E+00  0.00000000000E+00  0.11217526718E+04  0.11217526718E+04  0.25500000920E-02 0. -1.
       -2   -1    0    0    0  501  0.00000000000E+00  0.00000000000E+00 -0.30579932138E+04  0.30579932138E+04  0.25500000920E-02 0.  1.
    10030    2    1    2    0    0  0.00000000000E+00  0.00000000000E+00 -0.19362405420E+04  0.41797458856E+04  0.37042203271E+04 0.  0.
        2    1    3    3  502    0 -0.46189767979E+03 -0.21595408677E+03 -0.29772364851E+04  0.30205831758E+04  0.25500000920E-02 0.  1.
       -2    1    3    3    0  502  0.46189767979E+03  0.21595408677E+03  0.10409959431E+04  0.11591627098E+04  0.25500000920E-02 0. -1.
</event>
<event>
 5   0  0.5177000E-08  0.3712520E+04  0.7818609E-02  0.8065193E-01
        1   -1    0    0  501    0  0.00000000000E+00  0.00000000000E+00  0.16081021172E+04  0.16081021172E+04  0.50400001928E-02 0. -1.
       -1   -1    0    0    0  501  0.00000000000E+00  0.00000000000E+00 -0.21427132747E+04  0.21427132747E+04  0.50400001928E-02 0.  1.
    10030    2    1    2    0    0  0.00000000000E+00  0.00000000000E+00 -0.53461115746E+03  0.37508153919E+04  0.37125203049E+04 0.  0.
        4    1    3    3  502    0  0.10122535636E+02  0.10597312334E+04  0.12724118073E+04  0.16559487229E+04  0.12699999809E+01 0. -1.
       -4    1    3    3    0  502 -0.10122535636E+02 -0.10597312334E+04 -0.18070229648E+04  0.20948666690E+04  0.12699999809E+01 0.  1.
</event>
<event>
 5   0  0.5177000E-08  0.3695922E+04  0.7818609E-02  0.8068866E-01
       -1   -1    0    0    0  501  0.00000000000E+00  0.00000000000E+00  0.16506255732E+04  0.16506255732E+04  0.50400001928E-02 0. -1.
        1   -1    0    0  501    0  0.00000000000E+00  0.00000000000E+00 -0.20688882988E+04  0.20688882988E+04  0.50400001928E-02 0.  1.
    10030    2    1    2    0    0  0.00000000000E+00  0.00000000000E+00 -0.41826272558E+03  0.37195138721E+04  0.36959220415E+04 0.  0.
        1    1    3    3  502    0 -0.53652027849E+03  0.14860771704E+04 -0.11737277833E+04  0.19682266828E+04  0.50400001928E-02 0.  1.
       -1    1    3    3    0  502  0.53652027849E+03 -0.14860771704E+04  0.75546505774E+03  0.17512871892E+04  0.50400001928E-02 0. -1.
</event>
<event>
 5   0  0.1658770E-07  0.3671694E+04  0.7818609E-02  0.8074264E-01
       -2   -1    0    0    0  501  0.00000000000E+00  0.00000000000E+00  0.14777260677E+04  0.14777260677E+04  0.25500000920E-02 0. -1.
        2   -1    0    0  501    0  0.00000000000E+00  0.00000000000E+00 -0.22807570997E+04  0.22807570997E+04  0.25500000920E-02 0.  1.
    10030    2    1    2    0    0  0.00000000000E+00  0.00000000000E+00 -0.80303103201E+03  0.37584831674E+04  0.36716940071E+04 0.  0.
        2    1    3    3  502    0  0.27207144264E+03 -0.10255073862E+04  0.11321125708E+04  0.15515692514E+04  0.25500000920E-02 0. -1.
       -2    1    3    3    0  502 -0.27207144264E+03  0.10255073862E+04 -0.19351436029E+04  0.22069139160E+04  0.25500000920E-02 0.  1.
</event>
<event>
 5   0  0.1558258E-07  0.3707450E+04  0.7818609E-02  0.8066313E-01
        2   -1    0    0  501    0  0.00000000000E+00  0.00000000000E+00  0.21130845783E+04  0.21130845783E+04  0.25500000920E-02 0.  1.
       -2   -1    0    0    0  501  0.00000000000E+00  0.00000000000E+00 -0.16261992089E+04  0.16261992089E+04  0.25500000920E-02 0. -1.
    10030    2    1    2    0    0  0.00000000000E+00  0.00000000000E+00  0.48688536940E+03  0.37392837871E+04  0.37074500506E+04 0.  0.
        1    1    3    3  502    0 -0.58739738531E+03 -0.16868758925E+03  0.20085568951E+04  0.20994742180E+04  0.50400001928E-02 0.  1.
       -1    1    3    3    0  502  0.58739738531E+03  0.16868758925E+03 -0.15216715257E+04  0.16398095692E+04  0.50400001928E-02 0. -1.
</event>
<event>
 5   0  0.5177000E-08  0.3610512E+04  0.7818609E-02  0.8088088E-01
        1   -1    0    0  501    0  0.00000000000E+00  0.00000000000E+00  0.15594631198E+04  0.15594631198E+04  0.50400001928E-02 0.  1.
       -1   -1    0    0    0  501  0.00000000000E+00  0.00000000000E+00 -0.20897893937E+04  0.20897893937E+04  0.50400001928E-02 0. -1.
    10030    2    1    2    0    0  0.00000000000E+00  0.00000000000E+00 -0.53032627387E+03  0.36492525135E+04  0.36105121452E+04 0.  0.
        2    1    3    3  502    0 -0.60149333673E+03  0.82290451004E+03 -0.17711111199E+04  0.20434775912E+04  0.25500000920E-02 0. -1.
       -2    1    3    3    0  502  0.60149333673E+03 -0.82290451004E+03  0.12407848460E+04  0.16057749222E+04  0.25500000920E-02 0.  1.
</event>
<event>
 5   0  0.5177000E-08  0.3767160E+04  0.7818609E-02  0.8053239E-01
        1   -1    0    0  501    0  0.00000000000E+00  0.00000000000E+00  0.11900002692E+04  0.11900002692E+04  0.50400001928E-02 0. -1.
       -1   -1    0    0    0  501  0.00000000000E+00  0.00000000000E+00 -0.29814057293E+04  0.29814057293E+04  0.50400001928E-02 0.  1.
    10030    2    1    2    0    0  0.00000000000E+00  0.00000000000E+00 -0.17914054600E+04  0.41714059985E+04  0.37671600022E+04 0.  0.
        1    1    3    3  502    0  0.30581718118E+03 -0.15420838305E+03 -0.29466358102E+04  0.29664738279E+04  0.50400001928E-02 0.  1.
       -1    1    3    3    0  502 -0.30581718118E+03  0.15420838305E+03  0.11552303502E+04  0.12049321706E+04  0.50400001928E-02 0. -1.
</event>
<event>
 5   0  0.5177000E-08  0.3696246E+04  0.7818609E-02  0.8068794E-01
        1   -1    0    0  501    0  0.00000000000E+00  0.00000000000E+00  0.18099122027E+04  0.18099122028E+04  0.50400001928E-02 0.  1.
       -1   -1    0    0    0  501  0.00000000000E+00  0.00000000000E+00 -0.18871402184E+04  0.18871402184E+04  0.50400001928E-02 0. -1.
    10030    2    1    2    0    0  0.00000000000E+00  0.00000000000E+00 -0.77228015617E+02  0.36970524211E+04  0.36962457221E+04 0.  0.
        1    1    3    3  502    0 -0.70247908640E+02 -0.10225684903E+04  0.14995698044E+04  0.18163949693E+04  0.50400001928E-02 0.  1.
       -1    1    3    3    0  502  0.70247908640E+02  0.10225684903E+04 -0.15767978200E+04  0.18806574519E+04  0.50400001928E-02 0. -1.
</event>
<event>
 5   0  0.1666189E-07  0.3697444E+04  0.7818609E-02  0.8068529E-01
        2   -1    0    0  501    0  0.00000000000E+00  0.00000000000E+00  0.18168421352E+04  0.18168421352E+04  0.25500000920E-02 0.  1.
       -2   -1    0    0    0  501  0.00000000000E+00  0.00000000000E+00 -0.18811611728E+04  0.18811611728E+04  0.25500000920E-02 0. -1.
    10030    2    1    2    0    0  0.00000000000E+00  0.00000000000E+00 -0.64319037592E+02  0.36980033081E+04  0.36974439182E+04 0.  0.
        4    1    3    3  502    0 -0.12878558790E+04 -0.57143427888E+03  0.11649598984E+04  0.18281802641E+04  0.12699999809E+01 0.  1.
       -4    1    3    3    0  502  0.12878558790E+04  0.57143427888E+03 -0.12292789360E+04  0.18698230440E+04  0.12699999809E+01 0. -1.
</event>
<event>
 5   0  0.5177000E-08  0.3575354E+04  0.7818609E-02  0.8096161E-01
        1   -1    0    0  501    0  0.00000000000E+00  0.00000000000E+00  0.18446942803E+04  0.18446942803E+04  0.50400001928E-02 0.  1.
       -1   -1    0    0    0  501  0.00000000000E+00  0.00000000000E+00 -0.17324220315E+04  0.17324220315E+04  0.50400001928E-02 0. -1.
    10030    2    1    2    0    0  0.00000000000E+00  0.00000000000E+00  0.11227224877E+03  0.35771163118E+04  0.35753539755E+04 0.  0.
        3    1    3    3  502    0 -0.36915943731E+03  0.12238719363E+04  0.13064111686E+04  0.18277995947E+04  0.10100000352E+00 0.  1.
       -3    1    3    3    0  502  0.36915943731E+03 -0.12238719363E+04 -0.11941389199E+04  0.17493167171E+04  0.10100000352E+00 0. -1.
</event>
<event>
 5   0  0.5177000E-08  0.3709102E+04  0.7818609E-02  0.8065948E-01
        1   -1    0    0  501    0  0.00000000000E+00  0.00000000000E+00  0.17435359991E+04  0.17435359991E+04  0.50400001928E-02 0. -1.
       -1   -1    0    0    0  501  0.00000000000E+00  0.00000000000E+00 -0.19726349844E+04  0.19726349844E+04  0.50400001928E-02 0.  1.
    10030    2    1    2    0    0  0.00000000000E+00  0.00000000000E+00 -0.22909898524E+03  0.37161709835E+04  0.37091023757E+04 0.  0.
        1    1    3    3  502    0  0.54389589111E+03  0.10605008874E+04 -0.15381286073E+04  0.19458480118E+04  0.50400001928E-02 0.  1.
       -1    1    3    3    0  502 -0.54389589111E+03 -0.10605008874E+04  0.13090296221E+04  0.17703229717E+04  0.50400001928E-02 0. -1.
</event>
<event>
 5   0  0.5177000E-08  0.3736052E+04  0.7818609E-02  0.8060019E-01
        1   -1    0    0  501    0  0.00000000000E+00  0.00000000000E+00  0.23937053584E+04  0.23937053584E+04  0.50400001928E-02 0.  1.
       -1   -1    0    0    0  501  0.00000000000E+00  0.00000000000E+00 -0.14577909016E+04  0.14577909016E+04  0.50400001928E-02 0. -1.
    10030    2    1    2    0    0  0.00000000000E+00  0.00000000000E+00  0.93591445681E+03  0.38514962600E+04  0.37360524046E+04 0.  0.
        1    1    3    3  502    0  0.11358400912E+04  0.88042351606E+03 -0.76233607834E+03  0.16267865799E+04  0.50400001928E-02 0. -1.
       -1    1    3    3    0  502 -0.11358400912E+04 -0.88042351606E+03  0.16982505351E+04  0.22247096800E+04  0.50400001928E-02 0.  1.
</event>
<event>
 5   0  0.1666189E-07  0.3457284E+04  0.7818609E-02  0.8123988E-01
       -2   -1    0    0    0  501  0.00000000000E+00  0.00000000000E+00  0.12581791208E+04  0.12581791208E+04  0.25500000920E-02 0. -1.
        2   -1    0    0  501    0  0.00000000000E+00  0.00000000000E+00 -0.23750213923E+04  0.23750213923E+04  0.25500000920E-02 0.  1.
    10030    2    1    2    0    0  0.00000000000E+00  0.00000000000E+00 -0.11168422714E+04  0.36332005131E+04  0.34572835159E+04 0.  0.
        4    1    3    3  502    0 -0.94245501425E+03 -0.12410367433E+04  0.22785221792E+03  0.15749005994E+04  0.12699999809E+01 0. -1.
       -4    1    3    3    0  502  0.94245501425E+03  0.12410367433E+04 -0.13446944894E+04  0.20582999137E+04  0.12699999809E+01 0.  1.
</event>
<event>
 5   0  0.1587026E-07  0.3712976E+04  0.7818609E-02  0.8065092E-01
        2   -1    0    0  501    0  0.00000000000E+00  0.00000000000E+00  0.24894179341E+04  0.24894179341E+04  0.25500000920E-02 0.  1.
       -2   -1    0    0    0  501  0.00000000000E+00  0.00000000000E+00 -0.13844791681E+04  0.13844791681E+04  0.25500000920E-02 0. -1.
    10030    2    1    2    0    0  0.00000000000E+00  0.00000000000E+00  0.11049387660E+04  0.38738971022E+04  0.37129757717E+04 0.  0.
        3    1    3    3  502    0  0.16185687499E+04 -0.61905127728E+02 -0.39401346380E+03  0.16669864015E+04  0.10100000352E+00 0. -1.
       -3    1    3    3    0  502 -0.16185687499E+04  0.61905127728E+02  0.14989522298E+04  0.22069107006E+04  0.10100000352E+00 0.  1.
</event>
<event>
 5   0  0.1686284E-07  0.3650519E+04  0.7818609E-02  0.8079017E-01
        2   -1    0    0  501    0  0.00000000000E+00  0.00000000000E+00  0.23074800792E+04  0.23074800792E+04  0.25500000920E-02 0. -1.
       -2   -1    0    0    0  501  0.00000000000E+00  0.00000000000E+00 -0.14438143274E+04  0.14438143274E+04  0.25500000920E-02 0.  1.
    10030    2    1    2    0    0  0.00000000000E+00  0.00000000000E+00  0.86366575175E+03  0.37512944066E+04  0.36505193047E+04 0.  0.
        5    1    3    3  502    0  0.13072725475E+04 -0.12194856016E+04  0.81001977985E+03  0.19627177025E+04  0.46999998093E+01 0. -1.
       -5    1    3    3    0  502 -0.13072725475E+04  0.12194856016E+04  0.53645971905E+02  0.17885767041E+04  0.46999998093E+01 0.  1.
</event>
<event>
 5   0  0.1587026E-07  0.3683773E+04  0.7818609E-02  0.8071568E-01
       -2   -1    0    0    0  501  0.00000000000E+00  0.00000000000E+00  0.19413457521E+04  0.19413457521E+04  0.25500000920E-02 0.  1.
        2   -1    0    0  501    0  0.00000000000E+00  0.00000000000E+00 -0.17475225652E+04  0.17475225652E+04  0.25500000920E-02 0. -1.
    10030    2    1    2    0    0  0.00000000000E+00  0.00000000000E+00  0.19382318690E+03  0.36888683173E+04  0.36837727990E+04 0.  0.
        3    1    3    3  502    0 -0.64309621508E+03 -0.78591785061E+03 -0.14418680795E+04  0.17635824842E+04  0.10100000352E+00 0. -1.
       -3    1    3    3    0  502  0.64309621508E+03  0.78591785061E+03  0.16356912664E+04  0.19252858331E+04  0.10100000352E+00 0.  1.
</event>
<event>
 5   0  0.5181371E-08  0.3725140E+04  0.7818609E-02  0.8062413E-01
        1   -1    0    0  501    0  0.00000000000E+00  0.00000000000E+00  0.27575492113E+04  0.27575492113E+04  0.50400001928E-02 0.  1.
       -1   -1    0    0    0  501  0.00000000000E+00  0.00000000000E+00 -0.12580618323E+04  0.12580618323E+04  0.50400001928E-02 0. -1.
    10030    2    1    2    0    0  0.00000000000E+00  0.00000000000E+00  0.14994873790E+04  0.40156110436E+04  0.37251402194E+04 0.  0.
        5    1    3    3  502    0  0.51941969045E+03 -0.70619237609E+03  0.25212488847E+04  0.26693112437E+04  0.46999998093E+01 0.  1.
       -5    1    3    3    0  502 -0.51941969045E+03  0.70619237609E+03 -0.10217615057E+04  0.13462998000E+04  0.46999998093E+01 0. -1.
</event>
<event>
 5   0  0.1686284E-07  0.3641732E+04  0.7818609E-02  0.8080999E-01
       -2   -1    0    0    0  501  0.00000000000E+00  0.00000000000E+00  0.16929684658E+04  0.16929684658E+04  0.25500000920E-02 0.  1.
        2   -1    0    0  501    0  0.00000000000E+00  0.00000000000E+00 -0.19584258309E+04  0.19584258309E+04  0.25500000920E-02 0. -1.
    10030    2    1    2    0    0  0.00000000000E+00  0.00000000000E+00 -0.26545736505E+03  0.36513942967E+04  0.36417321013E+04 0.  0.
        5    1    3    3  502    0 -0.47188807479E+03 -0.48453111133E+03 -0.18278005108E+04  0.19489293344E+04  0.46999998093E+01 0. -1.
       -5    1    3    3    0  502  0.47188807479E+03  0.48453111133E+03  0.15623431458E+04  0.17024649624E+04  0.46999998093E+01 0.  1.
</event>
<event>
 5   0  0.1658770E-07  0.3693089E+04  0.7818609E-02  0.8069495E-01
       -2   -1    0    0    0  501  0.00000000000E+00  0.00000000000E+00  0.24343338232E+04  0.24343338232E+04  0.25500000920E-02 0. -1.
        2   -1    0    0  501    0  0.00000000000E+00  0.00000000000E+00 -0.14006819183E+04  0.14006819183E+04  0.25500000920E-02 0.  1.
    10030    2    1    2    0    0  0.00000000000E+00  0.00000000000E+00  0.10336519049E+04  0.38350157415E+04  0.36930894217E+04 0.  0.
        2    1    3    3  502    0  0.53223104875E+03  0.11393856202E+04  0.19209195384E+04  0.22959532560E+04  0.25500000920E-02 0. -1.
       -2    1    3    3    0  502 -0.53223104875E+03 -0.11393856202E+04 -0.88726763347E+03  0.15390624855E+04  0.25500000920E-02 0.  1.
</event>
<event>
 5   0  0.1686284E-07  0.3695642E+04  0.7818609E-02  0.8068928E-01
       -2   -1    0    0    0  501  0.00000000000E+00  0.00000000000E+00  0.24536146637E+04  0.24536146637E+04  0.25500000920E-02 0.  1.
        2   -1    0    0  501    0  0.00000000000E+00  0.00000000000E+00 -0.13915972095E+04  0.13915972095E+04  0.25500000920E-02 0. -1.
    10030    2    1    2    0    0  0.00000000000E+00  0.00000000000E+00  0.10620174542E+04  0.38452118732E+04  0.36956424714E+04 0.  0.
        5    1    3    3  502    0  0.51461519826E+03 -0.38813871167E+03 -0.12708231632E+04  0.14249540568E+04  0.46999998093E+01 0. -1.
       -5    1    3    3    0  502 -0.51461519826E+03  0.38813871167E+03  0.23328406174E+04  0.24202578164E+04  0.46999998093E+01 0.  1.
</event>
<event>
 5   0  0.5177000E-08  0.3708850E+04  0.7818609E-02  0.8066003E-01
       -1   -1    0    0    0  501  0.00000000000E+00  0.00000000000E+00  0.23368741569E+04  0.23368741569E+04  0.50400001928E-02 0. -1.
        1   -1    0    0  501    0  0.00000000000E+00  0.00000000000E+00 -0.14715776464E+04  0.14715776464E+04  0.50400001928E-02 0.  1.
    10030    2    1    2    0    0  0.00000000000E+00  0.00000000000E+00  0.86529651044E+03  0.38084518033E+04  0.37088498334E+04 0.  0.
        1    1    3    3  502    0  0.23329132674E+03  0.54262769216E+03  0.22377014628E+04  0.23143416973E+04  0.50400001928E-02 0. -1.
       -1    1    3    3    0  502 -0.23329132674E+03 -0.54262769216E+03 -0.13724049523E+04  0.14941101059E+04  0.50400001928E-02 0.  1.
</event>
<event>
 5   0  0.1658770E-07  0.3728837E+04  0.7818609E-02  0.8061601E-01
       -2   -1    0    0    0  501  0.00000000000E+00  0.00000000000E+00  0.24962739541E+04  0.24962739541E+04  0.25500000920E-02 0.  1.
        2   -1    0    0  501    0  0.00000000000E+00  0.00000000000E+00 -0.13924980726E+04  0.13924980726E+04  0.25500000920E-02 0. -1.
    10030    2    1    2    0    0  0.00000000000E+00  0.00000000000E+00  0.11037758815E+04  0.38887720267E+04  0.37288371752E+04 0.  0.
        2    1    3    3  502    0 -0.11442263272E+04  0.35773241884E+03  0.20410076226E+04  0.23670527005E+04  0.25500000920E-02 0.  1.
       -2    1    3    3    0  502  0.11442263272E+04 -0.35773241884E+03 -0.93723174115E+03  0.15217193263E+04  0.25500000920E-02 0. -1.
</event>
<event>
 5   0  0.5181371E-08  0.3752117E+04  0.7818609E-02  0.8056509E-01
        1   -1    0    0  501    0  0.00000000000E+00  0.00000000000E+00  0.10379059733E+04  0.10379059733E+04  0.50400001928E-02 0.  1.
       -1   -1    0    0    0  501  0.00000000000E+00  0.00000000000E+00 -0.33910538561E+04  0.33910538561E+04  0.50400001928E-02 0. -1.
    10030    2    1    2    0    0  0.00000000000E+00  0.00000000000E+00 -0.23531478828E+04  0.44289598295E+04  0.37521167643E+04 0.  0.
        5    1    3    3  502    0 -0.72468996586E+03 -0.40926191540E+03  0.80806167336E+03  0.11600244049E+04  0.46999998093E+01 0.  1.
       -5    1    3    3    0  502  0.72468996586E+03  0.40926191540E+03 -0.31612095562E+04  0.32689354246E+04  0.46999998093E+01 0. -1.
</event>
<event>
 5   0  0.5177000E-08  0.3681173E+04  0.7818609E-02  0.8072147E-01
        1   -1    0    0  501    0  0.00000000000E+00  0.00000000000E+00  0.19937305925E+04  0.19937305925E+04  0.50400001928E-02 0. -1.
       -1   -1    0    0    0  501  0.00000000000E+00  0.00000000000E+00 -0.16992059225E+04  0.16992059225E+04  0.50400001928E-02 0.  1.
    10030    2    1    2    0    0  0.00000000000E+00  0.00000000000E+00  0.29452466994E+03  0.36929365150E+04  0.36811730906E+04 0.  0.
        3    1    3    3  502    0 -0.14271717985E+04 -0.73388717489E+03 -0.75692194663E+03  0.17743563823E+04  0.10100000352E+00 0.  1.
       -3    1    3    3    0  502  0.14271717985E+04  0.73388717489E+03  0.10514466166E+04  0.19185801327E+04  0.10100000352E+00 0. -1.
</event>
<event>
 5   0  0.1666189E-07  0.3686267E+04  0.7818609E-02  0.8071012E-01
       -2   -1    0    0    0  501  0.00000000000E+00  0.00000000000E+00  0.17930886395E+04  0.17930886395E+04  0.25500000920E-02 0.  1.
        2   -1    0    0  501    0  0.00000000000E+00  0.00000000000E+00 -0.18945748486E+04  0.18945748486E+04  0.25500000920E-02 0. -1.
    10030    2    1    2    0    0  0.00000000000E+00  0.00000000000E+00 -0.10148620909E+03  0.36876634881E+04  0.36862667498E+04 0.  0.
        4    1    3    3  502    0 -0.62500826666E+02 -0.10578007420E+04  0.14579033285E+04  0.18023130947E+04  0.12699999809E+01 0.  1.
       -4    1    3    3    0  502  0.62500826666E+02  0.10578007420E+04 -0.15593895376E+04  0.18853503934E+04  0.12699999809E+01 0. -1.
</event>
<event>
 5   0  0.5181371E-08  0.3705392E+04  0.7818609E-02  0.8066768E-01
       -1   -1    0    0    0  501  0.00000000000E+00  0.00000000000E+00  0.14457202982E+04  0.14457202982E+04  0.50400001928E-02 0.  1.
        1   -1    0    0  501    0  0.00000000000E+00  0.00000000000E+00 -0.23742370248E+04  0.23742370248E+04  0.50400001928E-02 0. -1.
    10030    2    1    2    0    0  0.00000000000E+00  0.00000000000E+00 -0.92851672664E+03  0.38199573230E+04  0.37053921032E+04 0.  0.
        5    1    3    3  502    0 -0.17983098130E+04 -0.69654743634E+02 -0.10548088601E+02  0.17996953407E+04  0.46999998093E+01 0.  1.
       -5    1    3    3    0  502  0.17983098130E+04  0.69654743634E+02 -0.91796863804E+03  0.20202619824E+04  0.46999998093E+01 0. -1.
</event>
<event>
 5   0  0.5177000E-08  0.3718295E+04  0.7818609E-02  0.8063919E-01
       -1   -1    0    0    0  501  0.00000000000E+00  0.00000000000E+00  0.16935013061E+04  0.16935013061E+04  0.50400001928E-02 0.  1.
        1   -1    0    0  501    0  0.00000000000E+00  0.00000000000E+00 -0.20409962662E+04  0.20409962662E+04  0.50400001928E-02 0. -1.
    10030    2    1    2    0    0  0.00000000000E+00  0.00000000000E+00 -0.34749496006E+03  0.37344975723E+04  0.37182952237E+04 0.  0.
        1    1    3    3  502    0  0.28883414947E+03 -0.18360591236E+04 -0.13006576558E+03  0.18631842031E+04  0.50400001928E-02 0.  1.
       -1    1    3    3    0  502 -0.28883414947E+03  0.18360591236E+04 -0.21742919448E+03  0.18713133692E+04  0.50400001928E-02 0. -1.
</event>
<event>
 5   0  0.5181371E-08  0.3697203E+04  0.7818609E-02  0.8068582E-01
       -1   -1    0    0    0  501  0.00000000000E+00  0.00000000000E+00  0.14698628712E+04  0.14698628712E+04  0.50400001928E-02 0. -1.
        1   -1    0    0  501    0  0.00000000000E+00  0.00000000000E+00 -0.23249297906E+04  0.23249297906E+04  0.50400001928E-02 0.  1.
    10030    2    1    2    0    0  0.00000000000E+00  0.00000000000E+00 -0.85506691948E+03  0.37947926618E+04  0.36972032551E+04 0.  0.
        5    1    3    3  502    0  0.13688353682E+04  0.60838461224E+03  0.68432516963E+03  0.16468652432E+04  0.46999998093E+01 0.  1.
       -5    1    3    3    0  502 -0.13688353682E+04 -0.60838461224E+03 -0.15393920891E+04  0.21479274186E+04  0.46999998093E+01 0. -1.
</event>
<event>
 5   0  0.1587026E-07  0.3735126E+04  0.7818609E-02  0.8060222E-01
        2   -1    0    0  501    0  0.00000000000E+00  0.00000000000E+00  0.21395697393E+04  0.21395697393E+04  0.25500000920E-02 0.  1.
       -2   -1    0    0    0  501  0.00000000000E+00  0.00000000000E+00 -0.16301371672E+04  0.16301371672E+04  0.25500000920E-02 0. -1.
    10030    2    1    2    0    0  0.00000000000E+00  0.00000000000E+00  0.50943257213E+03  0.37697069064E+04  0.37351263185E+04 0.  0.
        3    1    3    3  502    0  0.89811293381E+03 -0.86017836378E+03  0.16609134315E+04  0.20748848393E+04  0.10100000352E+00 0.  1.
       -3    1    3    3    0  502 -0.89811293381E+03  0.86017836378E+03 -0.11514808594E+04  0.16948220671E+04  0.10100000352E+00 0. -1.
</event>
<event>
 5   0  0.5177000E-08  0.3635350E+04  0.7818609E-02  0.8082442E-01
        1   -1    0    0  501    0  0.00000000000E+00  0.00000000000E+00  0.25576316013E+04  0.25576316013E+04  0.50400001928E-02 0. -1.
       -1   -1    0    0    0  501  0.00000000000E+00  0.00000000000E+00 -0.12917973773E+04  0.12917973773E+04  0.50400001928E-02 0.  1.
    10030    2    1    2    0    0  0.00000000000E+00  0.00000000000E+00  0.12658342239E+04  0.38494289786E+04  0.36353496639E+04 0.  0.
        4    1    3    3  502    0  0.92730862252E+03  0.11202130193E+04 -0.52178663984E+03  0.15450053076E+04  0.12699999809E+01 0.  1.
       -4    1    3    3    0  502 -0.92730862252E+03 -0.11202130193E+04  0.17876208638E+04  0.23044236710E+04  0.12699999809E+01 0. -1.
</event>
<event>
 5   0  0.5177000E-08  0.3779786E+04  0.7818609E-02  0.8050507E-01
       -3   -1    0    0    0  501  0.00000000000E+00  0.00000000000E+00  0.14653761652E+04  0.14653761687E+04  0.10100000352E+00 0.  1.
        3   -1    0    0  501    0  0.00000000000E+00  0.00000000000E+00 -0.24373912526E+04  0.24373912547E+04  0.10100000352E+00 0. -1.
    10030    2    1    2    0    0  0.00000000000E+00  0.00000000000E+00 -0.97201508733E+03  0.39027674234E+04  0.37797857387E+04 0.  0.
        1    1    3    3  502    0 -0.16083767382E+04 -0.46046226257E+03  0.42168195764E+03  0.17253164640E+04  0.50400001928E-02 0.  1.
       -1    1    3    3    0  502  0.16083767382E+04  0.46046226257E+03 -0.13936970450E+04  0.21774509594E+04  0.50400001928E-02 0. -1.
</event>
<event>
 5   0  0.1686284E-07  0.3698236E+04  0.7818609E-02  0.8068353E-01
        2   -1    0    0  501    0  0.00000000000E+00  0.00000000000E+00  0.10639072033E+04  0.10639072033E+04  0.25500000920E-02 0. -1.
       -2   -1    0    0    0  501  0.00000000000E+00  0.00000000000E+00 -0.32138496976E+04  0.32138496976E+04  0.25500000920E-02 0.  1.
    10030    2    1    2    0    0  0.00000000000E+00  0.00000000000E+00 -0.21499424943E+04  0.42777569008E+04  0.36982362518E+04 0.  0.
        5    1    3    3  502    0 -0.50250640671E+03  0.17784528770E+04 -0.11463541792E+04  0.21747545421E+04  0.46999998093E+01 0.  1.
       -5    1    3    3    0  502  0.50250640671E+03 -0.17784528770E+04 -0.10035883151E+04  0.21030023587E+04  0.46999998093E+01 0. -1.
</event>
<event>
 5   0  0.5181371E-08  0.3694686E+04  0.7818609E-02  0.8069140E-01
        1   -1    0    0  501    0  0.00000000000E+00  0.00000000000E+00  0.21662953644E+04  0.21662953644E+04  0.50400001928E-02 0. -1.
       -1   -1    0    0    0  501  0.00000000000E+00  0.00000000000E+00 -0.15753514802E+04  0.15753514802E+04  0.50400001928E-02 0.  1.
    10030    2    1    2    0    0  0.00000000000E+00  0.00000000000E+00  0.59094388415E+03  0.37416468446E+04  0.36946862432E+04 0.  0.
        5    1    3    3  502    0 -0.26273031125E+03  0.16443820496E+04 -0.51446523289E+03  0.17429045032E+04  0.46999998093E+01 0.  1.
       -5    1    3    3    0  502  0.26273031125E+03 -0.16443820496E+04  0.11054091170E+04  0.19987423414E+04  0.46999998093E+01 0. -1.
</event>
<event>
 5   0  0.1666189E-07  0.3701562E+04  0.7818609E-02  0.8067616E-01
        2   -1    0    0  501    0  0.00000000000E+00  0.00000000000E+00  0.17700352533E+04  0.17700352533E+04  0.25500000920E-02 0.  1.
       -2   -1    0    0    0  501  0.00000000000E+00  0.00000000000E+00 -0.19352103684E+04  0.19352103684E+04  0.25500000920E-02 0. -1.
    10030    2    1    2    0    0  0.00000000000E+00  0.00000000000E+00 -0.16517511509E+03  0.37052456218E+04  0.37015621431E+04 0.  0.
        4    1    3    3  502    0  0.94712347105E+03  0.98548416224E+03  0.11665192113E+04  0.17969392273E+04  0.12699999809E+01 0.  1.
       -4    1    3    3    0  502 -0.94712347105E+03 -0.98548416224E+03 -0.13316943264E+04  0.19083063945E+04  0.12699999809E+01 0. -1.
</event>
<event>
 5   0  0.5177000E-08  0.3739129E+04  0.7818609E-02  0.8059345E-01
       -1   -1    0    0    0  501  0.00000000000E+00  0.00000000000E+00  0.13286455723E+04  0.13286455723E+04  0.50400001928E-02 0.  1.
        1   -1    0    0  501    0  0.00000000000E+00  0.00000000000E+00 -0.26307030017E+04  0.26307030017E+04  0.50400001928E-02 0. -1.
    10030    2    1    2    0    0  0.00000000000E+00  0.00000000000E+00 -0.13020574295E+04  0.39593485740E+04  0.37391292544E+04 0.  0.
        4    1    3    3  502    0 -0.85090526410E+03  0.16485055182E+04 -0.40573925969E+03  0.18990092606E+04  0.12699999809E+01 0. -1.
       -4    1    3    3    0  502  0.85090526410E+03 -0.16485055182E+04 -0.89631816978E+03  0.20603393134E+04  0.12699999809E+01 0.  1.
</event>
<event>
 5   0  0.5177000E-08  0.3688162E+04  0.7818609E-02  0.8070590E-01
        1   -1    0    0  501    0  0.00000000000E+00  0.00000000000E+00  0.31266965507E+04  0.31266965507E+04  0.50400001928E-02 0. -1.
       -1   -1    0    0    0  501  0.00000000000E+00  0.00000000000E+00 -0.10876129402E+04  0.10876129402E+04  0.50400001928E-02 0.  1.
    10030    2    1    2    0    0  0.00000000000E+00  0.00000000000E+00  0.20390836105E+04  0.42143094909E+04  0.36881624848E+04 0.  0.
        2    1    3    3  502    0  0.10536980305E+04 -0.21905586618E+03  0.27306208681E+04  0.29350562750E+04  0.25500000920E-02 0. -1.
       -2    1    3    3    0  502 -0.10536980305E+04  0.21905586618E+03 -0.69153725756E+03  0.12792532159E+04  0.25500000920E-02 0.  1.
</event>
<event>
 5   0  0.5177000E-08  0.3695263E+04  0.7818609E-02  0.8069012E-01
        1   -1    0    0  501    0  0.00000000000E+00  0.00000000000E+00  0.22862351542E+04  0.22862351542E+04  0.50400001928E-02 0. -1.
       -1   -1    0    0    0  501  0.00000000000E+00  0.00000000000E+00 -0.14931717850E+04  0.14931717850E+04  0.50400001928E-02 0.  1.
    10030    2    1    2    0    0  0.00000000000E+00  0.00000000000E+00  0.79306336920E+03  0.37794069393E+04  0.36952628195E+04 0.  0.
        3    1    3    3  502    0  0.86546551668E+03  0.57585494210E+01 -0.12730231968E+04  0.15393673347E+04  0.10100000352E+00 0.  1.
       -3    1    3    3    0  502 -0.86546551668E+03 -0.57585494210E+01  0.20660865660E+04  0.22400396045E+04  0.10100000352E+00 0. -1.
</event>
<event>
 5   0  0.1587026E-07  0.3698295E+04  0.7818609E-02  0.8068340E-01
       -2   -1    0    0    0  501  0.00000000000E+00  0.00000000000E+00  0.19770166061E+04  0.19770166061E+04  0.25500000920E-02 0. -1.
        2   -1    0    0  501    0  0.00000000000E+00  0.00000000000E+00 -0.17295488437E+04  0.17295488437E+04  0.25500000920E-02 0.  1.
    10030    2    1    2    0    0  0.00000000000E+00  0.00000000000E+00  0.24746776247E+03  0.37065654498E+04  0.36982951667E+04 0.  0.
        3    1    3    3  502    0  0.16871565998E+04  0.52199459056E+03 -0.42555287147E+03  0.18166097549E+04  0.10100000352E+00 0.  1.
       -3    1    3    3    0  502 -0.16871565998E+04 -0.52199459056E+03  0.67302063395E+03  0.18899556949E+04  0.10100000352E+00 0. -1.
</event>
<event>
 5   0  0.5177000E-08  0.3691462E+04  0.7818609E-02  0.8069857E-01
        1   -1    0    0  501    0  0.00000000000E+00  0.00000000000E+00  0.20367533467E+04  0.20367533467E+04  0.50400001928E-02 0.  1.
       -1   -1    0    0    0  501  0.00000000000E+00  0.00000000000E+00 -0.16726238835E+04  0.16726238836E+04  0.50400001928E-02 0. -1.
    10030    2    1    2    0    0  0.00000000000E+00  0.00000000000E+00  0.36412946320E+03  0.37093772303E+04  0.36914616578E+04 0.  0.
        2    1    3    3  502    0  0.10155283104E+04  0.75777710232E+03  0.15306655439E+04  0.19870734494E+04  0.25500000920E-02 0.  1.
       -2    1    3    3    0  502 -0.10155283104E+04 -0.75777710232E+03 -0.11665360807E+04  0.17223037809E+04  0.25500000920E-02 0. -1.
</event>
<event>
 5   0  0.5177000E-08  0.3686035E+04  0.7818609E-02  0.8071064E-01
       -1   -1    0    0    0  501  0.00000000000E+00  0.00000000000E+00  0.10714256504E+04  0.10714256504E+04  0.50400001928E-02 0.  1.
        1   -1    0    0  501    0  0.00000000000E+00  0.00000000000E+00 -0.31702743139E+04  0.31702743139E+04  0.50400001928E-02 0. -1.
    10030    2    1    2    0    0  0.00000000000E+00  0.00000000000E+00 -0.20988486636E+04  0.42416999643E+04  0.36860348445E+04 0.  0.
        2    1    3    3  502    0  0.14436035603E+04  0.47837805158E+03 -0.22474617792E+04  0.27136545927E+04  0.25500000920E-02 0. -1.
       -2    1    3    3    0  502 -0.14436035603E+04 -0.47837805158E+03  0.14861311567E+03  0.15280453716E+04  0.25500000920E-02 0.  1.
</event>
<event>
 5   0  0.1686284E-07  0.3484128E+04  0.7818609E-02  0.8117562E-01
       -2   -1    0    0    0  501  0.00000000000E+00  0.00000000000E+00  0.11633331234E+04  0.11633331234E+04  0.25500000920E-02 0.  1.
        2   -1    0    0  501    0  0.00000000000E+00  0.00000000000E+00 -0.26087000441E+04  0.26087000441E+04  0.25500000920E-02 0. -1.
    10030    2    1    2    0    0  0.00000000000E+00  0.00000000000E+00 -0.14453669206E+04  0.37720331675E+04  0.34841281092E+04 0.  0.
        5    1    3    3  502    0  0.62099758905E+03 -0.49479506042E+03 -0.24013953265E+04  0.25292650635E+04  0.46999998093E+01 0. -1.
       -5    1    3    3    0  502 -0.62099758905E+03  0.49479506042E+03  0.95602840587E+03  0.12427681040E+04  0.46999998093E+01 0.  1.
</event>
<event>
 5   0  0.1666189E-07  0.3691072E+04  0.7818609E-02  0.8069943E-01
       -2   -1    0    0    0  501  0.00000000000E+00  0.00000000000E+00  0.13263168040E+04  0.13263168040E+04  0.25500000920E-02 0.  1.
        2   -1    0    0  501    0  0.00000000000E+00  0.00000000000E+00 -0.25680163874E+04  0.25680163874E+04  0.25500000920E-02 0. -1.
    10030    2    1    2    0    0  0.00000000000E+00  0.00000000000E+00 -0.12416995835E+04  0.38943331914E+04  0.36910720868E+04 0.  0.
        4    1    3    3  502    0  0.31247333547E+03 -0.15971365166E+04  0.29743370929E+03  0.16543739186E+04  0.12699999809E+01 0.  1.
       -4    1    3    3    0  502 -0.31247333547E+03  0.15971365166E+04 -0.15391332927E+04  0.22399592728E+04  0.12699999809E+01 0. -1.
</event>
<event>
 5   0  0.5177000E-08  0.3700830E+04  0.7818609E-02  0.8067778E-01
        1   -1    0    0  501    0  0.00000000000E+00  0.00000000000E+00  0.27889237949E+04  0.27889237949E+04  0.50400001928E-02 0. -1.
       -1   -1    0    0    0  501  0.00000000000E+00  0.00000000000E+00 -0.12277261934E+04  0.12277261934E+04  0.50400001928E-02 0.  1.
    10030    2    1    2    0    0  0.00000000000E+00  0.00000000000E+00  0.15611976015E+04  0.40166499883E+04  0.37008295256E+04 0.  0.
        2    1    3    3  502    0  0.62074899459E+03  0.52648137924E+03 -0.10229970526E+04  0.13073006260E+04  0.25500000920E-02 0.  1.
       -2    1    3    3    0  502 -0.62074899459E+03 -0.52648137924E+03  0.25841946541E+04  0.27093493623E+04  0.25500000920E-02 0. -1.
</event>
<event>
 5   0  0.5177000E-08  0.3601396E+04  0.7818609E-02  0.8090172E-01
        1   -1    0    0  501    0  0.00000000000E+00  0.00000000000E+00  0.15647251876E+04  0.15647251876E+04  0.50400001928E-02 0.  1.
       -1   -1    0    0    0  501  0.00000000000E+00  0.00000000000E+00 -0.20722576480E+04  0.20722576480E+04  0.50400001928E-02 0. -1.
    10030    2    1    2    0    0  0.00000000000E+00  0.00000000000E+00 -0.50753246042E+03  0.36369828356E+04  0.36013962498E+04 0.  0.
        3    1    3    3  502    0  0.17839535905E+04  0.10413725309E+03 -0.47772035746E+03  0.18497436932E+04  0.10100000352E+00 0.  1.
       -3    1    3    3    0  502 -0.17839535905E+04 -0.10413725309E+03 -0.29812102963E+02  0.17872391424E+04  0.10100000352E+00 0. -1.
</event>
<event>
 5   0  0.5177000E-08  0.3694785E+04  0.7818609E-02  0.8069119E-01
        1   -1    0    0  501    0  0.00000000000E+00  0.00000000000E+00  0.25183681596E+04  0.25183681596E+04  0.50400001928E-02 0.  1.
       -1   -1    0    0    0  501  0.00000000000E+00  0.00000000000E+00 -0.13551867057E+04  0.13551867057E+04  0.50400001928E-02 0. -1.
    10030    2    1    2    0    0  0.00000000000E+00  0.00000000000E+00  0.11631814539E+04  0.38735548653E+04  0.36947850005E+04 0.  0.
        3    1    3    3  502    0  0.14899682505E+04  0.25255261686E+03  0.16955803187E+04  0.22712949696E+04  0.10100000352E+00 0.  1.
       -3    1    3    3    0  502 -0.14899682505E+04 -0.25255261686E+03 -0.53239886480E+03  0.16022598957E+04  0.10100000352E+00 0. -1.
</event>
<event>
 5   0  0.1658770E-07  0.3697360E+04  0.7818609E-02  0.8068547E-01
        2   -1    0    0  501    0  0.00000000000E+00  0.00000000000E+00  0.26842627230E+04  0.26842627230E+04  0.25500000920E-02 0.  1.
       -2   -1    0    0    0  501  0.00000000000E+00  0.00000000000E+00 -0.12732054113E+04  0.12732054113E+04  0.25500000920E-02 0. -1.
    10030    2    1    2    0    0  0.00000000000E+00  0.00000000000E+00  0.14110573117E+04  0.39574681342E+04  0.36973600442E+04 0.  0.
        2    1    3    3  502    0 -0.17656565051E+03  0.37296644811E+03 -0.12232813866E+04  0.12910061004E+04  0.25500000920E-02 0. -1.
       -2    1    3    3    0  502  0.17656565051E+03 -0.37296644811E+03  0.26343386983E+04  0.26664620338E+04  0.25500000920E-02 0.  1.
</event>
<event>
 5   0  0.5177000E-08  0.3680009E+04  0.7818609E-02  0.8072407E-01
       -1   -1    0    0    0  501  0.00000000000E+00  0.00000000000E+00  0.14096707080E+04  0.14096707080E+04  0.50400001928E-02 0. -1.
        1   -1    0    0  501    0  0.00000000000E+00  0.00000000000E+00 -0.24017072898E+04  0.24017072898E+04  0.50400001928E-02 0.  1.
    10030    2    1    2    0    0  0.00000000000E+00  0.00000000000E+00 -0.99203658179E+03  0.38113779978E+04  0.36800089216E+04 0.  0.
        1    1    3    3  502    0  0.18294077318E+04 -0.17416186632E+03 -0.40024331762E+03  0.18807604095E+04  0.50400001928E-02 0. -1.
       -1    1    3    3    0  502 -0.18294077318E+04  0.17416186632E+03 -0.59179326416E+03  0.19306175883E+04  0.50400001928E-02 0.  1.
</event>
<event>
 5   0  0.1686284E-07  0.3726980E+04  0.7818609E-02  0.8062009E-01
       -2   -1    0    0    0  501  0.00000000000E+00  0.00000000000E+00  0.18558217490E+04  0.18558217490E+04  0.25500000920E-02 0.  1.
        2   -1    0    0  501    0  0.00000000000E+00  0.00000000000E+00 -0.18711901492E+04  0.18711901492E+04  0.25500000920E-02 0. -1.
    10030    2    1    2    0    0  0.00000000000E+00  0.00000000000E+00 -0.15368400200E+02  0.37270118983E+04  0.37269802122E+04 0.  0.
        5    1    3    3  502    0  0.18515152173E+04 -0.12268495644E+03 -0.17918809880E+03  0.18642131485E+04  0.46999998093E+01 0.  1.
       -5    1    3    3    0  502 -0.18515152173E+04  0.12268495644E+03  0.16381969860E+03  0.18627987498E+04  0.46999998093E+01 0. -1.
</event>
<event>
 5   0  0.5177000E-08  0.3685541E+04  0.7818609E-02  0.8071174E-01
       -1   -1    0    0    0  501  0.00000000000E+00  0.00000000000E+00  0.14658623398E+04  0.14658623398E+04  0.50400001928E-02 0.  1.
        1   -1    0    0  501    0  0.00000000000E+00  0.00000000000E+00 -0.23165903737E+04  0.23165903737E+04  0.50400001928E-02 0. -1.
    10030    2    1    2    0    0  0.00000000000E+00  0.00000000000E+00 -0.85072803394E+03  0.37824527135E+04  0.36855407124E+04 0.  0.
        3    1    3    3  502    0 -0.12312611267E+03 -0.18377717642E+04 -0.48375902858E+03  0.19043602350E+04  0.10100000352E+00 0. -1.
       -3    1    3    3    0  502  0.12312611267E+03  0.18377717642E+04 -0.36696900536E+03  0.18780924785E+04  0.10100000352E+00 0.  1.
</event>
<event>
 5   0  0.1658770E-07  0.3697070E+04  0.7818609E-02  0.8068611E-01
        2   -1    0    0  501    0  0.00000000000E+00  0.00000000000E+00  0.22962917894E+04  0.22962917894E+04  0.25500000920E-02 0. -1.
       -2   -1    0    0    0  501  0.00000000000E+00  0.00000000000E+00 -0.14880869375E+04  0.14880869375E+04  0.25500000920E-02 0.  1.
    10030    2    1    2    0    0  0.00000000000E+00  0.00000000000E+00  0.80820485199E+03  0.37843787269E+04  0.36970700921E+04 0.  0.
        2    1    3    3  502    0  0.80590014560E+03  0.47578887991E+03 -0.12276679386E+04  0.15437029087E+04  0.25500000920E-02 0.  1.
       -2    1    3    3    0  502 -0.80590014560E+03 -0.47578887991E+03  0.20358727906E+04  0.22406758182E+04  0.25500000920E-02 0. -1.
</event>
<event>
 5   0  0.1686284E-07  0.3697676E+04  0.7818609E-02  0.8068477E-01
       -2   -1    0    0    0  501  0.00000000000E+00  0.00000000000E+00  0.13037825258E+04  0.13037825258E+04  0.25500000920E-02 0. -1.
        2   -1    0    0  501    0  0.00000000000E+00  0.00000000000E+00 -0.26217578994E+04  0.26217578994E+04  0.25500000920E-02 0.  1.
    10030    2    1    2    0    0  0.00000000000E+00  0.00000000000E+00 -0.13179753736E+04  0.39255404252E+04  0.36976761005E+04 0.  0.
        5    1    3    3  502    0  0.11880754949E+04  0.10291234744E+04 -0.16924015900E+04  0.23097323955E+04  0.46999998093E+01 0.  1.
       -5    1    3    3    0  502 -0.11880754949E+04 -0.10291234744E+04  0.37442621643E+03  0.16158080296E+04  0.46999998093E+01 0. -1.
</event>
<event>
 5   0  0.5177000E-08  0.3699390E+04  0.7818609E-02  0.8068097E-01
       -1   -1    0    0    0  501  0.00000000000E+00  0.00000000000E+00  0.23445750741E+04  0.23445750741E+04  0.50400001928E-02 0. -1.
        1   -1    0    0  501    0  0.00000000000E+00  0.00000000000E+00 -0.14592714403E+04  0.14592714403E+04  0.50400001928E-02 0.  1.
    10030    2    1    2    0    0  0.00000000000E+00  0.00000000000E+00  0.88530363386E+03  0.38038465144E+04  0.36993899201E+04 0.  0.
        1    1    3    3  502    0 -0.58078348451E+03 -0.15763485696E+04  0.12385804547E+04  0.20871669342E+04  0.50400001928E-02 0. -1.
       -1    1    3    3    0  502  0.58078348451E+03  0.15763485696E+04 -0.35327682079E+03  0.17166795801E+04  0.50400001928E-02 0.  1.
</event>
<event>
 5   0  0.5177000E-08  0.3688268E+04  0.7818609E-02  0.8070567E-01
        1   -1    0    0  501    0  0.00000000000E+00  0.00000000000E+00  0.11605949293E+04  0.11605949293E+04  0.50400001928E-02 0. -1.
       -1   -1    0    0    0  501  0.00000000000E+00  0.00000000000E+00 -0.29302466117E+04  0.29302466117E+04  0.50400001928E-02 0.  1.
    10030    2    1    2    0    0  0.00000000000E+00  0.00000000000E+00 -0.17696516824E+04  0.40908415410E+04  0.36882675386E+04 0.  0.
        4    1    3    3  502    0 -0.18430216518E+04 -0.63660028948E+02 -0.87727563040E+03  0.20421546349E+04  0.12699999809E+01 0.  1.
       -4    1    3    3    0  502  0.18430216518E+04  0.63660028948E+02 -0.89237605200E+03  0.20486869061E+04  0.12699999809E+01 0. -1.
</event>
<event>
 5   0  0.1587026E-07  0.3658569E+04  0.7818609E-02  0.8077206E-01
        2   -1    0    0  501    0  0.00000000000E+00  0.00000000000E+00  0.11366360524E+04  0.11366360524E+04  0.25500000920E-02 0. -1.
       -2   -1    0    0    0  501  0.00000000000E+00  0.00000000000E+00 -0.29440221390E+04  0.29440221390E+04  0.25500000920E-02 0.  1.
    10030    2    1    2    0    0  0.00000000000E+00  0.00000000000E+00 -0.18073860866E+04  0.40806581914E+04  0.36585689564E+04 0.  0.
        3    1    3    3  502    0  0.91576196280E+03  0.11741800315E+03  0.85770005752E+03  0.12601810818E+04  0.10100000352E+00 0. -1.
       -3    1    3    3    0  502 -0.91576196280E+03 -0.11741800315E+03 -0.26650861441E+04  0.28204771096E+04  0.10100000352E+00 0.  1.
</event>
<event>
 5   0  0.5181371E-08  0.3701367E+04  0.7818609E-02  0.8067659E-01
        1   -1    0    0  501    0  0.00000000000E+00  0.00000000000E+00  0.16917768012E+04  0.16917768012E+04  0.50400001928E-02 0.  1.
       -1   -1    0    0    0  501  0.00000000000E+00  0.00000000000E+00 -0.20245160208E+04  0.20245160208E+04  0.50400001928E-02 0. -1.
    10030    2    1    2    0    0  0.00000000000E+00  0.00000000000E+00 -0.33273921963E+03  0.37162928221E+04  0.37013669030E+04 0.  0.
        5    1    3    3  502    0  0.12764573135E+04 -0.13398217914E+04 -0.18973234556E+03  0.18602381995E+04  0.46999998093E+01 0. -1.
       -5    1    3    3    0  502 -0.12764573135E+04  0.13398217914E+04 -0.14300687407E+03  0.18560546226E+04  0.46999998093E+01 0.  1.
</event>
<event>
 5   0  0.1558258E-07  0.3692141E+04  0.7818609E-02  0.8069706E-01
       -2   -1    0    0    0  501  0.00000000000E+00  0.00000000000E+00  0.17363189650E+04  0.17363189650E+04  0.25500000920E-02 0. -1.
        2   -1    0    0  501    0  0.00000000000E+00  0.00000000000E+00 -0.19627592483E+04  0.19627592483E+04  0.25500000920E-02 0.  1.
    10030    2    1    2    0    0  0.00000000000E+00  0.00000000000E+00 -0.22644028332E+03  0.36990782132E+04  0.36921409000E+04 0.  0.
        1    1    3    3  502    0 -0.72998350545E+03 -0.11730892065E+04  0.11134012809E+04  0.17744510748E+04  0.50400001928E-02 0. -1.
       -1    1    3    3    0  502  0.72998350545E+03  0.11730892065E+04 -0.13398415642E+04  0.19246271384E+04  0.50400001928E-02 0.  1.
</event>
<event>
 5   0  0.5177000E-08  0.3707703E+04  0.7818609E-02  0.8066257E-01
        1   -1    0    0  501    0  0.00000000000E+00  0.00000000000E+00  0.24526109296E+04  0.24526109296E+04  0.50400001928E-02 0.  1.
       -1   -1    0    0    0  501  0.00000000000E+00  0.00000000000E+00 -0.14012677842E+04  0.14012677843E+04  0.50400001928E-02 0. -1.
    10030    2    1    2    0    0  0.00000000000E+00  0.00000000000E+00  0.10513431454E+04  0.38538787139E+04  0.37077026218E+04 0.  0.
        1    1    3    3  502    0 -0.14508004666E+04 -0.80934011543E+03  0.13808544959E+04  0.21602343751E+04  0.50400001928E-02 0.  1.
       -1    1    3    3    0  502  0.14508004666E+04  0.80934011543E+03 -0.32951135051E+03  0.16936443388E+04  0.50400001928E-02 0. -1.
</event>
<event>
 5   0  0.1658770E-07  0.3693194E+04  0.7818609E-02  0.8069472E-01
       -2   -1    0    0    0  501  0.00000000000E+00  0.00000000000E+00  0.15157529108E+04  0.15157529108E+04  0.25500000920E-02 0. -1.
        2   -1    0    0  501    0  0.00000000000E+00  0.00000000000E+00 -0.22496543926E+04  0.22496543926E+04  0.25500000920E-02 0.  1.
    10030    2    1    2    0    0  0.00000000000E+00  0.00000000000E+00 -0.73390148177E+03  0.37654073033E+04  0.36931938448E+04 0.  0.
        2    1    3    3  502    0  0.90875409499E+03  0.92098302481E+03 -0.17102391397E+04  0.21445189792E+04  0.25500000920E-02 0.  1.
       -2    1    3    3    0  502 -0.90875409499E+03 -0.92098302481E+03  0.97633765791E+03  0.16208883242E+04  0.25500000920E-02 0. -1.
</event>
<event>
 5   0  0.5177000E-08  0.3693005E+04  0.7818609E-02  0.8069514E-01
        1   -1    0    0  501    0  0.00000000000E+00  0.00000000000E+00  0.19498517148E+04  0.19498517148E+04  0.50400001928E-02 0.  1.
       -1   -1    0    0    0  501  0.00000000000E+00  0.00000000000E+00 -0.17486309869E+04  0.17486309869E+04  0.50400001928E-02 0. -1.
    10030    2    1    2    0    0  0.00000000000E+00  0.00000000000E+00  0.20122072791E+03  0.36984827017E+04  0.36930048082E+04 0.  0.
        3    1    3    3  502    0 -0.40773648111E+02  0.11543274187E+04  0.15433849348E+04  0.19277373647E+04  0.10100000352E+00 0.  1.
       -3    1    3    3    0  502  0.40773648111E+02 -0.11543274187E+04 -0.13421642069E+04  0.17707453370E+04  0.10100000352E+00 0. -1.
</event>
<event>
 5   0  0.1666189E-07  0.3694728E+04  0.7818609E-02  0.8069131E-01
       -2   -1    0    0    0  501  0.00000000000E+00  0.00000000000E+00  0.11238907659E+04  0.11238907659E+04  0.25500000920E-02 0.  1.
        2   -1    0    0  501    0  0.00000000000E+00  0.00000000000E+00 -0.30365527783E+04  0.30365527783E+04  0.25500000920E-02 0. -1.
    10030    2    1    2    0    0  0.00000000000E+00  0.00000000000E+00 -0.19126620124E+04  0.41604435442E+04  0.36947279346E+04 0.  0.
        4    1    3    3  502    0  0.23894684807E+03 -0.11328989085E+04 -0.25772922639E+04  0.28254190061E+04  0.12699999809E+01 0. -1.
       -4    1    3    3    0  502 -0.23894684807E+03  0.11328989085E+04  0.66463025158E+03  0.13350245381E+04  0.12699999809E+01 0.  1.
</event>
<event>
 5   0  0.1558258E-07  0.3698693E+04  0.7818609E-02  0.8068251E-01
       -2   -1    0    0    0  501  0.00000000000E+00  0.00000000000E+00  0.10332219452E+04  0.10332219452E+04  0.25500000920E-02 0.  1.
        2   -1    0    0  501    0  0.00000000000E+00  0.00000000000E+00 -0.33101147598E+04  0.33101147598E+04  0.25500000920E-02 0. -1.
    10030    2    1    2    0    0  0.00000000000E+00  0.00000000000E+00 -0.22768928147E+04  0.43433367050E+04  0.36986933968E+04 0.  0.
        1    1    3    3  502    0 -0.16458000677E+04 -0.53245553430E+03 -0.37028115502E+03  0.17689756620E+04  0.50400001928E-02 0.  1.
       -1    1    3    3    0  502  0.16458000677E+04  0.53245553430E+03 -0.19066116597E+04  0.25743610430E+04  0.50400001928E-02 0. -1.
</event>
<event>
 5   0  0.5177000E-08  0.3706147E+04  0.7818609E-02  0.8066601E-01
       -1   -1    0    0    0  501  0.00000000000E+00  0.00000000000E+00  0.18554931197E+04  0.18554931197E+04  0.50400001928E-02 0. -1.
        1   -1    0    0  501    0  0.00000000000E+00  0.00000000000E+00 -0.18506569143E+04  0.18506569143E+04  0.50400001928E-02 0.  1.
    10030    2    1    2    0    0  0.00000000000E+00  0.00000000000E+00  0.48362053887E+01  0.37061500341E+04  0.37061468787E+04 0.  0.
        3    1    3    3  502    0 -0.21167404093E+03  0.69311539700E+03  0.17079008089E+04  0.18553005245E+04  0.10100000352E+00 0. -1.
       -3    1    3    3    0  502  0.21167404093E+03 -0.69311539700E+03 -0.17030646035E+04  0.18508495096E+04  0.10100000352E+00 0.  1.
</event>
<event>
 5   0  0.5181371E-08  0.3632104E+04  0.7818609E-02  0.8083177E-01
        1   -1    0    0  501    0  0.00000000000E+00  0.00000000000E+00  0.19145597911E+04  0.19145597911E+04  0.50400001928E-02 0. -1.
       -1   -1    0    0    0  501  0.00000000000E+00  0.00000000000E+00 -0.17226122056E+04  0.17226122056E+04  0.50400001928E-02 0.  1.
    10030    2    1    2    0    0  0.00000000000E+00  0.00000000000E+00  0.19194758552E+03  0.36371719967E+04  0.36321035583E+04 0.  0.
        5    1    3    3  502    0 -0.10250878919E+04  0.30202542481E+03 -0.13744067110E+04  0.17409883517E+04  0.46999998093E+01 0.  1.
       -5    1    3    3    0  502  0.10250878919E+04 -0.30202542481E+03  0.15663542965E+04  0.18961836450E+04  0.46999998093E+01 0. -1.
</event>
<event>
 5   0  0.5177000E-08  0.3751148E+04  0.7818609E-02  0.8056720E-01
        1   -1    0    0  501    0  0.00000000000E+00  0.00000000000E+00  0.30205569641E+04  0.30205569641E+04  0.50400001928E-02 0.  1.
       -1   -1    0    0    0  501  0.00000000000E+00  0.00000000000E+00 -0.11646123000E+04  0.11646123000E+04  0.50400001928E-02 0. -1.
    10030    2    1    2    0    0  0.00000000000E+00  0.00000000000E+00  0.18559446641E+04  0.41851692642E+04  0.37511479808E+04 0.  0.
        3    1    3    3  502    0 -0.18376642723E+04 -0.20331337775E+03  0.57616023128E+03  0.19365709204E+04  0.10100000352E+00 0. -1.
       -3    1    3    3    0  502  0.18376642723E+04  0.20331337775E+03  0.12797844328E+04  0.22485983438E+04  0.10100000352E+00 0.  1.
</event>
<event>
 5   0  0.5177000E-08  0.3621244E+04  0.7818609E-02  0.8085643E-01
       -3   -1    0    0    0  501  0.00000000000E+00  0.00000000000E+00  0.15937943139E+04  0.15937943171E+04  0.10100000352E+00 0. -1.
        3   -1    0    0  501    0  0.00000000000E+00  0.00000000000E+00 -0.20569481716E+04  0.20569481741E+04  0.10100000352E+00 0.  1.
    10030    2    1    2    0    0  0.00000000000E+00  0.00000000000E+00 -0.46315385763E+03  0.36507424912E+04  0.36212441565E+04 0.  0.
        4    1    3    3  502    0  0.16454066721E+04  0.44376591637E+03 -0.84816295094E+03  0.19035948386E+04  0.12699999809E+01 0.  1.
       -4    1    3    3    0  502 -0.16454066721E+04 -0.44376591637E+03  0.38500909331E+03  0.17471476526E+04  0.12699999809E+01 0. -1.
</event>
<event>
 5   0  0.1658770E-07  0.3698155E+04  0.7818609E-02  0.8068371E-01
       -2   -1    0    0    0  501  0.00000000000E+00  0.00000000000E+00  0.16859044350E+04  0.16859044350E+04  0.25500000920E-02 0. -1.
        2   -1    0    0  501    0  0.00000000000E+00  0.00000000000E+00 -0.20280431550E+04  0.20280431551E+04  0.25500000920E-02 0.  1.
    10030    2    1    2    0    0  0.00000000000E+00  0.00000000000E+00 -0.34213872001E+03  0.37139475901E+04  0.36981546477E+04 0.  0.
        2    1    3    3  502    0  0.17196523040E+04 -0.31887271662E+03 -0.77380159907E+03  0.19124990904E+04  0.25500000920E-02 0.  1.
       -2    1    3    3    0  502 -0.17196523040E+04  0.31887271662E+03  0.43166287906E+03  0.18014484997E+04  0.25500000920E-02 0. -1.
</event>
<event>
 5   0  0.5177000E-08  0.3694235E+04  0.7818609E-02  0.8069241E-01
       -1   -1    0    0    0  501  0.00000000000E+00  0.00000000000E+00  0.24144408429E+04  0.24144408430E+04  0.50400001928E-02 0.  1.
        1   -1    0    0  501    0  0.00000000000E+00  0.00000000000E+00 -0.14130983143E+04  0.14130983143E+04  0.50400001928E-02 0. -1.
    10030    2    1    2    0    0  0.00000000000E+00  0.00000000000E+00  0.10013425287E+04  0.38275391572E+04  0.36942345811E+04 0.  0.
        3    1    3    3  502    0  0.84320990383E+03 -0.21681684867E+03 -0.11871704078E+04  0.14722044950E+04  0.10100000352E+00 0. -1.
       -3    1    3    3    0  502 -0.84320990383E+03  0.21681684867E+03  0.21885129365E+04  0.23553346622E+04  0.10100000352E+00 0.  1.
</event>
<event>
 5   0  0.1558258E-07  0.3695038E+04  0.7818609E-02  0.8069062E-01
        2   -1    0    0  501    0  0.00000000000E+00  0.00000000000E+00  0.22465931752E+04  0.22465931752E+04  0.25500000920E-02 0. -1.
       -2   -1    0    0    0  501  0.00000000000E+00  0.00000000000E+00 -0.15193343772E+04  0.15193343772E+04  0.25500000920E-02 0.  1.
    10030    2    1    2    0    0  0.00000000000E+00  0.00000000000E+00  0.72725879800E+03  0.37659275523E+04  0.36950378848E+04 0.  0.
        1    1    3    3  502    0 -0.48706765225E+03  0.11700174757E+04  0.17337229454E+04  0.21475500094E+04  0.50400001928E-02 0. -1.
       -1    1    3    3    0  502  0.48706765225E+03 -0.11700174757E+04 -0.10064641474E+04  0.16183775429E+04  0.50400001928E-02 0.  1.
</event>
<event>
 5   0  0.1666189E-07  0.3718860E+04  0.7818609E-02  0.8063795E-01
        2   -1    0    0  501    0  0.00000000000E+00  0.00000000000E+00  0.11807151050E+04  0.11807151050E+04  0.25500000920E-02 0. -1.
       -2   -1    0    0    0  501  0.00000000000E+00  0.00000000000E+00 -0.29282924574E+04  0.29282924574E+04  0.25500000920E-02 0.  1.
    10030    2    1    2    0    0  0.00000000000E+00  0.00000000000E+00 -0.17475773525E+04  0.41090075624E+04  0.37188595759E+04 0.  0.
        4    1    3    3  502    0  0.13462008254E+04  0.54416701841E+03 -0.21571523249E+04  0.26003234745E+04  0.12699999809E+01 0.  1.
       -4    1    3    3    0  502 -0.13462008254E+04 -0.54416701841E+03  0.40957497240E+03  0.15086840879E+04  0.12699999809E+01 0. -1.
</event>
<event>
 5   0  0.5181371E-08  0.3712078E+04  0.7818609E-02  0.8065291E-01
        1   -1    0    0  501    0  0.00000000000E+00  0.00000000000E+00  0.18531123019E+04  0.18531123019E+04  0.50400001928E-02 0.  1.
       -1   -1    0    0    0  501  0.00000000000E+00  0.00000000000E+00 -0.18589699535E+04  0.18589699535E+04  0.50400001928E-02 0. -1.
    10030    2    1    2    0    0  0.00000000000E+00  0.00000000000E+00 -0.58576516099E+01  0.37120822554E+04  0.37120776337E+04 0.  0.
        5    1    3    3  502    0 -0.55445889021E+03 -0.68016612026E+03  0.16325570494E+04  0.18534603372E+04  0.46999998093E+01 0.  1.
       -5    1    3    3    0  502  0.55445889021E+03  0.68016612026E+03 -0.16384147010E+04  0.18586219182E+04  0.46999998093E+01 0. -1.
</event>
<event>
 5   0  0.1587026E-07  0.3694295E+04  0.7818609E-02  0.8069227E-01
       -2   -1    0    0    0  501  0.00000000000E+00  0.00000000000E+00  0.17148198459E+04  0.17148198459E+04  0.25500000920E-02 0.  1.
        2   -1    0    0  501    0  0.00000000000E+00  0.00000000000E+00 -0.19896865826E+04  0.19896865826E+04  0.25500000920E-02 0. -1.
    10030    2    1    2    0    0  0.00000000000E+00  0.00000000000E+00 -0.27486673665E+03  0.37045064285E+04  0.36942950824E+04 0.  0.
        3    1    3    3  502    0  0.50099395252E+03 -0.87518263892E+02  0.16432282252E+04  0.17201317965E+04  0.10100000352E+00 0.  1.
       -3    1    3    3    0  502 -0.50099395252E+03  0.87518263892E+02 -0.19180949619E+04  0.19843746320E+04  0.10100000352E+00 0. -1.
</event>
<event>
 5   0  0.1558258E-07  0.3691275E+04  0.7818609E-02  0.8069898E-01
        2   -1    0    0  501    0  0.00000000000E+00  0.00000000000E+00  0.15079348088E+04  0.15079348088E+04  0.25500000920E-02 0.  1.
       -2   -1    0    0    0  501  0.00000000000E+00  0.00000000000E+00 -0.22589684326E+04  0.22589684326E+04  0.25500000920E-02 0. -1.
    10030    2    1    2    0    0  0.00000000000E+00  0.00000000000E+00 -0.75103362381E+03  0.37669032414E+04  0.36912746478E+04 0.  0.
        1    1    3    3  502    0  0.18174102377E+04  0.32063057096E+03 -0.40037144404E+03  0.18884070611E+04  0.50400001928E-02 0.  1.
       -1    1    3    3    0  502 -0.18174102377E+04 -0.32063057096E+03 -0.35066217978E+03  0.18784961803E+04  0.50400001928E-02 0. -1.
</event>
<event>
 5   0  0.5177000E-08  0.3711010E+04  0.7818609E-02  0.8065526E-01
        1   -1    0    0  501    0  0.00000000000E+00  0.00000000000E+00  0.26183284035E+04  0.26183284035E+04  0.50400001928E-02 0.  1.
       -1   -1    0    0    0  501  0.00000000000E+00  0.00000000000E+00 -0.13149227788E+04  0.13149227788E+04  0.50400001928E-02 0. -1.
    10030    2    1    2    0    0  0.00000000000E+00  0.00000000000E+00  0.13034056246E+04  0.39332511823E+04  0.37110104609E+04 0.  0.
        2    1    3    3  502    0  0.18282784699E+04  0.16616086033E+03  0.93745598283E+03  0.20613188290E+04  0.25500000920E-02 0.  1.
       -2    1    3    3    0  502 -0.18282784699E+04 -0.16616086033E+03  0.36594964180E+03  0.18719323533E+04  0.25500000920E-02 0. -1.
</event>
<event>
 5   0  0.5181371E-08  0.3716511E+04  0.7818609E-02  0.8064313E-01
        1   -1    0    0  501    0  0.00000000000E+00  0.00000000000E+00  0.12490819116E+04  0.12490819116E+04  0.50400001928E-02 0. -1.
       -1   -1    0    0    0  501  0.00000000000E+00  0.00000000000E+00 -0.27645216755E+04  0.27645216755E+04  0.50400001928E-02 0.  1.
    10030    2    1    2    0    0  0.00000000000E+00  0.00000000000E+00 -0.15154397640E+04  0.40136035871E+04  0.37165112775E+04 0.  0.
        5    1    3    3  502    0 -0.15609356829E+04  0.97978272222E+03 -0.10146398145E+04  0.21038085540E+04  0.46999998093E+01 0.  1.
       -5    1    3    3    0  502  0.15609356829E+04 -0.97978272222E+03 -0.50079994948E+03  0.19097950331E+04  0.46999998093E+01 0. -1.
</event>
<event>
 5   0  0.5177000E-08  0.3698421E+04  0.7818609E-02  0.8068312E-01
        1   -1    0    0  501    0  0.00000000000E+00  0.00000000000E+00  0.10934052178E+04  0.10934052179E+04  0.50400001928E-02 0.  1.
       -1   -1    0    0    0  501  0.00000000000E+00  0.00000000000E+00 -0.31274583720E+04  0.31274583720E+04  0.50400001928E-02 0. -1.
    10030    2    1    2    0    0  0.00000000000E+00  0.00000000000E+00 -0.20340531542E+04  0.42208635898E+04  0.36984209077E+04 0.  0.
        1    1    3    3  502    0 -0.14277965183E+04  0.81010166668E+03 -0.19885820801E+04  0.25786287630E+04  0.50400001928E-02 0. -1.
       -1    1    3    3    0  502  0.14277965183E+04 -0.81010166668E+03 -0.45471074035E+02  0.16422348269E+04  0.50400001928E-02 0.  1.
</event>
<event>
 5   0  0.1686284E-07  0.3675068E+04  0.7818609E-02  0.8073510E-01
        2   -1    0    0  501    0  0.00000000000E+00  0.00000000000E+00  0.20828321673E+04  0.20828321673E+04  0.25500000920E-02 0. -1.
       -2   -1    0    0    0  501  0.00000000000E+00  0.00000000000E+00 -0.16211253642E+04  0.16211253642E+04  0.25500000920E-02 0.  1.
    10030    2    1    2    0    0  0.00000000000E+00  0.00000000000E+00  0.46170680303E+03  0.37039575315E+04  0.36750684651E+04 0.  0.
        5    1    3    3  502    0  0.72083688584E+03  0.14933598825E+04 -0.56706461585E+03  0.17525164545E+04  0.46999998093E+01 0.  1.
       -5    1    3    3    0  502 -0.72083688584E+03 -0.14933598825E+04  0.10287714189E+04  0.19514410770E+04  0.46999998093E+01 0. -1.
</event>
<event>
 5   0  0.1587026E-07  0.3696824E+04  0.7818609E-02  0.8068666E-01
       -2   -1    0    0    0  501  0.00000000000E+00  0.00000000000E+00  0.16206359638E+04  0.16206359638E+04  0.25500000920E-02 0.  1.
        2   -1    0    0  501    0  0.00000000000E+00  0.00000000000E+00 -0.21082016346E+04  0.21082016346E+04  0.25500000920E-02 0. -1.
    10030    2    1    2    0    0  0.00000000000E+00  0.00000000000E+00 -0.48756567087E+03  0.37288375984E+04  0.36968242522E+04 0.  0.
        3    1    3    3  502    0 -0.45729688550E+03  0.91458928659E+03 -0.17969331816E+04  0.20675016020E+04  0.10100000352E+00 0. -1.
       -3    1    3    3    0  502  0.45729688550E+03 -0.91458928659E+03  0.13093675108E+04  0.16613359964E+04  0.10100000352E+00 0.  1.
</event>
<event>
 5   0  0.1666189E-07  0.3694207E+04  0.7818609E-02  0.8069247E-01
        2   -1    0    0  501    0  0.00000000000E+00  0.00000000000E+00  0.27911368144E+04  0.27911368144E+04  0.25500000920E-02 0.  1.
       -2   -1    0    0    0  501  0.00000000000E+00  0.00000000000E+00 -0.12223660971E+04  0.12223660971E+04  0.25500000920E-02 0. -1.
    10030    2    1    2    0    0  0.00000000000E+00  0.00000000000E+00  0.15687707173E+04  0.40135029114E+04  0.36942068237E+04 0.  0.
        4    1    3    3  502    0 -0.26042191571E+03 -0.14948099975E+02  0.27710247426E+04  0.27832755446E+04  0.12699999809E+01 0.  1.
       -4    1    3    3    0  502  0.26042191571E+03  0.14948099975E+02 -0.12022540253E+04  0.12302273669E+04  0.12699999809E+01 0. -1.
</event>
<event>
 5   0  0.1587026E-07  0.3748819E+04  0.7818609E-02  0.8057228E-01
       -2   -1    0    0    0  501  0.00000000000E+00  0.00000000000E+00  0.16042516186E+04  0.16042516186E+04  0.25500000920E-02 0. -1.
        2   -1    0    0  501    0  0.00000000000E+00  0.00000000000E+00 -0.21900625698E+04  0.21900625698E+04  0.25500000920E-02 0.  1.
    10030    2    1    2    0    0  0.00000000000E+00  0.00000000000E+00 -0.58581095116E+03  0.37943141884E+04  0.37488192394E+04 0.  0.
        3    1    3    3  502    0  0.17683226143E+04  0.55400695917E+03 -0.74852716396E+01  0.18530905586E+04  0.10100000352E+00 0. -1.
       -3    1    3    3    0  502 -0.17683226143E+04 -0.55400695917E+03 -0.57832567952E+03  0.19412236298E+04  0.10100000352E+00 0.  1.
</event>
<event>
 5   0  0.5181371E-08  0.3710598E+04  0.7818609E-02  0.8065617E-01
       -1   -1    0    0    0  501  0.00000000000E+00  0.00000000000E+00  0.23209290843E+04  0.23209290843E+04  0.50400001928E-02 0.  1.
        1   -1    0    0  501    0  0.00000000000E+00  0.00000000000E+00 -0.14830850531E+04  0.14830850531E+04  0.50400001928E-02 0. -1.
    10030    2    1    2    0    0  0.00000000000E+00  0.00000000000E+00  0.83784403113E+03  0.38040141374E+04  0.37105984608E+04 0.  0.
        5    1    3    3  502    0 -0.72745108341E+03 -0.14324679933E+04  0.13701629607E+04  0.21115203668E+04  0.46999998093E+01 0.  1.
       -5    1    3    3    0  502  0.72745108341E+03  0.14324679933E+04 -0.53231892956E+03  0.16924937706E+04  0.46999998093E+01 0. -1.
</event>
<event>
 5   0  0.5177000E-08  0.3702441E+04  0.7818609E-02  0.8067421E-01
        1   -1    0    0  501    0  0.00000000000E+00  0.00000000000E+00  0.24214746624E+04  0.24214746624E+04  0.50400001928E-02 0.  1.
       -1   -1    0    0    0  501  0.00000000000E+00  0.00000000000E+00 -0.14152607328E+04  0.14152607328E+04  0.50400001928E-02 0. -1.
    10030    2    1    2    0    0  0.00000000000E+00  0.00000000000E+00  0.10062139296E+04  0.38367353952E+04  0.37024413595E+04 0.  0.
        4    1    3    3  502    0  0.14702599087E+04 -0.61608374832E+03 -0.47219653757E+03  0.16625867097E+04  0.12699999809E+01 0. -1.
       -4    1    3    3    0  502 -0.14702599087E+04  0.61608374832E+03  0.14784104672E+04  0.21741486855E+04  0.12699999809E+01 0.  1.
</event>
<event>
 5   0  0.5181371E-08  0.3625616E+04  0.7818609E-02  0.8084649E-01
       -1   -1    0    0    0  501  0.00000000000E+00  0.00000000000E+00  0.15271446260E+04  0.15271446260E+04  0.50400001928E-02 0. -1.
        1   -1    0    0  501    0  0.00000000000E+00  0.00000000000E+00 -0.21519064146E+04  0.21519064146E+04  0.50400001928E-02 0.  1.
    10030    2    1    2    0    0  0.00000000000E+00  0.00000000000E+00 -0.62476178857E+03  0.36790510406E+04  0.36256157086E+04 0.  0.
        5    1    3    3  502    0 -0.17920649393E+03  0.15271791352E+04 -0.12866665937E+04  0.20049748357E+04  0.46999998093E+01 0.  1.
       -5    1    3    3    0  502  0.17920649393E+03 -0.15271791352E+04  0.66190480510E+03  0.16740762048E+04  0.46999998093E+01 0. -1.
</event>
<event>
 5   0  0.5177000E-08  0.3691880E+04  0.7818609E-02  0.8069764E-01
        1   -1    0    0  501    0  0.00000000000E+00  0.00000000000E+00  0.26789205616E+04  0.26789205616E+04  0.50400001928E-02 0.  1.
       -1   -1    0    0    0  501  0.00000000000E+00  0.00000000000E+00 -0.12719652553E+04  0.12719652553E+04  0.50400001928E-02 0. -1.
    10030    2    1    2    0    0  0.00000000000E+00  0.00000000000E+00  0.14069553064E+04  0.39508858169E+04  0.36918796708E+04 0.  0.
        4    1    3    3  502    0  0.46732648917E+03  0.11659520009E+04 -0.74406524510E+03  0.14599564438E+04  0.12699999809E+01 0. -1.
       -4    1    3    3    0  502 -0.46732648917E+03 -0.11659520009E+04  0.21510205515E+04  0.24909293731E+04  0.12699999809E+01 0.  1.
</event>
<event>
 5   0  0.1587026E-07  0.3702399E+04  0.7818609E-02  0.8067430E-01
       -2   -1    0    0    0  501  0.00000000000E+00  0.00000000000E+00  0.20898612531E+04  0.20898612531E+04  0.25500000920E-02 0. -1.
        2   -1    0    0  501    0  0.00000000000E+00  0.00000000000E+00 -0.16397924562E+04  0.16397924562E+04  0.25500000920E-02 0.  1.
    10030    2    1    2    0    0  0.00000000000E+00  0.00000000000E+00  0.45006879696E+03  0.37296537093E+04  0.37023985293E+04 0.  0.
        3    1    3    3  502    0  0.13962426165E+04  0.78921783184E+03  0.11562748422E+04  0.19772025064E+04  0.10100000352E+00 0. -1.
       -3    1    3    3    0  502 -0.13962426165E+04 -0.78921783184E+03 -0.70620604525E+03  0.17524512030E+04  0.10100000352E+00 0.  1.
</event>
<event>
 5   0  0.5177000E-08  0.3693959E+04  0.7818609E-02  0.8069302E-01
       -1   -1    0    0    0  501  0.00000000000E+00  0.00000000000E+00  0.19601223992E+04  0.19601223992E+04  0.50400001928E-02 0. -1.
        1   -1    0    0  501    0  0.00000000000E+00  0.00000000000E+00 -0.17403670798E+04  0.17403670798E+04  0.50400001928E-02 0.  1.
    10030    2    1    2    0    0  0.00000000000E+00  0.00000000000E+00  0.21975531939E+03  0.37004894789E+04  0.36939585790E+04 0.  0.
        3    1    3    3  502    0  0.67173899519E+03  0.63954211231E+03 -0.14901578648E+04  0.17552258724E+04  0.10100000352E+00 0.  1.
       -3    1    3    3    0  502 -0.67173899519E+03 -0.63954211231E+03  0.17099131842E+04  0.19452636065E+04  0.10100000352E+00 0. -1.
</event>
<event>
 5   0  0.1686284E-07  0.3713963E+04  0.7818609E-02  0.8064875E-01
       -2   -1    0    0    0  501  0.00000000000E+00  0.00000000000E+00  0.19527690356E+04  0.19527690356E+04  0.25500000920E-02 0.  1.
        2   -1    0    0  501    0  0.00000000000E+00  0.00000000000E+00 -0.17658923976E+04  0.17658923976E+04  0.25500000920E-02 0. -1.
    10030    2    1    2    0    0  0.00000000000E+00  0.00000000000E+00  0.18687663806E+03  0.37186614332E+04  0.37139628400E+04 0.  0.
        5    1    3    3  502    0  0.91966192485E+03  0.14218444830E+04  0.85659554544E+03  0.18976822200E+04  0.46999998093E+01 0.  1.
       -5    1    3    3    0  502 -0.91966192485E+03 -0.14218444830E+04 -0.66971890738E+03  0.18209792131E+04  0.46999998093E+01 0. -1.
</event>
<event>
 5   0  0.1587026E-07  0.3717942E+04  0.7818609E-02  0.8063997E-01
        2   -1    0    0  501    0  0.00000000000E+00  0.00000000000E+00  0.18244498298E+04  0.18244498298E+04  0.25500000920E-02 0.  1.
       -2   -1    0    0    0  501  0.00000000000E+00  0.00000000000E+00 -0.18941454750E+04  0.18941454750E+04  0.25500000920E-02 0. -1.
    10030    2    1    2    0    0  0.00000000000E+00  0.00000000000E+00 -0.69695645181E+02  0.37185953048E+04  0.37179421134E+04 0.  0.
        3    1    3    3  502    0  0.13068528208E+04 -0.48712487598E+03  0.11944402950E+04  0.18362577620E+04  0.10100000352E+00 0.  1.
       -3    1    3    3    0  502 -0.13068528208E+04  0.48712487598E+03 -0.12641359401E+04  0.18823375429E+04  0.10100000352E+00 0. -1.
</event>
<event>
 5   0  0.5177000E-08  0.3680008E+04  0.7818609E-02  0.8072407E-01
        1   -1    0    0  501    0  0.00000000000E+00  0.00000000000E+00  0.17554687458E+04  0.17554687458E+04  0.50400001928E-02 0. -1.
       -1   -1    0    0    0  501  0.00000000000E+00  0.00000000000E+00 -0.19286102246E+04  0.19286102246E+04  0.50400001928E-02 0.  1.
    10030    2    1    2    0    0  0.00000000000E+00  0.00000000000E+00 -0.17314147885E+03  0.36840789704E+04  0.36800081371E+04 0.  0.
        3    1    3    3  502    0 -0.16037162554E+04  0.60838838511E+03 -0.75332002673E+03  0.18733748498E+04  0.10100000352E+00 0.  1.
       -3    1    3    3    0  502  0.16037162554E+04 -0.60838838511E+03  0.58017854788E+03  0.18107041207E+04  0.10100000352E+00 0. -1.
</event>
<event>
 5   0  0.1666189E-07  0.3696551E+04  0.7818609E-02  0.8068726E-01
       -2   -1    0    0    0  501  0.00000000000E+00  0.00000000000E+00  0.21675877314E+04  0.21675877314E+04  0.25500000920E-02 0.  1.
        2   -1    0    0  501    0  0.00000000000E+00  0.00000000000E+00 -0.15760022708E+04  0.15760022708E+04  0.25500000920E-02 0. -1.
    10030    2    1    2    0    0  0.00000000000E+00  0.00000000000E+00  0.59158546060E+03  0.37435900023E+04  0.36965514670E+04 0.  0.
        4    1    3    3  502    0  0.96520995971E+03 -0.13705118980E+04 -0.49269574232E+03  0.17471931308E+04  0.12699999809E+01 0.  1.
       -4    1    3    3    0  502 -0.96520995971E+03  0.13705118980E+04  0.10842812029E+04  0.19963968715E+04  0.12699999809E+01 0. -1.
</event>
<event>
 5   0  0.1686284E-07  0.3700266E+04  0.7818609E-02  0.8067903E-01
        2   -1    0    0  501    0  0.00000000000E+00  0.00000000000E+00  0.25772973805E+04  0.25772973805E+04  0.25500000920E-02 0.  1.
       -2   -1    0    0    0  501  0.00000000000E+00  0.00000000000E+00 -0.13281324663E+04  0.13281324663E+04  0.25500000920E-02 0. -1.
    10030    2    1    2    0    0  0.00000000000E+00  0.00000000000E+00  0.12491649142E+04  0.39054298468E+04  0.37002661128E+04 0.  0.
        5    1    3    3  502    0 -0.82088290435E+03  0.62072278384E+03  0.22473021905E+04  0.24717473055E+04  0.46999998093E+01 0.  1.
       -5    1    3    3    0  502  0.82088290435E+03 -0.62072278384E+03 -0.99813727625E+03  0.14336825413E+04  0.46999998093E+01 0. -1.
</event>
<event>
 5   0  0.5177000E-08  0.3681755E+04  0.7818609E-02  0.8072017E-01
        1   -1    0    0  501    0  0.00000000000E+00  0.00000000000E+00  0.18211110485E+04  0.18211110485E+04  0.50400001928E-02 0.  1.
       -1   -1    0    0    0  501  0.00000000000E+00  0.00000000000E+00 -0.18608581826E+04  0.18608581826E+04  0.50400001928E-02 0. -1.
    10030    2    1    2    0    0  0.00000000000E+00  0.00000000000E+00 -0.39747134109E+02  0.36819692312E+04  0.36817546883E+04 0.  0.
        2    1    3    3  502    0 -0.90705499760E+03 -0.37059347371E+03 -0.15784062641E+04  0.18578090930E+04  0.25500000920E-02 0. -1.
       -2    1    3    3    0  502  0.90705499760E+03  0.37059347371E+03  0.15386591300E+04  0.18241601382E+04  0.25500000920E-02 0.  1.
</event>
<event>
 5   0  0.5177000E-08  0.3690706E+04  0.7818609E-02  0.8070025E-01
        1   -1    0    0  501    0  0.00000000000E+00  0.00000000000E+00  0.26164488948E+04  0.26164488949E+04  0.50400001928E-02 0.  1.
       -1   -1    0    0    0  501  0.00000000000E+00  0.00000000000E+00 -0.13015075804E+04  0.13015075804E+04  0.50400001928E-02 0. -1.
    10030    2    1    2    0    0  0.00000000000E+00  0.00000000000E+00  0.13149413144E+04  0.39179564753E+04  0.36907062037E+04 0.  0.
        4    1    3    3  502    0 -0.56392359275E+03  0.17539260781E+04  0.54582887909E+03  0.19215091163E+04  0.12699999809E+01 0.  1.
       -4    1    3    3    0  502  0.56392359275E+03 -0.17539260781E+04  0.76911243535E+03  0.19964473589E+04  0.12699999809E+01 0. -1.
</event>
<event>
 5   0  0.5177000E-08  0.3710012E+04  0.7818609E-02  0.8065747E-01
       -1   -1    0    0    0  501  0.00000000000E+00  0.00000000000E+00  0.25356757543E+04  0.25356757543E+04  0.50400001928E-02 0.  1.
        1   -1    0    0  501    0  0.00000000000E+00  0.00000000000E+00 -0.13570535054E+04  0.13570535054E+04  0.50400001928E-02 0. -1.
    10030    2    1    2    0    0  0.00000000000E+00  0.00000000000E+00  0.11786222489E+04  0.38927292597E+04  0.37100122216E+04 0.  0.
        3    1    3    3  502    0  0.12874984297E+03 -0.13024027823E+04  0.19686727445E+04  0.23640012509E+04  0.10100000352E+00 0.  1.
       -3    1    3    3    0  502 -0.12874984297E+03  0.13024027823E+04 -0.79005049554E+03  0.15287280088E+04  0.10100000352E+00 0. -1.
</event>
<event>
 5   0  0.5181371E-08  0.3689221E+04  0.7818609E-02  0.8070355E-01
        1   -1    0    0  501    0  0.00000000000E+00  0.00000000000E+00  0.23075347354E+04  0.23075347354E+04  0.50400001928E-02 0.  1.
       -1   -1    0    0    0  501  0.00000000000E+00  0.00000000000E+00 -0.14745554418E+04  0.14745554418E+04  0.50400001928E-02 0. -1.
    10030    2    1    2    0    0  0.00000000000E+00  0.00000000000E+00  0.83297929360E+03  0.37820901773E+04  0.36892210025E+04 0.  0.
        5    1    3    3  502    0  0.10988561573E+03  0.16064706988E+04  0.13389989827E+04  0.20942214115E+04  0.46999998093E+01 0.  1.
       -5    1    3    3    0  502 -0.10988561573E+03 -0.16064706988E+04 -0.50601968908E+03  0.16878687658E+04  0.46999998093E+01 0. -1.
</event>
<event>
 5   0  0.1558258E-07  0.3723005E+04  0.7818609E-02  0.8062883E-01
       -2   -1    0    0    0  501  0.00000000000E+00  0.00000000000E+00  0.11831385990E+04  0.11831385990E+04  0.25500000920E-02 0.  1.
        2   -1    0    0  501    0  0.00000000000E+00  0.00000000000E+00 -0.29288128637E+04  0.29288128637E+04  0.25500000920E-02 0. -1.
    10030    2    1    2    0    0  0.00000000000E+00  0.00000000000E+00 -0.17456742646E+04  0.41119514627E+04  0.37230049951E+04 0.  0.
        1    1    3    3  502    0  0.79233717444E+03  0.66668459018E+03  0.83567829588E+03  0.13306482462E+04  0.50400001928E-02 0.  1.
       -1    1    3    3    0  502 -0.79233717444E+03 -0.66668459018E+03 -0.25813525605E+04  0.27813032166E+04  0.50400001928E-02 0. -1.
</event>
<event>
 5   0  0.5177000E-08  0.3682887E+04  0.7818609E-02  0.8071765E-01
        1   -1    0    0  501    0  0.00000000000E+00  0.00000000000E+00  0.14013103824E+04  0.14013103824E+04  0.50400001928E-02 0.  1.
       -1   -1    0    0    0  501  0.00000000000E+00  0.00000000000E+00 -0.24198168615E+04  0.24198168615E+04  0.50400001928E-02 0. -1.
    10030    2    1    2    0    0  0.00000000000E+00  0.00000000000E+00 -0.10185064791E+04  0.38211272439E+04  0.36828871781E+04 0.  0.
        1    1    3    3  502    0 -0.67641591734E+02 -0.14333345700E+03 -0.24127269874E+04  0.24179270834E+04  0.50400001928E-02 0. -1.
       -1    1    3    3    0  502  0.67641591734E+02  0.14333345700E+03  0.13942205083E+04  0.14032001606E+04  0.50400001928E-02 0.  1.
</event>
<event>
 5   0  0.1558258E-07  0.3582375E+04  0.7818609E-02  0.8094541E-01
       -2   -1    0    0    0  501  0.00000000000E+00  0.00000000000E+00  0.15837533891E+04  0.15837533891E+04  0.25500000920E-02 0. -1.
        2   -1    0    0  501    0  0.00000000000E+00  0.00000000000E+00 -0.20257910228E+04  0.20257910228E+04  0.25500000920E-02 0.  1.
    10030    2    1    2    0    0  0.00000000000E+00  0.00000000000E+00 -0.44203763368E+03  0.36095444119E+04  0.35823754119E+04 0.  0.
        1    1    3    3  502    0 -0.15666477369E+04  0.59637692783E+03 -0.85691759188E+03  0.18826466293E+04  0.50400001928E-02 0.  1.
       -1    1    3    3    0  502  0.15666477369E+04 -0.59637692783E+03  0.41487995820E+03  0.17268977826E+04  0.50400001928E-02 0. -1.
</event>
<event>
 5   0  0.5177000E-08  0.3725056E+04  0.7818609E-02  0.8062432E-01
        1   -1    0    0  501    0  0.00000000000E+00  0.00000000000E+00  0.23791267734E+04  0.23791267734E+04  0.50400001928E-02 0. -1.
       -1   -1    0    0    0  501  0.00000000000E+00  0.00000000000E+00 -0.14581023008E+04  0.14581023008E+04  0.50400001928E-02 0.  1.
    10030    2    1    2    0    0  0.00000000000E+00  0.00000000000E+00  0.92102447266E+03  0.38372290742E+04  0.37250558236E+04 0.  0.
        3    1    3    3  502    0 -0.16232552635E+04 -0.21611917888E+03  0.13745570631E+04  0.21380066136E+04  0.10100000352E+00 0. -1.
       -3    1    3    3    0  502  0.16232552635E+04  0.21611917888E+03 -0.45353259045E+03  0.16992224606E+04  0.10100000352E+00 0.  1.
</event>
<event>
 5   0  0.5177000E-08  0.3722382E+04  0.7818609E-02  0.8063020E-01
        1   -1    0    0  501    0  0.00000000000E+00  0.00000000000E+00  0.22255757016E+04  0.22255757016E+04  0.50400001928E-02 0. -1.
       -1   -1    0    0    0  501  0.00000000000E+00  0.00000000000E+00 -0.15564651601E+04  0.15564651601E+04  0.50400001928E-02 0.  1.
    10030    2    1    2    0    0  0.00000000000E+00  0.00000000000E+00  0.66911054157E+03  0.37820408617E+04  0.37223815177E+04 0.  0.
        2    1    3    3  502    0 -0.46847308814E+03  0.12310102416E+03 -0.14913024661E+04  0.15679936039E+04  0.25500000920E-02 0.  1.
       -2    1    3    3    0  502  0.46847308814E+03 -0.12310102416E+03  0.21604130076E+04  0.22140472579E+04  0.25500000920E-02 0. -1.
</event>
<event>
 5   0  0.5181371E-08  0.3702928E+04  0.7818609E-02  0.8067313E-01
       -1   -1    0    0    0  501  0.00000000000E+00  0.00000000000E+00  0.11503639997E+04  0.11503639997E+04  0.50400001928E-02 0. -1.
        1   -1    0    0  501    0  0.00000000000E+00  0.00000000000E+00 -0.29798552427E+04  0.29798552427E+04  0.50400001928E-02 0.  1.
    10030    2    1    2    0    0  0.00000000000E+00  0.00000000000E+00 -0.18294912430E+04  0.41302192424E+04  0.37029275961E+04 0.  0.
        5    1    3    3  502    0 -0.13373541156E+04  0.71940696252E+02 -0.23406194614E+04  0.26967041082E+04  0.46999998093E+01 0.  1.
       -5    1    3    3    0  502  0.13373541156E+04 -0.71940696252E+02  0.51112821838E+03  0.14335151342E+04  0.46999998093E+01 0. -1.
</event>
<event>
 5   0  0.1686284E-07  0.3689136E+04  0.7818609E-02  0.8070374E-01
        2   -1    0    0  501    0  0.00000000000E+00  0.00000000000E+00  0.20847348038E+04  0.20847348038E+04  0.25500000920E-02 0.  1.
       -2   -1    0    0    0  501  0.00000000000E+00  0.00000000000E+00 -0.16320692157E+04  0.16320692158E+04  0.25500000920E-02 0. -1.
    10030    2    1    2    0    0  0.00000000000E+00  0.00000000000E+00  0.45266558806E+03  0.37168040196E+04  0.36891362113E+04 0.  0.
        5    1    3    3  502    0  0.48661367085E+03 -0.72266366201E+03  0.18643718778E+04  0.20578970386E+04  0.46999998093E+01 0.  1.
       -5    1    3    3    0  502 -0.48661367085E+03  0.72266366201E+03 -0.14117062897E+04  0.16589069809E+04  0.46999998093E+01 0. -1.
</event>
<event>
 5   0  0.1686284E-07  0.3705247E+04  0.7818609E-02  0.8066800E-01
        2   -1    0    0  501    0  0.00000000000E+00  0.00000000000E+00  0.17060076890E+04  0.17060076890E+04  0.25500000920E-02 0.  1.
       -2   -1    0    0    0  501  0.00000000000E+00  0.00000000000E+00 -0.20118393400E+04  0.20118393400E+04  0.25500000920E-02 0. -1.
    10030    2    1    2    0    0  0.00000000000E+00  0.00000000000E+00 -0.30583165103E+03  0.37178470289E+04  0.37052467572E+04 0.  0.
        5    1    3    3  502    0 -0.10300193673E+04  0.12538735611E+04  0.74402137158E+03  0.17851410856E+04  0.46999998093E+01 0.  1.
       -5    1    3    3    0  502  0.10300193673E+04 -0.12538735611E+04 -0.10498530226E+04  0.19327059433E+04  0.46999998093E+01 0. -1.
</event>
<event>
 5   0  0.1686284E-07  0.3695515E+04  0.7818609E-02  0.8068956E-01
       -2   -1    0    0    0  501  0.00000000000E+00  0.00000000000E+00  0.14800783244E+04  0.14800783244E+04  0.25500000920E-02 0. -1.
        2   -1    0    0  501    0  0.00000000000E+00  0.00000000000E+00 -0.23067751720E+04  0.23067751720E+04  0.25500000920E-02 0.  1.
    10030    2    1    2    0    0  0.00000000000E+00  0.00000000000E+00 -0.82669684757E+03  0.37868534964E+04  0.36955150826E+04 0.  0.
        5    1    3    3  502    0 -0.34047344542E+02  0.37427198629E+03 -0.22671917062E+04  0.22981338220E+04  0.46999998093E+01 0.  1.
       -5    1    3    3    0  502  0.34047344542E+02 -0.37427198629E+03  0.14404948586E+04  0.14887196744E+04  0.46999998093E+01 0. -1.
</event>
<event>
 5   0  0.5177000E-08  0.3693706E+04  0.7818609E-02  0.8069358E-01
       -1   -1    0    0    0  501  0.00000000000E+00  0.00000000000E+00  0.15389591459E+04  0.15389591459E+04  0.50400001928E-02 0.  1.
        1   -1    0    0  501    0  0.00000000000E+00  0.00000000000E+00 -0.22163460622E+04  0.22163460622E+04  0.50400001928E-02 0. -1.
    10030    2    1    2    0    0  0.00000000000E+00  0.00000000000E+00 -0.67738691638E+03  0.37553052081E+04  0.36937060213E+04 0.  0.
        4    1    3    3  502    0 -0.98833040033E+03 -0.39673911357E+03  0.11953318613E+04  0.16009430896E+04  0.12699999809E+01 0.  1.
       -4    1    3    3    0  502  0.98833040033E+03  0.39673911357E+03 -0.18727187777E+04  0.21543621185E+04  0.12699999809E+01 0. -1.
</event>
<event>
 5   0  0.1658770E-07  0.3689153E+04  0.7818609E-02  0.8070370E-01
        2   -1    0    0  501    0  0.00000000000E+00  0.00000000000E+00  0.12242470691E+04  0.12242470691E+04  0.25500000920E-02 0. -1.
       -2   -1    0    0    0  501  0.00000000000E+00  0.00000000000E+00 -0.27792280551E+04  0.27792280551E+04  0.25500000920E-02 0.  1.
    10030    2    1    2    0    0  0.00000000000E+00  0.00000000000E+00 -0.15549809860E+04  0.40034751242E+04  0.36891526403E+04 0.  0.
        2    1    3    3  502    0  0.80491892911E+03  0.14152280588E+04 -0.17183653817E+04  0.23671807125E+04  0.25500000920E-02 0.  1.
       -2    1    3    3    0  502 -0.80491892911E+03 -0.14152280588E+04  0.16338439569E+03  0.16362944117E+04  0.25500000920E-02 0. -1.
</event>
<event>
 5   0  0.1587026E-07  0.3725423E+04  0.7818609E-02  0.8062351E-01
       -2   -1    0    0    0  501  0.00000000000E+00  0.00000000000E+00  0.15494755031E+04  0.15494755031E+04  0.25500000920E-02 0.  1.
        2   -1    0    0  501    0  0.00000000000E+00  0.00000000000E+00 -0.22392697562E+04  0.22392697562E+04  0.25500000920E-02 0. -1.
    10030    2    1    2    0    0  0.00000000000E+00  0.00000000000E+00 -0.68979425308E+03  0.37887452593E+04  0.37254227314E+04 0.  0.
        3    1    3    3  502    0  0.38279632520E+03  0.21510387137E+03 -0.21858846203E+04  0.22295502429E+04  0.10100000352E+00 0. -1.
       -3    1    3    3    0  502 -0.38279632520E+03 -0.21510387137E+03  0.14960903672E+04  0.15591950164E+04  0.10100000352E+00 0.  1.
</event>
<event>
 5   0  0.5177000E-08  0.3581536E+04  0.7818609E-02  0.8094734E-01
       -1   -1    0    0    0  501  0.00000000000E+00  0.00000000000E+00  0.14519848466E+04  0.14519848466E+04  0.50400001928E-02 0.  1.
        1   -1    0    0  501    0  0.00000000000E+00  0.00000000000E+00 -0.22085974665E+04  0.22085974665E+04  0.50400001928E-02 0. -1.
    10030    2    1    2    0    0  0.00000000000E+00  0.00000000000E+00 -0.75661261992E+03  0.36605823131E+04  0.35815360133E+04 0.  0.
        3    1    3    3  502    0 -0.13850692057E+04  0.90537607465E+03  0.32144073429E+03  0.16856591283E+04  0.10100000352E+00 0.  1.
       -3    1    3    3    0  502  0.13850692057E+04 -0.90537607465E+03 -0.10780533542E+04  0.19749231848E+04  0.10100000352E+00 0. -1.
</event>
<event>
 5   0  0.1587026E-07  0.3688500E+04  0.7818609E-02  0.8070515E-01
        2   -1    0    0  501    0  0.00000000000E+00  0.00000000000E+00  0.29780660590E+04  0.29780660590E+04  0.25500000920E-02 0.  1.
       -2   -1    0    0    0  501  0.00000000000E+00  0.00000000000E+00 -0.11421028041E+04  0.11421028041E+04  0.25500000920E-02 0. -1.
    10030    2    1    2    0    0  0.00000000000E+00  0.00000000000E+00  0.18359632549E+04  0.41201688631E+04  0.36884997475E+04 0.  0.
        3    1    3    3  502    0 -0.13553402911E+04  0.18374349976E+03  0.22999204612E+04  0.26758817456E+04  0.10100000352E+00 0.  1.
       -3    1    3    3    0  502  0.13553402911E+04 -0.18374349976E+03 -0.46395720627E+03  0.14442871175E+04  0.10100000352E+00 0. -1.
</event>
<event>
 5   0  0.5177000E-08  0.3709056E+04  0.7818609E-02  0.8065958E-01
        1   -1    0    0  501    0  0.00000000000E+00  0.00000000000E+00  0.20921391715E+04  0.20921391715E+04  0.50400001928E-02 0.  1.
       -1   -1    0    0    0  501  0.00000000000E+00  0.00000000000E+00 -0.16439026925E+04  0.16439026926E+04  0.50400001928E-02 0. -1.
    10030    2    1    2    0    0  0.00000000000E+00  0.00000000000E+00  0.44823647897E+03  0.37360418641E+04  0.37090555225E+04 0.  0.
        4    1    3    3  502    0 -0.16796978168E+04 -0.69185996779E+03  0.59995041979E+03  0.19131118864E+04  0.12699999809E+01 0.  1.
       -4    1    3    3    0  502  0.16796978168E+04  0.69185996779E+03 -0.15171394082E+03  0.18229299777E+04  0.12699999809E+01 0. -1.
</event>
<event>
 5   0  0.1686284E-07  0.3700617E+04  0.7818609E-02  0.8067825E-01
        2   -1    0    0  501    0  0.00000000000E+00  0.00000000000E+00  0.31852795108E+04  0.31852795108E+04  0.25500000920E-02 0.  1.
       -2   -1    0    0    0  501  0.00000000000E+00  0.00000000000E+00 -0.10748323019E+04  0.10748323019E+04  0.25500000920E-02 0. -1.
    10030    2    1    2    0    0  0.00000000000E+00  0.00000000000E+00  0.21104472088E+04  0.42601118127E+04  0.37006168723E+04 0.  0.
        5    1    3    3  502    0  0.16497555282E+03 -0.38029650359E+03  0.31311274869E+04  0.31584527530E+04  0.46999998093E+01 0.  1.
       -5    1    3    3    0  502 -0.16497555282E+03  0.38029650359E+03 -0.10206802781E+04  0.11016590597E+04  0.46999998093E+01 0. -1.
</event>
<event>
 5   0  0.5177000E-08  0.3718723E+04  0.7818609E-02  0.8063825E-01
        1   -1    0    0  501    0  0.00000000000E+00  0.00000000000E+00  0.23465265936E+04  0.23465265936E+04  0.50400001928E-02 0. -1.
       -1   -1    0    0    0  501  0.00000000000E+00  0.00000000000E+00 -0.14733372438E+04  0.14733372438E+04  0.50400001928E-02 0.  1.
    10030    2    1    2    0    0  0.00000000000E+00  0.00000000000E+00  0.87318934979E+03  0.38198638373E+04  0.37187229119E+04 0.  0.
        3    1    3    3  502    0  0.53967889100E+03  0.11232868409E+04  0.18540525417E+04  0.22339510895E+04  0.10100000352E+00 0. -1.
       -3    1    3    3    0  502 -0.53967889100E+03 -0.11232868409E+04 -0.98086319195E+03  0.15859127479E+04  0.10100000352E+00 0.  1.
</event>
<event>
 5   0  0.1658770E-07  0.3701493E+04  0.7818609E-02  0.8067631E-01
        2   -1    0    0  501    0  0.00000000000E+00  0.00000000000E+00  0.19309500306E+04  0.19309500306E+04  0.25500000920E-02 0.  1.
       -2   -1    0    0    0  501  0.00000000000E+00  0.00000000000E+00 -0.17738745222E+04  0.17738745222E+04  0.25500000920E-02 0. -1.
    10030    2    1    2    0    0  0.00000000000E+00  0.00000000000E+00  0.15707550845E+03  0.37048245528E+04  0.37014932462E+04 0.  0.
        2    1    3    3  502    0 -0.10488584005E+04 -0.89430380803E+03  0.13147119758E+04  0.19048230429E+04  0.25500000920E-02 0.  1.
       -2    1    3    3    0  502  0.10488584005E+04  0.89430380803E+03 -0.11576364674E+04  0.18000015099E+04  0.25500000920E-02 0. -1.
</event>
<event>
 5   0  0.5181371E-08  0.3695090E+04  0.7818609E-02  0.8069051E-01
        1   -1    0    0  501    0  0.00000000000E+00  0.00000000000E+00  0.21506630295E+04  0.21506630295E+04  0.50400001928E-02 0. -1.
       -1   -1    0    0    0  501  0.00000000000E+00  0.00000000000E+00 -0.15871492048E+04  0.15871492048E+04  0.50400001928E-02 0.  1.
    10030    2    1    2    0    0  0.00000000000E+00  0.00000000000E+00  0.56351382469E+03  0.37378122343E+04  0.36950903193E+04 0.  0.
        5    1    3    3  502    0 -0.14489978804E+04 -0.76682577032E+03  0.11435365728E+04  0.19988283075E+04  0.46999998093E+01 0. -1.
       -5    1    3    3    0  502  0.14489978804E+04  0.76682577032E+03 -0.58002274815E+03  0.17389839268E+04  0.46999998093E+01 0.  1.
</event>
<event>
 5   0  0.5177000E-08  0.3701788E+04  0.7818609E-02  0.8067566E-01
       -1   -1    0    0    0  501  0.00000000000E+00  0.00000000000E+00  0.20550061930E+04  0.20550061930E+04  0.50400001928E-02 0. -1.
        1   -1    0    0  501    0  0.00000000000E+00  0.00000000000E+00 -0.16670553371E+04  0.16670553371E+04  0.50400001928E-02 0.  1.
    10030    2    1    2    0    0  0.00000000000E+00  0.00000000000E+00  0.38795085587E+03  0.37220615301E+04  0.37017882392E+04 0.  0.
        2    1    3    3  502    0  0.60269809128E+03 -0.11164306551E+04  0.15490008192E+04  0.20022652009E+04  0.25500000920E-02 0. -1.
       -2    1    3    3    0  502 -0.60269809128E+03  0.11164306551E+04 -0.11610499633E+04  0.17197963293E+04  0.25500000920E-02 0.  1.
</event>
<event>
 5   0  0.5181371E-08  0.3692135E+04  0.7818609E-02  0.8069707E-01
       -1   -1    0    0    0  501  0.00000000000E+00  0.00000000000E+00  0.18221957462E+04  0.18221957462E+04  0.50400001928E-02 0. -1.
        1   -1    0    0  501    0  0.00000000000E+00  0.00000000000E+00 -0.18702516578E+04  0.18702516578E+04  0.50400001928E-02 0.  1.
    10030    2    1    2    0    0  0.00000000000E+00  0.00000000000E+00 -0.48055911612E+02  0.36924474040E+04  0.36921346754E+04 0.  0.
        5    1    3    3  502    0  0.12475855598E+04 -0.79266736444E+03 -0.11300833158E+04  0.18606186257E+04  0.46999998093E+01 0.  1.
       -5    1    3    3    0  502 -0.12475855598E+04  0.79266736444E+03  0.10820274042E+04  0.18318287783E+04  0.46999998093E+01 0. -1.
</event>
<event>
 5   0  0.1587026E-07  0.3692981E+04  0.7818609E-02  0.8069519E-01
       -2   -1    0    0    0  501  0.00000000000E+00  0.00000000000E+00  0.29203251889E+04  0.29203251889E+04  0.25500000920E-02 0. -1.
        2   -1    0    0  501    0  0.00000000000E+00  0.00000000000E+00 -0.11675164384E+04  0.11675164384E+04  0.25500000920E-02 0.  1.
    10030    2    1    2    0    0  0.00000000000E+00  0.00000000000E+00  0.17528087505E+04  0.40878416274E+04  0.36929812692E+04 0.  0.
        3    1    3    3  502    0 -0.68868590364E+03  0.13503912057E+04  0.20435026673E+04  0.25443560765E+04  0.10100000352E+00 0. -1.
       -3    1    3    3    0  502  0.68868590364E+03 -0.13503912057E+04 -0.29069391678E+03  0.15434855509E+04  0.10100000352E+00 0.  1.
</event>
<event>
 5   0  0.5181371E-08  0.3670369E+04  0.7818609E-02  0.8074560E-01
       -1   -1    0    0    0  501  0.00000000000E+00  0.00000000000E+00  0.16454464537E+04  0.16454464537E+04  0.50400001928E-02 0. -1.
        1   -1    0    0  501    0  0.00000000000E+00  0.00000000000E+00 -0.20468015497E+04  0.20468015497E+04  0.50400001928E-02 0.  1.
    10030    2    1    2    0    0  0.00000000000E+00  0.00000000000E+00 -0.40135509602E+03  0.36922480034E+04  0.36703691102E+04 0.  0.
        5    1    3    3  502    0  0.13322497822E+04 -0.12438825230E+04  0.14483010078E+02  0.18227355981E+04  0.46999998093E+01 0. -1.
       -5    1    3    3    0  502 -0.13322497822E+04  0.12438825230E+04 -0.41583810610E+03  0.18695124053E+04  0.46999998093E+01 0.  1.
</event>
<event>
 5   0  0.1558258E-07  0.3706011E+04  0.7818609E-02  0.8066631E-01
        2   -1    0    0  501    0  0.00000000000E+00  0.00000000000E+00  0.15907003775E+04  0.15907003775E+04  0.25500000920E-02 0. -1.
       -2   -1    0    0    0  501  0.00000000000E+00  0.00000000000E+00 -0.21585646472E+04  0.21585646472E+04  0.25500000920E-02 0.  1.
    10030    2    1    2    0    0  0.00000000000E+00  0.00000000000E+00 -0.56786426975E+03  0.37492650247E+04  0.37060111166E+04 0.  0.
        1    1    3    3  502    0  0.13743763170E+03  0.14819312501E+04 -0.14007275467E+04  0.20437825209E+04  0.50400001928E-02 0.  1.
       -1    1    3    3    0  502 -0.13743763170E+03 -0.14819312501E+04  0.83286327696E+03  0.17054825038E+04  0.50400001928E-02 0. -1.
</event>
<event>
 5   0  0.1686284E-07  0.3701175E+04  0.7818609E-02  0.8067702E-01
        2   -1    0    0  501    0  0.00000000000E+00  0.00000000000E+00  0.21711506483E+04  0.21711506483E+04  0.25500000920E-02 0.  1.
       -2   -1    0    0    0  501  0.00000000000E+00  0.00000000000E+00 -0.15773543180E+04  0.15773543180E+04  0.25500000920E-02 0. -1.
    10030    2    1    2    0    0  0.00000000000E+00  0.00000000000E+00  0.59379633033E+03  0.37485049663E+04  0.37011748676E+04 0.  0.
        5    1    3    3  502    0  0.25777029222E+03  0.11815905281E+04 -0.11217461695E+04  0.16495266771E+04  0.46999998093E+01 0. -1.
       -5    1    3    3    0  502 -0.25777029222E+03 -0.11815905281E+04  0.17155424999E+04  0.20989782892E+04  0.46999998093E+01 0.  1.
</event>
<event>
 5   0  0.1686284E-07  0.3693007E+04  0.7818609E-02  0.8069513E-01
        2   -1    0    0  501    0  0.00000000000E+00  0.00000000000E+00  0.22200177869E+04  0.22200177869E+04  0.25500000920E-02 0. -1.
       -2   -1    0    0    0  501  0.00000000000E+00  0.00000000000E+00 -0.15358323654E+04  0.15358323654E+04  0.25500000920E-02 0.  1.
    10030    2    1    2    0    0  0.00000000000E+00  0.00000000000E+00  0.68418542152E+03  0.37558501523E+04  0.36930069964E+04 0.  0.
        5    1    3    3  502    0 -0.10957540112E+04  0.14858480935E+04  0.30787997783E+03  0.18716927047E+04  0.46999998093E+01 0.  1.
       -5    1    3    3    0  502  0.10957540112E+04 -0.14858480935E+04  0.37630544369E+03  0.18841574475E+04  0.46999998093E+01 0. -1.
</event>
<event>
 5   0  0.5181371E-08  0.3687634E+04  0.7818609E-02  0.8070708E-01
       -1   -1    0    0    0  501  0.00000000000E+00  0.00000000000E+00  0.11900646274E+04  0.11900646274E+04  0.50400001928E-02 0. -1.
        1   -1    0    0  501    0  0.00000000000E+00  0.00000000000E+00 -0.28567025083E+04  0.28567025083E+04  0.50400001928E-02 0.  1.
    10030    2    1    2    0    0  0.00000000000E+00  0.00000000000E+00 -0.16666378808E+04  0.40467671357E+04  0.36876337162E+04 0.  0.
        5    1    3    3  502    0  0.16410393698E+04 -0.21084141184E+02 -0.17555065884E+04  0.24031812720E+04  0.46999998093E+01 0. -1.
       -5    1    3    3    0  502 -0.16410393698E+04  0.21084141184E+02  0.88868707561E+02  0.16435858637E+04  0.46999998093E+01 0.  1.
</event>
<event>
 5   0  0.5181371E-08  0.3701089E+04  0.7818609E-02  0.8067721E-01
       -1   -1    0    0    0  501  0.00000000000E+00  0.00000000000E+00  0.27055974167E+04  0.27055974167E+04  0.50400001928E-02 0. -1.
        1   -1    0    0  501    0  0.00000000000E+00  0.00000000000E+00 -0.12657145937E+04  0.12657145937E+04  0.50400001928E-02 0.  1.
    10030    2    1    2    0    0  0.00000000000E+00  0.00000000000E+00  0.14398828231E+04  0.39713120104E+04  0.37010885615E+04 0.  0.
        5    1    3    3  502    0 -0.16905155460E+04  0.35052528630E+03  0.51340603239E+01  0.17264875430E+04  0.46999998093E+01 0.  1.
       -5    1    3    3    0  502  0.16905155460E+04 -0.35052528630E+03  0.14347487627E+04  0.22448244675E+04  0.46999998093E+01 0. -1.
</event>
<event>
 5   0  0.1686284E-07  0.3758841E+04  0.7818609E-02  0.8055046E-01
        2   -1    0    0  501    0  0.00000000000E+00  0.00000000000E+00  0.16483067765E+04  0.16483067765E+04  0.25500000920E-02 0. -1.
       -2   -1    0    0    0  501  0.00000000000E+00  0.00000000000E+00 -0.21429391372E+04  0.21429391372E+04  0.25500000920E-02 0.  1.
    10030    2    1    2    0    0  0.00000000000E+00  0.00000000000E+00 -0.49463236071E+03  0.37912459137E+04  0.37588408328E+04 0.  0.
        5    1    3    3  502    0  0.43990258835E+02 -0.65409740134E+03 -0.20238699112E+04  0.21274045363E+04  0.46999998093E+01 0.  1.
       -5    1    3    3    0  502 -0.43990258835E+02  0.65409740134E+03  0.15292375505E+04  0.16638413774E+04  0.46999998093E+01 0. -1.
</event>
<event>
 5   0  0.5177000E-08  0.3699289E+04  0.7818609E-02  0.8068119E-01
       -1   -1    0    0    0  501  0.00000000000E+00  0.00000000000E+00  0.33179366878E+04  0.33179366878E+04  0.50400001928E-02 0.  1.
        1   -1    0    0  501    0  0.00000000000E+00  0.00000000000E+00 -0.10311183612E+04  0.10311183612E+04  0.50400001928E-02 0. -1.
    10030    2    1    2    0    0  0.00000000000E+00  0.00000000000E+00  0.22868183265E+04  0.43490550490E+04  0.36992893589E+04 0.  0.
        4    1    3    3  502    0 -0.49198154169E+03  0.14747740404E+04 -0.34691177096E+02  0.15550592909E+04  0.12699999809E+01 0. -1.
       -4    1    3    3    0  502  0.49198154169E+03 -0.14747740404E+04  0.23215095036E+04  0.27939957581E+04  0.12699999809E+01 0.  1.
</event>
<event>
 5   0  0.1558258E-07  0.3688207E+04  0.7818609E-02  0.8070580E-01
       -2   -1    0    0    0  501  0.00000000000E+00  0.00000000000E+00  0.20812048223E+04  0.20812048223E+04  0.25500000920E-02 0. -1.
        2   -1    0    0  501    0  0.00000000000E+00  0.00000000000E+00 -0.16340142017E+04  0.16340142017E+04  0.25500000920E-02 0.  1.
    10030    2    1    2    0    0  0.00000000000E+00  0.00000000000E+00  0.44719062054E+03  0.37152190240E+04  0.36882072807E+04 0.  0.
        1    1    3    3  502    0 -0.12720733813E+04 -0.78807556131E+03 -0.86201960782E+03  0.17269370521E+04  0.50400001928E-02 0.  1.
       -1    1    3    3    0  502  0.12720733813E+04  0.78807556131E+03  0.13092102284E+04  0.19882819719E+04  0.50400001928E-02 0. -1.
</event>
<event>
 5   0  0.5181371E-08  0.3693908E+04  0.7818609E-02  0.8069313E-01
        1   -1    0    0  501    0  0.00000000000E+00  0.00000000000E+00  0.10776681432E+04  0.10776681432E+04  0.50400001928E-02 0.  1.
       -1   -1    0    0    0  501  0.00000000000E+00  0.00000000000E+00 -0.31653889856E+04  0.31653889856E+04  0.50400001928E-02 0. -1.
    10030    2    1    2    0    0  0.00000000000E+00  0.00000000000E+00 -0.20877208424E+04  0.42430571287E+04  0.36939078876E+04 0.  0.
        5    1    3    3  502    0 -0.12420414132E+04 -0.78509239018E+03 -0.23292245408E+04  0.27539691329E+04  0.46999998093E+01 0. -1.
       -5    1    3    3    0  502  0.12420414132E+04  0.78509239018E+03  0.24150369844E+03  0.14890879959E+04  0.46999998093E+01 0.  1.
</event>
<event>
 5   0  0.5177000E-08  0.3677146E+04  0.7818609E-02  0.8073046E-01
        1   -1    0    0  501    0  0.00000000000E+00  0.00000000000E+00  0.16899973890E+04  0.16899973890E+04  0.50400001928E-02 0. -1.
       -1   -1    0    0    0  501  0.00000000000E+00  0.00000000000E+00 -0.20002104653E+04  0.20002104653E+04  0.50400001928E-02 0.  1.
    10030    2    1    2    0    0  0.00000000000E+00  0.00000000000E+00 -0.31021307632E+03  0.36902078543E+04  0.36771458844E+04 0.  0.
        1    1    3    3  502    0 -0.24481387423E+03  0.18085539487E+04  0.68280767564E+02  0.18263251304E+04  0.50400001928E-02 0. -1.
       -1    1    3    3    0  502  0.24481387423E+03 -0.18085539487E+04 -0.37849384389E+03  0.18638827239E+04  0.50400001928E-02 0.  1.
</event>
<event>
 5   0  0.5177000E-08  0.3701138E+04  0.7818609E-02  0.8067710E-01
       -1   -1    0    0    0  501  0.00000000000E+00  0.00000000000E+00  0.16734458075E+04  0.16734458075E+04  0.50400001928E-02 0. -1.
        1   -1    0    0  501    0  0.00000000000E+00  0.00000000000E+00 -0.20464393207E+04  0.20464393207E+04  0.50400001928E-02 0.  1.
    10030    2    1    2    0    0  0.00000000000E+00  0.00000000000E+00 -0.37299351315E+03  0.37198851282E+04  0.37011378259E+04 0.  0.
        1    1    3    3  502    0 -0.10840351106E+03  0.69740276880E+03  0.15328651493E+04  0.16875418540E+04  0.50400001928E-02 0. -1.
       -1    1    3    3    0  502  0.10840351106E+03 -0.69740276880E+03 -0.19058586624E+04  0.20323432742E+04  0.50400001928E-02 0.  1.
</event>
<event>
 5   0  0.5177000E-08  0.3693407E+04  0.7818609E-02  0.8069425E-01
       -1   -1    0    0    0  501  0.00000000000E+00  0.00000000000E+00  0.26494322658E+04  0.26494322659E+04  0.50400001928E-02 0. -1.
        1   -1    0    0  501    0  0.00000000000E+00  0.00000000000E+00 -0.12871865094E+04  0.12871865094E+04  0.50400001928E-02 0.  1.
    10030    2    1    2    0    0  0.00000000000E+00  0.00000000000E+00  0.13622457564E+04  0.39366187753E+04  0.36934068123E+04 0.  0.
        4    1    3    3  502    0 -0.16953208348E+04 -0.69140772653E+03  0.42409051934E+03  0.18793647221E+04  0.12699999809E+01 0.  1.
       -4    1    3    3    0  502  0.16953208348E+04  0.69140772653E+03  0.93815523711E+03  0.20572540531E+04  0.12699999809E+01 0. -1.
</event>
<event>
 5   0  0.1666189E-07  0.3708021E+04  0.7818609E-02  0.8066187E-01
        2   -1    0    0  501    0  0.00000000000E+00  0.00000000000E+00  0.21601047634E+04  0.21601047634E+04  0.25500000920E-02 0.  1.
       -2   -1    0    0    0  501  0.00000000000E+00  0.00000000000E+00 -0.15912911021E+04  0.15912911021E+04  0.25500000920E-02 0. -1.
    10030    2    1    2    0    0  0.00000000000E+00  0.00000000000E+00  0.56881366139E+03  0.37513958655E+04  0.37080212996E+04 0.  0.
        4    1    3    3  502    0  0.14285522831E+04  0.11528284060E+04  0.21406502710E+02  0.18358199287E+04  0.12699999809E+01 0. -1.
       -4    1    3    3    0  502 -0.14285522831E+04 -0.11528284060E+04  0.54740715868E+03  0.19155759368E+04  0.12699999809E+01 0.  1.
</event>
<event>
 5   0  0.1558258E-07  0.3703302E+04  0.7818609E-02  0.8067231E-01
        2   -1    0    0  501    0  0.00000000000E+00  0.00000000000E+00  0.22649161733E+04  0.22649161733E+04  0.25500000920E-02 0.  1.
       -2   -1    0    0    0  501  0.00000000000E+00  0.00000000000E+00 -0.15137914696E+04  0.15137914696E+04  0.25500000920E-02 0. -1.
    10030    2    1    2    0    0  0.00000000000E+00  0.00000000000E+00  0.75112470374E+03  0.37787076429E+04  0.37033016525E+04 0.  0.
        1    1    3    3  502    0 -0.12490696670E+04 -0.95108637099E+03  0.13773220124E+04  0.20884818036E+04  0.50400001928E-02 0.  1.
       -1    1    3    3    0  502  0.12490696670E+04  0.95108637099E+03 -0.62619730867E+03  0.16902258392E+04  0.50400001928E-02 0. -1.
</event>
<event>
 5   0  0.5177000E-08  0.3698901E+04  0.7818609E-02  0.8068205E-01
       -1   -1    0    0    0  501  0.00000000000E+00  0.00000000000E+00  0.17919385233E+04  0.17919385233E+04  0.50400001928E-02 0.  1.
        1   -1    0    0  501    0  0.00000000000E+00  0.00000000000E+00 -0.19088079843E+04  0.19088079844E+04  0.50400001928E-02 0. -1.
    10030    2    1    2    0    0  0.00000000000E+00  0.00000000000E+00 -0.11686946105E+03  0.37007465077E+04  0.36989006803E+04 0.  0.
        4    1    3    3  502    0  0.15784284922E+04  0.70476778938E+03 -0.71628151917E+03  0.18711480352E+04  0.12699999809E+01 0. -1.
       -4    1    3    3    0  502 -0.15784284922E+04 -0.70476778938E+03  0.59941205812E+03  0.18295984725E+04  0.12699999809E+01 0.  1.
</event>
<event>
 5   0  0.1686284E-07  0.3704832E+04  0.7818609E-02  0.8066892E-01
       -2   -1    0    0    0  501  0.00000000000E+00  0.00000000000E+00  0.14784215067E+04  0.14784215067E+04  0.25500000920E-02 0.  1.
        2   -1    0    0  501    0  0.00000000000E+00  0.00000000000E+00 -0.23210189415E+04  0.23210189415E+04  0.25500000920E-02 0. -1.
    10030    2    1    2    0    0  0.00000000000E+00  0.00000000000E+00 -0.84259743473E+03  0.37994404482E+04  0.37048316133E+04 0.  0.
        5    1    3    3  502    0  0.10885908153E+04  0.13191716844E+04  0.30833172256E+03  0.17379109405E+04  0.46999998093E+01 0.  1.
       -5    1    3    3    0  502 -0.10885908153E+04 -0.13191716844E+04 -0.11509291573E+04  0.20615295077E+04  0.46999998093E+01 0. -1.
</event>
<event>
 5   0  0.1587026E-07  0.3701677E+04  0.7818609E-02  0.8067590E-01
       -2   -1    0    0    0  501  0.00000000000E+00  0.00000000000E+00  0.26471194986E+04  0.26471194986E+04  0.25500000920E-02 0.  1.
        2   -1    0    0  501    0  0.00000000000E+00  0.00000000000E+00 -0.12940872962E+04  0.12940872962E+04  0.25500000920E-02 0. -1.
    10030    2    1    2    0    0  0.00000000000E+00  0.00000000000E+00  0.13530322024E+04  0.39412067948E+04  0.37016773034E+04 0.  0.
        3    1    3    3  502    0 -0.52663874522E+03 -0.17179138262E+04  0.20391578843E+03  0.18083578023E+04  0.10100000352E+00 0. -1.
       -3    1    3    3    0  502  0.52663874522E+03  0.17179138262E+04  0.11491164139E+04  0.21328489925E+04  0.10100000352E+00 0.  1.
</event>
<event>
 5   0  0.1666189E-07  0.3705995E+04  0.7818609E-02  0.8066635E-01
        2   -1    0    0  501    0  0.00000000000E+00  0.00000000000E+00  0.17686788134E+04  0.17686788134E+04  0.25500000920E-02 0.  1.
       -2   -1    0    0    0  501  0.00000000000E+00  0.00000000000E+00 -0.19413358440E+04  0.19413358440E+04  0.25500000920E-02 0. -1.
    10030    2    1    2    0    0  0.00000000000E+00  0.00000000000E+00 -0.17265703059E+03  0.37100146574E+04  0.37059949147E+04 0.  0.
        4    1    3    3  502    0  0.98928565287E+03 -0.37620602618E+03 -0.16089584999E+04  0.19258676342E+04  0.12699999809E+01 0. -1.
       -4    1    3    3    0  502 -0.98928565287E+03  0.37620602618E+03  0.14363014693E+04  0.17841470233E+04  0.12699999809E+01 0.  1.
</event>
<event>
 5   0  0.1658770E-07  0.3701709E+04  0.7818609E-02  0.8067583E-01
       -2   -1    0    0    0  501  0.00000000000E+00  0.00000000000E+00  0.21175839858E+04  0.21175839858E+04  0.25500000920E-02 0. -1.
        2   -1    0    0  501    0  0.00000000000E+00  0.00000000000E+00 -0.16177222286E+04  0.16177222286E+04  0.25500000920E-02 0.  1.
    10030    2    1    2    0    0  0.00000000000E+00  0.00000000000E+00  0.49986175719E+03  0.37353062144E+04  0.37017091646E+04 0.  0.
        2    1    3    3  502    0  0.54975683852E+03  0.15799572282E+04  0.10490562390E+04  0.19745927218E+04  0.25500000920E-02 0. -1.
       -2    1    3    3    0  502 -0.54975683852E+03 -0.15799572282E+04 -0.54919448184E+03  0.17607134926E+04  0.25500000920E-02 0.  1.
</event>
<event>
 5   0  0.1658770E-07  0.3672986E+04  0.7818609E-02  0.8073975E-01
        2   -1    0    0  501    0  0.00000000000E+00  0.00000000000E+00  0.27919917153E+04  0.27919917153E+04  0.25500000920E-02 0. -1.
       -2   -1    0    0    0  501  0.00000000000E+00  0.00000000000E+00 -0.12079927548E+04  0.12079927548E+04  0.25500000920E-02 0.  1.
    10030    2    1    2    0    0  0.00000000000E+00  0.00000000000E+00  0.15839989605E+04  0.39999844702E+04  0.36729855778E+04 0.  0.
        2    1    3    3  502    0 -0.88565368571E+03 -0.14387137814E+04  0.78796167301E+01  0.16894797674E+04  0.25500000920E-02 0. -1.
       -2    1    3    3    0  502  0.88565368571E+03  0.14387137814E+04  0.15761193438E+04  0.23105047028E+04  0.25500000920E-02 0.  1.
</event>
<event>
 5   0  0.1658770E-07  0.3701092E+04  0.7818609E-02  0.8067720E-01
        2   -1    0    0  501    0  0.00000000000E+00  0.00000000000E+00  0.22021055824E+04  0.22021055824E+04  0.25500000920E-02 0. -1.
       -2   -1    0    0    0  501  0.00000000000E+00  0.00000000000E+00 -0.15551116931E+04  0.15551116931E+04  0.25500000920E-02 0.  1.
    10030    2    1    2    0    0  0.00000000000E+00  0.00000000000E+00  0.64699388924E+03  0.37572172755E+04  0.37010918068E+04 0.  0.
        2    1    3    3  502    0 -0.17577158861E+04  0.96796162491E+02 -0.25575697992E+03  0.17788609463E+04  0.25500000920E-02 0. -1.
       -2    1    3    3    0  502  0.17577158861E+04 -0.96796162491E+02  0.90275086916E+03  0.19783563292E+04  0.25500000920E-02 0.  1.
</event>
<event>
 5   0  0.1587026E-07  0.3704390E+04  0.7818609E-02  0.8066990E-01
        2   -1    0    0  501    0  0.00000000000E+00  0.00000000000E+00  0.10338525465E+04  0.10338525465E+04  0.25500000920E-02 0.  1.
       -2   -1    0    0    0  501  0.00000000000E+00  0.00000000000E+00 -0.33182940715E+04  0.33182940715E+04  0.25500000920E-02 0. -1.
    10030    2    1    2    0    0  0.00000000000E+00  0.00000000000E+00 -0.22844415250E+04  0.43521466180E+04  0.37043902471E+04 0.  0.
        3    1    3    3  502    0  0.69870586943E+02 -0.21647047067E+03  0.10173802224E+04  0.10424988685E+04  0.10100000352E+00 0.  1.
       -3    1    3    3    0  502 -0.69870586943E+02  0.21647047067E+03 -0.33018217475E+04  0.33096477495E+04  0.10100000352E+00 0. -1.
</event>
<event>
 5   0  0.1666189E-07  0.3688469E+04  0.7818609E-02  0.8070522E-01
       -2   -1    0    0    0  501  0.00000000000E+00  0.00000000000E+00  0.12883260784E+04  0.12883260784E+04  0.25500000920E-02 0. -1.
        2   -1    0    0  501    0  0.00000000000E+00  0.00000000000E+00 -0.26400154023E+04  0.26400154023E+04  0.25500000920E-02 0.  1.
    10030    2    1    2    0    0  0.00000000000E+00  0.00000000000E+00 -0.13516893239E+04  0.39283414807E+04  0.36884688911E+04 0.  0.
        4    1    3    3  502    0  0.12642789513E+03 -0.49835520052E+03  0.12104540987E+04  0.13151207764E+04  0.12699999809E+01 0. -1.
       -4    1    3    3    0  502 -0.12642789513E+03  0.49835520052E+03 -0.25621434226E+04  0.26132207043E+04  0.12699999809E+01 0.  1.
</event>
<event>
 5   0  0.1558258E-07  0.3706359E+04  0.7818609E-02  0.8066554E-01
       -2   -1    0    0    0  501  0.00000000000E+00  0.00000000000E+00  0.15031937760E+04  0.15031937760E+04  0.25500000920E-02 0. -1.
        2   -1    0    0  501    0  0.00000000000E+00  0.00000000000E+00 -0.22846512579E+04  0.22846512579E+04  0.25500000920E-02 0.  1.
    10030    2    1    2    0    0  0.00000000000E+00  0.00000000000E+00 -0.78145748188E+03  0.37878450340E+04  0.37063586180E+04 0.  0.
        1    1    3    3  502    0 -0.78810760533E+03 -0.22380350949E+03 -0.20895232997E+04  0.22443950696E+04  0.50400001928E-02 0.  1.
       -1    1    3    3    0  502  0.78810760533E+03  0.22380350949E+03  0.13080658179E+04  0.15434499643E+04  0.50400001928E-02 0. -1.
</event>
<event>
 5   0  0.5177000E-08  0.3679668E+04  0.7818609E-02  0.8072483E-01
        1   -1    0    0  501    0  0.00000000000E+00  0.00000000000E+00  0.36271364854E+04  0.36271364854E+04  0.50400001928E-02 0. -1.
       -1   -1    0    0    0  501  0.00000000000E+00  0.00000000000E+00 -0.93323993787E+03  0.93323993788E+03  0.50400001928E-02 0.  1.
    10030    2    1    2    0    0  0.00000000000E+00  0.00000000000E+00  0.26938965475E+04  0.45603764233E+04  0.36796677178E+04 0.  0.
        1    1    3    3  502    0 -0.96838899934E+03 -0.24035089253E+01 -0.59182630996E+03  0.11349191214E+04  0.50400001928E-02 0.  1.
       -1    1    3    3    0  502  0.96838899934E+03  0.24035089253E+01  0.32857228575E+04  0.34254573019E+04  0.50400001928E-02 0. -1.
</event>
<event>
 5   0  0.5177000E-08  0.3734619E+04  0.7818609E-02  0.8060333E-01
       -1   -1    0    0    0  501  0.00000000000E+00  0.00000000000E+00  0.15992609146E+04  0.15992609146E+04  0.50400001928E-02 0. -1.
        1   -1    0    0  501    0  0.00000000000E+00  0.00000000000E+00 -0.21802855373E+04  0.21802855373E+04  0.50400001928E-02 0.  1.
    10030    2    1    2    0    0  0.00000000000E+00  0.00000000000E+00 -0.58102462274E+03  0.37795464519E+04  0.37346193608E+04 0.  0.
        3    1    3    3  502    0  0.15225992313E+04  0.21493347280E+03  0.78163801652E+03  0.17249529895E+04  0.10100000352E+00 0. -1.
       -3    1    3    3    0  502 -0.15225992313E+04 -0.21493347280E+03 -0.13626626393E+04  0.20545934624E+04  0.10100000352E+00 0.  1.
</event>
<event>
 5   0  0.5177000E-08  0.3697994E+04  0.7818609E-02  0.8068407E-01
        1   -1    0    0  501    0  0.00000000000E+00  0.00000000000E+00  0.16118426793E+04  0.16118426793E+04  0.50400001928E-02 0. -1.
       -1   -1    0    0    0  501  0.00000000000E+00  0.00000000000E+00 -0.21210444060E+04  0.21210444060E+04  0.50400001928E-02 0.  1.
    10030    2    1    2    0    0  0.00000000000E+00  0.00000000000E+00 -0.50920172666E+03  0.37328870853E+04  0.36979939958E+04 0.  0.
        1    1    3    3  502    0  0.86206361189E+03 -0.37215981323E+03 -0.18624685024E+04  0.20857721640E+04  0.50400001928E-02 0.  1.
       -1    1    3    3    0  502 -0.86206361189E+03  0.37215981323E+03  0.13532667758E+04  0.16471149213E+04  0.50400001928E-02 0. -1.
</event>
<event>
 5   0  0.1666189E-07  0.3443992E+04  0.7818609E-02  0.8127193E-01
       -2   -1    0    0    0  501  0.00000000000E+00  0.00000000000E+00  0.15723142718E+04  0.15723142718E+04  0.25500000920E-02 0. -1.
        2   -1    0    0  501    0  0.00000000000E+00  0.00000000000E+00 -0.18859273978E+04  0.18859273978E+04  0.25500000920E-02 0.  1.
    10030    2    1    2    0    0  0.00000000000E+00  0.00000000000E+00 -0.31361312598E+03  0.34582416696E+04  0.34439921969E+04 0.  0.
        4    1    3    3  502    0  0.36251155677E+03 -0.10409565323E+04  0.11716425964E+04  0.16086494700E+04  0.12699999809E+01 0. -1.
       -4    1    3    3    0  502 -0.36251155677E+03  0.10409565323E+04 -0.14852557224E+04  0.18495921995E+04  0.12699999809E+01 0.  1.
</event>
<event>
 5   0  0.1658770E-07  0.3698444E+04  0.7818609E-02  0.8068307E-01
        2   -1    0    0  501    0  0.00000000000E+00  0.00000000000E+00  0.21579232012E+04  0.21579232012E+04  0.25500000920E-02 0. -1.
       -2   -1    0    0    0  501  0.00000000000E+00  0.00000000000E+00 -0.15846817318E+04  0.15846817319E+04  0.25500000920E-02 0.  1.
    10030    2    1    2    0    0  0.00000000000E+00  0.00000000000E+00  0.57324146930E+03  0.37426049330E+04  0.36984437136E+04 0.  0.
        2    1    3    3  502    0 -0.10366001113E+04  0.15141498443E+04  0.54906395773E+02  0.18358116064E+04  0.25500000920E-02 0.  1.
       -2    1    3    3    0  502  0.10366001113E+04 -0.15141498443E+04  0.51833507353E+03  0.19067933266E+04  0.25500000920E-02 0. -1.
</event>
<event>
 5   0  0.1658770E-07  0.3705688E+04  0.7818609E-02  0.8066703E-01
       -2   -1    0    0    0  501  0.00000000000E+00  0.00000000000E+00  0.23368835931E+04  0.23368835931E+04  0.25500000920E-02 0.  1.
        2   -1    0    0  501    0  0.00000000000E+00  0.00000000000E+00 -0.14690635210E+04  0.14690635210E+04  0.25500000920E-02 0. -1.
    10030    2    1    2    0    0  0.00000000000E+00  0.00000000000E+00  0.86782007214E+03  0.38059471141E+04  0.37056877577E+04 0.  0.
        2    1    3    3  502    0 -0.17804292646E+04  0.29360511675E+03  0.19381119135E+01  0.18044766796E+04  0.25500000920E-02 0. -1.
       -2    1    3    3    0  502  0.17804292646E+04 -0.29360511675E+03  0.86588196022E+03  0.20014704345E+04  0.25500000920E-02 0.  1.
</event>
<event>
 5   0  0.1558258E-07  0.3706755E+04  0.7818609E-02  0.8066466E-01
        2   -1    0    0  501    0  0.00000000000E+00  0.00000000000E+00  0.25815538068E+04  0.25815538068E+04  0.25500000920E-02 0. -1.
       -2   -1    0    0    0  501  0.00000000000E+00  0.00000000000E+00 -0.13305972459E+04  0.13305972459E+04  0.25500000920E-02 0.  1.
    10030    2    1    2    0    0  0.00000000000E+00  0.00000000000E+00  0.12509565609E+04  0.39121510528E+04  0.37067551231E+04 0.  0.
        1    1    3    3  502    0  0.35622358175E+03 -0.11460358663E+04  0.21160817874E+04  0.24327136243E+04  0.50400001928E-02 0. -1.
       -1    1    3    3    0  502 -0.35622358175E+03  0.11460358663E+04 -0.86512522653E+03  0.14794374284E+04  0.50400001928E-02 0.  1.
</event>
<event>
 5   0  0.1686284E-07  0.3701401E+04  0.7818609E-02  0.8067651E-01
       -2   -1    0    0    0  501  0.00000000000E+00  0.00000000000E+00  0.12384482160E+04  0.12384482160E+04  0.25500000920E-02 0.  1.
        2   -1    0    0  501    0  0.00000000000E+00  0.00000000000E+00 -0.27656326245E+04  0.27656326245E+04  0.25500000920E-02 0. -1.
    10030    2    1    2    0    0  0.00000000000E+00  0.00000000000E+00 -0.15271844085E+04  0.40040808405E+04  0.37014012427E+04 0.  0.
        5    1    3    3  502    0  0.10928331662E+03  0.31255214474E+03  0.12061400316E+04  0.12507707832E+04  0.46999998093E+01 0.  1.
       -5    1    3    3    0  502 -0.10928331662E+03 -0.31255214474E+03 -0.27333244401E+04  0.27533100573E+04  0.46999998093E+01 0. -1.
</event>
<event>
 5   0  0.5177000E-08  0.3697185E+04  0.7818609E-02  0.8068586E-01
       -1   -1    0    0    0  501  0.00000000000E+00  0.00000000000E+00  0.23737487057E+04  0.23737487057E+04  0.50400001928E-02 0. -1.
        1   -1    0    0  501    0  0.00000000000E+00  0.00000000000E+00 -0.14396190750E+04  0.14396190750E+04  0.50400001928E-02 0.  1.
    10030    2    1    2    0    0  0.00000000000E+00  0.00000000000E+00  0.93412963066E+03  0.38133677807E+04  0.36971848296E+04 0.  0.
        2    1    3    3  502    0 -0.31018818184E+03  0.17596163515E+04 -0.21995303805E+02  0.17868828182E+04  0.25500000920E-02 0.  1.
       -2    1    3    3    0  502  0.31018818184E+03 -0.17596163515E+04  0.95612493446E+03  0.20264849624E+04  0.25500000920E-02 0. -1.
</event>
<event>
 5   0  0.5177000E-08  0.3704769E+04  0.7818609E-02  0.8066906E-01
        1   -1    0    0  501    0  0.00000000000E+00  0.00000000000E+00  0.15990355846E+04  0.15990355846E+04  0.50400001928E-02 0.  1.
       -1   -1    0    0    0  501  0.00000000000E+00  0.00000000000E+00 -0.21458732595E+04  0.21458732595E+04  0.50400001928E-02 0. -1.
    10030    2    1    2    0    0  0.00000000000E+00  0.00000000000E+00 -0.54683767494E+03  0.37449088442E+04  0.37047686579E+04 0.  0.
        3    1    3    3  502    0  0.11480390551E+04 -0.99545131695E+03  0.79749876048E+03  0.17160772942E+04  0.10100000352E+00 0.  1.
       -3    1    3    3    0  502 -0.11480390551E+04  0.99545131695E+03 -0.13443364354E+04  0.20288315500E+04  0.10100000352E+00 0. -1.
</event>
<event>
 5   0  0.5177000E-08  0.3695847E+04  0.7818609E-02  0.8068883E-01
        1   -1    0    0  501    0  0.00000000000E+00  0.00000000000E+00  0.17658871984E+04  0.17658871984E+04  0.50400001928E-02 0.  1.
       -1   -1    0    0    0  501  0.00000000000E+00  0.00000000000E+00 -0.19337709401E+04  0.19337709401E+04  0.50400001928E-02 0. -1.
    10030    2    1    2    0    0  0.00000000000E+00  0.00000000000E+00 -0.16788374171E+03  0.36996581386E+04  0.36958470465E+04 0.  0.
        1    1    3    3  502    0  0.51761765361E+03  0.15545710856E+04  0.77145790208E+03  0.18110125870E+04  0.50400001928E-02 0.  1.
       -1    1    3    3    0  502 -0.51761765361E+03 -0.15545710856E+04 -0.93934164379E+03  0.18886455515E+04  0.50400001928E-02 0. -1.
</event>
<event>
 5   0  0.5177000E-08  0.3696719E+04  0.7818609E-02  0.8068689E-01
       -1   -1    0    0    0  501  0.00000000000E+00  0.00000000000E+00  0.15695308980E+04  0.15695308981E+04  0.50400001928E-02 0. -1.
        1   -1    0    0  501    0  0.00000000000E+00  0.00000000000E+00 -0.21767216843E+04  0.21767216843E+04  0.50400001928E-02 0.  1.
    10030    2    1    2    0    0  0.00000000000E+00  0.00000000000E+00 -0.60719078620E+03  0.37462525823E+04  0.36967185124E+04 0.  0.
        2    1    3    3  502    0  0.12677011385E+04 -0.19955896496E+03 -0.16516612473E+04  0.20916201454E+04  0.25500000920E-02 0.  1.
       -2    1    3    3    0  502 -0.12677011385E+04  0.19955896496E+03  0.10444704611E+04  0.16546324369E+04  0.25500000920E-02 0. -1.
</event>
<event>
 5   0  0.1587026E-07  0.3677097E+04  0.7818609E-02  0.8073056E-01
       -2   -1    0    0    0  501  0.00000000000E+00  0.00000000000E+00  0.16113667615E+04  0.16113667615E+04  0.25500000920E-02 0.  1.
        2   -1    0    0  501    0  0.00000000000E+00  0.00000000000E+00 -0.20977600071E+04  0.20977600071E+04  0.25500000920E-02 0. -1.
    10030    2    1    2    0    0  0.00000000000E+00  0.00000000000E+00 -0.48639324561E+03  0.37091267685E+04  0.36770970881E+04 0.  0.
        3    1    3    3  502    0  0.37962110036E+03 -0.16904232964E+04 -0.86387554977E+03  0.19359555977E+04  0.10100000352E+00 0. -1.
       -3    1    3    3    0  502 -0.37962110036E+03  0.16904232964E+04  0.37748230415E+03  0.17731711708E+04  0.10100000352E+00 0.  1.
</event>
<event>
 5   0  0.5177000E-08  0.3709010E+04  0.7818609E-02  0.8065968E-01
        1   -1    0    0  501    0  0.00000000000E+00  0.00000000000E+00  0.20039653347E+04  0.20039653347E+04  0.50400001928E-02 0.  1.
       -1   -1    0    0    0  501  0.00000000000E+00  0.00000000000E+00 -0.17161916637E+04  0.17161916637E+04  0.50400001928E-02 0. -1.
    10030    2    1    2    0    0  0.00000000000E+00  0.00000000000E+00  0.28777367101E+03  0.37201569984E+04  0.37090098958E+04 0.  0.
        2    1    3    3  502    0 -0.16369138656E+04 -0.88219982710E+02 -0.72585178970E+03  0.17927996512E+04  0.25500000920E-02 0. -1.
       -2    1    3    3    0  502  0.16369138656E+04  0.88219982710E+02  0.10136254607E+04  0.19273573471E+04  0.25500000920E-02 0.  1.
</event>
<event>
 5   0  0.1686284E-07  0.3701837E+04  0.7818609E-02  0.8067555E-01
        2   -1    0    0  501    0  0.00000000000E+00  0.00000000000E+00  0.20744882989E+04  0.20744882989E+04  0.25500000920E-02 0.  1.
       -2   -1    0    0    0  501  0.00000000000E+00  0.00000000000E+00 -0.16514429981E+04  0.16514429981E+04  0.25500000920E-02 0. -1.
    10030    2    1    2    0    0  0.00000000000E+00  0.00000000000E+00  0.42304530078E+03  0.37259312971E+04  0.37018369364E+04 0.  0.
        5    1    3    3  502    0  0.10670350457E+04 -0.15095635561E+04  0.30448814616E+03  0.18735210273E+04  0.46999998093E+01 0.  1.
       -5    1    3    3    0  502 -0.10670350457E+04  0.15095635561E+04  0.11855715462E+03  0.18524102698E+04  0.46999998093E+01 0. -1.
</event>
<event>
 5   0  0.1558258E-07  0.3691655E+04  0.7818609E-02  0.8069814E-01
        2   -1    0    0  501    0  0.00000000000E+00  0.00000000000E+00  0.16091099440E+04  0.16091099440E+04  0.25500000920E-02 0.  1.
       -2   -1    0    0    0  501  0.00000000000E+00  0.00000000000E+00 -0.21173687432E+04  0.21173687432E+04  0.25500000920E-02 0. -1.
    10030    2    1    2    0    0  0.00000000000E+00  0.00000000000E+00 -0.50825879926E+03  0.37264786872E+04  0.36916549675E+04 0.  0.
        1    1    3    3  502    0 -0.26720674445E+02  0.13155954351E+04  0.10525207203E+04  0.16850238011E+04  0.50400001928E-02 0.  1.
       -1    1    3    3    0  502  0.26720674445E+02 -0.13155954351E+04 -0.15607795196E+04  0.20414548861E+04  0.50400001928E-02 0. -1.
</event>
<event>
 5   0  0.5181371E-08  0.3693578E+04  0.7818609E-02  0.8069387E-01
       -1   -1    0    0    0  501  0.00000000000E+00  0.00000000000E+00  0.22932018012E+04  0.22932018012E+04  0.50400001928E-02 0.  1.
        1   -1    0    0  501    0  0.00000000000E+00  0.00000000000E+00 -0.14872782611E+04  0.14872782611E+04  0.50400001928E-02 0. -1.
    10030    2    1    2    0    0  0.00000000000E+00  0.00000000000E+00  0.80592354009E+03  0.37804800623E+04  0.36935777708E+04 0.  0.
        5    1    3    3  502    0  0.15863837644E+04 -0.83468277313E+03  0.85759522940E+03  0.19871588883E+04  0.46999998093E+01 0.  1.
       -5    1    3    3    0  502 -0.15863837644E+04  0.83468277313E+03 -0.51671689313E+02  0.17933211740E+04  0.46999998093E+01 0. -1.
</event>
<event>
 5   0  0.5177000E-08  0.3650520E+04  0.7818609E-02  0.8079017E-01
       -1   -1    0    0    0  501  0.00000000000E+00  0.00000000000E+00  0.14679942785E+04  0.14679942785E+04  0.50400001928E-02 0.  1.
        1   -1    0    0  501    0  0.00000000000E+00  0.00000000000E+00 -0.22694729406E+04  0.22694729406E+04  0.50400001928E-02 0. -1.
    10030    2    1    2    0    0  0.00000000000E+00  0.00000000000E+00 -0.80147866209E+03  0.37374672190E+04  0.36505195750E+04 0.  0.
        3    1    3    3  502    0  0.51360183701E+03 -0.17250769881E+04 -0.71110279404E+03  0.19352892951E+04  0.10100000352E+00 0. -1.
       -3    1    3    3    0  502 -0.51360183701E+03  0.17250769881E+04 -0.90375868058E+02  0.18021779239E+04  0.10100000352E+00 0.  1.
</event>
<event>
 5   0  0.5177000E-08  0.3688626E+04  0.7818609E-02  0.8070487E-01
       -1   -1    0    0    0  501  0.00000000000E+00  0.00000000000E+00  0.11909223645E+04  0.11909223646E+04  0.50400001928E-02 0.  1.
        1   -1    0    0  501    0  0.00000000000E+00  0.00000000000E+00 -0.28561816909E+04  0.28561816909E+04  0.50400001928E-02 0. -1.
    10030    2    1    2    0    0  0.00000000000E+00  0.00000000000E+00 -0.16652593264E+04  0.40471040555E+04  0.36886261144E+04 0.  0.
        1    1    3    3  502    0  0.12998390416E+04 -0.11417439781E+04 -0.15337382335E+04  0.23120367243E+04  0.50400001928E-02 0. -1.
       -1    1    3    3    0  502 -0.12998390416E+04  0.11417439781E+04 -0.13152109290E+03  0.17350673312E+04  0.50400001928E-02 0.  1.
</event>
<event>
 5   0  0.5181371E-08  0.3695045E+04  0.7818609E-02  0.8069061E-01
        1   -1    0    0  501    0  0.00000000000E+00  0.00000000000E+00  0.13105794451E+04  0.13105794451E+04  0.50400001928E-02 0.  1.
       -1   -1    0    0    0  501  0.00000000000E+00  0.00000000000E+00 -0.26044502329E+04  0.26044502329E+04  0.50400001928E-02 0. -1.
    10030    2    1    2    0    0  0.00000000000E+00  0.00000000000E+00 -0.12938707878E+04  0.39150296780E+04  0.36950447580E+04 0.  0.
        5    1    3    3  502    0 -0.16210497540E+04 -0.64388522720E+03 -0.16390504252E+01  0.17442520653E+04  0.46999998093E+01 0.  1.
       -5    1    3    3    0  502  0.16210497540E+04  0.64388522720E+03 -0.12922317374E+04  0.21707776127E+04  0.46999998093E+01 0. -1.
</event>
<event>
 5   0  0.1658770E-07  0.3717435E+04  0.7818609E-02  0.8064109E-01
        2   -1    0    0  501    0  0.00000000000E+00  0.00000000000E+00  0.15360503086E+04  0.15360503086E+04  0.25500000920E-02 0. -1.
       -2   -1    0    0    0  501  0.00000000000E+00  0.00000000000E+00 -0.22491655053E+04  0.22491655053E+04  0.25500000920E-02 0.  1.
    10030    2    1    2    0    0  0.00000000000E+00  0.00000000000E+00 -0.71311519672E+03  0.37852158138E+04  0.37174353355E+04 0.  0.
        2    1    3    3  502    0  0.36471568789E+03  0.98048549051E+03  0.12078349307E+04  0.15978843982E+04  0.25500000920E-02 0. -1.
       -2    1    3    3    0  502 -0.36471568789E+03 -0.98048549051E+03 -0.19209501274E+04  0.21873314157E+04  0.25500000920E-02 0.  1.
</event>
<event>
 5   0  0.5177000E-08  0.3698961E+04  0.7818609E-02  0.8068192E-01
       -1   -1    0    0    0  501  0.00000000000E+00  0.00000000000E+00  0.16291658130E+04  0.16291658130E+04  0.50400001928E-02 0. -1.
        1   -1    0    0  501    0  0.00000000000E+00  0.00000000000E+00 -0.20995892510E+04  0.20995892510E+04  0.50400001928E-02 0.  1.
    10030    2    1    2    0    0  0.00000000000E+00  0.00000000000E+00 -0.47042343805E+03  0.37287550640E+04  0.36989614916E+04 0.  0.
        2    1    3    3  502    0 -0.38132485363E+03  0.12994090181E+04  0.10345796146E+04  0.17041793976E+04  0.25500000920E-02 0.  1.
       -2    1    3    3    0  502  0.38132485363E+03 -0.12994090181E+04 -0.15050030527E+04  0.20245756664E+04  0.25500000920E-02 0. -1.
</event>
<event>
 5   0  0.1686284E-07  0.3706900E+04  0.7818609E-02  0.8066434E-01
       -2   -1    0    0    0  501  0.00000000000E+00  0.00000000000E+00  0.15792966756E+04  0.15792966756E+04  0.25500000920E-02 0. -1.
        2   -1    0    0  501    0  0.00000000000E+00  0.00000000000E+00 -0.21751945217E+04  0.21751945217E+04  0.25500000920E-02 0.  1.
    10030    2    1    2    0    0  0.00000000000E+00  0.00000000000E+00 -0.59589784616E+03  0.37544911973E+04  0.37069003099E+04 0.  0.
        5    1    3    3  502    0  0.15677045927E+04  0.33355334073E+03 -0.12406506602E+04  0.20268674529E+04  0.46999998093E+01 0.  1.
       -5    1    3    3    0  502 -0.15677045927E+04 -0.33355334073E+03  0.64475281403E+03  0.17276237444E+04  0.46999998093E+01 0. -1.
</event>
<event>
 5   0  0.5177000E-08  0.3688829E+04  0.7818609E-02  0.8070442E-01
       -1   -1    0    0    0  501  0.00000000000E+00  0.00000000000E+00  0.10664272649E+04  0.10664272649E+04  0.50400001928E-02 0. -1.
        1   -1    0    0  501    0  0.00000000000E+00  0.00000000000E+00 -0.31899638461E+04  0.31899638461E+04  0.50400001928E-02 0.  1.
    10030    2    1    2    0    0  0.00000000000E+00  0.00000000000E+00 -0.21235365812E+04  0.42563911109E+04  0.36888287677E+04 0.  0.
        1    1    3    3  502    0 -0.16561763686E+04 -0.80407271822E+03 -0.93322127291E+03  0.20640627520E+04  0.50400001928E-02 0.  1.
       -1    1    3    3    0  502  0.16561763686E+04  0.80407271822E+03 -0.11903153083E+04  0.21923283589E+04  0.50400001928E-02 0. -1.
</event>
<event>
 5   0  0.1587026E-07  0.3668780E+04  0.7818609E-02  0.8074916E-01
       -2   -1    0    0    0  501  0.00000000000E+00  0.00000000000E+00  0.18801402105E+04  0.18801402105E+04  0.25500000920E-02 0. -1.
        2   -1    0    0  501    0  0.00000000000E+00  0.00000000000E+00 -0.17897525839E+04  0.17897525839E+04  0.25500000920E-02 0.  1.
    10030    2    1    2    0    0  0.00000000000E+00  0.00000000000E+00  0.90387626561E+02  0.36698927945E+04  0.36687795245E+04 0.  0.
        3    1    3    3  502    0  0.18122573122E+04 -0.79638904621E+02  0.31797945843E+03  0.18416649714E+04  0.10100000352E+00 0. -1.
       -3    1    3    3    0  502 -0.18122573122E+04  0.79638904621E+02 -0.22759183187E+03  0.18282278230E+04  0.10100000352E+00 0.  1.
</event>
<event>
 5   0  0.1686284E-07  0.3691335E+04  0.7818609E-02  0.8069885E-01
        2   -1    0    0  501    0  0.00000000000E+00  0.00000000000E+00  0.14686760888E+04  0.14686760888E+04  0.25500000920E-02 0.  1.
       -2   -1    0    0    0  501  0.00000000000E+00  0.00000000000E+00 -0.23194283621E+04  0.23194283621E+04  0.25500000920E-02 0. -1.
    10030    2    1    2    0    0  0.00000000000E+00  0.00000000000E+00 -0.85075227334E+03  0.37881044509E+04  0.36913352463E+04 0.  0.
        5    1    3    3  502    0  0.75794536638E+03  0.11633803851E+04  0.82244916891E+03  0.16138091041E+04  0.46999998093E+01 0.  1.
       -5    1    3    3    0  502 -0.75794536638E+03 -0.11633803851E+04 -0.16732014423E+04  0.21742953468E+04  0.46999998093E+01 0. -1.
</event>
<event>
 5   0  0.1686284E-07  0.3712522E+04  0.7818609E-02  0.8065193E-01
        2   -1    0    0  501    0  0.00000000000E+00  0.00000000000E+00  0.19977930703E+04  0.19977930703E+04  0.25500000920E-02 0. -1.
       -2   -1    0    0    0  501  0.00000000000E+00  0.00000000000E+00 -0.17247554494E+04  0.17247554494E+04  0.25500000920E-02 0.  1.
    10030    2    1    2    0    0  0.00000000000E+00  0.00000000000E+00  0.27303762088E+03  0.37225485198E+04  0.37125217763E+04 0.  0.
        5    1    3    3  502    0  0.25692509549E+03 -0.16186338900E+04  0.10104783761E+04  0.19253765380E+04  0.46999998093E+01 0. -1.
       -5    1    3    3    0  502 -0.25692509549E+03  0.16186338900E+04 -0.73744075523E+03  0.17971719818E+04  0.46999998093E+01 0.  1.
</event>
<event>
 5   0  0.1587026E-07  0.3683057E+04  0.7818609E-02  0.8071727E-01
       -2   -1    0    0    0  501  0.00000000000E+00  0.00000000000E+00  0.17782555853E+04  0.17782555853E+04  0.25500000920E-02 0. -1.
        2   -1    0    0  501    0  0.00000000000E+00  0.00000000000E+00 -0.19070531244E+04  0.19070531244E+04  0.25500000920E-02 0.  1.
    10030    2    1    2    0    0  0.00000000000E+00  0.00000000000E+00 -0.12879753913E+03  0.36853087097E+04  0.36830573549E+04 0.  0.
        3    1    3    3  502    0 -0.17000462325E+04 -0.68532381676E+03 -0.24171299670E+03  0.18488512946E+04  0.10100000352E+00 0. -1.
       -3    1    3    3    0  502  0.17000462325E+04  0.68532381676E+03  0.11291545757E+03  0.18364574151E+04  0.10100000352E+00 0.  1.
</event>
<event>
 5   0  0.5177000E-08  0.3682273E+04  0.7818609E-02  0.8071902E-01
        1   -1    0    0  501    0  0.00000000000E+00  0.00000000000E+00  0.16787972095E+04  0.16787972095E+04  0.50400001928E-02 0.  1.
       -1   -1    0    0    0  501  0.00000000000E+00  0.00000000000E+00 -0.20191742303E+04  0.20191742303E+04  0.50400001928E-02 0. -1.
    10030    2    1    2    0    0  0.00000000000E+00  0.00000000000E+00 -0.34037702076E+03  0.36979714398E+04  0.36822732454E+04 0.  0.
        1    1    3    3  502    0  0.17700327596E+04  0.11031075522E+03  0.32649007838E+03  0.18032693100E+04  0.50400001928E-02 0.  1.
       -1    1    3    3    0  502 -0.17700327596E+04 -0.11031075522E+03 -0.66686709914E+03  0.18947021299E+04  0.50400001928E-02 0. -1.
</event>
<event>
 5   0  0.5177000E-08  0.3685842E+04  0.7818609E-02  0.8071107E-01
       -1   -1    0    0    0  501  0.00000000000E+00  0.00000000000E+00  0.24900906851E+04  0.24900906851E+04  0.50400001928E-02 0. -1.
        1   -1    0    0  501    0  0.00000000000E+00  0.00000000000E+00 -0.13639496724E+04  0.13639496724E+04  0.50400001928E-02 0.  1.
    10030    2    1    2    0    0  0.00000000000E+00  0.00000000000E+00  0.11261410127E+04  0.38540403575E+04  0.36858423050E+04 0.  0.
        4    1    3    3  502    0 -0.55017494818E+03  0.17089045279E+04  0.12776834794E+03  0.17998259701E+04  0.12699999809E+01 0. -1.
       -4    1    3    3    0  502  0.55017494818E+03 -0.17089045279E+04  0.99837266472E+03  0.20542143874E+04  0.12699999809E+01 0.  1.
</event>
<event>
 5   0  0.5181371E-08  0.3697203E+04  0.7818609E-02  0.8068582E-01
        1   -1    0    0  501    0  0.00000000000E+00  0.00000000000E+00  0.22464305769E+04  0.22464305769E+04  0.50400001928E-02 0.  1.
       -1   -1    0    0    0  501  0.00000000000E+00  0.00000000000E+00 -0.15212257394E+04  0.15212257394E+04  0.50400001928E-02 0. -1.
    10030    2    1    2    0    0  0.00000000000E+00  0.00000000000E+00  0.72520483749E+03  0.37676563162E+04  0.36972032756E+04 0.  0.
        5    1    3    3  502    0 -0.86436327162E+03 -0.18442097341E+03  0.20171708613E+04  0.22023022804E+04  0.46999998093E+01 0.  1.
       -5    1    3    3    0  502  0.86436327162E+03  0.18442097341E+03 -0.12919660238E+04  0.15653540358E+04  0.46999998093E+01 0. -1.
</event>
<event>
 5   0  0.1658770E-07  0.3669896E+04  0.7818609E-02  0.8074666E-01
       -2   -1    0    0    0  501  0.00000000000E+00  0.00000000000E+00  0.13076784120E+04  0.13076784120E+04  0.25500000920E-02 0.  1.
        2   -1    0    0  501    0  0.00000000000E+00  0.00000000000E+00 -0.25748187875E+04  0.25748187875E+04  0.25500000920E-02 0. -1.
    10030    2    1    2    0    0  0.00000000000E+00  0.00000000000E+00 -0.12671403755E+04  0.38824971995E+04  0.36698964254E+04 0.  0.
        2    1    3    3  502    0  0.11155234628E+04  0.63157494046E+03  0.75540717836E+03  0.14879245635E+04  0.25500000920E-02 0.  1.
       -2    1    3    3    0  502 -0.11155234628E+04 -0.63157494046E+03 -0.20225475539E+04  0.23945726360E+04  0.25500000920E-02 0. -1.
</event>
<event>
 5   0  0.5177000E-08  0.3632900E+04  0.7818609E-02  0.8082997E-01
        1   -1    0    0  501    0  0.00000000000E+00  0.00000000000E+00  0.17465426969E+04  0.17465426969E+04  0.50400001928E-02 0. -1.
       -1   -1    0    0    0  501  0.00000000000E+00  0.00000000000E+00 -0.18891553136E+04  0.18891553136E+04  0.50400001928E-02 0.  1.
    10030    2    1    2    0    0  0.00000000000E+00  0.00000000000E+00 -0.14261261668E+03  0.36356980106E+04  0.36328998975E+04 0.  0.
        3    1    3    3  502    0 -0.68642096488E+03 -0.63696781539E+03 -0.16289718474E+04  0.18789494481E+04  0.10100000352E+00 0.  1.
       -3    1    3    3    0  502  0.68642096488E+03  0.63696781539E+03  0.14863592307E+04  0.17567485624E+04  0.10100000352E+00 0. -1.
</event>
<event>
 5   0  0.5177000E-08  0.3685742E+04  0.7818609E-02  0.8071129E-01
       -1   -1    0    0    0  501  0.00000000000E+00  0.00000000000E+00  0.18011274196E+04  0.18011274196E+04  0.50400001928E-02 0.  1.
        1   -1    0    0  501    0  0.00000000000E+00  0.00000000000E+00 -0.18855822597E+04  0.18855822597E+04  0.50400001928E-02 0. -1.
    10030    2    1    2    0    0  0.00000000000E+00  0.00000000000E+00 -0.84454840115E+02  0.36867096793E+04  0.36857422101E+04 0.  0.
        4    1    3    3  502    0 -0.17134674138E+04  0.14071353805E+02  0.63618634739E+03  0.18278137932E+04  0.12699999809E+01 0.  1.
       -4    1    3    3    0  502  0.17134674138E+04 -0.14071353805E+02 -0.72064118751E+03  0.18588958861E+04  0.12699999809E+01 0. -1.
</event>
<event>
 5   0  0.1666189E-07  0.3710915E+04  0.7818609E-02  0.8065547E-01
       -2   -1    0    0    0  501  0.00000000000E+00  0.00000000000E+00  0.13514131713E+04  0.13514131714E+04  0.25500000920E-02 0. -1.
        2   -1    0    0  501    0  0.00000000000E+00  0.00000000000E+00 -0.25474978931E+04  0.25474978931E+04  0.25500000920E-02 0.  1.
    10030    2    1    2    0    0  0.00000000000E+00  0.00000000000E+00 -0.11960847217E+04  0.38989110644E+04  0.37109148234E+04 0.  0.
        4    1    3    3  502    0 -0.83952884347E+03  0.11080603798E+04  0.69307947301E+03  0.15533728635E+04  0.12699999809E+01 0. -1.
       -4    1    3    3    0  502  0.83952884347E+03 -0.11080603798E+04 -0.18891641947E+04  0.23455382009E+04  0.12699999809E+01 0.  1.
</event>
<event>
 5   0  0.5177000E-08  0.3672923E+04  0.7818609E-02  0.8073989E-01
       -1   -1    0    0    0  501  0.00000000000E+00  0.00000000000E+00  0.12163588238E+04  0.12163588238E+04  0.50400001928E-02 0. -1.
        1   -1    0    0  501    0  0.00000000000E+00  0.00000000000E+00 -0.27726933906E+04  0.27726933906E+04  0.50400001928E-02 0.  1.
    10030    2    1    2    0    0  0.00000000000E+00  0.00000000000E+00 -0.15563345669E+04  0.39890522144E+04  0.36729225809E+04 0.  0.
        4    1    3    3  502    0 -0.25193929885E+03 -0.39373171692E+03 -0.27070019988E+04  0.27470637978E+04  0.12699999809E+01 0.  1.
       -4    1    3    3    0  502  0.25193929885E+03  0.39373171692E+03  0.11506674319E+04  0.12419884166E+04  0.12699999809E+01 0. -1.
</event>
<event>
 5   0  0.5177000E-08  0.3701441E+04  0.7818609E-02  0.8067643E-01
        1   -1    0    0  501    0  0.00000000000E+00  0.00000000000E+00  0.24334819696E+04  0.24334819696E+04  0.50400001928E-02 0. -1.
       -1   -1    0    0    0  501  0.00000000000E+00  0.00000000000E+00 -0.14075165547E+04  0.14075165547E+04  0.50400001928E-02 0.  1.
    10030    2    1    2    0    0  0.00000000000E+00  0.00000000000E+00  0.10259654149E+04  0.38409985244E+04  0.37014408859E+04 0.  0.
        4    1    3    3  502    0 -0.14935313092E+04 -0.93068648059E+03 -0.81641780811E+02  0.17616696881E+04  0.12699999809E+01 0.  1.
       -4    1    3    3    0  502  0.14935313092E+04  0.93068648059E+03  0.11076071957E+04  0.20793288363E+04  0.12699999809E+01 0. -1.
</event>
<event>
 5   0  0.5177000E-08  0.3693391E+04  0.7818609E-02  0.8069428E-01
       -1   -1    0    0    0  501  0.00000000000E+00  0.00000000000E+00  0.15354946018E+04  0.15354946018E+04  0.50400001928E-02 0. -1.
        1   -1    0    0  501    0  0.00000000000E+00  0.00000000000E+00 -0.22209677959E+04  0.22209677959E+04  0.50400001928E-02 0.  1.
    10030    2    1    2    0    0  0.00000000000E+00  0.00000000000E+00 -0.68547319410E+03  0.37564623978E+04  0.36933908873E+04 0.  0.
        1    1    3    3  502    0 -0.65319948591E+03  0.68896450762E+03  0.12682766743E+04  0.15842560979E+04  0.50400001928E-02 0. -1.
       -1    1    3    3    0  502  0.65319948591E+03 -0.68896450762E+03 -0.19537498684E+04  0.21722062999E+04  0.50400001928E-02 0.  1.
</event>
<event>
 5   0  0.1558258E-07  0.3659704E+04  0.7818609E-02  0.8076951E-01
       -2   -1    0    0    0  501  0.00000000000E+00  0.00000000000E+00  0.30304034935E+04  0.30304034935E+04  0.25500000920E-02 0.  1.
        2   -1    0    0  501    0  0.00000000000E+00  0.00000000000E+00 -0.11049217285E+04  0.11049217285E+04  0.25500000920E-02 0. -1.
    10030    2    1    2    0    0  0.00000000000E+00  0.00000000000E+00  0.19254817650E+04  0.41353252220E+04  0.36597041772E+04 0.  0.
        1    1    3    3  502    0 -0.19958206336E+03  0.23910322711E+03  0.30002328475E+04  0.30163554983E+04  0.50400001928E-02 0.  1.
       -1    1    3    3    0  502  0.19958206336E+03 -0.23910322711E+03 -0.10747510825E+04  0.11189697237E+04  0.50400001928E-02 0. -1.
</event>
<event>
 5   0  0.5177000E-08  0.3698186E+04  0.7818609E-02  0.8068364E-01
        1   -1    0    0  501    0  0.00000000000E+00  0.00000000000E+00  0.23780083663E+04  0.23780083663E+04  0.50400001928E-02 0. -1.
       -1   -1    0    0    0  501  0.00000000000E+00  0.00000000000E+00 -0.14378184059E+04  0.14378184059E+04  0.50400001928E-02 0.  1.
    10030    2    1    2    0    0  0.00000000000E+00  0.00000000000E+00  0.94018996036E+03  0.38158267722E+04  0.36981856084E+04 0.  0.
        3    1    3    3  502    0  0.97520467728E+03 -0.66679305020E+03  0.19378457197E+04  0.22695557226E+04  0.10100000352E+00 0. -1.
       -3    1    3    3    0  502 -0.97520467728E+03  0.66679305020E+03 -0.99765575937E+03  0.15462710496E+04  0.10100000352E+00 0.  1.
</event>
<event>
 5   0  0.1658770E-07  0.3703678E+04  0.7818609E-02  0.8067147E-01
       -2   -1    0    0    0  501  0.00000000000E+00  0.00000000000E+00  0.14615287874E+04  0.14615287874E+04  0.25500000920E-02 0. -1.
        2   -1    0    0  501    0  0.00000000000E+00  0.00000000000E+00 -0.23463838768E+04  0.23463838768E+04  0.25500000920E-02 0.  1.
    10030    2    1    2    0    0  0.00000000000E+00  0.00000000000E+00 -0.88485508935E+03  0.38079126642E+04  0.37036779462E+04 0.  0.
        2    1    3    3  502    0 -0.54584175154E+02 -0.17204479559E+04  0.25971772299E+03  0.17407969142E+04  0.25500000920E-02 0. -1.
       -2    1    3    3    0  502  0.54584175154E+02  0.17204479559E+04 -0.11445728123E+04  0.20671157500E+04  0.25500000920E-02 0.  1.
</event>
<event>
 5   0  0.1587026E-07  0.3690479E+04  0.7818609E-02  0.8070075E-01
       -2   -1    0    0    0  501  0.00000000000E+00  0.00000000000E+00  0.18743922888E+04  0.18743922888E+04  0.25500000920E-02 0. -1.
        2   -1    0    0  501    0  0.00000000000E+00  0.00000000000E+00 -0.18165396761E+04  0.18165396761E+04  0.25500000920E-02 0.  1.
    10030    2    1    2    0    0  0.00000000000E+00  0.00000000000E+00  0.57852612706E+02  0.36909319649E+04  0.36904785387E+04 0.  0.
        3    1    3    3  502    0  0.16923307479E+04 -0.73226732329E+03 -0.39705430296E+02  0.18443902310E+04  0.10100000352E+00 0. -1.
       -3    1    3    3    0  502 -0.16923307479E+04  0.73226732329E+03  0.97558043002E+02  0.18465417339E+04  0.10100000352E+00 0.  1.
</event>
<event>
 5   0  0.5181371E-08  0.3700724E+04  0.7818609E-02  0.8067801E-01
       -1   -1    0    0    0  501  0.00000000000E+00  0.00000000000E+00  0.27504877500E+04  0.27504877500E+04  0.50400001928E-02 0. -1.
        1   -1    0    0  501    0  0.00000000000E+00  0.00000000000E+00 -0.12448116365E+04  0.12448116365E+04  0.50400001928E-02 0.  1.
    10030    2    1    2    0    0  0.00000000000E+00  0.00000000000E+00  0.15056761135E+04  0.39952993865E+04  0.37007237980E+04 0.  0.
        5    1    3    3  502    0  0.36657167860E+03 -0.16618897615E+04  0.15369905305E+04  0.22931668835E+04  0.46999998093E+01 0.  1.
       -5    1    3    3    0  502 -0.36657167860E+03  0.16618897615E+04 -0.31314417044E+02  0.17021325029E+04  0.46999998093E+01 0. -1.
</event>
<event>
 5   0  0.1666189E-07  0.3678096E+04  0.7818609E-02  0.8072833E-01
       -2   -1    0    0    0  501  0.00000000000E+00  0.00000000000E+00  0.12918908576E+04  0.12918908576E+04  0.25500000920E-02 0.  1.
        2   -1    0    0  501    0  0.00000000000E+00  0.00000000000E+00 -0.26179434102E+04  0.26179434102E+04  0.25500000920E-02 0. -1.
    10030    2    1    2    0    0  0.00000000000E+00  0.00000000000E+00 -0.13260525527E+04  0.39098342678E+04  0.36780957885E+04 0.  0.
        4    1    3    3  502    0 -0.15210903784E+04  0.33688286815E+03 -0.17017782955E+04  0.23072184521E+04  0.12699999809E+01 0. -1.
       -4    1    3    3    0  502  0.15210903784E+04 -0.33688286815E+03  0.37572574282E+03  0.16026158157E+04  0.12699999809E+01 0.  1.
</event>
<event>
 5   0  0.1666189E-07  0.3707057E+04  0.7818609E-02  0.8066400E-01
       -2   -1    0    0    0  501  0.00000000000E+00  0.00000000000E+00  0.14469248959E+04  0.14469248959E+04  0.25500000920E-02 0. -1.
        2   -1    0    0  501    0  0.00000000000E+00  0.00000000000E+00 -0.23743925011E+04  0.23743925011E+04  0.25500000920E-02 0.  1.
    10030    2    1    2    0    0  0.00000000000E+00  0.00000000000E+00 -0.92746760519E+03  0.38213173971E+04  0.37070568502E+04 0.  0.
        4    1    3    3  502    0 -0.64534975381E+03  0.11096777142E+04  0.91452825908E+03  0.15761422790E+04  0.12699999809E+01 0. -1.
       -4    1    3    3    0  502  0.64534975381E+03 -0.11096777142E+04 -0.18419958643E+04  0.22451751181E+04  0.12699999809E+01 0.  1.
</event>
<event>
 5   0  0.1658770E-07  0.3703328E+04  0.7818609E-02  0.8067225E-01
       -2   -1    0    0    0  501  0.00000000000E+00  0.00000000000E+00  0.21347883916E+04  0.21347883916E+04  0.25500000920E-02 0.  1.
        2   -1    0    0  501    0  0.00000000000E+00  0.00000000000E+00 -0.16060883682E+04  0.16060883682E+04  0.25500000920E-02 0. -1.
    10030    2    1    2    0    0  0.00000000000E+00  0.00000000000E+00  0.52870002341E+03  0.37408767597E+04  0.37033275870E+04 0.  0.
        2    1    3    3  502    0 -0.21333874186E+03 -0.45750986600E+03 -0.15352380707E+04  0.16161016769E+04  0.25500000920E-02 0. -1.
       -2    1    3    3    0  502  0.21333874186E+03  0.45750986600E+03  0.20639380941E+04  0.21247750829E+04  0.25500000920E-02 0.  1.
</event>
<event>
 5   0  0.5181371E-08  0.3697495E+04  0.7818609E-02  0.8068517E-01
        1   -1    0    0  501    0  0.00000000000E+00  0.00000000000E+00  0.21163677165E+04  0.21163677165E+04  0.50400001928E-02 0. -1.
       -1   -1    0    0    0  501  0.00000000000E+00  0.00000000000E+00 -0.16149688278E+04  0.16149688278E+04  0.50400001928E-02 0.  1.
    10030    2    1    2    0    0  0.00000000000E+00  0.00000000000E+00  0.50139888867E+03  0.37313365443E+04  0.36974953092E+04 0.  0.
        5    1    3    3  502    0  0.29627490598E+03 -0.82964687594E+02 -0.15889453404E+04  0.16184657377E+04  0.46999998093E+01 0.  1.
       -5    1    3    3    0  502 -0.29627490598E+03  0.82964687594E+02  0.20903442291E+04  0.21128708066E+04  0.46999998093E+01 0. -1.
</event>
<event>
 5   0  0.1587026E-07  0.3705209E+04  0.7818609E-02  0.8066809E-01
        2   -1    0    0  501    0  0.00000000000E+00  0.00000000000E+00  0.23331836662E+04  0.23331836662E+04  0.25500000920E-02 0.  1.
       -2   -1    0    0    0  501  0.00000000000E+00  0.00000000000E+00 -0.14710126734E+04  0.14710126734E+04  0.25500000920E-02 0. -1.
    10030    2    1    2    0    0  0.00000000000E+00  0.00000000000E+00  0.86217099282E+03  0.38041963396E+04  0.37052086270E+04 0.  0.
        3    1    3    3  502    0  0.18395803955E+04  0.20402464725E+03  0.51361099628E+03  0.19208014874E+04  0.10100000352E+00 0.  1.
       -3    1    3    3    0  502 -0.18395803955E+04 -0.20402464725E+03  0.34855999654E+03  0.18833948523E+04  0.10100000352E+00 0. -1.
</event>
<event>
 5   0  0.5177000E-08  0.3729409E+04  0.7818609E-02  0.8061476E-01
       -1   -1    0    0    0  501  0.00000000000E+00  0.00000000000E+00  0.23196361759E+04  0.23196361759E+04  0.50400001928E-02 0.  1.
        1   -1    0    0  501    0  0.00000000000E+00  0.00000000000E+00 -0.14989948687E+04  0.14989948687E+04  0.50400001928E-02 0. -1.
    10030    2    1    2    0    0  0.00000000000E+00  0.00000000000E+00  0.82064130719E+03  0.38186310446E+04  0.37294089210E+04 0.  0.
        3    1    3    3  502    0 -0.66844066839E+03 -0.67984127300E+03 -0.12305555858E+04  0.15566837005E+04  0.10100000352E+00 0. -1.
       -3    1    3    3    0  502  0.66844066839E+03  0.67984127300E+03  0.20511968929E+04  0.22619473441E+04  0.10100000352E+00 0.  1.
</event>
<event>
 5   0  0.1666189E-07  0.3705649E+04  0.7818609E-02  0.8066711E-01
       -2   -1    0    0    0  501  0.00000000000E+00  0.00000000000E+00  0.26141918064E+04  0.26141918064E+04  0.25500000920E-02 0. -1.
        2   -1    0    0  501    0  0.00000000000E+00  0.00000000000E+00 -0.13132004471E+04  0.13132004471E+04  0.25500000920E-02 0.  1.
    10030    2    1    2    0    0  0.00000000000E+00  0.00000000000E+00  0.13009913594E+04  0.39273922535E+04  0.37056485797E+04 0.  0.
        4    1    3    3  502    0  0.14837885639E+03  0.12536781853E+04 -0.78683992014E+03  0.14875630911E+04  0.12699999809E+01 0.  1.
       -4    1    3    3    0  502 -0.14837885639E+03 -0.12536781853E+04  0.20878312795E+04  0.24398291624E+04  0.12699999809E+01 0. -1.
</event>
<event>
 5   0  0.5177000E-08  0.3708141E+04  0.7818609E-02  0.8066160E-01
        1   -1    0    0  501    0  0.00000000000E+00  0.00000000000E+00  0.11366889257E+04  0.11366889257E+04  0.50400001928E-02 0.  1.
       -1   -1    0    0    0  501  0.00000000000E+00  0.00000000000E+00 -0.30242030035E+04  0.30242030035E+04  0.50400001928E-02 0. -1.
    10030    2    1    2    0    0  0.00000000000E+00  0.00000000000E+00 -0.18875140778E+04  0.41608919292E+04  0.37081413475E+04 0.  0.
        4    1    3    3  502    0  0.68075394170E+03  0.14155512306E+04 -0.20491018328E+04  0.25818658272E+04  0.12699999809E+01 0. -1.
       -4    1    3    3    0  502 -0.68075394170E+03 -0.14155512306E+04  0.16158775500E+03  0.15790261021E+04  0.12699999809E+01 0.  1.
</event>
<event>
 5   0  0.5177000E-08  0.3693819E+04  0.7818609E-02  0.8069333E-01
        1   -1    0    0  501    0  0.00000000000E+00  0.00000000000E+00  0.17146886278E+04  0.17146886278E+04  0.50400001928E-02 0.  1.
       -1   -1    0    0    0  501  0.00000000000E+00  0.00000000000E+00 -0.19893264630E+04  0.19893264630E+04  0.50400001928E-02 0. -1.
    10030    2    1    2    0    0  0.00000000000E+00  0.00000000000E+00 -0.27463783512E+03  0.37040150908E+04  0.36938194125E+04 0.  0.
        3    1    3    3  502    0  0.30798589613E+03 -0.34221293572E+03  0.16562237182E+04  0.17190235660E+04  0.10100000352E+00 0.  1.
       -3    1    3    3    0  502 -0.30798589613E+03  0.34221293572E+03 -0.19308615533E+04  0.19849915248E+04  0.10100000352E+00 0. -1.
</event>
<event>
 5   0  0.1658770E-07  0.3729233E+04  0.7818609E-02  0.8061514E-01
       -2   -1    0    0    0  501  0.00000000000E+00  0.00000000000E+00  0.23041523397E+04  0.23041523397E+04  0.25500000920E-02 0.  1.
        2   -1    0    0  501    0  0.00000000000E+00  0.00000000000E+00 -0.15089254447E+04  0.15089254447E+04  0.25500000920E-02 0. -1.
    10030    2    1    2    0    0  0.00000000000E+00  0.00000000000E+00  0.79522689502E+03  0.38130777843E+04  0.37292326791E+04 0.  0.
        2    1    3    3  502    0  0.36188767579E+03  0.18276535431E+04  0.32168809397E+03  0.18907044701E+04  0.25500000920E-02 0. -1.
       -2    1    3    3    0  502 -0.36188767579E+03 -0.18276535431E+04  0.47353880104E+03  0.19223733143E+04  0.25500000920E-02 0.  1.
</event>
<event>
 5   0  0.5177000E-08  0.3702283E+04  0.7818609E-02  0.8067456E-01
        1   -1    0    0  501    0  0.00000000000E+00  0.00000000000E+00  0.30803160585E+04  0.30803160585E+04  0.50400001928E-02 0.  1.
       -1   -1    0    0    0  501  0.00000000000E+00  0.00000000000E+00 -0.11124588108E+04  0.11124588108E+04  0.50400001928E-02 0. -1.
    10030    2    1    2    0    0  0.00000000000E+00  0.00000000000E+00  0.19678572477E+04  0.41927748693E+04  0.37022829386E+04 0.  0.
        3    1    3    3  502    0  0.11558229481E+04  0.10937214476E+04  0.20550518869E+04  0.25991136105E+04  0.10100000352E+00 0.  1.
       -3    1    3    3    0  502 -0.11558229481E+04 -0.10937214476E+04 -0.87194639173E+02  0.15936612588E+04  0.10100000352E+00 0. -1.
</event>
<event>
 5   0  0.1666189E-07  0.3677832E+04  0.7818609E-02  0.8072892E-01
       -2   -1    0    0    0  501  0.00000000000E+00  0.00000000000E+00  0.11181958270E+04  0.11181958270E+04  0.25500000920E-02 0.  1.
        2   -1    0    0  501    0  0.00000000000E+00  0.00000000000E+00 -0.30241687127E+04  0.30241687127E+04  0.25500000920E-02 0. -1.
    10030    2    1    2    0    0  0.00000000000E+00  0.00000000000E+00 -0.19059728857E+04  0.41423645398E+04  0.36778324240E+04 0.  0.
        4    1    3    3  502    0  0.24230325099E+03  0.10362253640E+03  0.10968169653E+04  0.11280326076E+04  0.12699999809E+01 0.  1.
       -4    1    3    3    0  502 -0.24230325099E+03 -0.10362253640E+03 -0.30027898510E+04  0.30143319322E+04  0.12699999809E+01 0. -1.
</event>
<event>
 5   0  0.1558258E-07  0.3709608E+04  0.7818609E-02  0.8065836E-01
        2   -1    0    0  501    0  0.00000000000E+00  0.00000000000E+00  0.12179297649E+04  0.12179297649E+04  0.25500000920E-02 0. -1.
       -2   -1    0    0    0  501  0.00000000000E+00  0.00000000000E+00 -0.28247089868E+04  0.28247089868E+04  0.25500000920E-02 0.  1.
    10030    2    1    2    0    0  0.00000000000E+00  0.00000000000E+00 -0.16067792219E+04  0.40426387517E+04  0.37096076085E+04 0.  0.
        1    1    3    3  502    0 -0.93557249094E+03 -0.29319589011E+02  0.94166075345E+03  0.13277351011E+04  0.50400001928E-02 0. -1.
       -1    1    3    3    0  502  0.93557249094E+03  0.29319589011E+02 -0.25484399753E+04  0.27149036506E+04  0.50400001928E-02 0.  1.
</event>
<event>
 5   0  0.1558258E-07  0.3703561E+04  0.7818609E-02  0.8067173E-01
        2   -1    0    0  501    0  0.00000000000E+00  0.00000000000E+00  0.30882277602E+04  0.30882277602E+04  0.25500000920E-02 0. -1.
       -2   -1    0    0    0  501  0.00000000000E+00  0.00000000000E+00 -0.11103750445E+04  0.11103750445E+04  0.25500000920E-02 0.  1.
    10030    2    1    2    0    0  0.00000000000E+00  0.00000000000E+00  0.19778527157E+04  0.41986028047E+04  0.37035610089E+04 0.  0.
        1    1    3    3  502    0  0.12307947931E+04  0.93045003029E+03  0.21497575846E+04  0.26461388387E+04  0.50400001928E-02 0. -1.
       -1    1    3    3    0  502 -0.12307947931E+04 -0.93045003029E+03 -0.17190486887E+03  0.15524639659E+04  0.50400001928E-02 0.  1.
</event>
<event>
 5   0  0.1587026E-07  0.3694071E+04  0.7818609E-02  0.8069277E-01
        2   -1    0    0  501    0  0.00000000000E+00  0.00000000000E+00  0.23307445184E+04  0.23307445184E+04  0.25500000920E-02 0. -1.
       -2   -1    0    0    0  501  0.00000000000E+00  0.00000000000E+00 -0.14637122871E+04  0.14637122871E+04  0.25500000920E-02 0.  1.
    10030    2    1    2    0    0  0.00000000000E+00  0.00000000000E+00  0.86703223126E+03  0.37944568055E+04  0.36940705947E+04 0.  0.
        3    1    3    3  502    0 -0.27389675621E+03 -0.12008099342E+04  0.18473564762E+04  0.22202904971E+04  0.10100000352E+00 0. -1.
       -3    1    3    3    0  502  0.27389675621E+03  0.12008099342E+04 -0.98032424496E+03  0.15741663084E+04  0.10100000352E+00 0.  1.
</event>
<event>
 5   0  0.1686284E-07  0.3669800E+04  0.7818609E-02  0.8074688E-01
        2   -1    0    0  501    0  0.00000000000E+00  0.00000000000E+00  0.10535879681E+04  0.10535879681E+04  0.25500000920E-02 0. -1.
       -2   -1    0    0    0  501  0.00000000000E+00  0.00000000000E+00 -0.31956122283E+04  0.31956122283E+04  0.25500000920E-02 0.  1.
    10030    2    1    2    0    0  0.00000000000E+00  0.00000000000E+00 -0.21420242601E+04  0.42492001964E+04  0.36698003186E+04 0.  0.
        5    1    3    3  502    0  0.18786776865E+03 -0.12858537409E+04 -0.25709614013E+04  0.28807253875E+04  0.46999998093E+01 0.  1.
       -5    1    3    3    0  502 -0.18786776865E+03  0.12858537409E+04  0.42893714116E+03  0.13684748089E+04  0.46999998093E+01 0. -1.
</event>
<event>
 5   0  0.5177000E-08  0.3709746E+04  0.7818609E-02  0.8065805E-01
        1   -1    0    0  501    0  0.00000000000E+00  0.00000000000E+00  0.24830538977E+04  0.24830538977E+04  0.50400001928E-02 0. -1.
       -1   -1    0    0    0  501  0.00000000000E+00  0.00000000000E+00 -0.13856136496E+04  0.13856136496E+04  0.50400001928E-02 0.  1.
    10030    2    1    2    0    0  0.00000000000E+00  0.00000000000E+00  0.10974402481E+04  0.38686675473E+04  0.37097457451E+04 0.  0.
        3    1    3    3  502    0  0.10975632448E+04 -0.29691078751E+03  0.20770227469E+04  0.23678734327E+04  0.10100000352E+00 0. -1.
       -3    1    3    3    0  502 -0.10975632448E+04  0.29691078751E+03 -0.97958249878E+03  0.15007941146E+04  0.10100000352E+00 0.  1.
</event>
<event>
 5   0  0.5177000E-08  0.3643872E+04  0.7818609E-02  0.8080515E-01
       -1   -1    0    0    0  501  0.00000000000E+00  0.00000000000E+00  0.23962693155E+04  0.23962693155E+04  0.50400001928E-02 0. -1.
        1   -1    0    0  501    0  0.00000000000E+00  0.00000000000E+00 -0.13852581520E+04  0.13852581520E+04  0.50400001928E-02 0.  1.
    10030    2    1    2    0    0  0.00000000000E+00  0.00000000000E+00  0.10110111636E+04  0.37815274675E+04  0.36438724477E+04 0.  0.
        4    1    3    3  502    0  0.13091520288E+04 -0.12459069635E+04  0.26594580944E+03  0.18267161746E+04  0.12699999809E+01 0.  1.
       -4    1    3    3    0  502 -0.13091520288E+04  0.12459069635E+04  0.74506535411E+03  0.19548112929E+04  0.12699999809E+01 0. -1.
</event>
<event>
 5   0  0.1666189E-07  0.3690117E+04  0.7818609E-02  0.8070156E-01
        2   -1    0    0  501    0  0.00000000000E+00  0.00000000000E+00  0.11739186216E+04  0.11739186216E+04  0.25500000920E-02 0.  1.
       -2   -1    0    0    0  501  0.00000000000E+00  0.00000000000E+00 -0.28998947483E+04  0.28998947483E+04  0.25500000920E-02 0. -1.
    10030    2    1    2    0    0  0.00000000000E+00  0.00000000000E+00 -0.17259761267E+04  0.40738133699E+04  0.36901167709E+04 0.  0.
        4    1    3    3  502    0  0.13201584378E+04 -0.10246185392E+04  0.36160668125E+00  0.16711263254E+04  0.12699999809E+01 0.  1.
       -4    1    3    3    0  502 -0.13201584378E+04  0.10246185392E+04 -0.17263377333E+04  0.24026870446E+04  0.12699999809E+01 0. -1.
</event>
<event>
 5   0  0.5177000E-08  0.3720054E+04  0.7818609E-02  0.8063532E-01
       -1   -1    0    0    0  501  0.00000000000E+00  0.00000000000E+00  0.14210686575E+04  0.14210686575E+04  0.50400001928E-02 0.  1.
        1   -1    0    0  501    0  0.00000000000E+00  0.00000000000E+00 -0.24345768217E+04  0.24345768217E+04  0.50400001928E-02 0. -1.
    10030    2    1    2    0    0  0.00000000000E+00  0.00000000000E+00 -0.10135081642E+04  0.38556454792E+04  0.37200542015E+04 0.  0.
        3    1    3    3  502    0  0.21504012700E+03 -0.16104039676E+04 -0.14453313000E+04  0.21745403588E+04  0.10100000352E+00 0. -1.
       -3    1    3    3    0  502 -0.21504012700E+03  0.16104039676E+04  0.43182313578E+03  0.16811051204E+04  0.10100000352E+00 0.  1.
</event>
<event>
 5   0  0.5177000E-08  0.3767444E+04  0.7818609E-02  0.8053178E-01
        1   -1    0    0  501    0  0.00000000000E+00  0.00000000000E+00  0.17440107896E+04  0.17440107896E+04  0.50400001928E-02 0. -1.
       -1   -1    0    0    0  501  0.00000000000E+00  0.00000000000E+00 -0.20346257448E+04  0.20346257448E+04  0.50400001928E-02 0.  1.
    10030    2    1    2    0    0  0.00000000000E+00  0.00000000000E+00 -0.29061495524E+03  0.37786365344E+04  0.37674443602E+04 0.  0.
        2    1    3    3  502    0 -0.17190480880E+04 -0.73205763838E+03 -0.38554888791E+03  0.19077952353E+04  0.25500000920E-02 0.  1.
       -2    1    3    3    0  502  0.17190480880E+04  0.73205763838E+03  0.94933932673E+02  0.18708412991E+04  0.25500000920E-02 0. -1.
</event>
<event>
 5   0  0.5181371E-08  0.3688152E+04  0.7818609E-02  0.8070592E-01
       -1   -1    0    0    0  501  0.00000000000E+00  0.00000000000E+00  0.13069804270E+04  0.13069804270E+04  0.50400001928E-02 0.  1.
        1   -1    0    0  501    0  0.00000000000E+00  0.00000000000E+00 -0.26018881437E+04  0.26018881437E+04  0.50400001928E-02 0. -1.
    10030    2    1    2    0    0  0.00000000000E+00  0.00000000000E+00 -0.12949077167E+04  0.39088685707E+04  0.36881523163E+04 0.  0.
        5    1    3    3  502    0 -0.34334281855E+03 -0.18110073535E+04 -0.70514350648E+03  0.19735453834E+04  0.46999998093E+01 0.  1.
       -5    1    3    3    0  502  0.34334281855E+03  0.18110073535E+04 -0.58976421025E+03  0.19353231873E+04  0.46999998093E+01 0. -1.
</event>
<event>
 5   0  0.5177000E-08  0.3683577E+04  0.7818609E-02  0.8071611E-01
       -1   -1    0    0    0  501  0.00000000000E+00  0.00000000000E+00  0.19414356267E+04  0.19414356267E+04  0.50400001928E-02 0.  1.
        1   -1    0    0  501    0  0.00000000000E+00  0.00000000000E+00 -0.17472556575E+04  0.17472556575E+04  0.50400001928E-02 0. -1.
    10030    2    1    2    0    0  0.00000000000E+00  0.00000000000E+00  0.19417996923E+03  0.36886912842E+04  0.36835767305E+04 0.  0.
        3    1    3    3  502    0 -0.81481520313E+03  0.54773184736E+03  0.16575380583E+04  0.19264906999E+04  0.10100000352E+00 0.  1.
       -3    1    3    3    0  502  0.81481520313E+03 -0.54773184736E+03 -0.14633580891E+04  0.17622005842E+04  0.10100000352E+00 0. -1.
</event>
<event>
 5   0  0.5181371E-08  0.3689527E+04  0.7818609E-02  0.8070287E-01
        1   -1    0    0  501    0  0.00000000000E+00  0.00000000000E+00  0.23739870845E+04  0.23739870845E+04  0.50400001928E-02 0. -1.
       -1   -1    0    0    0  501  0.00000000000E+00  0.00000000000E+00 -0.14335177113E+04  0.14335177113E+04  0.50400001928E-02 0.  1.
    10030    2    1    2    0    0  0.00000000000E+00  0.00000000000E+00  0.94046937325E+03  0.38075047958E+04  0.36895270873E+04 0.  0.
        5    1    3    3  502    0  0.29972373536E+03  0.28074129248E+03  0.23262092561E+04  0.23621857640E+04  0.46999998093E+01 0. -1.
       -5    1    3    3    0  502 -0.29972373536E+03 -0.28074129248E+03 -0.13857398828E+04  0.14453190318E+04  0.46999998093E+01 0.  1.
</event>
<event>
 5   0  0.5177000E-08  0.3696738E+04  0.7818609E-02  0.8068685E-01
        1   -1    0    0  501    0  0.00000000000E+00  0.00000000000E+00  0.20943361602E+04  0.20943361602E+04  0.50400001928E-02 0. -1.
       -1   -1    0    0    0  501  0.00000000000E+00  0.00000000000E+00 -0.16312890704E+04  0.16312890704E+04  0.50400001928E-02 0.  1.
    10030    2    1    2    0    0  0.00000000000E+00  0.00000000000E+00  0.46304708977E+03  0.37256252306E+04  0.36967378526E+04 0.  0.
        2    1    3    3  502    0  0.37687777729E+03 -0.17604595815E+04 -0.19033178344E+03  0.18103814474E+04  0.25500000920E-02 0.  1.
       -2    1    3    3    0  502 -0.37687777729E+03  0.17604595815E+04  0.65337887321E+03  0.19152437832E+04  0.25500000920E-02 0. -1.
</event>
<event>
 5   0  0.5177000E-08  0.3700674E+04  0.7818609E-02  0.8067813E-01
       -1   -1    0    0    0  501  0.00000000000E+00  0.00000000000E+00  0.21078987085E+04  0.21078987086E+04  0.50400001928E-02 0.  1.
        1   -1    0    0  501    0  0.00000000000E+00  0.00000000000E+00 -0.16242461833E+04  0.16242461833E+04  0.50400001928E-02 0. -1.
    10030    2    1    2    0    0  0.00000000000E+00  0.00000000000E+00  0.48365252523E+03  0.37321448919E+04  0.37006736858E+04 0.  0.
        2    1    3    3  502    0  0.14673501264E+04 -0.70656512743E+03  0.11275867996E+04  0.19808590721E+04  0.25500000920E-02 0.  1.
       -2    1    3    3    0  502 -0.14673501264E+04  0.70656512743E+03 -0.64393427436E+03  0.17512858198E+04  0.25500000920E-02 0. -1.
</event>
<event>
 5   0  0.1686284E-07  0.3838884E+04  0.7818609E-02  0.8037862E-01
       -2   -1    0    0    0  501  0.00000000000E+00  0.00000000000E+00  0.13423198920E+04  0.13423198920E+04  0.25500000920E-02 0. -1.
        2   -1    0    0  501    0  0.00000000000E+00  0.00000000000E+00 -0.27446946604E+04  0.27446946604E+04  0.25500000920E-02 0.  1.
    10030    2    1    2    0    0  0.00000000000E+00  0.00000000000E+00 -0.14023747684E+04  0.40870145524E+04  0.38388843380E+04 0.  0.
        5    1    3    3  502    0  0.17701625028E+04  0.61324659809E+03 -0.25621349789E+03  0.18908236626E+04  0.46999998093E+01 0. -1.
       -5    1    3    3    0  502 -0.17701625028E+04 -0.61324659809E+03 -0.11461612705E+04  0.21961908898E+04  0.46999998093E+01 0.  1.
</event>
<event>
 5   0  0.5177000E-08  0.3706179E+04  0.7818609E-02  0.8066594E-01
        1   -1    0    0  501    0  0.00000000000E+00  0.00000000000E+00  0.22766804048E+04  0.22766804049E+04  0.50400001928E-02 0. -1.
       -1   -1    0    0    0  501  0.00000000000E+00  0.00000000000E+00 -0.15083105431E+04  0.15083105431E+04  0.50400001928E-02 0.  1.
    10030    2    1    2    0    0  0.00000000000E+00  0.00000000000E+00  0.76836986175E+03  0.37849909480E+04  0.37061791958E+04 0.  0.
        3    1    3    3  502    0  0.13994466065E+04 -0.43914110298E+03 -0.77243780310E+03  0.16576959560E+04  0.10100000352E+00 0.  1.
       -3    1    3    3    0  502 -0.13994466065E+04  0.43914110298E+03  0.15408076648E+04  0.21272949920E+04  0.10100000352E+00 0. -1.
</event>
<event>
 5   0  0.1686284E-07  0.3702960E+04  0.7818609E-02  0.8067306E-01
        2   -1    0    0  501    0  0.00000000000E+00  0.00000000000E+00  0.19503541697E+04  0.19503541697E+04  0.25500000920E-02 0. -1.
       -2   -1    0    0    0  501  0.00000000000E+00  0.00000000000E+00 -0.17576182604E+04  0.17576182604E+04  0.25500000920E-02 0.  1.
    10030    2    1    2    0    0  0.00000000000E+00  0.00000000000E+00  0.19273590923E+03  0.37079724301E+04  0.37029599528E+04 0.  0.
        5    1    3    3  502    0 -0.59452772406E+03  0.11790655534E+04 -0.12031935760E+04  0.17864365830E+04  0.46999998093E+01 0.  1.
       -5    1    3    3    0  502  0.59452772406E+03 -0.11790655534E+04  0.13959294853E+04  0.19215358471E+04  0.46999998093E+01 0. -1.
</event>
<event>
 5   0  0.5177000E-08  0.3707120E+04  0.7818609E-02  0.8066386E-01
        1   -1    0    0  501    0  0.00000000000E+00  0.00000000000E+00  0.22149920211E+04  0.22149920211E+04  0.50400001928E-02 0.  1.
       -1   -1    0    0    0  501  0.00000000000E+00  0.00000000000E+00 -0.15511045483E+04  0.15511045483E+04  0.50400001928E-02 0. -1.
    10030    2    1    2    0    0  0.00000000000E+00  0.00000000000E+00  0.66388747275E+03  0.37660965694E+04  0.37071197437E+04 0.  0.
        3    1    3    3  502    0 -0.67589964393E+01 -0.16859225190E+04 -0.45057255753E+03  0.17451063188E+04  0.10100000352E+00 0. -1.
       -3    1    3    3    0  502  0.67589964393E+01  0.16859225190E+04  0.11144600303E+04  0.20209902507E+04  0.10100000352E+00 0.  1.
</event>
<event>
 5   0  0.1666189E-07  0.3690310E+04  0.7818609E-02  0.8070113E-01
        2   -1    0    0  501    0  0.00000000000E+00  0.00000000000E+00  0.15126956133E+04  0.15126956133E+04  0.25500000920E-02 0. -1.
       -2   -1    0    0    0  501  0.00000000000E+00  0.00000000000E+00 -0.22506824518E+04  0.22506824518E+04  0.25500000920E-02 0.  1.
    10030    2    1    2    0    0  0.00000000000E+00  0.00000000000E+00 -0.73798683855E+03  0.37633780651E+04  0.36903102697E+04 0.  0.
        4    1    3    3  502    0 -0.60831264250E+03 -0.17156526328E+04 -0.61210388511E+02  0.18213337289E+04  0.12699999809E+01 0. -1.
       -4    1    3    3    0  502  0.60831264250E+03  0.17156526328E+04 -0.67677645004E+03  0.19420443362E+04  0.12699999809E+01 0.  1.
</event>
<event>
 5   0  0.5177000E-08  0.3700237E+04  0.7818609E-02  0.8067909E-01
       -1   -1    0    0    0  501  0.00000000000E+00  0.00000000000E+00  0.16837908985E+04  0.16837908985E+04  0.50400001928E-02 0. -1.
        1   -1    0    0  501    0  0.00000000000E+00  0.00000000000E+00 -0.20328758260E+04  0.20328758260E+04  0.50400001928E-02 0.  1.
    10030    2    1    2    0    0  0.00000000000E+00  0.00000000000E+00 -0.34908492750E+03  0.37166667245E+04  0.37002366484E+04 0.  0.
        4    1    3    3  502    0 -0.12063817138E+04 -0.13844276448E+04  0.52157409688E+02  0.18370407593E+04  0.12699999809E+01 0. -1.
       -4    1    3    3    0  502  0.12063817138E+04  0.13844276448E+04 -0.40124233719E+03  0.18796259652E+04  0.12699999809E+01 0.  1.
</event>
<event>
 5   0  0.1666189E-07  0.3693182E+04  0.7818609E-02  0.8069474E-01
       -2   -1    0    0    0  501  0.00000000000E+00  0.00000000000E+00  0.18449246493E+04  0.18449246493E+04  0.25500000920E-02 0. -1.
        2   -1    0    0  501    0  0.00000000000E+00  0.00000000000E+00 -0.18482589556E+04  0.18482589556E+04  0.25500000920E-02 0.  1.
    10030    2    1    2    0    0  0.00000000000E+00  0.00000000000E+00 -0.33343063582E+01  0.36931836049E+04  0.36931820998E+04 0.  0.
        4    1    3    3  502    0  0.31391655428E+03 -0.14254675746E+04 -0.11327712714E+04  0.18476129940E+04  0.12699999809E+01 0.  1.
       -4    1    3    3    0  502 -0.31391655428E+03  0.14254675746E+04  0.11294369651E+04  0.18455706110E+04  0.12699999809E+01 0. -1.
</event>
<event>
 5   0  0.1658770E-07  0.3694248E+04  0.7818609E-02  0.8069238E-01
        2   -1    0    0  501    0  0.00000000000E+00  0.00000000000E+00  0.20817056443E+04  0.20817056443E+04  0.25500000920E-02 0. -1.
       -2   -1    0    0    0  501  0.00000000000E+00  0.00000000000E+00 -0.16389766800E+04  0.16389766800E+04  0.25500000920E-02 0.  1.
    10030    2    1    2    0    0  0.00000000000E+00  0.00000000000E+00  0.44272896432E+03  0.37206823243E+04  0.36942479644E+04 0.  0.
        2    1    3    3  502    0 -0.76544569597E+03  0.12296956483E+04  0.13757811346E+04  0.19977067431E+04  0.25500000920E-02 0. -1.
       -2    1    3    3    0  502  0.76544569597E+03 -0.12296956483E+04 -0.93305217033E+03  0.17229755812E+04  0.25500000920E-02 0.  1.
</event>
<event>
 5   0  0.5177000E-08  0.3690716E+04  0.7818609E-02  0.8070022E-01
       -1   -1    0    0    0  501  0.00000000000E+00  0.00000000000E+00  0.21678458498E+04  0.21678458498E+04  0.50400001928E-02 0.  1.
        1   -1    0    0  501    0  0.00000000000E+00  0.00000000000E+00 -0.15708429428E+04  0.15708429428E+04  0.50400001928E-02 0. -1.
    10030    2    1    2    0    0  0.00000000000E+00  0.00000000000E+00  0.59700290701E+03  0.37386887926E+04  0.36907155698E+04 0.  0.
        1    1    3    3  502    0  0.11919147313E+03 -0.14744689680E+04 -0.81905199685E+03  0.16908907470E+04  0.50400001928E-02 0. -1.
       -1    1    3    3    0  502 -0.11919147313E+03  0.14744689680E+04  0.14160549039E+04  0.20477980456E+04  0.50400001928E-02 0.  1.
</event>
<event>
 5   0  0.5177000E-08  0.3709920E+04  0.7818609E-02  0.8065767E-01
        1   -1    0    0  501    0  0.00000000000E+00  0.00000000000E+00  0.22879314366E+04  0.22879314366E+04  0.50400001928E-02 0. -1.
       -1   -1    0    0    0  501  0.00000000000E+00  0.00000000000E+00 -0.15039248365E+04  0.15039248365E+04  0.50400001928E-02 0.  1.
    10030    2    1    2    0    0  0.00000000000E+00  0.00000000000E+00  0.78400660017E+03  0.37918562731E+04  0.37099201672E+04 0.  0.
        1    1    3    3  502    0 -0.14411491096E+04  0.11511766453E+04  0.59322309871E+03  0.19375324693E+04  0.50400001928E-02 0. -1.
       -1    1    3    3    0  502  0.14411491096E+04 -0.11511766453E+04  0.19078350147E+03  0.18543238038E+04  0.50400001928E-02 0.  1.
</event>
<event>
 5   0  0.1686284E-07  0.3688940E+04  0.7818609E-02  0.8070417E-01
        2   -1    0    0  501    0  0.00000000000E+00  0.00000000000E+00  0.24865858427E+04  0.24865858428E+04  0.25500000920E-02 0.  1.
       -2   -1    0    0    0  501  0.00000000000E+00  0.00000000000E+00 -0.13681688826E+04  0.13681688826E+04  0.25500000920E-02 0. -1.
    10030    2    1    2    0    0  0.00000000000E+00  0.00000000000E+00  0.11184169601E+04  0.38547547254E+04  0.36889398879E+04 0.  0.
        5    1    3    3  502    0  0.18223861378E+04  0.12148030791E+03  0.29035261221E+03  0.18493716311E+04  0.46999998093E+01 0.  1.
       -5    1    3    3    0  502 -0.18223861378E+04 -0.12148030791E+03  0.82806434790E+03  0.20053830943E+04  0.46999998093E+01 0. -1.
</event>
<event>
 5   0  0.1587026E-07  0.3707469E+04  0.7818609E-02  0.8066309E-01
       -2   -1    0    0    0  501  0.00000000000E+00  0.00000000000E+00  0.13143103061E+04  0.13143103061E+04  0.25500000920E-02 0. -1.
        2   -1    0    0  501    0  0.00000000000E+00  0.00000000000E+00 -0.26145515796E+04  0.26145515796E+04  0.25500000920E-02 0.  1.
    10030    2    1    2    0    0  0.00000000000E+00  0.00000000000E+00 -0.13002412735E+04  0.39288618857E+04  0.37074692646E+04 0.  0.
        3    1    3    3  502    0  0.21645171197E+03 -0.16107039385E+04 -0.15950596535E+04  0.22771547663E+04  0.10100000352E+00 0.  1.
       -3    1    3    3    0  502 -0.21645171197E+03  0.16107039385E+04  0.29481837995E+03  0.16517071195E+04  0.10100000352E+00 0. -1.
</event>
<event>
 5   0  0.1587026E-07  0.3770228E+04  0.7818609E-02  0.8052574E-01
        2   -1    0    0  501    0  0.00000000000E+00  0.00000000000E+00  0.26427220083E+04  0.26427220083E+04  0.25500000920E-02 0.  1.
       -2   -1    0    0    0  501  0.00000000000E+00  0.00000000000E+00 -0.13446952082E+04  0.13446952082E+04  0.25500000920E-02 0. -1.
    10030    2    1    2    0    0  0.00000000000E+00  0.00000000000E+00  0.12980268001E+04  0.39874172166E+04  0.37702284394E+04 0.  0.
        3    1    3    3  502    0  0.64173331188E+03 -0.11850750617E+03  0.25194491894E+04  0.26025929188E+04  0.10100000352E+00 0.  1.
       -3    1    3    3    0  502 -0.64173331188E+03  0.11850750617E+03 -0.12214223893E+04  0.13848242978E+04  0.10100000352E+00 0. -1.
</event>
<event>
 5   0  0.5177000E-08  0.3666368E+04  0.7818609E-02  0.8075456E-01
        1   -1    0    0  501    0  0.00000000000E+00  0.00000000000E+00  0.21874182642E+04  0.21874182642E+04  0.50400001928E-02 0.  1.
       -1   -1    0    0    0  501  0.00000000000E+00  0.00000000000E+00 -0.15363152965E+04  0.15363152965E+04  0.50400001928E-02 0. -1.
    10030    2    1    2    0    0  0.00000000000E+00  0.00000000000E+00  0.65110296763E+03  0.37237335607E+04  0.36663683062E+04 0.  0.
        2    1    3    3  502    0  0.34651577005E+03  0.13114831986E+04 -0.92682850084E+03  0.16428853975E+04  0.25500000920E-02 0. -1.
       -2    1    3    3    0  502 -0.34651577005E+03 -0.13114831986E+04  0.15779314685E+04  0.20808481632E+04  0.25500000920E-02 0.  1.
</event>
<event>
 5   0  0.1666189E-07  0.3702340E+04  0.7818609E-02  0.8067443E-01
        2   -1    0    0  501    0  0.00000000000E+00  0.00000000000E+00  0.31571433402E+04  0.31571433402E+04  0.25500000920E-02 0. -1.
       -2   -1    0    0    0  501  0.00000000000E+00  0.00000000000E+00 -0.10854214168E+04  0.10854214168E+04  0.25500000920E-02 0.  1.
    10030    2    1    2    0    0  0.00000000000E+00  0.00000000000E+00  0.20717219234E+04  0.42425647571E+04  0.37023403396E+04 0.  0.
        4    1    3    3  502    0  0.90294855658E+02  0.62416434186E+03  0.30302441060E+04  0.30951761245E+04  0.12699999809E+01 0. -1.
       -4    1    3    3    0  502 -0.90294855658E+02 -0.62416434186E+03 -0.95852218265E+03  0.11473886326E+04  0.12699999809E+01 0.  1.
</event>
<event>
 5   0  0.5177000E-08  0.3703728E+04  0.7818609E-02  0.8067136E-01
        1   -1    0    0  501    0  0.00000000000E+00  0.00000000000E+00  0.13022932513E+04  0.13022932513E+04  0.50400001928E-02 0.  1.
       -1   -1    0    0    0  501  0.00000000000E+00  0.00000000000E+00 -0.26333548352E+04  0.26333548352E+04  0.50400001928E-02 0. -1.
    10030    2    1    2    0    0  0.00000000000E+00  0.00000000000E+00 -0.13310615839E+04  0.39356480865E+04  0.37037279761E+04 0.  0.
        3    1    3    3  502    0  0.56361005783E+03 -0.89551158312E+03  0.94943988005E+03  0.14216305388E+04  0.10100000352E+00 0.  1.
       -3    1    3    3    0  502 -0.56361005783E+03  0.89551158312E+03 -0.22805014640E+04  0.25140175477E+04  0.10100000352E+00 0. -1.
</event>
<event>
 5   0  0.1587026E-07  0.3694686E+04  0.7818609E-02  0.8069140E-01
        2   -1    0    0  501    0  0.00000000000E+00  0.00000000000E+00  0.22229429950E+04  0.22229429950E+04  0.25500000920E-02 0.  1.
       -2   -1    0    0    0  501  0.00000000000E+00  0.00000000000E+00 -0.15352067459E+04  0.15352067459E+04  0.25500000920E-02 0. -1.
    10030    2    1    2    0    0  0.00000000000E+00  0.00000000000E+00  0.68773624917E+03  0.37581497409E+04  0.36946864991E+04 0.  0.
        3    1    3    3  502    0  0.11912781260E+04 -0.11211432479E+04  0.12168473077E+04  0.20388288639E+04  0.10100000352E+00 0.  1.
       -3    1    3    3    0  502 -0.11912781260E+04  0.11211432479E+04 -0.52911105855E+03  0.17193208770E+04  0.10100000352E+00 0. -1.
</event>
<event>
 5   0  0.5177000E-08  0.3689070E+04  0.7818609E-02  0.8070388E-01
       -1   -1    0    0    0  501  0.00000000000E+00  0.00000000000E+00  0.12042933833E+04  0.12042933833E+04  0.50400001928E-02 0. -1.
        1   -1    0    0  501    0  0.00000000000E+00  0.00000000000E+00 -0.28251506241E+04  0.28251506241E+04  0.50400001928E-02 0.  1.
    10030    2    1    2    0    0  0.00000000000E+00  0.00000000000E+00 -0.16208572409E+04  0.40294440074E+04  0.36890704538E+04 0.  0.
        1    1    3    3  502    0  0.15318409619E+04 -0.10701906427E+03 -0.19266364247E+04  0.24637203019E+04  0.50400001928E-02 0.  1.
       -1    1    3    3    0  502 -0.15318409619E+04  0.10701906427E+03  0.30577918385E+03  0.15657237055E+04  0.50400001928E-02 0. -1.
</event>
<event>
 5   0  0.1686284E-07  0.3698609E+04  0.7818609E-02  0.8068270E-01
        2   -1    0    0  501    0  0.00000000000E+00  0.00000000000E+00  0.25867245870E+04  0.25867245870E+04  0.25500000920E-02 0. -1.
       -2   -1    0    0    0  501  0.00000000000E+00  0.00000000000E+00 -0.13221073425E+04  0.13221073425E+04  0.25500000920E-02 0.  1.
    10030    2    1    2    0    0  0.00000000000E+00  0.00000000000E+00  0.12646172445E+04  0.39088319294E+04  0.36986092356E+04 0.  0.
        5    1    3    3  502    0  0.98181427790E+03  0.58160278874E+03 -0.90563057550E+03  0.14568493091E+04  0.46999998093E+01 0.  1.
       -5    1    3    3    0  502 -0.98181427790E+03 -0.58160278874E+03  0.21702478200E+04  0.24519826203E+04  0.46999998093E+01 0. -1.
</event>
<event>
 5   0  0.5177000E-08  0.3690591E+04  0.7818609E-02  0.8070050E-01
       -1   -1    0    0    0  501  0.00000000000E+00  0.00000000000E+00  0.23310705157E+04  0.23310705157E+04  0.50400001928E-02 0. -1.
        1   -1    0    0  501    0  0.00000000000E+00  0.00000000000E+00 -0.14607520084E+04  0.14607520084E+04  0.50400001928E-02 0.  1.
    10030    2    1    2    0    0  0.00000000000E+00  0.00000000000E+00  0.87031850726E+03  0.37918225241E+04  0.36905912467E+04 0.  0.
        4    1    3    3  502    0 -0.90162767357E+03 -0.14096873102E+04 -0.36396931909E+03  0.17124911831E+04  0.12699999809E+01 0.  1.
       -4    1    3    3    0  502  0.90162767357E+03  0.14096873102E+04  0.12342878263E+04  0.20793313409E+04  0.12699999809E+01 0. -1.
</event>
<event>
 5   0  0.1658770E-07  0.3701234E+04  0.7818609E-02  0.8067688E-01
       -2   -1    0    0    0  501  0.00000000000E+00  0.00000000000E+00  0.15055345808E+04  0.15055345808E+04  0.25500000920E-02 0. -1.
        2   -1    0    0  501    0  0.00000000000E+00  0.00000000000E+00 -0.22747955680E+04  0.22747955680E+04  0.25500000920E-02 0.  1.
    10030    2    1    2    0    0  0.00000000000E+00  0.00000000000E+00 -0.76926098720E+03  0.37803301487E+04  0.37012340600E+04 0.  0.
        2    1    3    3  502    0 -0.10506838744E+04  0.97755775979E+03 -0.15780296097E+04  0.21330103672E+04  0.25500000920E-02 0.  1.
       -2    1    3    3    0  502  0.10506838744E+04 -0.97755775979E+03  0.80876862248E+03  0.16473197815E+04  0.25500000920E-02 0. -1.
</event>
<event>
 5   0  0.1587026E-07  0.3621950E+04  0.7818609E-02  0.8085482E-01
        2   -1    0    0  501    0  0.00000000000E+00  0.00000000000E+00  0.20704760599E+04  0.20704760599E+04  0.25500000920E-02 0. -1.
       -2   -1    0    0    0  501  0.00000000000E+00  0.00000000000E+00 -0.15839984854E+04  0.15839984854E+04  0.25500000920E-02 0.  1.
    10030    2    1    2    0    0  0.00000000000E+00  0.00000000000E+00  0.48647757451E+03  0.36544745454E+04  0.36219502719E+04 0.  0.
        3    1    3    3  502    0  0.39555180767E+03 -0.17661511711E+04  0.30608568425E+03  0.18356033471E+04  0.10100000352E+00 0.  1.
       -3    1    3    3    0  502 -0.39555180767E+03  0.17661511711E+04  0.18039189026E+03  0.18188711983E+04  0.10100000352E+00 0. -1.
</event>
<event>
 5   0  0.5181371E-08  0.3677606E+04  0.7818609E-02  0.8072943E-01
       -1   -1    0    0    0  501  0.00000000000E+00  0.00000000000E+00  0.13686678484E+04  0.13686678484E+04  0.50400001928E-02 0.  1.
        1   -1    0    0  501    0  0.00000000000E+00  0.00000000000E+00 -0.24704290307E+04  0.24704290307E+04  0.50400001928E-02 0. -1.
    10030    2    1    2    0    0  0.00000000000E+00  0.00000000000E+00 -0.11017611823E+04  0.38390968791E+04  0.36776061704E+04 0.  0.
        5    1    3    3  502    0 -0.57448514153E+03 -0.16160201738E+04 -0.12430345852E+04  0.21181858866E+04  0.46999998093E+01 0. -1.
       -5    1    3    3    0  502  0.57448514153E+03  0.16160201738E+04  0.14127340297E+03  0.17209109926E+04  0.46999998093E+01 0.  1.
</event>
<event>
 5   0  0.1686284E-07  0.3690065E+04  0.7818609E-02  0.8070167E-01
        2   -1    0    0  501    0  0.00000000000E+00  0.00000000000E+00  0.16007886310E+04  0.16007886310E+04  0.25500000920E-02 0. -1.
       -2   -1    0    0    0  501  0.00000000000E+00  0.00000000000E+00 -0.21265420013E+04  0.21265420013E+04  0.25500000920E-02 0.  1.
    10030    2    1    2    0    0  0.00000000000E+00  0.00000000000E+00 -0.52575337029E+03  0.37273306323E+04  0.36900646385E+04 0.  0.
        5    1    3    3  502    0  0.66667463975E+03  0.15922957913E+04  0.39505470355E+03  0.17708617312E+04  0.46999998093E+01 0. -1.
       -5    1    3    3    0  502 -0.66667463975E+03 -0.15922957913E+04 -0.92080807384E+03  0.19564689011E+04  0.46999998093E+01 0.  1.
</event>
<event>
 5   0  0.1666189E-07  0.3710811E+04  0.7818609E-02  0.8065570E-01
       -2   -1    0    0    0  501  0.00000000000E+00  0.00000000000E+00  0.18524030060E+04  0.18524030060E+04  0.25500000920E-02 0.  1.
        2   -1    0    0  501    0  0.00000000000E+00  0.00000000000E+00 -0.18584131020E+04  0.18584131020E+04  0.25500000920E-02 0. -1.
    10030    2    1    2    0    0  0.00000000000E+00  0.00000000000E+00 -0.60100959746E+01  0.37108161080E+04  0.37108112409E+04 0.  0.
        4    1    3    3  502    0 -0.24836105512E+03  0.95005534306E+03  0.15712397029E+04  0.18528583825E+04  0.12699999809E+01 0.  1.
       -4    1    3    3    0  502  0.24836105512E+03 -0.95005534306E+03 -0.15772497989E+04  0.18579577255E+04  0.12699999809E+01 0. -1.
</event>
<event>
 5   0  0.1658770E-07  0.3695856E+04  0.7818609E-02  0.8068881E-01
       -2   -1    0    0    0  501  0.00000000000E+00  0.00000000000E+00  0.15352413680E+04  0.15352413680E+04  0.25500000920E-02 0. -1.
        2   -1    0    0  501    0  0.00000000000E+00  0.00000000000E+00 -0.22242998428E+04  0.22242998428E+04  0.25500000920E-02 0.  1.
    10030    2    1    2    0    0  0.00000000000E+00  0.00000000000E+00 -0.68905847478E+03  0.37595412108E+04  0.36958555889E+04 0.  0.
        2    1    3    3  502    0 -0.33127144448E+03 -0.37478139658E+03  0.14650670156E+04  0.15481031055E+04  0.25500000920E-02 0. -1.
       -2    1    3    3    0  502  0.33127144448E+03  0.37478139658E+03 -0.21541254904E+04  0.22114381053E+04  0.25500000920E-02 0.  1.
</event>
<event>
 5   0  0.5177000E-08  0.3717893E+04  0.7818609E-02  0.8064008E-01
        1   -1    0    0  501    0  0.00000000000E+00  0.00000000000E+00  0.26729160154E+04  0.26729160155E+04  0.50400001928E-02 0. -1.
       -1   -1    0    0    0  501  0.00000000000E+00  0.00000000000E+00 -0.12928511171E+04  0.12928511171E+04  0.50400001928E-02 0.  1.
    10030    2    1    2    0    0  0.00000000000E+00  0.00000000000E+00  0.13800648983E+04  0.39657671326E+04  0.37178931972E+04 0.  0.
        2    1    3    3  502    0  0.10026569105E+04  0.14218053477E+04 -0.84788751561E+01  0.17398055116E+04  0.25500000920E-02 0.  1.
       -2    1    3    3    0  502 -0.10026569105E+04 -0.14218053477E+04  0.13885437735E+04  0.22259616209E+04  0.25500000920E-02 0. -1.
</event>
<event>
 5   0  0.1658770E-07  0.3702824E+04  0.7818609E-02  0.8067336E-01
        2   -1    0    0  501    0  0.00000000000E+00  0.00000000000E+00  0.19580211751E+04  0.19580211751E+04  0.25500000920E-02 0.  1.
       -2   -1    0    0    0  501  0.00000000000E+00  0.00000000000E+00 -0.17506071668E+04  0.17506071668E+04  0.25500000920E-02 0. -1.
    10030    2    1    2    0    0  0.00000000000E+00  0.00000000000E+00  0.20741400828E+03  0.37086283419E+04  0.37028237344E+04 0.  0.
        2    1    3    3  502    0 -0.22693866006E+03 -0.69782170942E+03 -0.15987427725E+04  0.17591005503E+04  0.25500000920E-02 0. -1.
       -2    1    3    3    0  502  0.22693866006E+03  0.69782170942E+03  0.18061567808E+04  0.19495277916E+04  0.25500000920E-02 0.  1.
</event>
<event>
 5   0  0.1686284E-07  0.3688488E+04  0.7818609E-02  0.8070518E-01
        2   -1    0    0  501    0  0.00000000000E+00  0.00000000000E+00  0.30631672484E+04  0.30631672484E+04  0.25500000920E-02 0.  1.
       -2   -1    0    0    0  501  0.00000000000E+00  0.00000000000E+00 -0.11103656941E+04  0.11103656941E+04  0.25500000920E-02 0. -1.
    10030    2    1    2    0    0  0.00000000000E+00  0.00000000000E+00  0.19528015543E+04  0.41735329425E+04  0.36884879439E+04 0.  0.
        5    1    3    3  502    0  0.77221753145E+03  0.15490102333E+04  0.25590724749E+03  0.17496466009E+04  0.46999998093E+01 0. -1.
       -5    1    3    3    0  502 -0.77221753145E+03 -0.15490102333E+04  0.16968943068E+04  0.24238863416E+04  0.46999998093E+01 0.  1.
</event>
<event>
 5   0  0.1666189E-07  0.3690760E+04  0.7818609E-02  0.8070013E-01
       -2   -1    0    0    0  501  0.00000000000E+00  0.00000000000E+00  0.30625495205E+04  0.30625495205E+04  0.25500000920E-02 0. -1.
        2   -1    0    0  501    0  0.00000000000E+00  0.00000000000E+00 -0.11119585184E+04  0.11119585184E+04  0.25500000920E-02 0.  1.
    10030    2    1    2    0    0  0.00000000000E+00  0.00000000000E+00  0.19505910021E+04  0.41745080390E+04  0.36907603701E+04 0.  0.
        4    1    3    3  502    0 -0.41149577815E+03 -0.59427168193E+03 -0.94517289718E+03  0.11898911824E+04  0.12699999809E+01 0.  1.
       -4    1    3    3    0  502  0.41149577815E+03  0.59427168193E+03  0.28957638993E+04  0.29846168566E+04  0.12699999809E+01 0. -1.
</event>
<event>
 5   0  0.1658770E-07  0.3689828E+04  0.7818609E-02  0.8070220E-01
        2   -1    0    0  501    0  0.00000000000E+00  0.00000000000E+00  0.24927171185E+04  0.24927171185E+04  0.25500000920E-02 0.  1.
       -2   -1    0    0    0  501  0.00000000000E+00  0.00000000000E+00 -0.13654611800E+04  0.13654611800E+04  0.25500000920E-02 0. -1.
    10030    2    1    2    0    0  0.00000000000E+00  0.00000000000E+00  0.11272559385E+04  0.38581782986E+04  0.36898284286E+04 0.  0.
        2    1    3    3  502    0  0.10237109482E+04 -0.12637558266E+04 -0.34711448661E+03  0.16629946968E+04  0.25500000920E-02 0. -1.
       -2    1    3    3    0  502 -0.10237109482E+04  0.12637558266E+04  0.14743704251E+04  0.21951836017E+04  0.25500000920E-02 0.  1.
</event>
<event>
 5   0  0.1686284E-07  0.3739752E+04  0.7818609E-02  0.8059209E-01
       -2   -1    0    0    0  501  0.00000000000E+00  0.00000000000E+00  0.17335865856E+04  0.17335865856E+04  0.25500000920E-02 0.  1.
        2   -1    0    0  501    0  0.00000000000E+00  0.00000000000E+00 -0.20168805728E+04  0.20168805728E+04  0.25500000920E-02 0. -1.
    10030    2    1    2    0    0  0.00000000000E+00  0.00000000000E+00 -0.28329398721E+03  0.37504671583E+04  0.37397524547E+04 0.  0.
        5    1    3    3  502    0  0.58578813321E+03 -0.15122792849E+04  0.79176056785E+03  0.18047280292E+04  0.46999998093E+01 0.  1.
       -5    1    3    3    0  502 -0.58578813321E+03  0.15122792849E+04 -0.10750545551E+04  0.19457391292E+04  0.46999998093E+01 0. -1.
</event>
<event>
 5   0  0.5177000E-08  0.3752528E+04  0.7818609E-02  0.8056420E-01
       -1   -1    0    0    0  501  0.00000000000E+00  0.00000000000E+00  0.14934257740E+04  0.14934257740E+04  0.50400001928E-02 0.  1.
        1   -1    0    0  501    0  0.00000000000E+00  0.00000000000E+00 -0.23572425993E+04  0.23572425993E+04  0.50400001928E-02 0. -1.
    10030    2    1    2    0    0  0.00000000000E+00  0.00000000000E+00 -0.86381682525E+03  0.38506683733E+04  0.37525281363E+04 0.  0.
        1    1    3    3  502    0  0.91147369801E+02  0.18445570366E+04 -0.92085378237E+02  0.18491020040E+04  0.50400001928E-02 0. -1.
       -1    1    3    3    0  502 -0.91147369801E+02 -0.18445570366E+04 -0.77173144701E+03  0.20015663693E+04  0.50400001928E-02 0.  1.
</event>
<event>
 5   0  0.1587026E-07  0.3693540E+04  0.7818609E-02  0.8069395E-01
        2   -1    0    0  501    0  0.00000000000E+00  0.00000000000E+00  0.20212005214E+04  0.20212005214E+04  0.25500000920E-02 0.  1.
       -2   -1    0    0    0  501  0.00000000000E+00  0.00000000000E+00 -0.16873926997E+04  0.16873926997E+04  0.25500000920E-02 0. -1.
    10030    2    1    2    0    0  0.00000000000E+00  0.00000000000E+00  0.33380782169E+03  0.37085932210E+04  0.36935397679E+04 0.  0.
        3    1    3    3  502    0 -0.17894658923E+04  0.26576214433E+03  0.53955166189E+03  0.18878383679E+04  0.10100000352E+00 0. -1.
       -3    1    3    3    0  502  0.17894658923E+04 -0.26576214433E+03 -0.20574384020E+03  0.18207548531E+04  0.10100000352E+00 0.  1.
</event>
<event>
 5   0  0.5177000E-08  0.3697874E+04  0.7818609E-02  0.8068433E-01
        1   -1    0    0  501    0  0.00000000000E+00  0.00000000000E+00  0.13459018602E+04  0.13459018602E+04  0.50400001928E-02 0.  1.
       -1   -1    0    0    0  501  0.00000000000E+00  0.00000000000E+00 -0.25399833752E+04  0.25399833752E+04  0.50400001928E-02 0. -1.
    10030    2    1    2    0    0  0.00000000000E+00  0.00000000000E+00 -0.11940815150E+04  0.38858852354E+04  0.36978741729E+04 0.  0.
        1    1    3    3  502    0 -0.12746820958E+04  0.15033800292E+03  0.80146998082E+03  0.15131986289E+04  0.50400001928E-02 0.  1.
       -1    1    3    3    0  502  0.12746820958E+04 -0.15033800292E+03 -0.19955514958E+04  0.23726866065E+04  0.50400001928E-02 0. -1.
</event>
<event>
 5   0  0.1658770E-07  0.3689678E+04  0.7818609E-02  0.8070253E-01
        2   -1    0    0  501    0  0.00000000000E+00  0.00000000000E+00  0.14985568427E+04  0.14985568427E+04  0.25500000920E-02 0. -1.
       -2   -1    0    0    0  501  0.00000000000E+00  0.00000000000E+00 -0.22711391928E+04  0.22711391928E+04  0.25500000920E-02 0.  1.
    10030    2    1    2    0    0  0.00000000000E+00  0.00000000000E+00 -0.77258235016E+03  0.37696960355E+04  0.36896781313E+04 0.  0.
        2    1    3    3  502    0  0.73625816734E+03  0.46054511979E+03  0.12766603555E+04  0.15440335358E+04  0.25500000920E-02 0. -1.
       -2    1    3    3    0  502 -0.73625816734E+03 -0.46054511979E+03 -0.20492427056E+04  0.22256624998E+04  0.25500000920E-02 0.  1.
</event>
<event>
 5   0  0.1686284E-07  0.3667582E+04  0.7818609E-02  0.8075184E-01
       -2   -1    0    0    0  501  0.00000000000E+00  0.00000000000E+00  0.12515945758E+04  0.12515945758E+04  0.25500000920E-02 0.  1.
        2   -1    0    0  501    0  0.00000000000E+00  0.00000000000E+00 -0.26868046621E+04  0.26868046621E+04  0.25500000920E-02 0. -1.
    10030    2    1    2    0    0  0.00000000000E+00  0.00000000000E+00 -0.14352100863E+04  0.39383992379E+04  0.36675823870E+04 0.  0.
        5    1    3    3  502    0 -0.23842201549E+03 -0.29341581687E+03  0.12092823788E+04  0.12670137571E+04  0.46999998093E+01 0.  1.
       -5    1    3    3    0  502  0.23842201549E+03  0.29341581687E+03 -0.26444924651E+04  0.26713854808E+04  0.46999998093E+01 0. -1.
</event>
<event>
 5   0  0.5177000E-08  0.3691796E+04  0.7818609E-02  0.8069782E-01
        1   -1    0    0  501    0  0.00000000000E+00  0.00000000000E+00  0.25240118646E+04  0.25240118646E+04  0.50400001928E-02 0.  1.
       -1   -1    0    0    0  501  0.00000000000E+00  0.00000000000E+00 -0.13499693368E+04  0.13499693368E+04  0.50400001928E-02 0. -1.
    10030    2    1    2    0    0  0.00000000000E+00  0.00000000000E+00  0.11740425278E+04  0.38739812014E+04  0.36917955647E+04 0.  0.
        3    1    3    3  502    0 -0.50834014884E+03 -0.17651185224E+04  0.77846777606E+03  0.19950100735E+04  0.10100000352E+00 0. -1.
       -3    1    3    3    0  502  0.50834014884E+03  0.17651185224E+04  0.39557475176E+03  0.18789711279E+04  0.10100000352E+00 0.  1.
</event>
<event>
 5   0  0.5177000E-08  0.3646831E+04  0.7818609E-02  0.8079848E-01
       -1   -1    0    0    0  501  0.00000000000E+00  0.00000000000E+00  0.14176058464E+04  0.14176058464E+04  0.50400001928E-02 0. -1.
        1   -1    0    0  501    0  0.00000000000E+00  0.00000000000E+00 -0.23453933250E+04  0.23453933250E+04  0.50400001928E-02 0.  1.
    10030    2    1    2    0    0  0.00000000000E+00  0.00000000000E+00 -0.92778747861E+03  0.37629991715E+04  0.36468305635E+04 0.  0.
        1    1    3    3  502    0 -0.31641646039E+03  0.17926727141E+04 -0.57235365899E+03  0.19082409563E+04  0.50400001928E-02 0.  1.
       -1    1    3    3    0  502  0.31641646039E+03 -0.17926727141E+04 -0.35543381963E+03  0.18547582151E+04  0.50400001928E-02 0. -1.
</event>
<event>
 5   0  0.5181371E-08  0.3703495E+04  0.7818609E-02  0.8067188E-01
        1   -1    0    0  501    0  0.00000000000E+00  0.00000000000E+00  0.12716253304E+04  0.12716253304E+04  0.50400001928E-02 0.  1.
       -1   -1    0    0    0  501  0.00000000000E+00  0.00000000000E+00 -0.26965247901E+04  0.26965247901E+04  0.50400001928E-02 0. -1.
    10030    2    1    2    0    0  0.00000000000E+00  0.00000000000E+00 -0.14248994597E+04  0.39681501205E+04  0.37034952286E+04 0.  0.
        5    1    3    3  502    0  0.92035175023E+03 -0.14670976712E+04 -0.14146647768E+04  0.22362292910E+04  0.46999998093E+01 0. -1.
       -5    1    3    3    0  502 -0.92035175023E+03  0.14670976712E+04 -0.10234682846E+02  0.17319208295E+04  0.46999998093E+01 0.  1.
</event>
<event>
 5   0  0.5177000E-08  0.3466406E+04  0.7818609E-02  0.8121798E-01
        3   -1    0    0  501    0  0.00000000000E+00  0.00000000000E+00  0.14423980560E+04  0.14423980596E+04  0.10100000352E+00 0. -1.
       -3   -1    0    0    0  501  0.00000000000E+00  0.00000000000E+00 -0.20826382231E+04  0.20826382255E+04  0.10100000352E+00 0.  1.
    10030    2    1    2    0    0  0.00000000000E+00  0.00000000000E+00 -0.64024016706E+03  0.35250362851E+04  0.34664064014E+04 0.  0.
        5    1    3    3  502    0 -0.11077409016E+04  0.31201640888E+03 -0.16380054075E+04  0.20018811027E+04  0.46999998093E+01 0.  1.
       -5    1    3    3    0  502  0.11077409016E+04 -0.31201640888E+03  0.99776524042E+03  0.15231551824E+04  0.46999998093E+01 0. -1.
</event>
<event>
 5   0  0.5177000E-08  0.3675757E+04  0.7818609E-02  0.8073356E-01
        1   -1    0    0  501    0  0.00000000000E+00  0.00000000000E+00  0.14425106266E+04  0.14425106267E+04  0.50400001928E-02 0.  1.
       -1   -1    0    0    0  501  0.00000000000E+00  0.00000000000E+00 -0.23416097371E+04  0.23416097371E+04  0.50400001928E-02 0. -1.
    10030    2    1    2    0    0  0.00000000000E+00  0.00000000000E+00 -0.89909911042E+03  0.37841203637E+04  0.36757567543E+04 0.  0.
        3    1    3    3  502    0  0.40794394929E+03 -0.56548154558E+03  0.13010547106E+04  0.14761202574E+04  0.10100000352E+00 0.  1.
       -3    1    3    3    0  502 -0.40794394929E+03  0.56548154558E+03 -0.22001538210E+04  0.23080001063E+04  0.10100000352E+00 0. -1.
</event>
<event>
 5   0  0.1686284E-07  0.3626681E+04  0.7818609E-02  0.8084407E-01
       -2   -1    0    0    0  501  0.00000000000E+00  0.00000000000E+00  0.13782573537E+04  0.13782573537E+04  0.25500000920E-02 0. -1.
        2   -1    0    0  501    0  0.00000000000E+00  0.00000000000E+00 -0.23857696647E+04  0.23857696647E+04  0.25500000920E-02 0.  1.
    10030    2    1    2    0    0  0.00000000000E+00  0.00000000000E+00 -0.10075123110E+04  0.37640270184E+04  0.36266814499E+04 0.  0.
        5    1    3    3  502    0 -0.15550260559E+03  0.55011322593E+03 -0.22897919622E+04  0.23600794355E+04  0.46999998093E+01 0.  1.
       -5    1    3    3    0  502  0.15550260559E+03 -0.55011322593E+03  0.12822796512E+04  0.14039475829E+04  0.46999998093E+01 0. -1.
</event>
<event>
 5   0  0.5177000E-08  0.3700074E+04  0.7818609E-02  0.8067946E-01
       -3   -1    0    0    0  501  0.00000000000E+00  0.00000000000E+00  0.19575709311E+04  0.19575709337E+04  0.10100000352E+00 0. -1.
        3   -1    0    0  501    0  0.00000000000E+00  0.00000000000E+00 -0.17484098266E+04  0.17484098295E+04  0.10100000352E+00 0.  1.
    10030    2    1    2    0    0  0.00000000000E+00  0.00000000000E+00  0.20916110455E+03  0.37059807632E+04  0.37000736546E+04 0.  0.
        5    1    3    3  502    0  0.99167346721E+03 -0.62296140928E+03 -0.13298780105E+04  0.17720312627E+04  0.46999998093E+01 0.  1.
       -5    1    3    3    0  502 -0.99167346721E+03  0.62296140928E+03  0.15390391150E+04  0.19339495005E+04  0.46999998093E+01 0. -1.
</event>
<event>
 5   0  0.1686284E-07  0.3719081E+04  0.7818609E-02  0.8063746E-01
       -2   -1    0    0    0  501  0.00000000000E+00  0.00000000000E+00  0.15503781030E+04  0.15503781030E+04  0.25500000920E-02 0.  1.
        2   -1    0    0  501    0  0.00000000000E+00  0.00000000000E+00 -0.22303530446E+04  0.22303530446E+04  0.25500000920E-02 0. -1.
    10030    2    1    2    0    0  0.00000000000E+00  0.00000000000E+00 -0.67997494165E+03  0.37807311476E+04  0.37190808124E+04 0.  0.
        5    1    3    3  502    0 -0.15502057234E+04 -0.87533704410E+03  0.20605309801E+03  0.17921586690E+04  0.46999998093E+01 0.  1.
       -5    1    3    3    0  502  0.15502057234E+04  0.87533704410E+03 -0.88602803966E+03  0.19885724786E+04  0.46999998093E+01 0. -1.
</event>
<event>
 5   0  0.5177000E-08  0.3729937E+04  0.7818609E-02  0.8061360E-01
       -1   -1    0    0    0  501  0.00000000000E+00  0.00000000000E+00  0.11374647740E+04  0.11374647740E+04  0.50400001928E-02 0.  1.
        1   -1    0    0  501    0  0.00000000000E+00  0.00000000000E+00 -0.30577716383E+04  0.30577716383E+04  0.50400001928E-02 0. -1.
    10030    2    1    2    0    0  0.00000000000E+00  0.00000000000E+00 -0.19203068643E+04  0.41952364123E+04  0.37299370105E+04 0.  0.
        1    1    3    3  502    0 -0.61305490072E+03 -0.17365301344E+04 -0.12913992445E+04  0.22492410337E+04  0.50400001928E-02 0. -1.
       -1    1    3    3    0  502  0.61305490072E+03  0.17365301344E+04 -0.62890761980E+03  0.19459953786E+04  0.50400001928E-02 0.  1.
</event>
<event>
 5   0  0.5181371E-08  0.3697799E+04  0.7818609E-02  0.8068450E-01
        1   -1    0    0  501    0  0.00000000000E+00  0.00000000000E+00  0.20346949510E+04  0.20346949510E+04  0.50400001928E-02 0.  1.
       -1   -1    0    0    0  501  0.00000000000E+00  0.00000000000E+00 -0.16800693127E+04  0.16800693127E+04  0.50400001928E-02 0. -1.
    10030    2    1    2    0    0  0.00000000000E+00  0.00000000000E+00  0.35462563835E+03  0.37147642638E+04  0.36977985602E+04 0.  0.
        5    1    3    3  502    0 -0.30430018206E+03 -0.14399570966E+04 -0.94689770837E+03  0.17500606849E+04  0.46999998093E+01 0. -1.
       -5    1    3    3    0  502  0.30430018206E+03  0.14399570966E+04  0.13015233467E+04  0.19647035789E+04  0.46999998093E+01 0.  1.
</event>
<event>
 5   0  0.1587026E-07  0.3700053E+04  0.7818609E-02  0.8067950E-01
        2   -1    0    0  501    0  0.00000000000E+00  0.00000000000E+00  0.14655955688E+04  0.14655955688E+04  0.25500000920E-02 0.  1.
       -2   -1    0    0    0  501  0.00000000000E+00  0.00000000000E+00 -0.23352946358E+04  0.23352946358E+04  0.25500000920E-02 0. -1.
    10030    2    1    2    0    0  0.00000000000E+00  0.00000000000E+00 -0.86969906691E+03  0.38008902046E+04  0.37000526862E+04 0.  0.
        3    1    3    3  502    0  0.11190583279E+04 -0.92347260490E+03 -0.16139571139E+04  0.21702420991E+04  0.10100000352E+00 0. -1.
       -3    1    3    3    0  502 -0.11190583279E+04  0.92347260490E+03  0.74425804697E+03  0.16306481055E+04  0.10100000352E+00 0.  1.
</event>
<event>
 5   0  0.1686284E-07  0.3437596E+04  0.7818609E-02  0.8128740E-01
       -2   -1    0    0    0  501  0.00000000000E+00  0.00000000000E+00  0.12602469938E+04  0.12602469938E+04  0.25500000920E-02 0. -1.
        2   -1    0    0  501    0  0.00000000000E+00  0.00000000000E+00 -0.23441970747E+04  0.23441970747E+04  0.25500000920E-02 0.  1.
    10030    2    1    2    0    0  0.00000000000E+00  0.00000000000E+00 -0.10839500809E+04  0.36044440686E+04  0.34375964373E+04 0.  0.
        5    1    3    3  502    0  0.51903564033E+03  0.61722406932E+03 -0.21335001166E+04  0.22808350193E+04  0.46999998093E+01 0.  1.
       -5    1    3    3    0  502 -0.51903564033E+03 -0.61722406932E+03  0.10495500358E+04  0.13236090492E+04  0.46999998093E+01 0. -1.
</event>
<event>
 5   0  0.1666189E-07  0.3733549E+04  0.7818609E-02  0.8060567E-01
       -2   -1    0    0    0  501  0.00000000000E+00  0.00000000000E+00  0.21641911793E+04  0.21641911793E+04  0.25500000920E-02 0.  1.
        2   -1    0    0  501    0  0.00000000000E+00  0.00000000000E+00 -0.16102310044E+04  0.16102310044E+04  0.25500000920E-02 0. -1.
    10030    2    1    2    0    0  0.00000000000E+00  0.00000000000E+00  0.55396017485E+03  0.37744221837E+04  0.37335493763E+04 0.  0.
        4    1    3    3  502    0  0.84784955772E+03  0.50804395924E+02 -0.14035710170E+04  0.16405618464E+04  0.12699999809E+01 0. -1.
       -4    1    3    3    0  502 -0.84784955772E+03 -0.50804395924E+02  0.19575311919E+04  0.21338603373E+04  0.12699999809E+01 0.  1.
</event>
<event>
 5   0  0.5177000E-08  0.3704563E+04  0.7818609E-02  0.8066951E-01
        1   -1    0    0  501    0  0.00000000000E+00  0.00000000000E+00  0.15095417691E+04  0.15095417691E+04  0.50400001928E-02 0.  1.
       -1   -1    0    0    0  501  0.00000000000E+00  0.00000000000E+00 -0.22728395328E+04  0.22728395328E+04  0.50400001928E-02 0. -1.
    10030    2    1    2    0    0  0.00000000000E+00  0.00000000000E+00 -0.76329776366E+03  0.37823813019E+04  0.37045627052E+04 0.  0.
        3    1    3    3  502    0 -0.28487315483E+02 -0.16612616878E+04  0.45429535973E+03  0.17224941819E+04  0.10100000352E+00 0.  1.
       -3    1    3    3    0  502  0.28487315483E+02  0.16612616878E+04 -0.12175931234E+04  0.20598871200E+04  0.10100000352E+00 0. -1.
</event>
<event>
 5   0  0.5177000E-08  0.3696672E+04  0.7818609E-02  0.8068700E-01
       -1   -1    0    0    0  501  0.00000000000E+00  0.00000000000E+00  0.26341232657E+04  0.26341232657E+04  0.50400001928E-02 0. -1.
        1   -1    0    0  501    0  0.00000000000E+00  0.00000000000E+00 -0.12969574026E+04  0.12969574026E+04  0.50400001928E-02 0.  1.
    10030    2    1    2    0    0  0.00000000000E+00  0.00000000000E+00  0.13371658631E+04  0.39310806683E+04  0.36966718376E+04 0.  0.
        4    1    3    3  502    0 -0.16166443661E+02  0.17769372200E+04  0.12783377534E+03  0.17816033018E+04  0.12699999809E+01 0. -1.
       -4    1    3    3    0  502  0.16166443661E+02 -0.17769372200E+04  0.12093320878E+04  0.21494773666E+04  0.12699999809E+01 0.  1.
</event>
<event>
 5   0  0.5177000E-08  0.3692971E+04  0.7818609E-02  0.8069521E-01
        1   -1    0    0  501    0  0.00000000000E+00  0.00000000000E+00  0.21255310111E+04  0.21255310111E+04  0.50400001928E-02 0.  1.
       -1   -1    0    0    0  501  0.00000000000E+00  0.00000000000E+00 -0.16040739362E+04  0.16040739362E+04  0.50400001928E-02 0. -1.
    10030    2    1    2    0    0  0.00000000000E+00  0.00000000000E+00  0.52145707485E+03  0.37296049473E+04  0.36929711049E+04 0.  0.
        4    1    3    3  502    0  0.14747296034E+04 -0.27105144064E+03  0.13490131597E+04  0.20169616765E+04  0.12699999809E+01 0.  1.
       -4    1    3    3    0  502 -0.14747296034E+04  0.27105144064E+03 -0.82755608485E+03  0.17126432708E+04  0.12699999809E+01 0. -1.
</event>
<event>
 5   0  0.5177000E-08  0.3709165E+04  0.7818609E-02  0.8065934E-01
        1   -1    0    0  501    0  0.00000000000E+00  0.00000000000E+00  0.12777089769E+04  0.12777089769E+04  0.50400001928E-02 0.  1.
       -1   -1    0    0    0  501  0.00000000000E+00  0.00000000000E+00 -0.26919085150E+04  0.26919085150E+04  0.50400001928E-02 0. -1.
    10030    2    1    2    0    0  0.00000000000E+00  0.00000000000E+00 -0.14141995381E+04  0.39696174919E+04  0.37091646901E+04 0.  0.
        4    1    3    3  502    0  0.95740389546E+03  0.55391109851E+03  0.88606533988E+03  0.14172343220E+04  0.12699999809E+01 0.  1.
       -4    1    3    3    0  502 -0.95740389546E+03 -0.55391109851E+03 -0.23002648780E+04  0.25523831699E+04  0.12699999809E+01 0. -1.
</event>
<event>
 5   0  0.5177000E-08  0.3694403E+04  0.7818609E-02  0.8069203E-01
        1   -1    0    0  501    0  0.00000000000E+00  0.00000000000E+00  0.26516155589E+04  0.26516155590E+04  0.50400001928E-02 0. -1.
       -1   -1    0    0    0  501  0.00000000000E+00  0.00000000000E+00 -0.12868206253E+04  0.12868206253E+04  0.50400001928E-02 0.  1.
    10030    2    1    2    0    0  0.00000000000E+00  0.00000000000E+00  0.13647949337E+04  0.39384361842E+04  0.36944031136E+04 0.  0.
        1    1    3    3  502    0  0.41480101074E+03  0.17993453026E+04  0.73516658872E+03  0.19875042917E+04  0.50400001928E-02 0. -1.
       -1    1    3    3    0  502 -0.41480101074E+03 -0.17993453026E+04  0.62962834497E+03  0.19509318925E+04  0.50400001928E-02 0.  1.
</event>
<event>
 5   0  0.5181371E-08  0.3689763E+04  0.7818609E-02  0.8070234E-01
        1   -1    0    0  501    0  0.00000000000E+00  0.00000000000E+00  0.13767900420E+04  0.13767900420E+04  0.50400001928E-02 0.  1.
       -1   -1    0    0    0  501  0.00000000000E+00  0.00000000000E+00 -0.24721187354E+04  0.24721187354E+04  0.50400001928E-02 0. -1.
    10030    2    1    2    0    0  0.00000000000E+00  0.00000000000E+00 -0.10953286934E+04  0.38489087774E+04  0.36897633840E+04 0.  0.
        5    1    3    3  502    0 -0.77638077920E+03 -0.92491270203E+03 -0.20025752044E+04  0.23384952769E+04  0.46999998093E+01 0. -1.
       -5    1    3    3    0  502  0.77638077920E+03  0.92491270203E+03  0.90724651100E+03  0.15104135005E+04  0.46999998093E+01 0.  1.
</event>
<event>
 5   0  0.1666189E-07  0.3715776E+04  0.7818609E-02  0.8064475E-01
        2   -1    0    0  501    0  0.00000000000E+00  0.00000000000E+00  0.30688599492E+04  0.30688599492E+04  0.25500000920E-02 0. -1.
       -2   -1    0    0    0  501  0.00000000000E+00  0.00000000000E+00 -0.11247655844E+04  0.11247655844E+04  0.25500000920E-02 0.  1.
    10030    2    1    2    0    0  0.00000000000E+00  0.00000000000E+00  0.19440943649E+04  0.41936255336E+04  0.37157761258E+04 0.  0.
        4    1    3    3  502    0  0.17639295787E+04 -0.48414347649E+03  0.60476805994E+03  0.19265483341E+04  0.12699999809E+01 0.  1.
       -4    1    3    3    0  502 -0.17639295787E+04  0.48414347649E+03  0.13393263049E+04  0.22670771995E+04  0.12699999809E+01 0. -1.
</event>
<event>
 5   0  0.5181371E-08  0.3706741E+04  0.7818609E-02  0.8066470E-01
       -1   -1    0    0    0  501  0.00000000000E+00  0.00000000000E+00  0.29960645725E+04  0.29960645725E+04  0.50400001928E-02 0.  1.
        1   -1    0    0  501    0  0.00000000000E+00  0.00000000000E+00 -0.11464977713E+04  0.11464977713E+04  0.50400001928E-02 0. -1.
    10030    2    1    2    0    0  0.00000000000E+00  0.00000000000E+00  0.18495668012E+04  0.41425623438E+04  0.37067405386E+04 0.  0.
        5    1    3    3  502    0  0.12764320920E+04  0.10017133191E+04 -0.76211687544E+02  0.16243579564E+04  0.46999998093E+01 0. -1.
       -5    1    3    3    0  502 -0.12764320920E+04 -0.10017133191E+04  0.19257784887E+04  0.25182043874E+04  0.46999998093E+01 0.  1.
</event>
<event>
 5   0  0.1666189E-07  0.3716506E+04  0.7818609E-02  0.8064314E-01
        2   -1    0    0  501    0  0.00000000000E+00  0.00000000000E+00  0.23322388214E+04  0.23322388214E+04  0.25500000920E-02 0. -1.
       -2   -1    0    0    0  501  0.00000000000E+00  0.00000000000E+00 -0.14805960119E+04  0.14805960119E+04  0.25500000920E-02 0.  1.
    10030    2    1    2    0    0  0.00000000000E+00  0.00000000000E+00  0.85164280958E+03  0.38128348333E+04  0.37165056156E+04 0.  0.
        4    1    3    3  502    0 -0.68926584477E+03  0.15337236704E+04 -0.38569709107E+03  0.17251549382E+04  0.12699999809E+01 0.  1.
       -4    1    3    3    0  502  0.68926584477E+03 -0.15337236704E+04  0.12373399006E+04  0.20876798951E+04  0.12699999809E+01 0. -1.
</event>
<event>
 5   0  0.5177000E-08  0.3701719E+04  0.7818609E-02  0.8067581E-01
        1   -1    0    0  501    0  0.00000000000E+00  0.00000000000E+00  0.21013418637E+04  0.21013418637E+04  0.50400001928E-02 0. -1.
       -1   -1    0    0    0  501  0.00000000000E+00  0.00000000000E+00 -0.16302352293E+04  0.16302352293E+04  0.50400001928E-02 0.  1.
    10030    2    1    2    0    0  0.00000000000E+00  0.00000000000E+00  0.47110663440E+03  0.37315770930E+04  0.37017193492E+04 0.  0.
        1    1    3    3  502    0  0.43138305285E+03  0.54109104794E+03 -0.14949205555E+04  0.16473185265E+04  0.50400001928E-02 0.  1.
       -1    1    3    3    0  502 -0.43138305285E+03 -0.54109104794E+03  0.19660271899E+04  0.20842585665E+04  0.50400001928E-02 0. -1.
</event>
<event>
 5   0  0.1558258E-07  0.3705600E+04  0.7818609E-02  0.8066722E-01
        2   -1    0    0  501    0  0.00000000000E+00  0.00000000000E+00  0.23706783460E+04  0.23706783460E+04  0.25500000920E-02 0. -1.
       -2   -1    0    0    0  501  0.00000000000E+00  0.00000000000E+00 -0.14480526986E+04  0.14480526987E+04  0.25500000920E-02 0.  1.
    10030    2    1    2    0    0  0.00000000000E+00  0.00000000000E+00  0.92262564736E+03  0.38187310447E+04  0.37055996419E+04 0.  0.
        1    1    3    3  502    0 -0.55490496812E+03  0.17676758762E+04  0.47823516814E+03  0.19134540504E+04  0.50400001928E-02 0. -1.
       -1    1    3    3    0  502  0.55490496812E+03 -0.17676758762E+04  0.44439047922E+03  0.19052769943E+04  0.50400001928E-02 0.  1.
</event>
<event>
 5   0  0.5177000E-08  0.3702158E+04  0.7818609E-02  0.8067484E-01
       -1   -1    0    0    0  501  0.00000000000E+00  0.00000000000E+00  0.13296549393E+04  0.13296549393E+04  0.50400001928E-02 0.  1.
        1   -1    0    0  501    0  0.00000000000E+00  0.00000000000E+00 -0.25769799841E+04  0.25769799841E+04  0.50400001928E-02 0. -1.
    10030    2    1    2    0    0  0.00000000000E+00  0.00000000000E+00 -0.12473250448E+04  0.39066349234E+04  0.37021583782E+04 0.  0.
        3    1    3    3  502    0 -0.97959327003E+02 -0.42589370424E+03  0.12744387797E+04  0.13472845618E+04  0.10100000352E+00 0.  1.
       -3    1    3    3    0  502  0.97959327003E+02  0.42589370424E+03 -0.25217638245E+04  0.25593503616E+04  0.10100000352E+00 0. -1.
</event>
<event>
 5   0  0.1658770E-07  0.3699346E+04  0.7818609E-02  0.8068107E-01
       -2   -1    0    0    0  501  0.00000000000E+00  0.00000000000E+00  0.22318954350E+04  0.22318954350E+04  0.25500000920E-02 0. -1.
        2   -1    0    0  501    0  0.00000000000E+00  0.00000000000E+00 -0.15329079016E+04  0.15329079016E+04  0.25500000920E-02 0.  1.
    10030    2    1    2    0    0  0.00000000000E+00  0.00000000000E+00  0.69898753339E+03  0.37648033366E+04  0.36993459681E+04 0.  0.
        2    1    3    3  502    0 -0.56713921021E+03  0.17352018013E+04  0.65261974040E+03  0.19386811756E+04  0.25500000920E-02 0. -1.
       -2    1    3    3    0  502  0.56713921021E+03 -0.17352018013E+04  0.46367792984E+02  0.18261221611E+04  0.25500000920E-02 0.  1.
</event>
<event>
 5   0  0.5177000E-08  0.3727391E+04  0.7818609E-02  0.8061919E-01
       -1   -1    0    0    0  501  0.00000000000E+00  0.00000000000E+00  0.18086487037E+04  0.18086487037E+04  0.50400001928E-02 0. -1.
        1   -1    0    0  501    0  0.00000000000E+00  0.00000000000E+00 -0.19204177240E+04  0.19204177240E+04  0.50400001928E-02 0.  1.
    10030    2    1    2    0    0  0.00000000000E+00  0.00000000000E+00 -0.11176902033E+03  0.37290664278E+04  0.37273910593E+04 0.  0.
        1    1    3    3  502    0  0.98792491199E+03 -0.12095645924E+04 -0.10733563288E+04  0.18950292725E+04  0.50400001928E-02 0.  1.
       -1    1    3    3    0  502 -0.98792491199E+03  0.12095645924E+04  0.96158730852E+03  0.18340371553E+04  0.50400001928E-02 0. -1.
</event>
<event>
 5   0  0.5177000E-08  0.3702056E+04  0.7818609E-02  0.8067506E-01
        1   -1    0    0  501    0  0.00000000000E+00  0.00000000000E+00  0.26152427568E+04  0.26152427568E+04  0.50400001928E-02 0. -1.
       -1   -1    0    0    0  501  0.00000000000E+00  0.00000000000E+00 -0.13101284470E+04  0.13101284470E+04  0.50400001928E-02 0.  1.
    10030    2    1    2    0    0  0.00000000000E+00  0.00000000000E+00  0.13051143098E+04  0.39253712038E+04  0.37020556082E+04 0.  0.
        3    1    3    3  502    0 -0.94632828489E+03 -0.10053824718E+04 -0.65468396428E+03  0.15280517794E+04  0.10100000352E+00 0.  1.
       -3    1    3    3    0  502  0.94632828489E+03  0.10053824718E+04  0.19597982741E+04  0.23973194244E+04  0.10100000352E+00 0. -1.
</event>
<event>
 5   0  0.5177000E-08  0.3817901E+04  0.7818609E-02  0.8042324E-01
        1   -1    0    0  501    0  0.00000000000E+00  0.00000000000E+00  0.14216033328E+04  0.14216033328E+04  0.50400001928E-02 0. -1.
       -1   -1    0    0    0  501  0.00000000000E+00  0.00000000000E+00 -0.25633675898E+04  0.25633675898E+04  0.50400001928E-02 0.  1.
    10030    2    1    2    0    0  0.00000000000E+00  0.00000000000E+00 -0.11417642570E+04  0.39849709226E+04  0.38179009462E+04 0.  0.
        1    1    3    3  502    0 -0.39448361827E+03  0.99170965125E+03  0.10810918399E+04  0.15191658644E+04  0.50400001928E-02 0. -1.
       -1    1    3    3    0  502  0.39448361827E+03 -0.99170965125E+03 -0.22228560968E+04  0.24658050581E+04  0.50400001928E-02 0.  1.
</event>
<event>
 5   0  0.1686284E-07  0.3695477E+04  0.7818609E-02  0.8068965E-01
        2   -1    0    0  501    0  0.00000000000E+00  0.00000000000E+00  0.15125673888E+04  0.15125673888E+04  0.25500000920E-02 0. -1.
       -2   -1    0    0    0  501  0.00000000000E+00  0.00000000000E+00 -0.22571809322E+04  0.22571809322E+04  0.25500000920E-02 0.  1.
    10030    2    1    2    0    0  0.00000000000E+00  0.00000000000E+00 -0.74461354341E+03  0.37697483210E+04  0.36954773811E+04 0.  0.
        5    1    3    3  502    0  0.69907031723E+03 -0.15629586312E+03  0.13651532067E+04  0.15416851407E+04  0.46999998093E+01 0. -1.
       -5    1    3    3    0  502 -0.69907031723E+03  0.15629586312E+03 -0.21097667501E+04  0.22280631803E+04  0.46999998093E+01 0.  1.
</event>
<event>
 5   0  0.1587026E-07  0.3647819E+04  0.7818609E-02  0.8079625E-01
        2   -1    0    0  501    0  0.00000000000E+00  0.00000000000E+00  0.21510994558E+04  0.21510994558E+04  0.25500000920E-02 0.  1.
       -2   -1    0    0    0  501  0.00000000000E+00  0.00000000000E+00 -0.15464864216E+04  0.15464864216E+04  0.25500000920E-02 0. -1.
    10030    2    1    2    0    0  0.00000000000E+00  0.00000000000E+00  0.60461303428E+03  0.36975858774E+04  0.36478191292E+04 0.  0.
        3    1    3    3  502    0 -0.32236120976E+03 -0.12778692575E+04 -0.97575988817E+03  0.16398091225E+04  0.10100000352E+00 0. -1.
       -3    1    3    3    0  502  0.32236120976E+03  0.12778692575E+04  0.15803729224E+04  0.20577767549E+04  0.10100000352E+00 0.  1.
</event>
<event>
 5   0  0.1558258E-07  0.3700355E+04  0.7818609E-02  0.8067883E-01
        2   -1    0    0  501    0  0.00000000000E+00  0.00000000000E+00  0.18069071035E+04  0.18069071035E+04  0.25500000920E-02 0.  1.
       -2   -1    0    0    0  501  0.00000000000E+00  0.00000000000E+00 -0.18944839618E+04  0.18944839618E+04  0.25500000920E-02 0. -1.
    10030    2    1    2    0    0  0.00000000000E+00  0.00000000000E+00 -0.87576858327E+02  0.37013910653E+04  0.37003548631E+04 0.  0.
        1    1    3    3  502    0  0.27443503110E+03  0.15662185836E+04 -0.98999268765E+03  0.18730832228E+04  0.50400001928E-02 0. -1.
       -1    1    3    3    0  502 -0.27443503110E+03 -0.15662185836E+04  0.90241582933E+03  0.18283078425E+04  0.50400001928E-02 0.  1.
</event>
<event>
 5   0  0.5177000E-08  0.3696775E+04  0.7818609E-02  0.8068677E-01
       -1   -1    0    0    0  501  0.00000000000E+00  0.00000000000E+00  0.20325934762E+04  0.20325934762E+04  0.50400001928E-02 0.  1.
        1   -1    0    0  501    0  0.00000000000E+00  0.00000000000E+00 -0.16808755315E+04  0.16808755315E+04  0.50400001928E-02 0. -1.
    10030    2    1    2    0    0  0.00000000000E+00  0.00000000000E+00  0.35171794472E+03  0.37134690077E+04  0.36967751567E+04 0.  0.
        2    1    3    3  502    0  0.74619904286E+03 -0.14637978557E+04 -0.67473488059E+03  0.17761712566E+04  0.25500000920E-02 0. -1.
       -2    1    3    3    0  502 -0.74619904286E+03  0.14637978557E+04  0.10264528253E+04  0.19372977511E+04  0.25500000920E-02 0.  1.
</event>
<event>
 5   0  0.5177000E-08  0.3689091E+04  0.7818609E-02  0.8070384E-01
        1   -1    0    0  501    0  0.00000000000E+00  0.00000000000E+00  0.27888037707E+04  0.27888037707E+04  0.50400001928E-02 0.  1.
       -1   -1    0    0    0  501  0.00000000000E+00  0.00000000000E+00 -0.12200028973E+04  0.12200028973E+04  0.50400001928E-02 0. -1.
    10030    2    1    2    0    0  0.00000000000E+00  0.00000000000E+00  0.15688008735E+04  0.40088066680E+04  0.36890913137E+04 0.  0.
        1    1    3    3  502    0 -0.13413977584E+04 -0.78426460758E+02 -0.58878051862E+03  0.14670245925E+04  0.50400001928E-02 0. -1.
       -1    1    3    3    0  502  0.13413977584E+04  0.78426460758E+02  0.21575813921E+04  0.25417820755E+04  0.50400001928E-02 0.  1.
</event>
<event>
 5   0  0.1686284E-07  0.3708928E+04  0.7818609E-02  0.8065986E-01
       -2   -1    0    0    0  501  0.00000000000E+00  0.00000000000E+00  0.29820878660E+04  0.29820878660E+04  0.25500000920E-02 0.  1.
        2   -1    0    0  501    0  0.00000000000E+00  0.00000000000E+00 -0.11532313424E+04  0.11532313424E+04  0.25500000920E-02 0. -1.
    10030    2    1    2    0    0  0.00000000000E+00  0.00000000000E+00  0.18288565236E+04  0.41353192084E+04  0.37089282510E+04 0.  0.
        5    1    3    3  502    0 -0.13404706450E+04  0.12612182706E+04  0.11674095643E+04  0.21795412951E+04  0.46999998093E+01 0. -1.
       -5    1    3    3    0  502  0.13404706450E+04 -0.12612182706E+04  0.66144695935E+03  0.19557779133E+04  0.46999998093E+01 0.  1.
</event>
<event>
 5   0  0.5181371E-08  0.3729771E+04  0.7818609E-02  0.8061396E-01
       -1   -1    0    0    0  501  0.00000000000E+00  0.00000000000E+00  0.17539783717E+04  0.17539783717E+04  0.50400001928E-02 0. -1.
        1   -1    0    0  501    0  0.00000000000E+00  0.00000000000E+00 -0.19828059710E+04  0.19828059710E+04  0.50400001928E-02 0.  1.
    10030    2    1    2    0    0  0.00000000000E+00  0.00000000000E+00 -0.22882759925E+03  0.37367843427E+04  0.37297714614E+04 0.  0.
        5    1    3    3  502    0 -0.10848455299E+04 -0.36943584535E+02 -0.16336825389E+04  0.19614268735E+04  0.46999998093E+01 0.  1.
       -5    1    3    3    0  502  0.10848455299E+04  0.36943584535E+02  0.14048549396E+04  0.17753574692E+04  0.46999998093E+01 0. -1.
</event>
<event>
 5   0  0.5177000E-08  0.3797804E+04  0.7818609E-02  0.8046626E-01
       -1   -1    0    0    0  501  0.00000000000E+00  0.00000000000E+00  0.26896727012E+04  0.26896727012E+04  0.50400001928E-02 0.  1.
        1   -1    0    0  501    0  0.00000000000E+00  0.00000000000E+00 -0.13406199732E+04  0.13406199732E+04  0.50400001928E-02 0. -1.
    10030    2    1    2    0    0  0.00000000000E+00  0.00000000000E+00  0.13490527280E+04  0.40302926744E+04  0.37978040732E+04 0.  0.
        4    1    3    3  502    0 -0.62476350472E+03  0.13634637594E+04  0.19104972501E+04  0.24288606826E+04  0.12699999809E+01 0.  1.
       -4    1    3    3    0  502  0.62476350472E+03 -0.13634637594E+04 -0.56144452207E+03  0.16014319918E+04  0.12699999809E+01 0. -1.
</event>
<event>
 5   0  0.1587026E-07  0.3706082E+04  0.7818609E-02  0.8066615E-01
        2   -1    0    0  501    0  0.00000000000E+00  0.00000000000E+00  0.21668192891E+04  0.21668192891E+04  0.25500000920E-02 0.  1.
       -2   -1    0    0    0  501  0.00000000000E+00  0.00000000000E+00 -0.15847015312E+04  0.15847015312E+04  0.25500000920E-02 0. -1.
    10030    2    1    2    0    0  0.00000000000E+00  0.00000000000E+00  0.58211775783E+03  0.37515208203E+04  0.37060824844E+04 0.  0.
        3    1    3    3  502    0  0.78976639658E+03  0.11985470929E+04  0.14773986784E+04  0.20598429455E+04  0.10100000352E+00 0.  1.
       -3    1    3    3    0  502 -0.78976639658E+03 -0.11985470929E+04 -0.89528092053E+03  0.16916778748E+04  0.10100000352E+00 0. -1.
</event>
<event>
 5   0  0.5177000E-08  0.3699262E+04  0.7818609E-02  0.8068125E-01
        3   -1    0    0  501    0  0.00000000000E+00  0.00000000000E+00  0.16704710923E+04  0.16704710954E+04  0.10100000352E+00 0.  1.
       -3   -1    0    0    0  501  0.00000000000E+00  0.00000000000E+00 -0.20480057507E+04  0.20480057532E+04  0.10100000352E+00 0. -1.
    10030    2    1    2    0    0  0.00000000000E+00  0.00000000000E+00 -0.37753465835E+03  0.37184768486E+04  0.36992617716E+04 0.  0.
        3    1    3    3  502    0  0.67494899687E+03  0.15662006682E+04  0.53090807266E+03  0.17861702251E+04  0.10100000352E+00 0.  1.
       -3    1    3    3    0  502 -0.67494899687E+03 -0.15662006682E+04 -0.90844273100E+03  0.19323066234E+04  0.10100000352E+00 0. -1.
</event>
<event>
 5   0  0.1686284E-07  0.3700552E+04  0.7818609E-02  0.8067839E-01
       -2   -1    0    0    0  501  0.00000000000E+00  0.00000000000E+00  0.19716045433E+04  0.19716045433E+04  0.25500000920E-02 0. -1.
        2   -1    0    0  501    0  0.00000000000E+00  0.00000000000E+00 -0.17364139150E+04  0.17364139151E+04  0.25500000920E-02 0.  1.
    10030    2    1    2    0    0  0.00000000000E+00  0.00000000000E+00  0.23519062829E+03  0.37080184584E+04  0.37005521556E+04 0.  0.
        5    1    3    3  502    0  0.40669193644E+03 -0.16700344158E+04 -0.56868522372E+03  0.18104801172E+04  0.46999998093E+01 0.  1.
       -5    1    3    3    0  502 -0.40669193644E+03  0.16700344158E+04  0.80387585201E+03  0.18975383412E+04  0.46999998093E+01 0. -1.
</event>
<event>
 5   0  0.1666189E-07  0.3694603E+04  0.7818609E-02  0.8069159E-01
        2   -1    0    0  501    0  0.00000000000E+00  0.00000000000E+00  0.20796720449E+04  0.20796720449E+04  0.25500000920E-02 0. -1.
       -2   -1    0    0    0  501  0.00000000000E+00  0.00000000000E+00 -0.16408948566E+04  0.16408948566E+04  0.25500000920E-02 0.  1.
    10030    2    1    2    0    0  0.00000000000E+00  0.00000000000E+00  0.43877718826E+03  0.37205669015E+04  0.36946031786E+04 0.  0.
        4    1    3    3  502    0 -0.16707855296E+03  0.28464903365E+02 -0.16330482426E+04  0.16418202305E+04  0.12699999809E+01 0.  1.
       -4    1    3    3    0  502  0.16707855296E+03 -0.28464903365E+02  0.20718254309E+04  0.20787466711E+04  0.12699999809E+01 0. -1.
</event>
<event>
 5   0  0.1558258E-07  0.3719099E+04  0.7818609E-02  0.8063742E-01
       -2   -1    0    0    0  501  0.00000000000E+00  0.00000000000E+00  0.34330398924E+04  0.34330398924E+04  0.25500000920E-02 0. -1.
        2   -1    0    0  501    0  0.00000000000E+00  0.00000000000E+00 -0.10072487663E+04  0.10072487663E+04  0.25500000920E-02 0.  1.
    10030    2    1    2    0    0  0.00000000000E+00  0.00000000000E+00  0.24257911261E+04  0.44402886587E+04  0.37190994589E+04 0.  0.
        1    1    3    3  502    0 -0.12331527198E+04 -0.75520877199E+03  0.26087651513E+04  0.29827271974E+04  0.50400001928E-02 0. -1.
       -1    1    3    3    0  502  0.12331527198E+04  0.75520877199E+03 -0.18297402520E+03  0.14575614613E+04  0.50400001928E-02 0.  1.
</event>
<event>
 5   0  0.1558258E-07  0.3700354E+04  0.7818609E-02  0.8067883E-01
       -2   -1    0    0    0  501  0.00000000000E+00  0.00000000000E+00  0.16330892024E+04  0.16330892024E+04  0.25500000920E-02 0.  1.
        2   -1    0    0  501    0  0.00000000000E+00  0.00000000000E+00 -0.20961229520E+04  0.20961229520E+04  0.25500000920E-02 0. -1.
    10030    2    1    2    0    0  0.00000000000E+00  0.00000000000E+00 -0.46303374962E+03  0.37292121544E+04  0.37003544478E+04 0.  0.
        1    1    3    3  502    0  0.84642450986E+03 -0.11919486009E+04 -0.13743711189E+04  0.20065073861E+04  0.50400001928E-02 0. -1.
       -1    1    3    3    0  502 -0.84642450986E+03  0.11919486009E+04  0.91133736926E+03  0.17227047683E+04  0.50400001928E-02 0.  1.
</event>
<event>
 5   0  0.5177000E-08  0.3702215E+04  0.7818609E-02  0.8067471E-01
       -1   -1    0    0    0  501  0.00000000000E+00  0.00000000000E+00  0.12711204926E+04  0.12711204926E+04  0.50400001928E-02 0.  1.
        1   -1    0    0  501    0  0.00000000000E+00  0.00000000000E+00 -0.26957304350E+04  0.26957304350E+04  0.50400001928E-02 0. -1.
    10030    2    1    2    0    0  0.00000000000E+00  0.00000000000E+00 -0.14246099424E+04  0.39668509276E+04  0.37022145797E+04 0.  0.
        2    1    3    3  502    0 -0.32457524246E+03  0.93451031284E+03 -0.23887319491E+04  0.25854784736E+04  0.25500000920E-02 0. -1.
       -2    1    3    3    0  502  0.32457524246E+03 -0.93451031284E+03  0.96412200672E+03  0.13813724540E+04  0.25500000920E-02 0.  1.
</event>
<event>
 5   0  0.1558258E-07  0.3709411E+04  0.7818609E-02  0.8065879E-01
        2   -1    0    0  501    0  0.00000000000E+00  0.00000000000E+00  0.22375511524E+04  0.22375511524E+04  0.25500000920E-02 0.  1.
       -2   -1    0    0    0  501  0.00000000000E+00  0.00000000000E+00 -0.15373647443E+04  0.15373647443E+04  0.25500000920E-02 0. -1.
    10030    2    1    2    0    0  0.00000000000E+00  0.00000000000E+00  0.70018640811E+03  0.37749158967E+04  0.37094108725E+04 0.  0.
        1    1    3    3  502    0 -0.12779936296E+04  0.10305840069E+04 -0.52802407568E+03  0.17245812643E+04  0.50400001928E-02 0. -1.
       -1    1    3    3    0  502  0.12779936296E+04 -0.10305840069E+04  0.12282104838E+04  0.20503346325E+04  0.50400001928E-02 0.  1.
</event>
<event>
 5   0  0.5181371E-08  0.3653651E+04  0.7818609E-02  0.8078312E-01
       -1   -1    0    0    0  501  0.00000000000E+00  0.00000000000E+00  0.16874095135E+04  0.16874095135E+04  0.50400001928E-02 0.  1.
        1   -1    0    0  501    0  0.00000000000E+00  0.00000000000E+00 -0.19777596998E+04  0.19777596998E+04  0.50400001928E-02 0. -1.
    10030    2    1    2    0    0  0.00000000000E+00  0.00000000000E+00 -0.29035018631E+03  0.36651692134E+04  0.36536505213E+04 0.  0.
        5    1    3    3  502    0 -0.17837453979E+03 -0.41546380545E+03 -0.19207385109E+04  0.19732425515E+04  0.46999998093E+01 0. -1.
       -5    1    3    3    0  502  0.17837453979E+03  0.41546380545E+03  0.16303883246E+04  0.16919266618E+04  0.46999998093E+01 0.  1.
</event>
<event>
 5   0  0.5177000E-08  0.3696066E+04  0.7818609E-02  0.8068834E-01
        1   -1    0    0  501    0  0.00000000000E+00  0.00000000000E+00  0.25327906574E+04  0.25327906574E+04  0.50400001928E-02 0. -1.
       -1   -1    0    0    0  501  0.00000000000E+00  0.00000000000E+00 -0.13484040933E+04  0.13484040933E+04  0.50400001928E-02 0.  1.
    10030    2    1    2    0    0  0.00000000000E+00  0.00000000000E+00  0.11843865641E+04  0.38811947507E+04  0.36960656324E+04 0.  0.
        3    1    3    3  502    0  0.49791923481E+03 -0.23955729285E+03  0.24440183201E+04  0.25057008641E+04  0.10100000352E+00 0. -1.
       -3    1    3    3    0  502 -0.49791923481E+03  0.23955729285E+03 -0.12596317560E+04  0.13754938866E+04  0.10100000352E+00 0.  1.
</event>
<event>
 5   0  0.1666189E-07  0.3711921E+04  0.7818609E-02  0.8065325E-01
       -2   -1    0    0    0  501  0.00000000000E+00  0.00000000000E+00  0.13717183538E+04  0.13717183538E+04  0.25500000920E-02 0. -1.
        2   -1    0    0  501    0  0.00000000000E+00  0.00000000000E+00 -0.25111492971E+04  0.25111492971E+04  0.25500000920E-02 0.  1.
    10030    2    1    2    0    0  0.00000000000E+00  0.00000000000E+00 -0.11394309433E+04  0.38828676509E+04  0.37119211091E+04 0.  0.
        4    1    3    3  502    0 -0.64234911229E+03  0.15482445345E+04 -0.14032267001E+04  0.21860284320E+04  0.12699999809E+01 0.  1.
       -4    1    3    3    0  502  0.64234911229E+03 -0.15482445345E+04  0.26379575677E+03  0.16968392189E+04  0.12699999809E+01 0. -1.
</event>
<event>
 5   0  0.5177000E-08  0.3959602E+04  0.7818609E-02  0.8012746E-01
       -1   -1    0    0    0  501  0.00000000000E+00  0.00000000000E+00  0.23661029080E+04  0.23661029080E+04  0.50400001928E-02 0. -1.
        1   -1    0    0  501    0  0.00000000000E+00  0.00000000000E+00 -0.16565686837E+04  0.16565686837E+04  0.50400001928E-02 0.  1.
    10030    2    1    2    0    0  0.00000000000E+00  0.00000000000E+00  0.70953422423E+03  0.40226715917E+04  0.39596019900E+04 0.  0.
        1    1    3    3  502    0  0.42867430540E+03  0.19312103449E+04  0.27427812589E+03  0.19971388402E+04  0.50400001928E-02 0. -1.
       -1    1    3    3    0  502 -0.42867430540E+03 -0.19312103449E+04  0.43525609833E+03  0.20255327516E+04  0.50400001928E-02 0.  1.
</event>
<event>
 5   0  0.1587026E-07  0.3698011E+04  0.7818609E-02  0.8068403E-01
        2   -1    0    0  501    0  0.00000000000E+00  0.00000000000E+00  0.22576890065E+04  0.22576890065E+04  0.25500000920E-02 0.  1.
       -2   -1    0    0    0  501  0.00000000000E+00  0.00000000000E+00 -0.15143016598E+04  0.15143016598E+04  0.25500000920E-02 0. -1.
    10030    2    1    2    0    0  0.00000000000E+00  0.00000000000E+00  0.74338734664E+03  0.37719906663E+04  0.36980114710E+04 0.  0.
        3    1    3    3  502    0 -0.36070970744E+03  0.66169736907E+03 -0.13505351630E+04  0.15465769098E+04  0.10100000352E+00 0. -1.
       -3    1    3    3    0  502  0.36070970744E+03 -0.66169736907E+03  0.20939225096E+04  0.22254137565E+04  0.10100000352E+00 0.  1.
</event>
<event>
 5   0  0.1587026E-07  0.3699351E+04  0.7818609E-02  0.8068106E-01
        2   -1    0    0  501    0  0.00000000000E+00  0.00000000000E+00  0.22456446934E+04  0.22456446934E+04  0.25500000920E-02 0.  1.
       -2   -1    0    0    0  501  0.00000000000E+00  0.00000000000E+00 -0.15235267257E+04  0.15235267257E+04  0.25500000920E-02 0. -1.
    10030    2    1    2    0    0  0.00000000000E+00  0.00000000000E+00  0.72211796766E+03  0.37691714191E+04  0.36993511360E+04 0.  0.
        3    1    3    3  502    0  0.50579729928E+03 -0.16735479819E+04  0.97636583732E+03  0.20024694790E+04  0.10100000352E+00 0.  1.
       -3    1    3    3    0  502 -0.50579729928E+03  0.16735479819E+04 -0.25424786966E+03  0.17667019401E+04  0.10100000352E+00 0. -1.
</event>
<event>
 5   0  0.1587026E-07  0.3682532E+04  0.7818609E-02  0.8071844E-01
       -2   -1    0    0    0  501  0.00000000000E+00  0.00000000000E+00  0.19458205624E+04  0.19458205624E+04  0.25500000920E-02 0. -1.
        2   -1    0    0  501    0  0.00000000000E+00  0.00000000000E+00 -0.17423298865E+04  0.17423298865E+04  0.25500000920E-02 0.  1.
    10030    2    1    2    0    0  0.00000000000E+00  0.00000000000E+00  0.20349067591E+03  0.36881504490E+04  0.36825324546E+04 0.  0.
        3    1    3    3  502    0 -0.25690281721E+03 -0.87335061657E+03 -0.15011715407E+04  0.17556356005E+04  0.10100000352E+00 0.  1.
       -3    1    3    3    0  502  0.25690281721E+03  0.87335061657E+03  0.17046622166E+04  0.19325148485E+04  0.10100000352E+00 0. -1.
</event>
<event>
 5   0  0.5177000E-08  0.3729915E+04  0.7818609E-02  0.8061364E-01
       -1   -1    0    0    0  501  0.00000000000E+00  0.00000000000E+00  0.21355687243E+04  0.21355687243E+04  0.50400001928E-02 0. -1.
        1   -1    0    0  501    0  0.00000000000E+00  0.00000000000E+00 -0.16286373338E+04  0.16286373338E+04  0.50400001928E-02 0.  1.
    10030    2    1    2    0    0  0.00000000000E+00  0.00000000000E+00  0.50693139048E+03  0.37642060581E+04  0.37299152555E+04 0.  0.
        2    1    3    3  502    0 -0.40495620638E+03 -0.15681254143E+01  0.20906621077E+04  0.21295210815E+04  0.25500000920E-02 0. -1.
       -2    1    3    3    0  502  0.40495620638E+03  0.15681254143E+01 -0.15837307172E+04  0.16346849766E+04  0.25500000920E-02 0.  1.
</event>
<event>
 5   0  0.1686284E-07  0.3720118E+04  0.7818609E-02  0.8063518E-01
        2   -1    0    0  501    0  0.00000000000E+00  0.00000000000E+00  0.15938382411E+04  0.15938382411E+04  0.25500000920E-02 0.  1.
       -2   -1    0    0    0  501  0.00000000000E+00  0.00000000000E+00 -0.21707472677E+04  0.21707472677E+04  0.25500000920E-02 0. -1.
    10030    2    1    2    0    0  0.00000000000E+00  0.00000000000E+00 -0.57690902656E+03  0.37645855088E+04  0.37201182815E+04 0.  0.
        5    1    3    3  502    0  0.11897020697E+04  0.24070341508E+03  0.11378139790E+04  0.16637222994E+04  0.46999998093E+01 0.  1.
       -5    1    3    3    0  502 -0.11897020697E+04 -0.24070341508E+03 -0.17147230056E+04  0.21008632094E+04  0.46999998093E+01 0. -1.
</event>
<event>
 5   0  0.1686284E-07  0.3627292E+04  0.7818609E-02  0.8084269E-01
       -2   -1    0    0    0  501  0.00000000000E+00  0.00000000000E+00  0.19681722667E+04  0.19681722667E+04  0.25500000920E-02 0.  1.
        2   -1    0    0  501    0  0.00000000000E+00  0.00000000000E+00 -0.16712515543E+04  0.16712515543E+04  0.25500000920E-02 0. -1.
    10030    2    1    2    0    0  0.00000000000E+00  0.00000000000E+00  0.29692071244E+03  0.36394238210E+04  0.36272915294E+04 0.  0.
        5    1    3    3  502    0  0.14535352366E+04 -0.56858777896E+03 -0.77833483254E+03  0.17440997528E+04  0.46999998093E+01 0. -1.
       -5    1    3    3    0  502 -0.14535352366E+04  0.56858777896E+03  0.10752555450E+04  0.18953240681E+04  0.46999998093E+01 0.  1.
</event>
<event>
 5   0  0.1666189E-07  0.3700478E+04  0.7818609E-02  0.8067856E-01
        2   -1    0    0  501    0  0.00000000000E+00  0.00000000000E+00  0.20403244147E+04  0.20403244147E+04  0.25500000920E-02 0.  1.
       -2   -1    0    0    0  501  0.00000000000E+00  0.00000000000E+00 -0.16778626253E+04  0.16778626253E+04  0.25500000920E-02 0. -1.
    10030    2    1    2    0    0  0.00000000000E+00  0.00000000000E+00  0.36246178938E+03  0.37181870400E+04  0.37004778496E+04 0.  0.
        4    1    3    3  502    0 -0.39577487094E+03 -0.26075298575E+03  0.19782957448E+04  0.20342776444E+04  0.12699999809E+01 0.  1.
       -4    1    3    3    0  502  0.39577487094E+03  0.26075298575E+03 -0.16158339554E+04  0.16839093955E+04  0.12699999809E+01 0. -1.
</event>
<event>
 5   0  0.1666189E-07  0.3711399E+04  0.7818609E-02  0.8065440E-01
       -2   -1    0    0    0  501  0.00000000000E+00  0.00000000000E+00  0.16534111034E+04  0.16534111035E+04  0.25500000920E-02 0.  1.
        2   -1    0    0  501    0  0.00000000000E+00  0.00000000000E+00 -0.20827368324E+04  0.20827368324E+04  0.25500000920E-02 0. -1.
    10030    2    1    2    0    0  0.00000000000E+00  0.00000000000E+00 -0.42932572892E+03  0.37361479358E+04  0.37113987682E+04 0.  0.
        4    1    3    3  502    0  0.90949450284E+03  0.51172536264E+03 -0.17593579139E+04  0.20455769307E+04  0.12699999809E+01 0. -1.
       -4    1    3    3    0  502 -0.90949450284E+03 -0.51172536264E+03  0.13300321849E+04  0.16905710051E+04  0.12699999809E+01 0.  1.
</event>
<event>
 5   0  0.5177000E-08  0.3693176E+04  0.7818609E-02  0.8069476E-01
        1   -1    0    0  501    0  0.00000000000E+00  0.00000000000E+00  0.18087297499E+04  0.18087297499E+04  0.50400001928E-02 0. -1.
       -1   -1    0    0    0  501  0.00000000000E+00  0.00000000000E+00 -0.18852382392E+04  0.18852382392E+04  0.50400001928E-02 0.  1.
    10030    2    1    2    0    0  0.00000000000E+00  0.00000000000E+00 -0.76508489299E+02  0.36939679891E+04  0.36931755923E+04 0.  0.
        4    1    3    3  502    0 -0.13240481974E+04 -0.11695168648E+04 -0.57596753445E+03  0.18581209702E+04  0.12699999809E+01 0.  1.
       -4    1    3    3    0  502  0.13240481974E+04  0.11695168648E+04  0.49945904515E+03  0.18358470189E+04  0.12699999809E+01 0. -1.
</event>
<event>
 5   0  0.1587026E-07  0.3695203E+04  0.7818609E-02  0.8069026E-01
        2   -1    0    0  501    0  0.00000000000E+00  0.00000000000E+00  0.17237168731E+04  0.17237168731E+04  0.25500000920E-02 0. -1.
       -2   -1    0    0    0  501  0.00000000000E+00  0.00000000000E+00 -0.19803902943E+04  0.19803902943E+04  0.25500000920E-02 0.  1.
    10030    2    1    2    0    0  0.00000000000E+00  0.00000000000E+00 -0.25667342118E+03  0.37041071674E+04  0.36952034670E+04 0.  0.
        3    1    3    3  502    0 -0.18442706286E+04  0.14935207886E+01 -0.17183219075E+02  0.18443512831E+04  0.10100000352E+00 0.  1.
       -3    1    3    3    0  502  0.18442706286E+04 -0.14935207886E+01 -0.23949020211E+03  0.18597558843E+04  0.10100000352E+00 0. -1.
</event>
<event>
 5   0  0.5177000E-08  0.3705387E+04  0.7818609E-02  0.8066769E-01
        1   -1    0    0  501    0  0.00000000000E+00  0.00000000000E+00  0.21503493816E+04  0.21503493817E+04  0.50400001928E-02 0.  1.
       -1   -1    0    0    0  501  0.00000000000E+00  0.00000000000E+00 -0.15962400074E+04  0.15962400074E+04  0.50400001928E-02 0. -1.
    10030    2    1    2    0    0  0.00000000000E+00  0.00000000000E+00  0.55410937424E+03  0.37465893891E+04  0.37053872742E+04 0.  0.
        4    1    3    3  502    0  0.12353940594E+04 -0.63743299580E+03 -0.96128926885E+03  0.16901473241E+04  0.12699999809E+01 0. -1.
       -4    1    3    3    0  502 -0.12353940594E+04  0.63743299580E+03  0.15153986431E+04  0.20564420649E+04  0.12699999809E+01 0.  1.
</event>
<event>
 5   0  0.1558258E-07  0.3680823E+04  0.7818609E-02  0.8072225E-01
        2   -1    0    0  501    0  0.00000000000E+00  0.00000000000E+00  0.20651232050E+04  0.20651232050E+04  0.25500000920E-02 0.  1.
       -2   -1    0    0    0  501  0.00000000000E+00  0.00000000000E+00 -0.16401514503E+04  0.16401514503E+04  0.25500000920E-02 0. -1.
    10030    2    1    2    0    0  0.00000000000E+00  0.00000000000E+00  0.42497175467E+03  0.37052746553E+04  0.36808231795E+04 0.  0.
        1    1    3    3  502    0  0.88763460612E+03  0.15231784144E+04  0.74433940592E+03  0.19136375903E+04  0.50400001928E-02 0.  1.
       -1    1    3    3    0  502 -0.88763460612E+03 -0.15231784144E+04 -0.31936765125E+03  0.17916370650E+04  0.50400001928E-02 0. -1.
</event>
<event>
 5   0  0.1658770E-07  0.3693377E+04  0.7818609E-02  0.8069431E-01
       -2   -1    0    0    0  501  0.00000000000E+00  0.00000000000E+00  0.25292623477E+04  0.25292623477E+04  0.25500000920E-02 0. -1.
        2   -1    0    0  501    0  0.00000000000E+00  0.00000000000E+00 -0.13483211913E+04  0.13483211913E+04  0.25500000920E-02 0.  1.
    10030    2    1    2    0    0  0.00000000000E+00  0.00000000000E+00  0.11809411564E+04  0.38775835389E+04  0.36933767864E+04 0.  0.
        2    1    3    3  502    0  0.94190792721E+03 -0.15153179117E+04  0.10905451800E+04  0.20910924672E+04  0.25500000920E-02 0. -1.
       -2    1    3    3    0  502 -0.94190792721E+03  0.15153179117E+04  0.90395976362E+02  0.17864910717E+04  0.25500000920E-02 0.  1.
</event>
<event>
 5   0  0.5177000E-08  0.3689776E+04  0.7818609E-02  0.8070231E-01
       -1   -1    0    0    0  501  0.00000000000E+00  0.00000000000E+00  0.19526198827E+04  0.19526198827E+04  0.50400001928E-02 0. -1.
        1   -1    0    0  501    0  0.00000000000E+00  0.00000000000E+00 -0.17431000133E+04  0.17431000133E+04  0.50400001928E-02 0.  1.
    10030    2    1    2    0    0  0.00000000000E+00  0.00000000000E+00  0.20951986945E+03  0.36957198960E+04  0.36897760060E+04 0.  0.
        4    1    3    3  502    0 -0.75891607699E+03  0.16815305923E+04  0.94188982002E+02  0.18472606535E+04  0.12699999809E+01 0. -1.
       -4    1    3    3    0  502  0.75891607699E+03 -0.16815305923E+04  0.11533088745E+03  0.18484592425E+04  0.12699999809E+01 0.  1.
</event>
<event>
 5   0  0.5177000E-08  0.3693799E+04  0.7818609E-02  0.8069337E-01
        1   -1    0    0  501    0  0.00000000000E+00  0.00000000000E+00  0.26368724317E+04  0.26368724317E+04  0.50400001928E-02 0. -1.
       -1   -1    0    0    0  501  0.00000000000E+00  0.00000000000E+00 -0.12935922164E+04  0.12935922164E+04  0.50400001928E-02 0.  1.
    10030    2    1    2    0    0  0.00000000000E+00  0.00000000000E+00  0.13432802153E+04  0.39304646481E+04  0.36937989406E+04 0.  0.
        2    1    3    3  502    0 -0.16319963806E+04  0.63305640026E+03  0.12983274460E+04  0.21794097250E+04  0.25500000920E-02 0. -1.
       -2    1    3    3    0  502  0.16319963806E+04 -0.63305640026E+03  0.44952769231E+02  0.17510549231E+04  0.25500000920E-02 0.  1.
</event>
<event>
 5   0  0.1666189E-07  0.3722543E+04  0.7818609E-02  0.8062984E-01
        2   -1    0    0  501    0  0.00000000000E+00  0.00000000000E+00  0.24466688430E+04  0.24466688430E+04  0.25500000920E-02 0. -1.
       -2   -1    0    0    0  501  0.00000000000E+00  0.00000000000E+00 -0.14159382775E+04  0.14159382775E+04  0.25500000920E-02 0.  1.
    10030    2    1    2    0    0  0.00000000000E+00  0.00000000000E+00  0.10307305656E+04  0.38626071205E+04  0.37225432528E+04 0.  0.
        4    1    3    3  502    0  0.91850306965E+03 -0.48035102885E+03 -0.10887470536E+04  0.15032487351E+04  0.12699999809E+01 0.  1.
       -4    1    3    3    0  502 -0.91850306965E+03  0.48035102885E+03  0.21194776192E+04  0.23593583854E+04  0.12699999809E+01 0. -1.
</event>
<event>
 5   0  0.1666189E-07  0.3684699E+04  0.7818609E-02  0.8071361E-01
       -2   -1    0    0    0  501  0.00000000000E+00  0.00000000000E+00  0.22605963484E+04  0.22605963484E+04  0.25500000920E-02 0.  1.
        2   -1    0    0  501    0  0.00000000000E+00  0.00000000000E+00 -0.15014848785E+04  0.15014848785E+04  0.25500000920E-02 0. -1.
    10030    2    1    2    0    0  0.00000000000E+00  0.00000000000E+00  0.75911146989E+03  0.37620812270E+04  0.36846987576E+04 0.  0.
        4    1    3    3  502    0  0.16430495547E+04  0.83308931464E+03  0.35454693072E+03  0.18759943455E+04  0.12699999809E+01 0. -1.
       -4    1    3    3    0  502 -0.16430495547E+04 -0.83308931464E+03  0.40456453917E+03  0.18860868815E+04  0.12699999809E+01 0.  1.
</event>
<event>
 5   0  0.5177000E-08  0.3702842E+04  0.7818609E-02  0.8067332E-01
        1   -1    0    0  501    0  0.00000000000E+00  0.00000000000E+00  0.26683930263E+04  0.26683930263E+04  0.50400001928E-02 0. -1.
       -1   -1    0    0    0  501  0.00000000000E+00  0.00000000000E+00 -0.12845781009E+04  0.12845781009E+04  0.50400001928E-02 0.  1.
    10030    2    1    2    0    0  0.00000000000E+00  0.00000000000E+00  0.13838149254E+04  0.39529711273E+04  0.37028417446E+04 0.  0.
        4    1    3    3  502    0  0.29578322716E+03 -0.63740712216E+03 -0.11366862378E+04  0.13363505427E+04  0.12699999809E+01 0.  1.
       -4    1    3    3    0  502 -0.29578322716E+03  0.63740712216E+03  0.25205011632E+04  0.26166205845E+04  0.12699999809E+01 0. -1.
</event>
<event>
 5   0  0.5177000E-08  0.3688761E+04  0.7818609E-02  0.8070457E-01
        1   -1    0    0  501    0  0.00000000000E+00  0.00000000000E+00  0.11949192298E+04  0.11949192298E+04  0.50400001928E-02 0.  1.
       -1   -1    0    0    0  501  0.00000000000E+00  0.00000000000E+00 -0.28468356040E+04  0.28468356041E+04  0.50400001928E-02 0. -1.
    10030    2    1    2    0    0  0.00000000000E+00  0.00000000000E+00 -0.16519163743E+04  0.40417548338E+04  0.36887605546E+04 0.  0.
        2    1    3    3  502    0 -0.18725687472E+03  0.39291478791E+03 -0.27897569017E+04  0.28235068157E+04  0.25500000920E-02 0. -1.
       -2    1    3    3    0  502  0.18725687472E+03 -0.39291478791E+03  0.11378405275E+04  0.12182480181E+04  0.25500000920E-02 0.  1.
</event>
<event>
 5   0  0.1686284E-07  0.3701832E+04  0.7818609E-02  0.8067556E-01
        2   -1    0    0  501    0  0.00000000000E+00  0.00000000000E+00  0.18781135992E+04  0.18781135992E+04  0.25500000920E-02 0. -1.
       -2   -1    0    0    0  501  0.00000000000E+00  0.00000000000E+00 -0.18241122127E+04  0.18241122127E+04  0.25500000920E-02 0.  1.
    10030    2    1    2    0    0  0.00000000000E+00  0.00000000000E+00  0.54001386472E+02  0.37022258118E+04  0.37018319535E+04 0.  0.
        5    1    3    3  502    0 -0.93148784030E+03  0.15468754812E+04  0.43370661168E+03  0.18570451976E+04  0.46999998093E+01 0.  1.
       -5    1    3    3    0  502  0.93148784030E+03 -0.15468754812E+04 -0.37970522521E+03  0.18451806142E+04  0.46999998093E+01 0. -1.
</event>
<event>
 5   0  0.1686284E-07  0.3704839E+04  0.7818609E-02  0.8066890E-01
        2   -1    0    0  501    0  0.00000000000E+00  0.00000000000E+00  0.27597380486E+04  0.27597380486E+04  0.25500000920E-02 0.  1.
       -2   -1    0    0    0  501  0.00000000000E+00  0.00000000000E+00 -0.12433999457E+04  0.12433999457E+04  0.25500000920E-02 0. -1.
    10030    2    1    2    0    0  0.00000000000E+00  0.00000000000E+00  0.15163381029E+04  0.40031379943E+04  0.37048390733E+04 0.  0.
        5    1    3    3  502    0  0.26269952745E+03 -0.80746848839E+03 -0.10207225360E+04  0.13277473355E+04  0.46999998093E+01 0. -1.
       -5    1    3    3    0  502 -0.26269952745E+03  0.80746848839E+03  0.25370606389E+04  0.26753906588E+04  0.46999998093E+01 0.  1.
</event>
<event>
 5   0  0.5181371E-08  0.3719652E+04  0.7818609E-02  0.8063621E-01
       -1   -1    0    0    0  501  0.00000000000E+00  0.00000000000E+00  0.18972003731E+04  0.18972003731E+04  0.50400001928E-02 0. -1.
        1   -1    0    0  501    0  0.00000000000E+00  0.00000000000E+00 -0.18231874842E+04  0.18231874843E+04  0.50400001928E-02 0.  1.
    10030    2    1    2    0    0  0.00000000000E+00  0.00000000000E+00  0.74012888827E+02  0.37203878573E+04  0.37196515833E+04 0.  0.
        5    1    3    3  502    0 -0.62073456165E+03 -0.16671617407E+04  0.57950685560E+03  0.18709863579E+04  0.46999998093E+01 0. -1.
       -5    1    3    3    0  502  0.62073456165E+03  0.16671617407E+04 -0.50549396678E+03  0.18494014994E+04  0.46999998093E+01 0.  1.
</event>
<event>
 5   0  0.1658770E-07  0.3675055E+04  0.7818609E-02  0.8073512E-01
       -2   -1    0    0    0  501  0.00000000000E+00  0.00000000000E+00  0.21100477724E+04  0.21100477724E+04  0.25500000920E-02 0.  1.
        2   -1    0    0  501    0  0.00000000000E+00  0.00000000000E+00 -0.16002043831E+04  0.16002043831E+04  0.25500000920E-02 0. -1.
    10030    2    1    2    0    0  0.00000000000E+00  0.00000000000E+00  0.50984338934E+03  0.37102521555E+04  0.36750552072E+04 0.  0.
        2    1    3    3  502    0 -0.10987358851E+04  0.89557281637E+03  0.14354091524E+04  0.20173424720E+04  0.25500000920E-02 0.  1.
       -2    1    3    3    0  502  0.10987358851E+04 -0.89557281637E+03 -0.92556576311E+03  0.16929096835E+04  0.25500000920E-02 0. -1.
</event>
<event>
 5   0  0.5177000E-08  0.3698113E+04  0.7818609E-02  0.8068380E-01
        1   -1    0    0  501    0  0.00000000000E+00  0.00000000000E+00  0.20016294579E+04  0.20016294579E+04  0.50400001928E-02 0.  1.
       -1   -1    0    0    0  501  0.00000000000E+00  0.00000000000E+00 -0.17081129300E+04  0.17081129300E+04  0.50400001928E-02 0. -1.
    10030    2    1    2    0    0  0.00000000000E+00  0.00000000000E+00  0.29351652789E+03  0.37097423880E+04  0.36981125771E+04 0.  0.
        4    1    3    3  502    0  0.11295466391E+04 -0.87690458465E+03  0.13226948466E+04  0.19479118385E+04  0.12699999809E+01 0.  1.
       -4    1    3    3    0  502 -0.11295466391E+04  0.87690458465E+03 -0.10291783187E+04  0.17618305495E+04  0.12699999809E+01 0. -1.
</event>
<event>
 5   0  0.1587026E-07  0.3694399E+04  0.7818609E-02  0.8069204E-01
        2   -1    0    0  501    0  0.00000000000E+00  0.00000000000E+00  0.19531599486E+04  0.19531599486E+04  0.25500000920E-02 0. -1.
       -2   -1    0    0    0  501  0.00000000000E+00  0.00000000000E+00 -0.17469872045E+04  0.17469872045E+04  0.25500000920E-02 0.  1.
    10030    2    1    2    0    0  0.00000000000E+00  0.00000000000E+00  0.20617274420E+03  0.37001471531E+04  0.36943986999E+04 0.  0.
        3    1    3    3  502    0 -0.27195241759E+03  0.87454010349E+03  0.17097541732E+04  0.19395973430E+04  0.10100000352E+00 0. -1.
       -3    1    3    3    0  502  0.27195241759E+03 -0.87454010349E+03 -0.15035814290E+04  0.17605498101E+04  0.10100000352E+00 0.  1.
</event>
<event>
 5   0  0.1686284E-07  0.3695347E+04  0.7818609E-02  0.8068994E-01
        2   -1    0    0  501    0  0.00000000000E+00  0.00000000000E+00  0.17111426911E+04  0.17111426911E+04  0.25500000920E-02 0. -1.
       -2   -1    0    0    0  501  0.00000000000E+00  0.00000000000E+00 -0.19950980615E+04  0.19950980615E+04  0.25500000920E-02 0.  1.
    10030    2    1    2    0    0  0.00000000000E+00  0.00000000000E+00 -0.28395537041E+03  0.37062407527E+04  0.36953470560E+04 0.  0.
        5    1    3    3  502    0 -0.13870413305E+04  0.10974933252E+04  0.39391958629E+03  0.18120623560E+04  0.46999998093E+01 0.  1.
       -5    1    3    3    0  502  0.13870413305E+04 -0.10974933252E+04 -0.67787495670E+03  0.18941783967E+04  0.46999998093E+01 0. -1.
</event>
<event>
 5   0  0.1658770E-07  0.3696926E+04  0.7818609E-02  0.8068643E-01
       -2   -1    0    0    0  501  0.00000000000E+00  0.00000000000E+00  0.12542603836E+04  0.12542603836E+04  0.25500000920E-02 0. -1.
        2   -1    0    0  501    0  0.00000000000E+00  0.00000000000E+00 -0.27241672804E+04  0.27241672804E+04  0.25500000920E-02 0.  1.
    10030    2    1    2    0    0  0.00000000000E+00  0.00000000000E+00 -0.14699068968E+04  0.39784276639E+04  0.36969258029E+04 0.  0.
        2    1    3    3  502    0  0.89077678369E+03  0.14422611815E+04 -0.15281054240E+04  0.22822591397E+04  0.25500000920E-02 0.  1.
       -2    1    3    3    0  502 -0.89077678369E+03 -0.14422611815E+04  0.58198527199E+02  0.16961685242E+04  0.25500000920E-02 0. -1.
</event>
<event>
 5   0  0.5177000E-08  0.3709305E+04  0.7818609E-02  0.8065903E-01
       -1   -1    0    0    0  501  0.00000000000E+00  0.00000000000E+00  0.16827646214E+04  0.16827646214E+04  0.50400001928E-02 0. -1.
        1   -1    0    0  501    0  0.00000000000E+00  0.00000000000E+00 -0.20440985647E+04  0.20440985648E+04  0.50400001928E-02 0.  1.
    10030    2    1    2    0    0  0.00000000000E+00  0.00000000000E+00 -0.36133394334E+03  0.37268631862E+04  0.37093054592E+04 0.  0.
        3    1    3    3  502    0  0.13945106540E+04  0.12068403983E+04 -0.37809907441E+03  0.18825734066E+04  0.10100000352E+00 0. -1.
       -3    1    3    3    0  502 -0.13945106540E+04 -0.12068403983E+04  0.16765131078E+02  0.18442897795E+04  0.10100000352E+00 0.  1.
</event>
<event>
 5   0  0.1658770E-07  0.3692568E+04  0.7818609E-02  0.8069611E-01
        2   -1    0    0  501    0  0.00000000000E+00  0.00000000000E+00  0.12192977170E+04  0.12192977170E+04  0.25500000920E-02 0.  1.
       -2   -1    0    0    0  501  0.00000000000E+00  0.00000000000E+00 -0.27956791773E+04  0.27956791773E+04  0.25500000920E-02 0. -1.
    10030    2    1    2    0    0  0.00000000000E+00  0.00000000000E+00 -0.15763814603E+04  0.40149768944E+04  0.36925683411E+04 0.  0.
        2    1    3    3  502    0  0.55966497836E+03  0.87543279068E+03  0.87122026350E+03  0.13559617275E+04  0.25500000920E-02 0.  1.
       -2    1    3    3    0  502 -0.55966497836E+03 -0.87543279068E+03 -0.24476017238E+04  0.26590151668E+04  0.25500000920E-02 0. -1.
</event>
<event>
 5   0  0.5181371E-08  0.3695645E+04  0.7818609E-02  0.8068928E-01
        1   -1    0    0  501    0  0.00000000000E+00  0.00000000000E+00  0.30959256880E+04  0.30959256880E+04  0.50400001928E-02 0.  1.
       -1   -1    0    0    0  501  0.00000000000E+00  0.00000000000E+00 -0.11028841044E+04  0.11028841044E+04  0.50400001928E-02 0. -1.
    10030    2    1    2    0    0  0.00000000000E+00  0.00000000000E+00  0.19930415836E+04  0.41988097924E+04  0.36956445877E+04 0.  0.
        5    1    3    3  502    0  0.19522960378E+03 -0.14635011769E+04  0.22588630643E+04  0.26985986598E+04  0.46999998093E+01 0.  1.
       -5    1    3    3    0  502 -0.19522960378E+03  0.14635011769E+04 -0.26582148070E+03  0.15002111327E+04  0.46999998093E+01 0. -1.
</event>
<event>
 5   0  0.5177000E-08  0.3710488E+04  0.7818609E-02  0.8065641E-01
       -1   -1    0    0    0  501  0.00000000000E+00  0.00000000000E+00  0.22543396755E+04  0.22543396755E+04  0.50400001928E-02 0.  1.
        1   -1    0    0  501    0  0.00000000000E+00  0.00000000000E+00 -0.15268021189E+04  0.15268021189E+04  0.50400001928E-02 0. -1.
    10030    2    1    2    0    0  0.00000000000E+00  0.00000000000E+00  0.72753755654E+03  0.37811417944E+04  0.37104881584E+04 0.  0.
        4    1    3    3  502    0 -0.14326222453E+04 -0.84255902090E+03 -0.47631763370E+03  0.17289280791E+04  0.12699999809E+01 0. -1.
       -4    1    3    3    0  502  0.14326222453E+04  0.84255902090E+03  0.12038551902E+04  0.20522137154E+04  0.12699999809E+01 0.  1.
</event>
<event>
 5   0  0.1587026E-07  0.3693736E+04  0.7818609E-02  0.8069351E-01
       -2   -1    0    0    0  501  0.00000000000E+00  0.00000000000E+00  0.20025151039E+04  0.20025151039E+04  0.25500000920E-02 0. -1.
        2   -1    0    0  501    0  0.00000000000E+00  0.00000000000E+00 -0.17033188635E+04  0.17033188635E+04  0.25500000920E-02 0.  1.
    10030    2    1    2    0    0  0.00000000000E+00  0.00000000000E+00  0.29919624043E+03  0.37058339673E+04  0.36937361848E+04 0.  0.
        3    1    3    3  502    0  0.26184201809E+03  0.10846564295E+04 -0.13269152105E+04  0.17337083949E+04  0.10100000352E+00 0.  1.
       -3    1    3    3    0  502 -0.26184201809E+03 -0.10846564295E+04  0.16261114510E+04  0.19721255724E+04  0.10100000352E+00 0. -1.
</event>
<event>
 5   0  0.5177000E-08  0.3699091E+04  0.7818609E-02  0.8068163E-01
        1   -1    0    0  501    0  0.00000000000E+00  0.00000000000E+00  0.15267794867E+04  0.15267794868E+04  0.50400001928E-02 0. -1.
       -1   -1    0    0    0  501  0.00000000000E+00  0.00000000000E+00 -0.22405458304E+04  0.22405458304E+04  0.50400001928E-02 0.  1.
    10030    2    1    2    0    0  0.00000000000E+00  0.00000000000E+00 -0.71376634367E+03  0.37673253172E+04  0.36990914631E+04 0.  0.
        3    1    3    3  502    0  0.26976456065E+03 -0.76922504547E+03 -0.20477304946E+04  0.22040145819E+04  0.10100000352E+00 0.  1.
       -3    1    3    3    0  502 -0.26976456065E+03  0.76922504547E+03  0.13339641509E+04  0.15633107352E+04  0.10100000352E+00 0. -1.
</event>
<event>
 5   0  0.5177000E-08  0.3690705E+04  0.7818609E-02  0.8070025E-01
        1   -1    0    0  501    0  0.00000000000E+00  0.00000000000E+00  0.11028659390E+04  0.11028659391E+04  0.50400001928E-02 0. -1.
       -1   -1    0    0    0  501  0.00000000000E+00  0.00000000000E+00 -0.30877057574E+04  0.30877057574E+04  0.50400001928E-02 0.  1.
    10030    2    1    2    0    0  0.00000000000E+00  0.00000000000E+00 -0.19848398183E+04  0.41905716964E+04  0.36907048159E+04 0.  0.
        2    1    3    3  502    0 -0.96523601850E+03  0.79934321396E+03 -0.25303831155E+04  0.28237331419E+04  0.25500000920E-02 0.  1.
       -2    1    3    3    0  502  0.96523601850E+03 -0.79934321396E+03  0.54554329721E+03  0.13668385546E+04  0.25500000920E-02 0. -1.
</event>
<event>
 5   0  0.5177000E-08  0.3675342E+04  0.7818609E-02  0.8073448E-01
       -1   -1    0    0    0  501  0.00000000000E+00  0.00000000000E+00  0.17580759926E+04  0.17580759926E+04  0.50400001928E-02 0. -1.
        1   -1    0    0  501    0  0.00000000000E+00  0.00000000000E+00 -0.19208699891E+04  0.19208699891E+04  0.50400001928E-02 0.  1.
    10030    2    1    2    0    0  0.00000000000E+00  0.00000000000E+00 -0.16279399644E+03  0.36789459817E+04  0.36753423856E+04 0.  0.
        2    1    3    3  502    0 -0.41861426503E+02 -0.12152451332E+04  0.12978009317E+04  0.17784432438E+04  0.25500000920E-02 0. -1.
       -2    1    3    3    0  502  0.41861426503E+02  0.12152451332E+04 -0.14605949282E+04  0.19005027380E+04  0.25500000920E-02 0.  1.
</event>
<event>
 5   0  0.1666189E-07  0.3712905E+04  0.7818609E-02  0.8065108E-01
        2   -1    0    0  501    0  0.00000000000E+00  0.00000000000E+00  0.13608200028E+04  0.13608200028E+04  0.25500000920E-02 0.  1.
       -2   -1    0    0    0  501  0.00000000000E+00  0.00000000000E+00 -0.25326026005E+04  0.25326026005E+04  0.25500000920E-02 0. -1.
    10030    2    1    2    0    0  0.00000000000E+00  0.00000000000E+00 -0.11717825977E+04  0.38934226033E+04  0.37129052117E+04 0.  0.
        4    1    3    3  502    0 -0.12739372795E+04  0.69603590929E+03  0.62753454518E+03  0.15815130089E+04  0.12699999809E+01 0.  1.
       -4    1    3    3    0  502  0.12739372795E+04 -0.69603590929E+03 -0.17993171429E+04  0.23119095944E+04  0.12699999809E+01 0. -1.
</event>
<event>
 5   0  0.5177000E-08  0.3698411E+04  0.7818609E-02  0.8068314E-01
       -1   -1    0    0    0  501  0.00000000000E+00  0.00000000000E+00  0.34043385856E+04  0.34043385856E+04  0.50400001928E-02 0. -1.
        1   -1    0    0  501    0  0.00000000000E+00  0.00000000000E+00 -0.10044714314E+04  0.10044714314E+04  0.50400001928E-02 0.  1.
    10030    2    1    2    0    0  0.00000000000E+00  0.00000000000E+00  0.23998671542E+04  0.44088100170E+04  0.36984109302E+04 0.  0.
        1    1    3    3  502    0  0.64798492105E+03 -0.87680529618E+02  0.32619218080E+04  0.33268162280E+04  0.50400001928E-02 0. -1.
       -1    1    3    3    0  502 -0.64798492105E+03  0.87680529618E+02 -0.86205465388E+03  0.10819937890E+04  0.50400001928E-02 0.  1.
</event>
<event>
 5   0  0.5177000E-08  0.3704276E+04  0.7818609E-02  0.8067015E-01
        1   -1    0    0  501    0  0.00000000000E+00  0.00000000000E+00  0.18712886286E+04  0.18712886286E+04  0.50400001928E-02 0. -1.
       -1   -1    0    0    0  501  0.00000000000E+00  0.00000000000E+00 -0.18331837085E+04  0.18331837085E+04  0.50400001928E-02 0.  1.
    10030    2    1    2    0    0  0.00000000000E+00  0.00000000000E+00  0.38104920028E+02  0.37044723371E+04  0.37042763546E+04 0.  0.
        1    1    3    3  502    0  0.69035754342E+03 -0.81399409012E+03  0.15328154411E+04  0.18678070278E+04  0.50400001928E-02 0. -1.
       -1    1    3    3    0  502 -0.69035754342E+03  0.81399409012E+03 -0.14947105211E+04  0.18366653093E+04  0.50400001928E-02 0.  1.
</event>
<event>
 5   0  0.1686284E-07  0.3584596E+04  0.7818609E-02  0.8094029E-01
        2   -1    0    0  501    0  0.00000000000E+00  0.00000000000E+00  0.12709625190E+04  0.12709625190E+04  0.25500000920E-02 0.  1.
       -2   -1    0    0    0  501  0.00000000000E+00  0.00000000000E+00 -0.25274802394E+04  0.25274802394E+04  0.25500000920E-02 0. -1.
    10030    2    1    2    0    0  0.00000000000E+00  0.00000000000E+00 -0.12565177204E+04  0.37984427585E+04  0.35845962963E+04 0.  0.
        5    1    3    3  502    0 -0.73208367699E+03 -0.15721228005E+03  0.10972742578E+04  0.13284182692E+04  0.46999998093E+01 0.  1.
       -5    1    3    3    0  502  0.73208367699E+03  0.15721228005E+03 -0.23537919782E+04  0.24700244893E+04  0.46999998093E+01 0. -1.
</event>
<event>
 5   0  0.1558258E-07  0.3655455E+04  0.7818609E-02  0.8077906E-01
        2   -1    0    0  501    0  0.00000000000E+00  0.00000000000E+00  0.22118764825E+04  0.22118764825E+04  0.25500000920E-02 0.  1.
       -2   -1    0    0    0  501  0.00000000000E+00  0.00000000000E+00 -0.15102956223E+04  0.15102956223E+04  0.25500000920E-02 0. -1.
    10030    2    1    2    0    0  0.00000000000E+00  0.00000000000E+00  0.70158086018E+03  0.37221721048E+04  0.36554547562E+04 0.  0.
        1    1    3    3  502    0 -0.96041795100E+03  0.15144339239E+04  0.71032781932E+03  0.19288541576E+04  0.50400001928E-02 0.  1.
       -1    1    3    3    0  502  0.96041795100E+03 -0.15144339239E+04 -0.87469591366E+01  0.17933179472E+04  0.50400001928E-02 0. -1.
</event>
<event>
 5   0  0.1558258E-07  0.3697374E+04  0.7818609E-02  0.8068544E-01
        2   -1    0    0  501    0  0.00000000000E+00  0.00000000000E+00  0.17045330675E+04  0.17045330675E+04  0.25500000920E-02 0. -1.
       -2   -1    0    0    0  501  0.00000000000E+00  0.00000000000E+00 -0.20050323558E+04  0.20050323558E+04  0.25500000920E-02 0.  1.
    10030    2    1    2    0    0  0.00000000000E+00  0.00000000000E+00 -0.30049928829E+03  0.37095654234E+04  0.36973741774E+04 0.  0.
        1    1    3    3  502    0  0.15877404286E+04 -0.19762993004E+03  0.77890692941E+03  0.17795148953E+04  0.50400001928E-02 0. -1.
       -1    1    3    3    0  502 -0.15877404286E+04  0.19762993004E+03 -0.10794062177E+04  0.19300505280E+04  0.50400001928E-02 0.  1.
</event>
<event>
 5   0  0.5177000E-08  0.3725033E+04  0.7818609E-02  0.8062437E-01
       -1   -1    0    0    0  501  0.00000000000E+00  0.00000000000E+00  0.16236169454E+04  0.16236169454E+04  0.50400001928E-02 0. -1.
        1   -1    0    0  501    0  0.00000000000E+00  0.00000000000E+00 -0.21365683406E+04  0.21365683406E+04  0.50400001928E-02 0.  1.
    10030    2    1    2    0    0  0.00000000000E+00  0.00000000000E+00 -0.51295139523E+03  0.37601852860E+04  0.37250334564E+04 0.  0.
        3    1    3    3  502    0 -0.13195449452E+04  0.12706527456E+04  0.83168295393E+02  0.18337595911E+04  0.10100000352E+00 0. -1.
       -3    1    3    3    0  502  0.13195449452E+04 -0.12706527456E+04 -0.59611969062E+03  0.19264256949E+04  0.10100000352E+00 0.  1.
</event>
<event>
 5   0  0.1686284E-07  0.3694970E+04  0.7818609E-02  0.8069077E-01
       -2   -1    0    0    0  501  0.00000000000E+00  0.00000000000E+00  0.18743517531E+04  0.18743517531E+04  0.25500000920E-02 0.  1.
        2   -1    0    0  501    0  0.00000000000E+00  0.00000000000E+00 -0.18210036967E+04  0.18210036967E+04  0.25500000920E-02 0. -1.
    10030    2    1    2    0    0  0.00000000000E+00  0.00000000000E+00  0.53348056429E+02  0.36953554498E+04  0.36949703497E+04 0.  0.
        5    1    3    3  502    0  0.14781164675E+04  0.89153878613E+03 -0.63180911538E+03  0.18381715227E+04  0.46999998093E+01 0.  1.
       -5    1    3    3    0  502 -0.14781164675E+04 -0.89153878613E+03  0.68515717181E+03  0.18571839270E+04  0.46999998093E+01 0. -1.
</event>
<event>
 5   0  0.1658770E-07  0.3681336E+04  0.7818609E-02  0.8072111E-01
       -2   -1    0    0    0  501  0.00000000000E+00  0.00000000000E+00  0.25113953116E+04  0.25113953116E+04  0.25500000920E-02 0. -1.
        2   -1    0    0  501    0  0.00000000000E+00  0.00000000000E+00 -0.13490743185E+04  0.13490743185E+04  0.25500000920E-02 0.  1.
    10030    2    1    2    0    0  0.00000000000E+00  0.00000000000E+00  0.11623209931E+04  0.38604696300E+04  0.36813361261E+04 0.  0.
        2    1    3    3  502    0  0.28204416707E+03  0.10803103061E+04  0.21157336183E+04  0.23922683824E+04  0.25500000920E-02 0. -1.
       -2    1    3    3    0  502 -0.28204416707E+03 -0.10803103061E+04 -0.95341262522E+03  0.14682012477E+04  0.25500000920E-02 0.  1.
</event>
<event>
 5   0  0.5181371E-08  0.3701310E+04  0.7818609E-02  0.8067672E-01
       -1   -1    0    0    0  501  0.00000000000E+00  0.00000000000E+00  0.10605471907E+04  0.10605471908E+04  0.50400001928E-02 0. -1.
        1   -1    0    0  501    0  0.00000000000E+00  0.00000000000E+00 -0.32293935050E+04  0.32293935050E+04  0.50400001928E-02 0.  1.
    10030    2    1    2    0    0  0.00000000000E+00  0.00000000000E+00 -0.21688463143E+04  0.42899406958E+04  0.37013101516E+04 0.  0.
        5    1    3    3  502    0  0.11494554414E+04 -0.66058409301E+03  0.41215866711E+03  0.13883501045E+04  0.46999998093E+01 0. -1.
       -5    1    3    3    0  502 -0.11494554414E+04  0.66058409301E+03 -0.25810049814E+04  0.29015905913E+04  0.46999998093E+01 0.  1.
</event>
<event>
 5   0  0.1558258E-07  0.3683120E+04  0.7818609E-02  0.8071713E-01
        2   -1    0    0  501    0  0.00000000000E+00  0.00000000000E+00  0.21170663920E+04  0.21170663920E+04  0.25500000920E-02 0. -1.
       -2   -1    0    0    0  501  0.00000000000E+00  0.00000000000E+00 -0.16019072635E+04  0.16019072635E+04  0.25500000920E-02 0.  1.
    10030    2    1    2    0    0  0.00000000000E+00  0.00000000000E+00  0.51515912847E+03  0.37189736556E+04  0.36831204329E+04 0.  0.
        1    1    3    3  502    0 -0.30649792447E+03 -0.38307619618E+03  0.20498669738E+04  0.21077578040E+04  0.50400001928E-02 0. -1.
       -1    1    3    3    0  502  0.30649792447E+03  0.38307619618E+03 -0.15347078454E+04  0.16112158516E+04  0.50400001928E-02 0.  1.
</event>
<event>
 5   0  0.1666189E-07  0.3709641E+04  0.7818609E-02  0.8065829E-01
       -2   -1    0    0    0  501  0.00000000000E+00  0.00000000000E+00  0.24881944517E+04  0.24881944517E+04  0.25500000920E-02 0.  1.
        2   -1    0    0  501    0  0.00000000000E+00  0.00000000000E+00 -0.13826726000E+04  0.13826726000E+04  0.25500000920E-02 0. -1.
    10030    2    1    2    0    0  0.00000000000E+00  0.00000000000E+00  0.11055218517E+04  0.38708670517E+04  0.37096405712E+04 0.  0.
        4    1    3    3  502    0  0.61380755170E+03 -0.16809914703E+04  0.43850473531E+02  0.17900884086E+04  0.12699999809E+01 0. -1.
       -4    1    3    3    0  502 -0.61380755170E+03  0.16809914703E+04  0.10616713782E+04  0.20807786431E+04  0.12699999809E+01 0.  1.
</event>
<event>
 5   0  0.1558258E-07  0.3696234E+04  0.7818609E-02  0.8068797E-01
       -2   -1    0    0    0  501  0.00000000000E+00  0.00000000000E+00  0.96087546503E+03  0.96087546504E+03  0.25500000920E-02 0.  1.
        2   -1    0    0  501    0  0.00000000000E+00  0.00000000000E+00 -0.35546084352E+04  0.35546084352E+04  0.25500000920E-02 0. -1.
    10030    2    1    2    0    0  0.00000000000E+00  0.00000000000E+00 -0.25937329702E+04  0.45154839003E+04  0.36962337768E+04 0.  0.
        1    1    3    3  502    0 -0.80993964157E+03  0.13320632858E+04 -0.84331967156E+02  0.15612516456E+04  0.50400001928E-02 0. -1.
       -1    1    3    3    0  502  0.80993964157E+03 -0.13320632858E+04 -0.25094010030E+04  0.29542322546E+04  0.50400001928E-02 0.  1.
</event>
<event>
 5   0  0.1658770E-07  0.3710929E+04  0.7818609E-02  0.8065544E-01
        2   -1    0    0  501    0  0.00000000000E+00  0.00000000000E+00  0.25646035062E+04  0.25646035062E+04  0.25500000920E-02 0. -1.
       -2   -1    0    0    0  501  0.00000000000E+00  0.00000000000E+00 -0.13424097046E+04  0.13424097046E+04  0.25500000920E-02 0.  1.
    10030    2    1    2    0    0  0.00000000000E+00  0.00000000000E+00  0.12221938016E+04  0.39070132108E+04  0.37109290671E+04 0.  0.
        2    1    3    3  502    0 -0.94552283921E+03  0.10546798746E+04 -0.65072407203E+03  0.15587831457E+04  0.25500000920E-02 0.  1.
       -2    1    3    3    0  502  0.94552283921E+03 -0.10546798746E+04  0.18729178736E+04  0.23482300651E+04  0.25500000920E-02 0. -1.
</event>
<event>
 5   0  0.5177000E-08  0.3734476E+04  0.7818609E-02  0.8060364E-01
       -1   -1    0    0    0  501  0.00000000000E+00  0.00000000000E+00  0.10987109689E+04  0.10987109689E+04  0.50400001928E-02 0.  1.
        1   -1    0    0  501    0  0.00000000000E+00  0.00000000000E+00 -0.31733347407E+04  0.31733347407E+04  0.50400001928E-02 0. -1.
    10030    2    1    2    0    0  0.00000000000E+00  0.00000000000E+00 -0.20746237718E+04  0.42720457096E+04  0.37344759673E+04 0.  0.
        2    1    3    3  502    0 -0.12314976531E+04  0.97821120111E+03  0.11410105765E+03  0.15768648246E+04  0.25500000920E-02 0.  1.
       -2    1    3    3    0  502  0.12314976531E+04 -0.97821120111E+03 -0.21887248295E+04  0.26951808850E+04  0.25500000920E-02 0. -1.
</event>
<event>
 5   0  0.5177000E-08  0.3543662E+04  0.7818609E-02  0.8103520E-01
        1   -1    0    0  501    0  0.00000000000E+00  0.00000000000E+00  0.25616672976E+04  0.25616672976E+04  0.50400001928E-02 0.  1.
       -1   -1    0    0    0  501  0.00000000000E+00  0.00000000000E+00 -0.12255238547E+04  0.12255238547E+04  0.50400001928E-02 0. -1.
    10030    2    1    2    0    0  0.00000000000E+00  0.00000000000E+00  0.13361434429E+04  0.37871911523E+04  0.35436615984E+04 0.  0.
        2    1    3    3  502    0  0.16020446544E+04 -0.69693721239E+03  0.98350936448E+03  0.20048838427E+04  0.25500000920E-02 0.  1.
       -2    1    3    3    0  502 -0.16020446544E+04  0.69693721239E+03  0.35263407846E+03  0.17823073096E+04  0.25500000920E-02 0. -1.
</event>
<event>
 5   0  0.1558258E-07  0.3725241E+04  0.7818609E-02  0.8062391E-01
        2   -1    0    0  501    0  0.00000000000E+00  0.00000000000E+00  0.26729028174E+04  0.26729028174E+04  0.25500000920E-02 0.  1.
       -2   -1    0    0    0  501  0.00000000000E+00  0.00000000000E+00 -0.12979726234E+04  0.12979726234E+04  0.25500000920E-02 0. -1.
    10030    2    1    2    0    0  0.00000000000E+00  0.00000000000E+00  0.13749301940E+04  0.39708754408E+04  0.37252407611E+04 0.  0.
        1    1    3    3  502    0  0.61309061055E+03 -0.15186264267E+04  0.16332400330E+04  0.23129157629E+04  0.50400001928E-02 0. -1.
       -1    1    3    3    0  502 -0.61309061055E+03  0.15186264267E+04 -0.25830983900E+03  0.16579596779E+04  0.50400001928E-02 0.  1.
</event>
<event>
 5   0  0.5177000E-08  0.3694930E+04  0.7818609E-02  0.8069086E-01
        1   -1    0    0  501    0  0.00000000000E+00  0.00000000000E+00  0.19375796863E+04  0.19375796863E+04  0.50400001928E-02 0. -1.
       -1   -1    0    0    0  501  0.00000000000E+00  0.00000000000E+00 -0.17615414585E+04  0.17615414585E+04  0.50400001928E-02 0.  1.
    10030    2    1    2    0    0  0.00000000000E+00  0.00000000000E+00  0.17603822778E+03  0.36991211448E+04  0.36949300110E+04 0.  0.
        1    1    3    3  502    0 -0.54073830506E+03 -0.17112759381E+04  0.52699532015E+03  0.18704511003E+04  0.50400001928E-02 0. -1.
       -1    1    3    3    0  502  0.54073830506E+03  0.17112759381E+04 -0.35095709238E+03  0.18286700445E+04  0.50400001928E-02 0.  1.
</event>
<event>
 5   0  0.5181371E-08  0.3758792E+04  0.7818609E-02  0.8055056E-01
        1   -1    0    0  501    0  0.00000000000E+00  0.00000000000E+00  0.18999564893E+04  0.18999564893E+04  0.50400001928E-02 0. -1.
       -1   -1    0    0    0  501  0.00000000000E+00  0.00000000000E+00 -0.18590580308E+04  0.18590580308E+04  0.50400001928E-02 0.  1.
    10030    2    1    2    0    0  0.00000000000E+00  0.00000000000E+00  0.40898458545E+02  0.37590145201E+04  0.37587920238E+04 0.  0.
        5    1    3    3  502    0  0.11919971323E+04  0.27455335799E+03  0.14473730526E+04  0.18950323357E+04  0.46999998093E+01 0. -1.
       -5    1    3    3    0  502 -0.11919971323E+04 -0.27455335799E+03 -0.14064745941E+04  0.18639821844E+04  0.46999998093E+01 0.  1.
</event>
<event>
 5   0  0.1558258E-07  0.3762407E+04  0.7818609E-02  0.8054271E-01
       -2   -1    0    0    0  501  0.00000000000E+00  0.00000000000E+00  0.94786682500E+03  0.94786682500E+03  0.25500000920E-02 0. -1.
        2   -1    0    0  501    0  0.00000000000E+00  0.00000000000E+00 -0.37335702116E+04  0.37335702116E+04  0.25500000920E-02 0.  1.
    10030    2    1    2    0    0  0.00000000000E+00  0.00000000000E+00 -0.27857033866E+04  0.46814370366E+04  0.37624073902E+04 0.  0.
        1    1    3    3  502    0 -0.13854015732E+04  0.24621973942E+03  0.16072122764E+03  0.14162602134E+04  0.50400001928E-02 0. -1.
       -1    1    3    3    0  502  0.13854015732E+04 -0.24621973942E+03 -0.29464246142E+04  0.32651768231E+04  0.50400001928E-02 0.  1.
</event>
<event>
 5   0  0.5177000E-08  0.3660122E+04  0.7818609E-02  0.8076857E-01
        1   -1    0    0  501    0  0.00000000000E+00  0.00000000000E+00  0.26344635045E+04  0.26344635045E+04  0.50400001928E-02 0.  1.
       -1   -1    0    0    0  501  0.00000000000E+00  0.00000000000E+00 -0.12712736259E+04  0.12712736259E+04  0.50400001928E-02 0. -1.
    10030    2    1    2    0    0  0.00000000000E+00  0.00000000000E+00  0.13631898786E+04  0.39057371304E+04  0.36601223869E+04 0.  0.
        4    1    3    3  502    0 -0.14578898152E+03  0.64937541076E+03  0.25007454007E+04  0.25877928865E+04  0.12699999809E+01 0.  1.
       -4    1    3    3    0  502  0.14578898152E+03 -0.64937541076E+03 -0.11375555221E+04  0.13179442439E+04  0.12699999809E+01 0. -1.
</event>
<event>
 5   0  0.1658770E-07  0.3742201E+04  0.7818609E-02  0.8058673E-01
        2   -1    0    0  501    0  0.00000000000E+00  0.00000000000E+00  0.12483797014E+04  0.12483797014E+04  0.25500000920E-02 0.  1.
       -2   -1    0    0    0  501  0.00000000000E+00  0.00000000000E+00 -0.28044490012E+04  0.28044490012E+04  0.25500000920E-02 0. -1.
    10030    2    1    2    0    0  0.00000000000E+00  0.00000000000E+00 -0.15560692997E+04  0.40528287026E+04  0.37422010671E+04 0.  0.
        2    1    3    3  502    0  0.15911773980E+04  0.60539235389E+02 -0.18421991692E+04  0.24349965688E+04  0.25500000920E-02 0. -1.
       -2    1    3    3    0  502 -0.15911773980E+04 -0.60539235389E+02  0.28612986942E+03  0.16178321338E+04  0.25500000920E-02 0.  1.
</event>
<event>
 5   0  0.5177000E-08  0.3714622E+04  0.7818609E-02  0.8064729E-01
       -1   -1    0    0    0  501  0.00000000000E+00  0.00000000000E+00  0.17704891118E+04  0.17704891118E+04  0.50400001928E-02 0.  1.
        1   -1    0    0  501    0  0.00000000000E+00  0.00000000000E+00 -0.19483907094E+04  0.19483907095E+04  0.50400001928E-02 0. -1.
    10030    2    1    2    0    0  0.00000000000E+00  0.00000000000E+00 -0.17790159769E+03  0.37188798212E+04  0.37146222077E+04 0.  0.
        4    1    3    3  502    0 -0.43577325982E+03 -0.62901440765E+03  0.16053380289E+04  0.17783895127E+04  0.12699999809E+01 0.  1.
       -4    1    3    3    0  502  0.43577325982E+03  0.62901440765E+03 -0.17832396265E+04  0.19404903085E+04  0.12699999809E+01 0. -1.
</event>
<event>
 5   0  0.5177000E-08  0.3692425E+04  0.7818609E-02  0.8069643E-01
       -1   -1    0    0    0  501  0.00000000000E+00  0.00000000000E+00  0.12155059003E+04  0.12155059003E+04  0.50400001928E-02 0. -1.
        1   -1    0    0  501    0  0.00000000000E+00  0.00000000000E+00 -0.28041826400E+04  0.28041826400E+04  0.50400001928E-02 0.  1.
    10030    2    1    2    0    0  0.00000000000E+00  0.00000000000E+00 -0.15886767397E+04  0.40196885403E+04  0.36924249726E+04 0.  0.
        1    1    3    3  502    0  0.17253244403E+04  0.39448213702E+03 -0.13664033413E+04  0.22359379848E+04  0.50400001928E-02 0. -1.
       -1    1    3    3    0  502 -0.17253244403E+04 -0.39448213702E+03 -0.22227339836E+03  0.17837505555E+04  0.50400001928E-02 0.  1.
</event>
<event>
 5   0  0.1686284E-07  0.3682386E+04  0.7818609E-02  0.8071876E-01
        2   -1    0    0  501    0  0.00000000000E+00  0.00000000000E+00  0.21582462147E+04  0.21582462147E+04  0.25500000920E-02 0. -1.
       -2   -1    0    0    0  501  0.00000000000E+00  0.00000000000E+00 -0.15707161834E+04  0.15707161834E+04  0.25500000920E-02 0.  1.
    10030    2    1    2    0    0  0.00000000000E+00  0.00000000000E+00  0.58753003132E+03  0.37289623982E+04  0.36823863226E+04 0.  0.
        5    1    3    3  502    0 -0.51053384777E+03 -0.16036238097E+04  0.10500147249E+04  0.19836348316E+04  0.46999998093E+01 0. -1.
       -5    1    3    3    0  502  0.51053384777E+03  0.16036238097E+04 -0.46248469355E+03  0.17453275665E+04  0.46999998093E+01 0.  1.
</event>
<event>
 5   0  0.5177000E-08  0.3725794E+04  0.7818609E-02  0.8062269E-01
        1   -1    0    0  501    0  0.00000000000E+00  0.00000000000E+00  0.19293643951E+04  0.19293643951E+04  0.50400001928E-02 0. -1.
       -1   -1    0    0    0  501  0.00000000000E+00  0.00000000000E+00 -0.17987196260E+04  0.17987196260E+04  0.50400001928E-02 0.  1.
    10030    2    1    2    0    0  0.00000000000E+00  0.00000000000E+00  0.13064476915E+03  0.37280840211E+04  0.37257941990E+04 0.  0.
        3    1    3    3  502    0 -0.11395526770E+03  0.17927202695E+04 -0.42849264854E+03  0.18467370489E+04  0.10100000352E+00 0.  1.
       -3    1    3    3    0  502  0.11395526770E+03 -0.17927202695E+04  0.55913741768E+03  0.18813469722E+04  0.10100000352E+00 0. -1.
</event>
<event>
 5   0  0.5181371E-08  0.3705335E+04  0.7818609E-02  0.8066781E-01
        1   -1    0    0  501    0  0.00000000000E+00  0.00000000000E+00  0.25732720686E+04  0.25732720686E+04  0.50400001928E-02 0. -1.
       -1   -1    0    0    0  501  0.00000000000E+00  0.00000000000E+00 -0.13338568445E+04  0.13338568445E+04  0.50400001928E-02 0.  1.
    10030    2    1    2    0    0  0.00000000000E+00  0.00000000000E+00  0.12394152241E+04  0.39071289131E+04  0.37053348358E+04 0.  0.
        5    1    3    3  502    0  0.14460726248E+04 -0.26643550550E+03 -0.56872146402E+03  0.15765722655E+04  0.46999998093E+01 0.  1.
       -5    1    3    3    0  502 -0.14460726248E+04  0.26643550550E+03  0.18081366882E+04  0.23305566476E+04  0.46999998093E+01 0. -1.
</event>
<event>
 5   0  0.1658770E-07  0.3674298E+04  0.7818609E-02  0.8073682E-01
       -2   -1    0    0    0  501  0.00000000000E+00  0.00000000000E+00  0.23029658134E+04  0.23029658134E+04  0.25500000920E-02 0. -1.
        2   -1    0    0  501    0  0.00000000000E+00  0.00000000000E+00 -0.14655519972E+04  0.14655519972E+04  0.25500000920E-02 0.  1.
    10030    2    1    2    0    0  0.00000000000E+00  0.00000000000E+00  0.83741381626E+03  0.37685178106E+04  0.36742978362E+04 0.  0.
        2    1    3    3  502    0 -0.78807483296E+03 -0.37355600839E+03  0.20771148856E+04  0.22527787911E+04  0.25500000920E-02 0. -1.
       -2    1    3    3    0  502  0.78807483296E+03  0.37355600839E+03 -0.12397010694E+04  0.15157390195E+04  0.25500000920E-02 0.  1.
</event>
<event>
 5   0  0.1666189E-07  0.3696556E+04  0.7818609E-02  0.8068726E-01
       -2   -1    0    0    0  501  0.00000000000E+00  0.00000000000E+00  0.13886574552E+04  0.13886574552E+04  0.25500000920E-02 0.  1.
        2   -1    0    0  501    0  0.00000000000E+00  0.00000000000E+00 -0.24600241701E+04  0.24600241701E+04  0.25500000920E-02 0. -1.
    10030    2    1    2    0    0  0.00000000000E+00  0.00000000000E+00 -0.10713667149E+04  0.38486816252E+04  0.36965556420E+04 0.  0.
        4    1    3    3  502    0 -0.96857117778E+03  0.15668183082E+04 -0.37751178258E+03  0.18803102128E+04  0.12699999809E+01 0.  1.
       -4    1    3    3    0  502  0.96857117778E+03 -0.15668183082E+04 -0.69385493233E+03  0.19683714125E+04  0.12699999809E+01 0. -1.
</event>
<event>
 5   0  0.5177000E-08  0.3568796E+04  0.7818609E-02  0.8097677E-01
        1   -1    0    0  501    0  0.00000000000E+00  0.00000000000E+00  0.15933318152E+04  0.15933318152E+04  0.50400001928E-02 0. -1.
       -1   -1    0    0    0  501  0.00000000000E+00  0.00000000000E+00 -0.19983758746E+04  0.19983758746E+04  0.50400001928E-02 0.  1.
    10030    2    1    2    0    0  0.00000000000E+00  0.00000000000E+00 -0.40504405937E+03  0.35917076898E+04  0.35687957967E+04 0.  0.
        3    1    3    3  502    0 -0.28068565459E+03 -0.34247265396E+03 -0.19422040111E+04  0.19920412612E+04  0.10100000352E+00 0.  1.
       -3    1    3    3    0  502  0.28068565459E+03  0.34247265396E+03  0.15371599517E+04  0.15996664286E+04  0.10100000352E+00 0. -1.
</event>
<event>
 5   0  0.1658770E-07  0.3702944E+04  0.7818609E-02  0.8067310E-01
       -2   -1    0    0    0  501  0.00000000000E+00  0.00000000000E+00  0.19262646238E+04  0.19262646238E+04  0.25500000920E-02 0.  1.
        2   -1    0    0  501    0  0.00000000000E+00  0.00000000000E+00 -0.17795837134E+04  0.17795837134E+04  0.25500000920E-02 0. -1.
    10030    2    1    2    0    0  0.00000000000E+00  0.00000000000E+00  0.14668091039E+03  0.37058483372E+04  0.37029443162E+04 0.  0.
        2    1    3    3  502    0  0.52481192000E+01  0.17283409600E+03 -0.17714852526E+04  0.17799042580E+04  0.25500000920E-02 0. -1.
       -2    1    3    3    0  502 -0.52481192000E+01 -0.17283409600E+03  0.19181661630E+04  0.19259440792E+04  0.25500000920E-02 0.  1.
</event>
<event>
 5   0  0.1666189E-07  0.3705929E+04  0.7818609E-02  0.8066649E-01
       -2   -1    0    0    0  501  0.00000000000E+00  0.00000000000E+00  0.12302269207E+04  0.12302269207E+04  0.25500000920E-02 0. -1.
        2   -1    0    0  501    0  0.00000000000E+00  0.00000000000E+00 -0.27909304439E+04  0.27909304439E+04  0.25500000920E-02 0.  1.
    10030    2    1    2    0    0  0.00000000000E+00  0.00000000000E+00 -0.15607035232E+04  0.40211573647E+04  0.37059291769E+04 0.  0.
        4    1    3    3  502    0  0.33986831388E+03  0.47741431152E+03 -0.26877267916E+04  0.27508747363E+04  0.12699999809E+01 0.  1.
       -4    1    3    3    0  502 -0.33986831388E+03 -0.47741431152E+03  0.11270232684E+04  0.12702826284E+04  0.12699999809E+01 0. -1.
</event>
<event>
 5   0  0.1587026E-07  0.3698750E+04  0.7818609E-02  0.8068239E-01
        2   -1    0    0  501    0  0.00000000000E+00  0.00000000000E+00  0.19354073249E+04  0.19354073249E+04  0.25500000920E-02 0. -1.
       -2   -1    0    0    0  501  0.00000000000E+00  0.00000000000E+00 -0.17671668492E+04  0.17671668492E+04  0.25500000920E-02 0.  1.
    10030    2    1    2    0    0  0.00000000000E+00  0.00000000000E+00  0.16824047566E+03  0.37025741742E+04  0.36987498777E+04 0.  0.
        3    1    3    3  502    0 -0.35031589389E+02  0.12546553408E+04 -0.12755184005E+04  0.17895067579E+04  0.10100000352E+00 0.  1.
       -3    1    3    3    0  502  0.35031589389E+02 -0.12546553408E+04  0.14437588762E+04  0.19130674162E+04  0.10100000352E+00 0. -1.
</event>
<event>
 5   0  0.5181371E-08  0.3690870E+04  0.7818609E-02  0.8069988E-01
        1   -1    0    0  501    0  0.00000000000E+00  0.00000000000E+00  0.20387998169E+04  0.20387998169E+04  0.50400001928E-02 0.  1.
       -1   -1    0    0    0  501  0.00000000000E+00  0.00000000000E+00 -0.16704090554E+04  0.16704090554E+04  0.50400001928E-02 0. -1.
    10030    2    1    2    0    0  0.00000000000E+00  0.00000000000E+00  0.36839076154E+03  0.37092088723E+04  0.36908696408E+04 0.  0.
        5    1    3    3  502    0 -0.16027430966E+04  0.68701016065E+03  0.79121583584E+03  0.19148924209E+04  0.46999998093E+01 0.  1.
       -5    1    3    3    0  502  0.16027430966E+04 -0.68701016065E+03 -0.42282507429E+03  0.17943164515E+04  0.46999998093E+01 0. -1.
</event>
<event>
 5   0  0.1658770E-07  0.3691595E+04  0.7818609E-02  0.8069827E-01
        2   -1    0    0  501    0  0.00000000000E+00  0.00000000000E+00  0.27419155792E+04  0.27419155792E+04  0.25500000920E-02 0. -1.
       -2   -1    0    0    0  501  0.00000000000E+00  0.00000000000E+00 -0.12425506243E+04  0.12425506243E+04  0.25500000920E-02 0.  1.
    10030    2    1    2    0    0  0.00000000000E+00  0.00000000000E+00  0.14993649549E+04  0.39844662035E+04  0.36915952729E+04 0.  0.
        2    1    3    3  502    0  0.29511532091E+03 -0.12140422676E+04 -0.71677419739E+03  0.14404016559E+04  0.25500000920E-02 0.  1.
       -2    1    3    3    0  502 -0.29511532091E+03  0.12140422676E+04  0.22161391523E+04  0.25440645477E+04  0.25500000920E-02 0. -1.
</event>
<event>
 5   0  0.5177000E-08  0.3713993E+04  0.7818609E-02  0.8064868E-01
       -3   -1    0    0    0  501  0.00000000000E+00  0.00000000000E+00  0.21182915357E+04  0.21182915381E+04  0.10100000352E+00 0.  1.
        3   -1    0    0  501    0  0.00000000000E+00  0.00000000000E+00 -0.16279326396E+04  0.16279326427E+04  0.10100000352E+00 0. -1.
    10030    2    1    2    0    0  0.00000000000E+00  0.00000000000E+00  0.49035889610E+03  0.37462241809E+04  0.37139929680E+04 0.  0.
        5    1    3    3  502    0  0.82937927745E+02  0.17968345664E+04 -0.22025831973E+03  0.18121890012E+04  0.46999998093E+01 0.  1.
       -5    1    3    3    0  502 -0.82937927745E+02 -0.17968345664E+04  0.71061721583E+03  0.19340351797E+04  0.46999998093E+01 0. -1.
</event>
<event>
 5   0  0.5177000E-08  0.3708943E+04  0.7818609E-02  0.8065983E-01
        1   -1    0    0  501    0  0.00000000000E+00  0.00000000000E+00  0.25727387198E+04  0.25727387198E+04  0.50400001928E-02 0.  1.
       -1   -1    0    0    0  501  0.00000000000E+00  0.00000000000E+00 -0.13367328663E+04  0.13367328663E+04  0.50400001928E-02 0. -1.
    10030    2    1    2    0    0  0.00000000000E+00  0.00000000000E+00  0.12360058536E+04  0.39094715861E+04  0.37089429239E+04 0.  0.
        4    1    3    3  502    0 -0.26067803928E+03  0.16772457994E+04  0.14053532233E+04  0.22036619085E+04  0.12699999809E+01 0.  1.
       -4    1    3    3    0  502  0.26067803928E+03 -0.16772457994E+04 -0.16934736972E+03  0.17058096776E+04  0.12699999809E+01 0. -1.
</event>
<event>
 5   0  0.1658770E-07  0.3700003E+04  0.7818609E-02  0.8067961E-01
        2   -1    0    0  501    0  0.00000000000E+00  0.00000000000E+00  0.17556469587E+04  0.17556469587E+04  0.25500000920E-02 0. -1.
       -2   -1    0    0    0  501  0.00000000000E+00  0.00000000000E+00 -0.19494274942E+04  0.19494274942E+04  0.25500000920E-02 0.  1.
    10030    2    1    2    0    0  0.00000000000E+00  0.00000000000E+00 -0.19378053548E+03  0.37050744528E+04  0.37000034872E+04 0.  0.
        2    1    3    3  502    0  0.17937492140E+04  0.40954145124E+03  0.96366483305E+02  0.18424296301E+04  0.25500000920E-02 0.  1.
       -2    1    3    3    0  502 -0.17937492140E+04 -0.40954145124E+03 -0.29014701879E+03  0.18626448227E+04  0.25500000920E-02 0. -1.
</event>
<event>
 5   0  0.5181371E-08  0.3718444E+04  0.7818609E-02  0.8063887E-01
       -1   -1    0    0    0  501  0.00000000000E+00  0.00000000000E+00  0.18478475151E+04  0.18478475151E+04  0.50400001928E-02 0.  1.
        1   -1    0    0  501    0  0.00000000000E+00  0.00000000000E+00 -0.18706667654E+04  0.18706667654E+04  0.50400001928E-02 0. -1.
    10030    2    1    2    0    0  0.00000000000E+00  0.00000000000E+00 -0.22819250309E+02  0.37185142805E+04  0.37184442629E+04 0.  0.
        5    1    3    3  502    0 -0.10575883327E+04 -0.14286571434E+04 -0.55651669650E+03  0.18626022759E+04  0.46999998093E+01 0. -1.
       -5    1    3    3    0  502  0.10575883327E+04  0.14286571434E+04  0.53369744619E+03  0.18559120046E+04  0.46999998093E+01 0.  1.
</event>
<event>
 5   0  0.5181371E-08  0.3698393E+04  0.7818609E-02  0.8068318E-01
        1   -1    0    0  501    0  0.00000000000E+00  0.00000000000E+00  0.25676443423E+04  0.25676443423E+04  0.50400001928E-02 0.  1.
       -1   -1    0    0    0  501  0.00000000000E+00  0.00000000000E+00 -0.13317765474E+04  0.13317765474E+04  0.50400001928E-02 0. -1.
    10030    2    1    2    0    0  0.00000000000E+00  0.00000000000E+00  0.12358677949E+04  0.38994208897E+04  0.36983934443E+04 0.  0.
        5    1    3    3  502    0  0.18380810391E+03  0.18286344500E+04  0.83354133187E+03  0.20180442544E+04  0.46999998093E+01 0.  1.
       -5    1    3    3    0  502 -0.18380810391E+03 -0.18286344500E+04  0.40232646300E+03  0.18813766353E+04  0.46999998093E+01 0. -1.
</event>
<event>
 5   0  0.5177000E-08  0.3704340E+04  0.7818609E-02  0.8067001E-01
        1   -1    0    0  501    0  0.00000000000E+00  0.00000000000E+00  0.16961066186E+04  0.16961066186E+04  0.50400001928E-02 0.  1.
       -1   -1    0    0    0  501  0.00000000000E+00  0.00000000000E+00 -0.20225931309E+04  0.20225931309E+04  0.50400001928E-02 0. -1.
    10030    2    1    2    0    0  0.00000000000E+00  0.00000000000E+00 -0.32648651229E+03  0.37186997495E+04  0.37043399391E+04 0.  0.
        3    1    3    3  502    0  0.69080192730E+03 -0.16801394789E+04  0.19934605502E+03  0.18275160276E+04  0.10100000352E+00 0.  1.
       -3    1    3    3    0  502 -0.69080192730E+03  0.16801394789E+04 -0.52583256731E+03  0.18911837220E+04  0.10100000352E+00 0. -1.
</event>
<event>
 5   0  0.5177000E-08  0.3685212E+04  0.7818609E-02  0.8071247E-01
       -1   -1    0    0    0  501  0.00000000000E+00  0.00000000000E+00  0.15537492996E+04  0.15537492996E+04  0.50400001928E-02 0. -1.
        1   -1    0    0  501    0  0.00000000000E+00  0.00000000000E+00 -0.21851639555E+04  0.21851639555E+04  0.50400001928E-02 0.  1.
    10030    2    1    2    0    0  0.00000000000E+00  0.00000000000E+00 -0.63141465591E+03  0.37389132551E+04  0.36852120511E+04 0.  0.
        2    1    3    3  502    0 -0.51562974159E+03 -0.93916846387E+03 -0.18366471626E+04  0.21263076527E+04  0.25500000920E-02 0.  1.
       -2    1    3    3    0  502  0.51562974159E+03  0.93916846387E+03  0.12052325067E+04  0.16126056025E+04  0.25500000920E-02 0. -1.
</event>
<event>
 5   0  0.1686284E-07  0.3703869E+04  0.7818609E-02  0.8067105E-01
        2   -1    0    0  501    0  0.00000000000E+00  0.00000000000E+00  0.19525867824E+04  0.19525867824E+04  0.25500000920E-02 0. -1.
       -2   -1    0    0    0  501  0.00000000000E+00  0.00000000000E+00 -0.17564702078E+04  0.17564702078E+04  0.25500000920E-02 0.  1.
    10030    2    1    2    0    0  0.00000000000E+00  0.00000000000E+00  0.19611657466E+03  0.37090569902E+04  0.37038685243E+04 0.  0.
        5    1    3    3  502    0  0.16277337987E+04 -0.94770640493E+00  0.98253969239E+03  0.19012954938E+04  0.46999998093E+01 0. -1.
       -5    1    3    3    0  502 -0.16277337987E+04  0.94770640493E+00 -0.78642311773E+03  0.18077614964E+04  0.46999998093E+01 0.  1.
</event>
<event>
 5   0  0.5177000E-08  0.3708987E+04  0.7818609E-02  0.8065973E-01
        1   -1    0    0  501    0  0.00000000000E+00  0.00000000000E+00  0.16645463659E+04  0.16645463659E+04  0.50400001928E-02 0.  1.
       -1   -1    0    0    0  501  0.00000000000E+00  0.00000000000E+00 -0.20661160137E+04  0.20661160137E+04  0.50400001928E-02 0. -1.
    10030    2    1    2    0    0  0.00000000000E+00  0.00000000000E+00 -0.40156964785E+03  0.37306623796E+04  0.37089868709E+04 0.  0.
        4    1    3    3  502    0  0.55676755315E+03  0.11871865126E+04 -0.15198381299E+04  0.20073144940E+04  0.12699999809E+01 0. -1.
       -4    1    3    3    0  502 -0.55676755315E+03 -0.11871865126E+04  0.11182684820E+04  0.17233478856E+04  0.12699999809E+01 0.  1.
</event>
<event>
 5   0  0.5181371E-08  0.3694439E+04  0.7818609E-02  0.8069195E-01
       -1   -1    0    0    0  501  0.00000000000E+00  0.00000000000E+00  0.17030753070E+04  0.17030753070E+04  0.50400001928E-02 0. -1.
        1   -1    0    0  501    0  0.00000000000E+00  0.00000000000E+00 -0.20035639939E+04  0.20035639939E+04  0.50400001928E-02 0.  1.
    10030    2    1    2    0    0  0.00000000000E+00  0.00000000000E+00 -0.30048868695E+03  0.37066393009E+04  0.36944392614E+04 0.  0.
        5    1    3    3  502    0 -0.70196559417E+03 -0.14165111004E+04 -0.11088779439E+04  0.19310338623E+04  0.46999998093E+01 0.  1.
       -5    1    3    3    0  502  0.70196559417E+03  0.14165111004E+04  0.80838925694E+03  0.17756054386E+04  0.46999998093E+01 0. -1.
</event>
<event>
 5   0  0.1658770E-07  0.3692545E+04  0.7818609E-02  0.8069616E-01
        2   -1    0    0  501    0  0.00000000000E+00  0.00000000000E+00  0.26118395497E+04  0.26118395497E+04  0.25500000920E-02 0.  1.
       -2   -1    0    0    0  501  0.00000000000E+00  0.00000000000E+00 -0.13051039530E+04  0.13051039530E+04  0.25500000920E-02 0. -1.
    10030    2    1    2    0    0  0.00000000000E+00  0.00000000000E+00  0.13067355967E+04  0.39169435027E+04  0.36925449874E+04 0.  0.
        2    1    3    3  502    0  0.57253811820E+03  0.40139744965E+03 -0.11592165948E+04  0.13537735864E+04  0.25500000920E-02 0. -1.
       -2    1    3    3    0  502 -0.57253811820E+03 -0.40139744965E+03  0.24659521915E+04  0.25631699164E+04  0.25500000920E-02 0.  1.
</event>
<event>
 5   0  0.5177000E-08  0.3716770E+04  0.7818609E-02  0.8064256E-01
       -1   -1    0    0    0  501  0.00000000000E+00  0.00000000000E+00  0.14148878139E+04  0.14148878139E+04  0.50400001928E-02 0.  1.
        1   -1    0    0  501    0  0.00000000000E+00  0.00000000000E+00 -0.24408966824E+04  0.24408966824E+04  0.50400001928E-02 0. -1.
    10030    2    1    2    0    0  0.00000000000E+00  0.00000000000E+00 -0.10260088685E+04  0.38557844963E+04  0.37167700876E+04 0.  0.
        2    1    3    3  502    0 -0.86326897141E+03 -0.77624376076E+03  0.99241100800E+03  0.15273072061E+04  0.25500000920E-02 0.  1.
       -2    1    3    3    0  502  0.86326897141E+03  0.77624376076E+03 -0.20184198765E+04  0.23284772902E+04  0.25500000920E-02 0. -1.
</event>
<event>
 5   0  0.1686284E-07  0.3688901E+04  0.7818609E-02  0.8070426E-01
       -2   -1    0    0    0  501  0.00000000000E+00  0.00000000000E+00  0.13641509727E+04  0.13641509727E+04  0.25500000920E-02 0. -1.
        2   -1    0    0  501    0  0.00000000000E+00  0.00000000000E+00 -0.24938572459E+04  0.24938572459E+04  0.25500000920E-02 0.  1.
    10030    2    1    2    0    0  0.00000000000E+00  0.00000000000E+00 -0.11297062732E+04  0.38580082186E+04  0.36889010763E+04 0.  0.
        5    1    3    3  502    0 -0.20915287823E+03 -0.38235549261E+03 -0.24392272476E+04  0.24778604288E+04  0.46999998093E+01 0.  1.
       -5    1    3    3    0  502  0.20915287823E+03  0.38235549261E+03  0.13095209744E+04  0.13801477898E+04  0.46999998093E+01 0. -1.
</event>
<event>
 5   0  0.5177000E-08  0.3704938E+04  0.7818609E-02  0.8066868E-01
        1   -1    0    0  501    0  0.00000000000E+00  0.00000000000E+00  0.12539688086E+04  0.12539688086E+04  0.50400001928E-02 0. -1.
       -1   -1    0    0    0  501  0.00000000000E+00  0.00000000000E+00 -0.27366235174E+04  0.27366235174E+04  0.50400001928E-02 0.  1.
    10030    2    1    2    0    0  0.00000000000E+00  0.00000000000E+00 -0.14826547088E+04  0.39905923260E+04  0.37049375335E+04 0.  0.
        1    1    3    3  502    0 -0.44755575405E+03  0.97908529112E+03 -0.23651180505E+04  0.25985953039E+04  0.50400001928E-02 0.  1.
       -1    1    3    3    0  502  0.44755575405E+03 -0.97908529112E+03  0.88246334168E+03  0.13919970222E+04  0.50400001928E-02 0. -1.
</event>
<event>
 5   0  0.1587026E-07  0.3689793E+04  0.7818609E-02  0.8070227E-01
       -2   -1    0    0    0  501  0.00000000000E+00  0.00000000000E+00  0.17958614091E+04  0.17958614091E+04  0.25500000920E-02 0. -1.
        2   -1    0    0  501    0  0.00000000000E+00  0.00000000000E+00 -0.18952708910E+04  0.18952708910E+04  0.25500000920E-02 0.  1.
    10030    2    1    2    0    0  0.00000000000E+00  0.00000000000E+00 -0.99409481911E+02  0.36911323001E+04  0.36897934105E+04 0.  0.
        3    1    3    3  502    0  0.29172948277E+03  0.12372652237E+04 -0.13872435788E+04  0.18815887123E+04  0.10100000352E+00 0.  1.
       -3    1    3    3    0  502 -0.29172948277E+03 -0.12372652237E+04  0.12878340969E+04  0.18095435878E+04  0.10100000352E+00 0. -1.
</event>
<event>
 5   0  0.1686284E-07  0.3693871E+04  0.7818609E-02  0.8069321E-01
        2   -1    0    0  501    0  0.00000000000E+00  0.00000000000E+00  0.23315337640E+04  0.23315337640E+04  0.25500000920E-02 0. -1.
       -2   -1    0    0    0  501  0.00000000000E+00  0.00000000000E+00 -0.14630587558E+04  0.14630587558E+04  0.25500000920E-02 0.  1.
    10030    2    1    2    0    0  0.00000000000E+00  0.00000000000E+00  0.86847500824E+03  0.37945925198E+04  0.36938710794E+04 0.  0.
        5    1    3    3  502    0  0.85474138138E+02  0.13823068988E+04  0.16894682988E+04  0.21845831212E+04  0.46999998093E+01 0. -1.
       -5    1    3    3    0  502 -0.85474138138E+02 -0.13823068988E+04 -0.82099329054E+03  0.16100093987E+04  0.46999998093E+01 0.  1.
</event>
<event>
 5   0  0.5177000E-08  0.3709368E+04  0.7818609E-02  0.8065889E-01
        1   -1    0    0  501    0  0.00000000000E+00  0.00000000000E+00  0.26579470109E+04  0.26579470109E+04  0.50400001928E-02 0.  1.
       -1   -1    0    0    0  501  0.00000000000E+00  0.00000000000E+00 -0.12941767303E+04  0.12941767303E+04  0.50400001928E-02 0. -1.
    10030    2    1    2    0    0  0.00000000000E+00  0.00000000000E+00  0.13637702806E+04  0.39521237412E+04  0.37093682330E+04 0.  0.
        1    1    3    3  502    0 -0.62673282635E+03 -0.78025329965E+03 -0.98179925118E+03  0.14019696919E+04  0.50400001928E-02 0. -1.
       -1    1    3    3    0  502  0.62673282635E+03  0.78025329965E+03  0.23455695318E+04  0.25501540494E+04  0.50400001928E-02 0.  1.
</event>
<event>
 5   0  0.1658770E-07  0.3693863E+04  0.7818609E-02  0.8069323E-01
        2   -1    0    0  501    0  0.00000000000E+00  0.00000000000E+00  0.15408632100E+04  0.15408632100E+04  0.25500000920E-02 0. -1.
       -2   -1    0    0    0  501  0.00000000000E+00  0.00000000000E+00 -0.22137951118E+04  0.22137951118E+04  0.25500000920E-02 0.  1.
    10030    2    1    2    0    0  0.00000000000E+00  0.00000000000E+00 -0.67293190181E+03  0.37546583218E+04  0.36938627166E+04 0.  0.
        2    1    3    3  502    0 -0.24810404534E+03  0.65837510888E+03 -0.20722432654E+04  0.21884253591E+04  0.25500000920E-02 0.  1.
       -2    1    3    3    0  502  0.24810404534E+03 -0.65837510888E+03  0.13993113636E+04  0.15662329627E+04  0.25500000920E-02 0. -1.
</event>
<event>
 5   0  0.1686284E-07  0.3701227E+04  0.7818609E-02  0.8067690E-01
       -2   -1    0    0    0  501  0.00000000000E+00  0.00000000000E+00  0.27344691858E+04  0.27344691858E+04  0.25500000920E-02 0.  1.
        2   -1    0    0  501    0  0.00000000000E+00  0.00000000000E+00 -0.12524439913E+04  0.12524439913E+04  0.25500000920E-02 0. -1.
    10030    2    1    2    0    0  0.00000000000E+00  0.00000000000E+00  0.14820251946E+04  0.39869131771E+04  0.37012265540E+04 0.  0.
        5    1    3    3  502    0  0.55644524611E+03 -0.68764615332E+02  0.26407709369E+04  0.26996394418E+04  0.46999998093E+01 0.  1.
       -5    1    3    3    0  502 -0.55644524611E+03  0.68764615332E+02 -0.11587457424E+04  0.12872737353E+04  0.46999998093E+01 0. -1.
</event>
<event>
 5   0  0.5177000E-08  0.3685538E+04  0.7818609E-02  0.8071174E-01
       -1   -1    0    0    0  501  0.00000000000E+00  0.00000000000E+00  0.23022948260E+04  0.23022948260E+04  0.50400001928E-02 0.  1.
        1   -1    0    0  501    0  0.00000000000E+00  0.00000000000E+00 -0.14749616939E+04  0.14749616939E+04  0.50400001928E-02 0. -1.
    10030    2    1    2    0    0  0.00000000000E+00  0.00000000000E+00  0.82733313211E+03  0.37772565199E+04  0.36855375056E+04 0.  0.
        2    1    3    3  502    0  0.25650782753E+03  0.11962844025E+04 -0.99863406612E+03  0.15792918145E+04  0.25500000920E-02 0. -1.
       -2    1    3    3    0  502 -0.25650782753E+03 -0.11962844025E+04  0.18259671982E+04  0.21979647054E+04  0.25500000920E-02 0.  1.
</event>
<event>
 5   0  0.1686284E-07  0.3821917E+04  0.7818609E-02  0.8041468E-01
        2   -1    0    0  501    0  0.00000000000E+00  0.00000000000E+00  0.25005179464E+04  0.25005179464E+04  0.25500000920E-02 0. -1.
       -2   -1    0    0    0  501  0.00000000000E+00  0.00000000000E+00 -0.14604027377E+04  0.14604027377E+04  0.25500000920E-02 0.  1.
    10030    2    1    2    0    0  0.00000000000E+00  0.00000000000E+00  0.10401152087E+04  0.39609206841E+04  0.38219174531E+04 0.  0.
        5    1    3    3  502    0 -0.58945280992E+03  0.26779129941E+03  0.23833847274E+04  0.24697594303E+04  0.46999998093E+01 0. -1.
       -5    1    3    3    0  502  0.58945280992E+03 -0.26779129941E+03 -0.13432695186E+04  0.14911612538E+04  0.46999998093E+01 0.  1.
</event>
<event>
 5   0  0.5177000E-08  0.3688523E+04  0.7818609E-02  0.8070510E-01
       -1   -1    0    0    0  501  0.00000000000E+00  0.00000000000E+00  0.17555901693E+04  0.17555901693E+04  0.50400001928E-02 0.  1.
        1   -1    0    0  501    0  0.00000000000E+00  0.00000000000E+00 -0.19374115728E+04  0.19374115728E+04  0.50400001928E-02 0. -1.
    10030    2    1    2    0    0  0.00000000000E+00  0.00000000000E+00 -0.18182140357E+03  0.36930017421E+04  0.36885231251E+04 0.  0.
        4    1    3    3  502    0 -0.27900750306E+03  0.10819510108E+03  0.17311197272E+04  0.17567949480E+04  0.12699999809E+01 0.  1.
       -4    1    3    3    0  502  0.27900750306E+03 -0.10819510108E+03 -0.19129411308E+04  0.19362067941E+04  0.12699999809E+01 0. -1.
</event>
<event>
 5   0  0.5181371E-08  0.3684693E+04  0.7818609E-02  0.8071362E-01
       -1   -1    0    0    0  501  0.00000000000E+00  0.00000000000E+00  0.15528667385E+04  0.15528667385E+04  0.50400001928E-02 0.  1.
        1   -1    0    0  501    0  0.00000000000E+00  0.00000000000E+00 -0.21857904908E+04  0.21857904908E+04  0.50400001928E-02 0. -1.
    10030    2    1    2    0    0  0.00000000000E+00  0.00000000000E+00 -0.63292375230E+03  0.37386572293E+04  0.36846933932E+04 0.  0.
        5    1    3    3  502    0 -0.10810926539E+04 -0.13090533535E+03  0.11913441223E+04  0.16140695279E+04  0.46999998093E+01 0.  1.
       -5    1    3    3    0  502  0.10810926539E+04  0.13090533535E+03 -0.18242678746E+04  0.21245877015E+04  0.46999998093E+01 0. -1.
</event>
<event>
 5   0  0.5181371E-08  0.3703110E+04  0.7818609E-02  0.8067273E-01
       -1   -1    0    0    0  501  0.00000000000E+00  0.00000000000E+00  0.20761233671E+04  0.20761233671E+04  0.50400001928E-02 0.  1.
        1   -1    0    0  501    0  0.00000000000E+00  0.00000000000E+00 -0.16512778008E+04  0.16512778008E+04  0.50400001928E-02 0. -1.
    10030    2    1    2    0    0  0.00000000000E+00  0.00000000000E+00  0.42484556630E+03  0.37274011679E+04  0.37031102754E+04 0.  0.
        5    1    3    3  502    0  0.16993961783E+03  0.21962499342E+03  0.20550371963E+04  0.20737199858E+04  0.46999998093E+01 0.  1.
       -5    1    3    3    0  502 -0.16993961783E+03 -0.21962499342E+03 -0.16301916300E+04  0.16536811821E+04  0.46999998093E+01 0. -1.
</event>
<event>
 5   0  0.1587026E-07  0.3543826E+04  0.7818609E-02  0.8103482E-01
       -2   -1    0    0    0  501  0.00000000000E+00  0.00000000000E+00  0.92751378354E+03  0.92751378354E+03  0.25500000920E-02 0. -1.
        2   -1    0    0  501    0  0.00000000000E+00  0.00000000000E+00 -0.33850441440E+04  0.33850441440E+04  0.25500000920E-02 0.  1.
    10030    2    1    2    0    0  0.00000000000E+00  0.00000000000E+00 -0.24575303605E+04  0.43125579276E+04  0.35438256738E+04 0.  0.
        3    1    3    3  502    0 -0.14858002399E+04 -0.18273054203E+03 -0.23823928993E+04  0.28136788624E+04  0.10100000352E+00 0.  1.
       -3    1    3    3    0  502  0.14858002399E+04  0.18273054203E+03 -0.75137461244E+02  0.14988790652E+04  0.10100000352E+00 0. -1.
</event>
<event>
 5   0  0.5181371E-08  0.3705903E+04  0.7818609E-02  0.8066655E-01
        1   -1    0    0  501    0  0.00000000000E+00  0.00000000000E+00  0.14127540900E+04  0.14127540900E+04  0.50400001928E-02 0.  1.
       -1   -1    0    0    0  501  0.00000000000E+00  0.00000000000E+00 -0.24303085486E+04  0.24303085486E+04  0.50400001928E-02 0. -1.
    10030    2    1    2    0    0  0.00000000000E+00  0.00000000000E+00 -0.10175544586E+04  0.38430626387E+04  0.37059025039E+04 0.  0.
        5    1    3    3  502    0  0.51946876874E+02  0.17806748091E+04  0.19900224309E+02  0.17815497081E+04  0.46999998093E+01 0. -1.
       -5    1    3    3    0  502 -0.51946876874E+02 -0.17806748091E+04 -0.10374546829E+04  0.20615129305E+04  0.46999998093E+01 0.  1.
</event>
<event>
 5   0  0.5181371E-08  0.3687860E+04  0.7818609E-02  0.8070657E-01
       -1   -1    0    0    0  501  0.00000000000E+00  0.00000000000E+00  0.22232390955E+04  0.22232390955E+04  0.50400001928E-02 0.  1.
        1   -1    0    0  501    0  0.00000000000E+00  0.00000000000E+00 -0.15293356029E+04  0.15293356029E+04  0.50400001928E-02 0. -1.
    10030    2    1    2    0    0  0.00000000000E+00  0.00000000000E+00  0.69390349258E+03  0.37525746985E+04  0.36878604652E+04 0.  0.
        5    1    3    3  502    0 -0.11864234614E+04 -0.73092248892E+03  0.15757049072E+04  0.21035009768E+04  0.46999998093E+01 0.  1.
       -5    1    3    3    0  502  0.11864234614E+04  0.73092248892E+03 -0.88180141464E+03  0.16490737217E+04  0.46999998093E+01 0. -1.
</event>
<event>
 5   0  0.1587026E-07  0.3692574E+04  0.7818609E-02  0.8069610E-01
        2   -1    0    0  501    0  0.00000000000E+00  0.00000000000E+00  0.21261458263E+04  0.21261458263E+04  0.25500000920E-02 0.  1.
       -2   -1    0    0    0  501  0.00000000000E+00  0.00000000000E+00 -0.16032648647E+04  0.16032648647E+04  0.25500000920E-02 0. -1.
    10030    2    1    2    0    0  0.00000000000E+00  0.00000000000E+00  0.52288096164E+03  0.37294106909E+04  0.36925735743E+04 0.  0.
        3    1    3    3  502    0 -0.85542942360E+03  0.13726499328E+04 -0.63786222324E+03  0.17386188665E+04  0.10100000352E+00 0. -1.
       -3    1    3    3    0  502  0.85542942360E+03 -0.13726499328E+04  0.11607431849E+04  0.19907918245E+04  0.10100000352E+00 0.  1.
</event>
<event>
 5   0  0.1558258E-07  0.3698346E+04  0.7818609E-02  0.8068328E-01
        2   -1    0    0  501    0  0.00000000000E+00  0.00000000000E+00  0.12464965989E+04  0.12464965990E+04  0.25500000920E-02 0.  1.
       -2   -1    0    0    0  501  0.00000000000E+00  0.00000000000E+00 -0.27432413065E+04  0.27432413065E+04  0.25500000920E-02 0. -1.
    10030    2    1    2    0    0  0.00000000000E+00  0.00000000000E+00 -0.14967447075E+04  0.39897379054E+04  0.36983460945E+04 0.  0.
        1    1    3    3  502    0 -0.15783634249E+04  0.95724011423E+03 -0.63068424627E+03  0.19507184205E+04  0.50400001928E-02 0.  1.
       -1    1    3    3    0  502  0.15783634249E+04 -0.95724011423E+03 -0.86606046126E+03  0.20390194850E+04  0.50400001928E-02 0. -1.
</event>
<event>
 5   0  0.1666189E-07  0.3706913E+04  0.7818609E-02  0.8066432E-01
       -2   -1    0    0    0  501  0.00000000000E+00  0.00000000000E+00  0.32732523873E+04  0.32732523873E+04  0.25500000920E-02 0. -1.
        2   -1    0    0  501    0  0.00000000000E+00  0.00000000000E+00 -0.10495070181E+04  0.10495070181E+04  0.25500000920E-02 0.  1.
    10030    2    1    2    0    0  0.00000000000E+00  0.00000000000E+00  0.22237453692E+04  0.43227594054E+04  0.37069131915E+04 0.  0.
        4    1    3    3  502    0 -0.47996167621E+03 -0.13022714176E+04  0.25443803822E+04  0.28983007432E+04  0.12699999809E+01 0. -1.
       -4    1    3    3    0  502  0.47996167621E+03  0.13022714176E+04 -0.32063501301E+03  0.14244586621E+04  0.12699999809E+01 0.  1.
</event>
<event>
 5   0  0.5177000E-08  0.3692189E+04  0.7818609E-02  0.8069695E-01
        1   -1    0    0  501    0  0.00000000000E+00  0.00000000000E+00  0.18694632858E+04  0.18694632859E+04  0.50400001928E-02 0.  1.
       -1   -1    0    0    0  501  0.00000000000E+00  0.00000000000E+00 -0.18230177094E+04  0.18230177094E+04  0.50400001928E-02 0. -1.
    10030    2    1    2    0    0  0.00000000000E+00  0.00000000000E+00  0.46445576425E+02  0.36924809953E+04  0.36921888778E+04 0.  0.
        2    1    3    3  502    0  0.15324104901E+04 -0.32610672769E+02 -0.10057994879E+04  0.18332970234E+04  0.25500000920E-02 0. -1.
       -2    1    3    3    0  502 -0.15324104901E+04  0.32610672769E+02  0.10522450643E+04  0.18591839719E+04  0.25500000920E-02 0.  1.
</event>
<event>
 5   0  0.1686284E-07  0.3704030E+04  0.7818609E-02  0.8067069E-01
       -2   -1    0    0    0  501  0.00000000000E+00  0.00000000000E+00  0.12887476978E+04  0.12887476978E+04  0.25500000920E-02 0. -1.
        2   -1    0    0  501    0  0.00000000000E+00  0.00000000000E+00 -0.26614664709E+04  0.26614664709E+04  0.25500000920E-02 0.  1.
    10030    2    1    2    0    0  0.00000000000E+00  0.00000000000E+00 -0.13727187731E+04  0.39502141687E+04  0.37040295825E+04 0.  0.
        5    1    3    3  502    0 -0.18538736159E+03 -0.14776818761E+04 -0.18604507531E+04  0.23831095853E+04  0.46999998093E+01 0.  1.
       -5    1    3    3    0  502  0.18538736159E+03  0.14776818761E+04  0.48773198000E+03  0.15671045834E+04  0.46999998093E+01 0. -1.
</event>
<event>
 5   0  0.5177000E-08  0.3711148E+04  0.7818609E-02  0.8065496E-01
       -1   -1    0    0    0  501  0.00000000000E+00  0.00000000000E+00  0.17072538346E+04  0.17072538346E+04  0.50400001928E-02 0.  1.
        1   -1    0    0  501    0  0.00000000000E+00  0.00000000000E+00 -0.20167799364E+04  0.20167799364E+04  0.50400001928E-02 0. -1.
    10030    2    1    2    0    0  0.00000000000E+00  0.00000000000E+00 -0.30952610177E+03  0.37240337710E+04  0.37111482212E+04 0.  0.
        4    1    3    3  502    0  0.12938106985E+03 -0.17267998718E+04 -0.82384377315E+03  0.19176280750E+04  0.12699999809E+01 0.  1.
       -4    1    3    3    0  502 -0.12938106985E+03  0.17267998718E+04  0.51431767138E+03  0.18064056960E+04  0.12699999809E+01 0. -1.
</event>
<event>
 5   0  0.1558258E-07  0.3692485E+04  0.7818609E-02  0.8069629E-01
       -2   -1    0    0    0  501  0.00000000000E+00  0.00000000000E+00  0.19916157579E+04  0.19916157579E+04  0.25500000920E-02 0.  1.
        2   -1    0    0  501    0  0.00000000000E+00  0.00000000000E+00 -0.17114804324E+04  0.17114804324E+04  0.25500000920E-02 0. -1.
    10030    2    1    2    0    0  0.00000000000E+00  0.00000000000E+00  0.28013532543E+03  0.37030961903E+04  0.36924850161E+04 0.  0.
        1    1    3    3  502    0 -0.11434563360E+03  0.66059720678E+03  0.18652284601E+04  0.19820546919E+04  0.50400001928E-02 0.  1.
       -1    1    3    3    0  502  0.11434563360E+03 -0.66059720678E+03 -0.15850931347E+04  0.17210414984E+04  0.50400001928E-02 0. -1.
</event>
<event>
 5   0  0.1686284E-07  0.3708096E+04  0.7818609E-02  0.8066170E-01
       -2   -1    0    0    0  501  0.00000000000E+00  0.00000000000E+00  0.12426394804E+04  0.12426394804E+04  0.25500000920E-02 0. -1.
        2   -1    0    0  501    0  0.00000000000E+00  0.00000000000E+00 -0.27662847688E+04  0.27662847688E+04  0.25500000920E-02 0.  1.
    10030    2    1    2    0    0  0.00000000000E+00  0.00000000000E+00 -0.15236452884E+04  0.40089242492E+04  0.37080963675E+04 0.  0.
        5    1    3    3  502    0 -0.33870822229E+03 -0.11852022302E+04  0.73546842070E+03  0.14353966261E+04  0.46999998093E+01 0. -1.
       -5    1    3    3    0  502  0.33870822229E+03  0.11852022302E+04 -0.22591137091E+04  0.25735276231E+04  0.46999998093E+01 0.  1.
</event>
<event>
 5   0  0.1658770E-07  0.3698475E+04  0.7818609E-02  0.8068300E-01
        2   -1    0    0  501    0  0.00000000000E+00  0.00000000000E+00  0.30951881515E+04  0.30951881515E+04  0.25500000920E-02 0.  1.
       -2   -1    0    0    0  501  0.00000000000E+00  0.00000000000E+00 -0.11048375903E+04  0.11048375903E+04  0.25500000920E-02 0. -1.
    10030    2    1    2    0    0  0.00000000000E+00  0.00000000000E+00  0.19903505612E+04  0.42000257418E+04  0.36984754799E+04 0.  0.
        2    1    3    3  502    0 -0.44607722629E+03  0.15012298036E+04 -0.12154250833E+03  0.15708113815E+04  0.25500000920E-02 0. -1.
       -2    1    3    3    0  502  0.44607722629E+03 -0.15012298036E+04  0.21118930695E+04  0.26292143603E+04  0.25500000920E-02 0.  1.
</event>
<event>
 5   0  0.5177000E-08  0.3763079E+04  0.7818609E-02  0.8054125E-01
        1   -1    0    0  501    0  0.00000000000E+00  0.00000000000E+00  0.20279331911E+04  0.20279331911E+04  0.50400001928E-02 0.  1.
       -1   -1    0    0    0  501  0.00000000000E+00  0.00000000000E+00 -0.17457137129E+04  0.17457137129E+04  0.50400001928E-02 0. -1.
    10030    2    1    2    0    0  0.00000000000E+00  0.00000000000E+00  0.28221947818E+03  0.37736469040E+04  0.37630789418E+04 0.  0.
        1    1    3    3  502    0  0.12477897940E+04  0.67738424081E+03 -0.10970081235E+04  0.17942284143E+04  0.50400001928E-02 0. -1.
       -1    1    3    3    0  502 -0.12477897940E+04 -0.67738424081E+03  0.13792276017E+04  0.19794184896E+04  0.50400001928E-02 0.  1.
</event>
<event>
 5   0  0.5177000E-08  0.3710418E+04  0.7818609E-02  0.8065657E-01
        1   -1    0    0  501    0  0.00000000000E+00  0.00000000000E+00  0.17398002143E+04  0.17398002143E+04  0.50400001928E-02 0. -1.
       -1   -1    0    0    0  501  0.00000000000E+00  0.00000000000E+00 -0.19782732260E+04  0.19782732260E+04  0.50400001928E-02 0.  1.
    10030    2    1    2    0    0  0.00000000000E+00  0.00000000000E+00 -0.23847301169E+03  0.37180734403E+04  0.37104178647E+04 0.  0.
        4    1    3    3  502    0  0.90995295280E+03  0.67465678480E+03  0.13530200024E+04  0.17646078582E+04  0.12699999809E+01 0. -1.
       -4    1    3    3    0  502 -0.90995295280E+03 -0.67465678480E+03 -0.15914930141E+04  0.19534655821E+04  0.12699999809E+01 0.  1.
</event>
<event>
 5   0  0.1658770E-07  0.3705099E+04  0.7818609E-02  0.8066833E-01
       -2   -1    0    0    0  501  0.00000000000E+00  0.00000000000E+00  0.18250394646E+04  0.18250394646E+04  0.25500000920E-02 0.  1.
        2   -1    0    0  501    0  0.00000000000E+00  0.00000000000E+00 -0.18804747194E+04  0.18804747194E+04  0.25500000920E-02 0. -1.
    10030    2    1    2    0    0  0.00000000000E+00  0.00000000000E+00 -0.55435254756E+02  0.37055141840E+04  0.37050994993E+04 0.  0.
        2    1    3    3  502    0 -0.14076536654E+04 -0.34027496672E+03  0.11276885590E+04  0.18354719777E+04  0.25500000920E-02 0.  1.
       -2    1    3    3    0  502  0.14076536654E+04  0.34027496672E+03 -0.11831238138E+04  0.18700422063E+04  0.25500000920E-02 0. -1.
</event>
<event>
 5   0  0.1686284E-07  0.3713236E+04  0.7818609E-02  0.8065035E-01
        2   -1    0    0  501    0  0.00000000000E+00  0.00000000000E+00  0.22608763916E+04  0.22608763916E+04  0.25500000920E-02 0.  1.
       -2   -1    0    0    0  501  0.00000000000E+00  0.00000000000E+00 -0.15246431835E+04  0.15246431835E+04  0.25500000920E-02 0. -1.
    10030    2    1    2    0    0  0.00000000000E+00  0.00000000000E+00  0.73623320814E+03  0.37855195751E+04  0.37132356667E+04 0.  0.
        5    1    3    3  502    0 -0.18225199288E+04 -0.35394743618E+03  0.38060290515E+03  0.18951882070E+04  0.46999998093E+01 0.  1.
       -5    1    3    3    0  502  0.18225199288E+04  0.35394743618E+03  0.35563030298E+03  0.18903313680E+04  0.46999998093E+01 0. -1.
</event>
<event>
 5   0  0.5177000E-08  0.3692233E+04  0.7818609E-02  0.8069685E-01
       -1   -1    0    0    0  501  0.00000000000E+00  0.00000000000E+00  0.14020319775E+04  0.14020319775E+04  0.50400001928E-02 0.  1.
        1   -1    0    0  501    0  0.00000000000E+00  0.00000000000E+00 -0.24308615544E+04  0.24308615544E+04  0.50400001928E-02 0. -1.
    10030    2    1    2    0    0  0.00000000000E+00  0.00000000000E+00 -0.10288295769E+04  0.38328935320E+04  0.36922327295E+04 0.  0.
        1    1    3    3  502    0  0.89644334395E+03  0.89693548959E+03 -0.19071833981E+04  0.22902952769E+04  0.50400001928E-02 0. -1.
       -1    1    3    3    0  502 -0.89644334395E+03 -0.89693548959E+03  0.87835382117E+03  0.15425982551E+04  0.50400001928E-02 0.  1.
</event>
<event>
 5   0  0.5177000E-08  0.3685471E+04  0.7818609E-02  0.8071189E-01
       -1   -1    0    0    0  501  0.00000000000E+00  0.00000000000E+00  0.18798182086E+04  0.18798182086E+04  0.50400001928E-02 0.  1.
        1   -1    0    0  501    0  0.00000000000E+00  0.00000000000E+00 -0.18063841577E+04  0.18063841577E+04  0.50400001928E-02 0. -1.
    10030    2    1    2    0    0  0.00000000000E+00  0.00000000000E+00  0.73434050959E+02  0.36862023663E+04  0.36854708418E+04 0.  0.
        2    1    3    3  502    0  0.12184474107E+04  0.10292265103E+03  0.14155647995E+04  0.18705696636E+04  0.25500000920E-02 0.  1.
       -2    1    3    3    0  502 -0.12184474107E+04 -0.10292265103E+03 -0.13421307486E+04  0.18156327027E+04  0.25500000920E-02 0. -1.
</event>
<event>
 5   0  0.1666189E-07  0.3698476E+04  0.7818609E-02  0.8068300E-01
        2   -1    0    0  501    0  0.00000000000E+00  0.00000000000E+00  0.17387164666E+04  0.17387164666E+04  0.25500000920E-02 0. -1.
       -2   -1    0    0    0  501  0.00000000000E+00  0.00000000000E+00 -0.19667844178E+04  0.19667844178E+04  0.25500000920E-02 0.  1.
    10030    2    1    2    0    0  0.00000000000E+00  0.00000000000E+00 -0.22806795117E+03  0.37055008844E+04  0.36984756068E+04 0.  0.
        4    1    3    3  502    0  0.45346400682E+03  0.16910567570E+04 -0.71045986218E+03  0.18894595496E+04  0.12699999809E+01 0.  1.
       -4    1    3    3    0  502 -0.45346400682E+03 -0.16910567570E+04  0.48239191101E+03  0.18160413348E+04  0.12699999809E+01 0. -1.
</event>
<event>
 5   0  0.5177000E-08  0.3695868E+04  0.7818609E-02  0.8068878E-01
       -3   -1    0    0    0  501  0.00000000000E+00  0.00000000000E+00  0.12389016428E+04  0.12389016469E+04  0.10100000352E+00 0.  1.
        3   -1    0    0  501    0  0.00000000000E+00  0.00000000000E+00 -0.27563604765E+04  0.27563604783E+04  0.10100000352E+00 0. -1.
    10030    2    1    2    0    0  0.00000000000E+00  0.00000000000E+00 -0.15174588337E+04  0.39952621253E+04  0.36958677111E+04 0.  0.
        1    1    3    3  502    0  0.14091876011E+04 -0.93360182380E+03 -0.15658286616E+04  0.23041791289E+04  0.50400001928E-02 0.  1.
       -1    1    3    3    0  502 -0.14091876011E+04  0.93360182380E+03  0.48369827952E+02  0.16910829964E+04  0.50400001928E-02 0. -1.
</event>
<event>
 5   0  0.1666189E-07  0.3701105E+04  0.7818609E-02  0.8067717E-01
        2   -1    0    0  501    0  0.00000000000E+00  0.00000000000E+00  0.18924514142E+04  0.18924514142E+04  0.25500000920E-02 0.  1.
       -2   -1    0    0    0  501  0.00000000000E+00  0.00000000000E+00 -0.18095812740E+04  0.18095812740E+04  0.25500000920E-02 0. -1.
    10030    2    1    2    0    0  0.00000000000E+00  0.00000000000E+00  0.82870140265E+02  0.37020326882E+04  0.37011050464E+04 0.  0.
        4    1    3    3  502    0 -0.13061849150E+04 -0.27995035115E+03  0.13224011206E+04  0.18796908171E+04  0.12699999809E+01 0.  1.
       -4    1    3    3    0  502  0.13061849150E+04  0.27995035115E+03 -0.12395309803E+04  0.18223418711E+04  0.12699999809E+01 0. -1.
</event>
<event>
 5   0  0.1666189E-07  0.3737915E+04  0.7818609E-02  0.8059611E-01
        2   -1    0    0  501    0  0.00000000000E+00  0.00000000000E+00  0.30719430359E+04  0.30719430359E+04  0.25500000920E-02 0. -1.
       -2   -1    0    0    0  501  0.00000000000E+00  0.00000000000E+00 -0.11370661674E+04  0.11370661674E+04  0.25500000920E-02 0.  1.
    10030    2    1    2    0    0  0.00000000000E+00  0.00000000000E+00  0.19348768685E+04  0.42090092033E+04  0.37379151913E+04 0.  0.
        4    1    3    3  502    0 -0.56589370928E+03 -0.13912255578E+02 -0.10382161970E+04  0.11825073893E+04  0.12699999809E+01 0.  1.
       -4    1    3    3    0  502  0.56589370928E+03  0.13912255578E+02  0.29730930655E+04  0.30265018140E+04  0.12699999809E+01 0. -1.
</event>
<event>
 5   0  0.1587026E-07  0.3707783E+04  0.7818609E-02  0.8066239E-01
        2   -1    0    0  501    0  0.00000000000E+00  0.00000000000E+00  0.18753715598E+04  0.18753715598E+04  0.25500000920E-02 0. -1.
       -2   -1    0    0    0  501  0.00000000000E+00  0.00000000000E+00 -0.18326575281E+04  0.18326575281E+04  0.25500000920E-02 0.  1.
    10030    2    1    2    0    0  0.00000000000E+00  0.00000000000E+00  0.42714031763E+02  0.37080290879E+04  0.37077830611E+04 0.  0.
        3    1    3    3  502    0  0.86556877453E+03 -0.14421466951E+04 -0.75838530146E+03  0.18450324304E+04  0.10100000352E+00 0. -1.
       -3    1    3    3    0  502 -0.86556877453E+03  0.14421466951E+04  0.80109933323E+03  0.18629966574E+04  0.10100000352E+00 0.  1.
</event>
<event>
 5   0  0.5177000E-08  0.3687588E+04  0.7818609E-02  0.8070718E-01
        1   -1    0    0  501    0  0.00000000000E+00  0.00000000000E+00  0.15179649372E+04  0.15179649372E+04  0.50400001928E-02 0. -1.
       -1   -1    0    0    0  501  0.00000000000E+00  0.00000000000E+00 -0.22395621681E+04  0.22395621681E+04  0.50400001928E-02 0.  1.
    10030    2    1    2    0    0  0.00000000000E+00  0.00000000000E+00 -0.72159723088E+03  0.37575271053E+04  0.36875882882E+04 0.  0.
        2    1    3    3  502    0  0.29064792436E+03 -0.15290564729E+04 -0.13680231538E+04  0.20721914155E+04  0.25500000920E-02 0.  1.
       -2    1    3    3    0  502 -0.29064792436E+03  0.15290564729E+04  0.64642592288E+03  0.16853356897E+04  0.25500000920E-02 0. -1.
</event>
<event>
 5   0  0.5177000E-08  0.3732608E+04  0.7818609E-02  0.8060774E-01
       -1   -1    0    0    0  501  0.00000000000E+00  0.00000000000E+00  0.34874309980E+04  0.34874309980E+04  0.50400001928E-02 0.  1.
        1   -1    0    0  501    0  0.00000000000E+00  0.00000000000E+00 -0.99875564146E+03  0.99875564147E+03  0.50400001928E-02 0. -1.
    10030    2    1    2    0    0  0.00000000000E+00  0.00000000000E+00  0.24886753565E+04  0.44861866394E+04  0.37326084088E+04 0.  0.
        1    1    3    3  502    0 -0.18558639149E+03 -0.15486758128E+04  0.12618429352E+02  0.15598071377E+04  0.50400001928E-02 0. -1.
       -1    1    3    3    0  502  0.18558639149E+03  0.15486758128E+04  0.24760569271E+04  0.29263795018E+04  0.50400001928E-02 0.  1.
</event>
<event>
 5   0  0.5177000E-08  0.3680423E+04  0.7818609E-02  0.8072314E-01
        3   -1    0    0  501    0  0.00000000000E+00  0.00000000000E+00  0.16931615078E+04  0.16931615108E+04  0.10100000352E+00 0.  1.
       -3   -1    0    0    0  501  0.00000000000E+00  0.00000000000E+00 -0.20000323639E+04  0.20000323664E+04  0.10100000352E+00 0. -1.
    10030    2    1    2    0    0  0.00000000000E+00  0.00000000000E+00 -0.30687085607E+03  0.36931938772E+04  0.36804227057E+04 0.  0.
        2    1    3    3  502    0 -0.77496729050E+03 -0.62479361061E+03 -0.17065258230E+04  0.19756446396E+04  0.25500000920E-02 0. -1.
       -2    1    3    3    0  502  0.77496729050E+03  0.62479361061E+03  0.13996549670E+04  0.17175492377E+04  0.25500000920E-02 0.  1.
</event>
<event>
 5   0  0.1558258E-07  0.3695721E+04  0.7818609E-02  0.8068911E-01
        2   -1    0    0  501    0  0.00000000000E+00  0.00000000000E+00  0.27864232602E+04  0.27864232602E+04  0.25500000920E-02 0. -1.
       -2   -1    0    0    0  501  0.00000000000E+00  0.00000000000E+00 -0.12254379760E+04  0.12254379760E+04  0.25500000920E-02 0.  1.
    10030    2    1    2    0    0  0.00000000000E+00  0.00000000000E+00  0.15609852842E+04  0.40118612362E+04  0.36957212451E+04 0.  0.
        1    1    3    3  502    0 -0.88943794603E+03 -0.14663577445E+04  0.33686981240E+02  0.17153541056E+04  0.50400001928E-02 0.  1.
       -1    1    3    3    0  502  0.88943794603E+03  0.14663577445E+04  0.15272983030E+04  0.22965071307E+04  0.50400001928E-02 0. -1.
</event>
<event>
 5   0  0.1686284E-07  0.3701468E+04  0.7818609E-02  0.8067637E-01
       -2   -1    0    0    0  501  0.00000000000E+00  0.00000000000E+00  0.15413551076E+04  0.15413551076E+04  0.25500000920E-02 0. -1.
        2   -1    0    0  501    0  0.00000000000E+00  0.00000000000E+00 -0.22222105498E+04  0.22222105498E+04  0.25500000920E-02 0.  1.
    10030    2    1    2    0    0  0.00000000000E+00  0.00000000000E+00 -0.68085544222E+03  0.37635656575E+04  0.37014675907E+04 0.  0.
        5    1    3    3  502    0  0.56181767011E+03 -0.58354259372E+03  0.13515302371E+04  0.15756957590E+04  0.46999998093E+01 0. -1.
       -5    1    3    3    0  502 -0.56181767011E+03  0.58354259372E+03 -0.20323856793E+04  0.21878698985E+04  0.46999998093E+01 0.  1.
</event>
<event>
 5   0  0.1666189E-07  0.3687591E+04  0.7818609E-02  0.8070717E-01
       -2   -1    0    0    0  501  0.00000000000E+00  0.00000000000E+00  0.14328698809E+04  0.14328698809E+04  0.25500000920E-02 0.  1.
        2   -1    0    0  501    0  0.00000000000E+00  0.00000000000E+00 -0.23725678310E+04  0.23725678310E+04  0.25500000920E-02 0. -1.
    10030    2    1    2    0    0  0.00000000000E+00  0.00000000000E+00 -0.93969795009E+03  0.38054377119E+04  0.36875905334E+04 0.  0.
        4    1    3    3  502    0 -0.18392618725E+04  0.11470023902E+03 -0.53123955506E+03  0.19178783742E+04  0.12699999809E+01 0. -1.
       -4    1    3    3    0  502  0.18392618725E+04 -0.11470023902E+03 -0.40845839502E+03  0.18875593378E+04  0.12699999809E+01 0.  1.
</event>
<event>
 5   0  0.5181371E-08  0.3687672E+04  0.7818609E-02  0.8070699E-01
       -1   -1    0    0    0  501  0.00000000000E+00  0.00000000000E+00  0.26278153808E+04  0.26278153808E+04  0.50400001928E-02 0.  1.
        1   -1    0    0  501    0  0.00000000000E+00  0.00000000000E+00 -0.12937483717E+04  0.12937483717E+04  0.50400001928E-02 0. -1.
    10030    2    1    2    0    0  0.00000000000E+00  0.00000000000E+00  0.13340670091E+04  0.39215637526E+04  0.36876723662E+04 0.  0.
        5    1    3    3  502    0 -0.87349311203E+03  0.16193877011E+04  0.53985284207E+03  0.19175166034E+04  0.46999998093E+01 0.  1.
       -5    1    3    3    0  502  0.87349311203E+03 -0.16193877011E+04  0.79421416701E+03  0.20040471492E+04  0.46999998093E+01 0. -1.
</event>
<event>
 5   0  0.5177000E-08  0.3703714E+04  0.7818609E-02  0.8067139E-01
       -1   -1    0    0    0  501  0.00000000000E+00  0.00000000000E+00  0.12671685598E+04  0.12671685598E+04  0.50400001928E-02 0. -1.
        1   -1    0    0  501    0  0.00000000000E+00  0.00000000000E+00 -0.27063287981E+04  0.27063287981E+04  0.50400001928E-02 0.  1.
    10030    2    1    2    0    0  0.00000000000E+00  0.00000000000E+00 -0.14391602383E+04  0.39734973579E+04  0.37037142252E+04 0.  0.
        3    1    3    3  502    0 -0.16245287334E+04  0.74959854919E+03 -0.12322850594E+04  0.21724451819E+04  0.10100000352E+00 0.  1.
       -3    1    3    3    0  502  0.16245287334E+04 -0.74959854919E+03 -0.20687517896E+03  0.18010521760E+04  0.10100000352E+00 0. -1.
</event>
<event>
 5   0  0.5177000E-08  0.3607263E+04  0.7818609E-02  0.8088830E-01
        1   -1    0    0  501    0  0.00000000000E+00  0.00000000000E+00  0.19665845177E+04  0.19665845177E+04  0.50400001928E-02 0. -1.
       -1   -1    0    0    0  501  0.00000000000E+00  0.00000000000E+00 -0.16541813475E+04  0.16541813475E+04  0.50400001928E-02 0.  1.
    10030    2    1    2    0    0  0.00000000000E+00  0.00000000000E+00  0.31240317018E+03  0.36207658652E+04  0.36072634656E+04 0.  0.
        2    1    3    3  502    0 -0.61282848443E+03 -0.16941230225E+04  0.69414884288E+02  0.18028948924E+04  0.25500000920E-02 0.  1.
       -2    1    3    3    0  502  0.61282848443E+03  0.16941230225E+04  0.24298828589E+03  0.18178709728E+04  0.25500000920E-02 0. -1.
</event>
<event>
 5   0  0.5177000E-08  0.3663420E+04  0.7818609E-02  0.8076117E-01
       -1   -1    0    0    0  501  0.00000000000E+00  0.00000000000E+00  0.19812415993E+04  0.19812415993E+04  0.50400001928E-02 0.  1.
        1   -1    0    0  501    0  0.00000000000E+00  0.00000000000E+00 -0.16934644631E+04  0.16934644631E+04  0.50400001928E-02 0. -1.
    10030    2    1    2    0    0  0.00000000000E+00  0.00000000000E+00  0.28777713612E+03  0.36747060624E+04  0.36634203915E+04 0.  0.
        2    1    3    3  502    0  0.15724788353E+04 -0.34129412947E+03 -0.73401667803E+03  0.17686016663E+04  0.25500000920E-02 0. -1.
       -2    1    3    3    0  502 -0.15724788353E+04  0.34129412947E+03  0.10217938141E+04  0.19061043961E+04  0.25500000920E-02 0.  1.
</event>
<event>
 5   0  0.5181371E-08  0.3690616E+04  0.7818609E-02  0.8070045E-01
       -1   -1    0    0    0  501  0.00000000000E+00  0.00000000000E+00  0.15999842849E+04  0.15999842849E+04  0.50400001928E-02 0. -1.
        1   -1    0    0  501    0  0.00000000000E+00  0.00000000000E+00 -0.21282471534E+04  0.21282471534E+04  0.50400001928E-02 0.  1.
    10030    2    1    2    0    0  0.00000000000E+00  0.00000000000E+00 -0.52826286850E+03  0.37282314383E+04  0.36906162086E+04 0.  0.
        5    1    3    3  502    0 -0.53118765262E+03 -0.94946702828E+03 -0.17697894877E+04  0.20774563487E+04  0.46999998093E+01 0.  1.
       -5    1    3    3    0  502  0.53118765262E+03  0.94946702828E+03  0.12415266192E+04  0.16507750896E+04  0.46999998093E+01 0. -1.
</event>
<event>
 5   0  0.1558258E-07  0.3696599E+04  0.7818609E-02  0.8068716E-01
        2   -1    0    0  501    0  0.00000000000E+00  0.00000000000E+00  0.97261109843E+03  0.97261109843E+03  0.25500000920E-02 0.  1.
       -2   -1    0    0    0  501  0.00000000000E+00  0.00000000000E+00 -0.35124130077E+04  0.35124130077E+04  0.25500000920E-02 0. -1.
    10030    2    1    2    0    0  0.00000000000E+00  0.00000000000E+00 -0.25398019093E+04  0.44850241061E+04  0.36965994501E+04 0.  0.
        1    1    3    3  502    0  0.17220539479E+04  0.85245273818E+02 -0.46192746071E+03  0.17849687770E+04  0.50400001928E-02 0.  1.
       -1    1    3    3    0  502 -0.17220539479E+04 -0.85245273818E+02 -0.20778744486E+04  0.27000553291E+04  0.50400001928E-02 0. -1.
</event>
<event>
 5   0  0.5177000E-08  0.3581033E+04  0.7818609E-02  0.8094850E-01
        1   -1    0    0  501    0  0.00000000000E+00  0.00000000000E+00  0.18060178102E+04  0.18060178102E+04  0.50400001928E-02 0.  1.
       -1   -1    0    0    0  501  0.00000000000E+00  0.00000000000E+00 -0.17751485716E+04  0.17751485716E+04  0.50400001928E-02 0. -1.
    10030    2    1    2    0    0  0.00000000000E+00  0.00000000000E+00  0.30869238539E+02  0.35811663818E+04  0.35810333347E+04 0.  0.
        4    1    3    3  502    0 -0.11588269491E+04 -0.54438405554E+03  0.12671657584E+04  0.18013729680E+04  0.12699999809E+01 0.  1.
       -4    1    3    3    0  502  0.11588269491E+04  0.54438405554E+03 -0.12362965198E+04  0.17797934138E+04  0.12699999809E+01 0. -1.
</event>
<event>
 5   0  0.5177000E-08  0.3845493E+04  0.7818609E-02  0.8036462E-01
       -1   -1    0    0    0  501  0.00000000000E+00  0.00000000000E+00  0.15423152789E+04  0.15423152790E+04  0.50400001928E-02 0.  1.
        1   -1    0    0  501    0  0.00000000000E+00  0.00000000000E+00 -0.23970162583E+04  0.23970162583E+04  0.50400001928E-02 0. -1.
    10030    2    1    2    0    0  0.00000000000E+00  0.00000000000E+00 -0.85470097931E+03  0.39393315372E+04  0.38454933619E+04 0.  0.
        1    1    3    3  502    0 -0.91068934474E+03 -0.49050005267E+03  0.12330057612E+04  0.16094249257E+04  0.50400001928E-02 0.  1.
       -1    1    3    3    0  502  0.91068934474E+03  0.49050005267E+03 -0.20877067405E+04  0.23299066115E+04  0.50400001928E-02 0. -1.
</event>
<event>
 5   0  0.1666189E-07  0.3760131E+04  0.7818609E-02  0.8054765E-01
        2   -1    0    0  501    0  0.00000000000E+00  0.00000000000E+00  0.20130370133E+04  0.20130370133E+04  0.25500000920E-02 0.  1.
       -2   -1    0    0    0  501  0.00000000000E+00  0.00000000000E+00 -0.17558778327E+04  0.17558778327E+04  0.25500000920E-02 0. -1.
    10030    2    1    2    0    0  0.00000000000E+00  0.00000000000E+00  0.25715918064E+03  0.37689148460E+04  0.37601314169E+04 0.  0.
        4    1    3    3  502    0  0.27192990652E+03  0.38769202755E+03 -0.16951194749E+04  0.17600234741E+04  0.12699999809E+01 0. -1.
       -4    1    3    3    0  502 -0.27192990652E+03 -0.38769202755E+03  0.19522786556E+04  0.20088913719E+04  0.12699999809E+01 0.  1.
</event>
<event>
 5   0  0.5181371E-08  0.3673784E+04  0.7818609E-02  0.8073797E-01
       -1   -1    0    0    0  501  0.00000000000E+00  0.00000000000E+00  0.18803276100E+04  0.18803276100E+04  0.50400001928E-02 0.  1.
        1   -1    0    0  501    0  0.00000000000E+00  0.00000000000E+00 -0.17944593623E+04  0.17944593623E+04  0.50400001928E-02 0. -1.
    10030    2    1    2    0    0  0.00000000000E+00  0.00000000000E+00  0.85868247679E+02  0.36747869722E+04  0.36737835994E+04 0.  0.
        5    1    3    3  502    0 -0.17464674750E+04 -0.50017485370E+03 -0.22884924568E+03  0.18310427611E+04  0.46999998093E+01 0. -1.
       -5    1    3    3    0  502  0.17464674750E+04  0.50017485370E+03  0.31471749336E+03  0.18437442112E+04  0.46999998093E+01 0.  1.
</event>
<event>
 5   0  0.5177000E-08  0.3706056E+04  0.7818609E-02  0.8066621E-01
        3   -1    0    0  501    0  0.00000000000E+00  0.00000000000E+00  0.22820737574E+04  0.22820737597E+04  0.10100000352E+00 0. -1.
       -3   -1    0    0    0  501  0.00000000000E+00  0.00000000000E+00 -0.15046460683E+04  0.15046460717E+04  0.10100000352E+00 0.  1.
    10030    2    1    2    0    0  0.00000000000E+00  0.00000000000E+00  0.77742768911E+03  0.37867198314E+04  0.37060562961E+04 0.  0.
        2    1    3    3  502    0  0.87179513450E+03  0.49192203089E+03 -0.12046174815E+04  0.15662430584E+04  0.25500000920E-02 0.  1.
       -2    1    3    3    0  502 -0.87179513450E+03 -0.49192203089E+03  0.19820451706E+04  0.22204767730E+04  0.25500000920E-02 0. -1.
</event>
<event>
 5   0  0.5177000E-08  0.3710479E+04  0.7818609E-02  0.8065643E-01
        1   -1    0    0  501    0  0.00000000000E+00  0.00000000000E+00  0.17972486570E+04  0.17972486570E+04  0.50400001928E-02 0.  1.
       -1   -1    0    0    0  501  0.00000000000E+00  0.00000000000E+00 -0.19151016422E+04  0.19151016422E+04  0.50400001928E-02 0. -1.
    10030    2    1    2    0    0  0.00000000000E+00  0.00000000000E+00 -0.11785298514E+03  0.37123502992E+04  0.37104791359E+04 0.  0.
        2    1    3    3  502    0 -0.16133124861E+04  0.91240366736E+03 -0.14055332342E+03  0.18587664906E+04  0.25500000920E-02 0.  1.
       -2    1    3    3    0  502  0.16133124861E+04 -0.91240366736E+03  0.22700338277E+02  0.18535838086E+04  0.25500000920E-02 0. -1.
</event>
<event>
 5   0  0.1558258E-07  0.3700696E+04  0.7818609E-02  0.8067808E-01
       -2   -1    0    0    0  501  0.00000000000E+00  0.00000000000E+00  0.32281396297E+04  0.32281396297E+04  0.25500000920E-02 0.  1.
        2   -1    0    0  501    0  0.00000000000E+00  0.00000000000E+00 -0.10606072537E+04  0.10606072538E+04  0.25500000920E-02 0. -1.
    10030    2    1    2    0    0  0.00000000000E+00  0.00000000000E+00  0.21675323760E+04  0.42887468835E+04  0.37006963169E+04 0.  0.
        1    1    3    3  502    0 -0.98019524881E+03  0.26374399105E+03 -0.70914453813E+03  0.12382364857E+04  0.50400001928E-02 0. -1.
       -1    1    3    3    0  502  0.98019524881E+03 -0.26374399105E+03  0.28766769141E+04  0.30505103977E+04  0.50400001928E-02 0.  1.
</event>
<event>
 5   0  0.5177000E-08  0.3708142E+04  0.7818609E-02  0.8066160E-01
        1   -1    0    0  501    0  0.00000000000E+00  0.00000000000E+00  0.23066119827E+04  0.23066119827E+04  0.50400001928E-02 0.  1.
       -1   -1    0    0    0  501  0.00000000000E+00  0.00000000000E+00 -0.14903155924E+04  0.14903155925E+04  0.50400001928E-02 0. -1.
    10030    2    1    2    0    0  0.00000000000E+00  0.00000000000E+00  0.81629639021E+03  0.37969275751E+04  0.37081422861E+04 0.  0.
        4    1    3    3  502    0  0.27371412543E+03 -0.24606089274E+03  0.22688289926E+04  0.22984890681E+04  0.12699999809E+01 0.  1.
       -4    1    3    3    0  502 -0.27371412543E+03  0.24606089274E+03 -0.14525326024E+04  0.14984385070E+04  0.12699999809E+01 0. -1.
</event>
<event>
 5   0  0.1558258E-07  0.3700073E+04  0.7818609E-02  0.8067946E-01
       -2   -1    0    0    0  501  0.00000000000E+00  0.00000000000E+00  0.18615797154E+04  0.18615797154E+04  0.25500000920E-02 0. -1.
        2   -1    0    0  501    0  0.00000000000E+00  0.00000000000E+00 -0.18385649568E+04  0.18385649568E+04  0.25500000920E-02 0.  1.
    10030    2    1    2    0    0  0.00000000000E+00  0.00000000000E+00  0.23014758600E+02  0.37001446722E+04  0.37000730961E+04 0.  0.
        1    1    3    3  502    0  0.11111398016E+04 -0.27843107008E+03 -0.14412697416E+04  0.18410361179E+04  0.50400001928E-02 0.  1.
       -1    1    3    3    0  502 -0.11111398016E+04  0.27843107008E+03  0.14642845002E+04  0.18591085543E+04  0.50400001928E-02 0. -1.
</event>
<event>
 5   0  0.1587026E-07  0.3707646E+04  0.7818609E-02  0.8066270E-01
       -2   -1    0    0    0  501  0.00000000000E+00  0.00000000000E+00  0.17122002853E+04  0.17122002853E+04  0.25500000920E-02 0.  1.
        2   -1    0    0  501    0  0.00000000000E+00  0.00000000000E+00 -0.20071595219E+04  0.20071595219E+04  0.25500000920E-02 0. -1.
    10030    2    1    2    0    0  0.00000000000E+00  0.00000000000E+00 -0.29495923668E+03  0.37193598072E+04  0.37076456713E+04 0.  0.
        3    1    3    3  502    0  0.92068084765E+03 -0.13867821566E+04 -0.96604858793E+03  0.19245955049E+04  0.10100000352E+00 0. -1.
       -3    1    3    3    0  502 -0.92068084765E+03  0.13867821566E+04  0.67108935126E+03  0.17947643023E+04  0.10100000352E+00 0.  1.
</event>
<event>
 5   0  0.1587026E-07  0.3699797E+04  0.7818609E-02  0.8068007E-01
        2   -1    0    0  501    0  0.00000000000E+00  0.00000000000E+00  0.20425364561E+04  0.20425364561E+04  0.25500000920E-02 0. -1.
       -2   -1    0    0    0  501  0.00000000000E+00  0.00000000000E+00 -0.16754284883E+04  0.16754284883E+04  0.25500000920E-02 0.  1.
    10030    2    1    2    0    0  0.00000000000E+00  0.00000000000E+00  0.36710796780E+03  0.37179649444E+04  0.36997966252E+04 0.  0.
        3    1    3    3  502    0  0.13807620455E+04  0.24611731271E+03 -0.10286224319E+04  0.17392934414E+04  0.10100000352E+00 0.  1.
       -3    1    3    3    0  502 -0.13807620455E+04 -0.24611731271E+03  0.13957303997E+04  0.19786715030E+04  0.10100000352E+00 0. -1.
</event>
<event>
 5   0  0.5177000E-08  0.3688101E+04  0.7818609E-02  0.8070604E-01
        1   -1    0    0  501    0  0.00000000000E+00  0.00000000000E+00  0.19679656382E+04  0.19679656382E+04  0.50400001928E-02 0.  1.
       -1   -1    0    0    0  501  0.00000000000E+00  0.00000000000E+00 -0.17279374626E+04  0.17279374626E+04  0.50400001928E-02 0. -1.
    10030    2    1    2    0    0  0.00000000000E+00  0.00000000000E+00  0.24002817567E+03  0.36959031008E+04  0.36881006230E+04 0.  0.
        1    1    3    3  502    0 -0.17311422213E+04 -0.30761504716E+03 -0.43707668619E+03  0.18117716294E+04  0.50400001928E-02 0. -1.
       -1    1    3    3    0  502  0.17311422213E+04  0.30761504716E+03  0.67710486186E+03  0.18841314714E+04  0.50400001928E-02 0.  1.
</event>
<event>
 5   0  0.5181371E-08  0.3710616E+04  0.7818609E-02  0.8065613E-01
       -1   -1    0    0    0  501  0.00000000000E+00  0.00000000000E+00  0.16672631040E+04  0.16672631040E+04  0.50400001928E-02 0. -1.
        1   -1    0    0  501    0  0.00000000000E+00  0.00000000000E+00 -0.20645613948E+04  0.20645613948E+04  0.50400001928E-02 0.  1.
    10030    2    1    2    0    0  0.00000000000E+00  0.00000000000E+00 -0.39729829082E+03  0.37318244988E+04  0.37106156036E+04 0.  0.
        5    1    3    3  502    0 -0.17594244069E+04  0.58870200597E+03 -0.19783582352E+03  0.18658256613E+04  0.46999998093E+01 0.  1.
       -5    1    3    3    0  502  0.17594244069E+04 -0.58870200597E+03 -0.19946246730E+03  0.18659988374E+04  0.46999998093E+01 0. -1.
</event>
<event>
 5   0  0.1587026E-07  0.3706996E+04  0.7818609E-02  0.8066413E-01
        2   -1    0    0  501    0  0.00000000000E+00  0.00000000000E+00  0.13841105562E+04  0.13841105562E+04  0.25500000920E-02 0.  1.
       -2   -1    0    0    0  501  0.00000000000E+00  0.00000000000E+00 -0.24820666932E+04  0.24820666932E+04  0.25500000920E-02 0. -1.
    10030    2    1    2    0    0  0.00000000000E+00  0.00000000000E+00 -0.10979561370E+04  0.38661772494E+04  0.37069959327E+04 0.  0.
        3    1    3    3  502    0 -0.74558191237E+03  0.12158288687E+04 -0.17835849550E+04  0.22837047813E+04  0.10100000352E+00 0. -1.
       -3    1    3    3    0  502  0.74558191237E+03 -0.12158288687E+04  0.68562881803E+03  0.15824724681E+04  0.10100000352E+00 0.  1.
</event>
<event>
 5   0  0.5181371E-08  0.3679476E+04  0.7818609E-02  0.8072525E-01
       -1   -1    0    0    0  501  0.00000000000E+00  0.00000000000E+00  0.21031856233E+04  0.21031856233E+04  0.50400001928E-02 0.  1.
        1   -1    0    0  501    0  0.00000000000E+00  0.00000000000E+00 -0.16092903703E+04  0.16092903703E+04  0.50400001928E-02 0. -1.
    10030    2    1    2    0    0  0.00000000000E+00  0.00000000000E+00  0.49389525296E+03  0.37124759936E+04  0.36794762511E+04 0.  0.
        5    1    3    3  502    0  0.83023309740E+03  0.75903246126E+03 -0.12218545786E+04  0.16608335180E+04  0.46999998093E+01 0. -1.
       -5    1    3    3    0  502 -0.83023309740E+03 -0.75903246126E+03  0.17157498316E+04  0.20516424756E+04  0.46999998093E+01 0.  1.
</event>
<event>
 5   0  0.1658770E-07  0.3686580E+04  0.7818609E-02  0.8070942E-01
        2   -1    0    0  501    0  0.00000000000E+00  0.00000000000E+00  0.20425094483E+04  0.20425094483E+04  0.25500000920E-02 0.  1.
       -2   -1    0    0    0  501  0.00000000000E+00  0.00000000000E+00 -0.16635017046E+04  0.16635017046E+04  0.25500000920E-02 0. -1.
    10030    2    1    2    0    0  0.00000000000E+00  0.00000000000E+00  0.37900774373E+03  0.37060111529E+04  0.36865799592E+04 0.  0.
        2    1    3    3  502    0 -0.14763960404E+04  0.80033253553E+03  0.95340418749E+03  0.19311284215E+04  0.25500000920E-02 0.  1.
       -2    1    3    3    0  502  0.14763960404E+04 -0.80033253553E+03 -0.57439644376E+03  0.17748827314E+04  0.25500000920E-02 0. -1.
</event>
<event>
 5   0  0.5177000E-08  0.3706840E+04  0.7818609E-02  0.8066448E-01
       -1   -1    0    0    0  501  0.00000000000E+00  0.00000000000E+00  0.11846724310E+04  0.11846724310E+04  0.50400001928E-02 0.  1.
        1   -1    0    0  501    0  0.00000000000E+00  0.00000000000E+00 -0.28996762358E+04  0.28996762358E+04  0.50400001928E-02 0. -1.
    10030    2    1    2    0    0  0.00000000000E+00  0.00000000000E+00 -0.17150038048E+04  0.40843486668E+04  0.37068404311E+04 0.  0.
        3    1    3    3  502    0 -0.96629189051E+03 -0.61686857492E+02  0.88383956702E+03  0.13109911047E+04  0.10100000352E+00 0.  1.
       -3    1    3    3    0  502  0.96629189051E+03  0.61686857492E+02 -0.25988433719E+04  0.27733575622E+04  0.10100000352E+00 0. -1.
</event>
<event>
 5   0  0.5177000E-08  0.3708750E+04  0.7818609E-02  0.8066025E-01
        1   -1    0    0  501    0  0.00000000000E+00  0.00000000000E+00  0.30915375596E+04  0.30915375596E+04  0.50400001928E-02 0.  1.
       -1   -1    0    0    0  501  0.00000000000E+00  0.00000000000E+00 -0.11122967905E+04  0.11122967905E+04  0.50400001928E-02 0. -1.
    10030    2    1    2    0    0  0.00000000000E+00  0.00000000000E+00  0.19792407691E+04  0.42038343501E+04  0.37087503583E+04 0.  0.
        1    1    3    3  502    0  0.16460172654E+04  0.42056930283E+03  0.18321143766E+04  0.24985784890E+04  0.50400001928E-02 0.  1.
       -1    1    3    3    0  502 -0.16460172654E+04 -0.42056930283E+03  0.14712639251E+03  0.17052558611E+04  0.50400001928E-02 0. -1.
</event>
<event>
 5   0  0.5177000E-08  0.3711486E+04  0.7818609E-02  0.8065421E-01
        1   -1    0    0  501    0  0.00000000000E+00  0.00000000000E+00  0.13256398912E+04  0.13256398912E+04  0.50400001928E-02 0.  1.
       -1   -1    0    0    0  501  0.00000000000E+00  0.00000000000E+00 -0.25978255341E+04  0.25978255341E+04  0.50400001928E-02 0. -1.
    10030    2    1    2    0    0  0.00000000000E+00  0.00000000000E+00 -0.12721856429E+04  0.39234654253E+04  0.37114855023E+04 0.  0.
        4    1    3    3  502    0  0.22782085257E+03 -0.14753553600E+04  0.52923097444E+03  0.15838758841E+04  0.12699999809E+01 0.  1.
       -4    1    3    3    0  502 -0.22782085257E+03  0.14753553600E+04 -0.18014166173E+04  0.23395895412E+04  0.12699999809E+01 0. -1.
</event>
<event>
 5   0  0.1666189E-07  0.3703981E+04  0.7818609E-02  0.8067080E-01
        2   -1    0    0  501    0  0.00000000000E+00  0.00000000000E+00  0.11847353167E+04  0.11847353167E+04  0.25500000920E-02 0. -1.
       -2   -1    0    0    0  501  0.00000000000E+00  0.00000000000E+00 -0.28950506342E+04  0.28950506342E+04  0.25500000920E-02 0.  1.
    10030    2    1    2    0    0  0.00000000000E+00  0.00000000000E+00 -0.17103153175E+04  0.40797859509E+04  0.37039809556E+04 0.  0.
        4    1    3    3  502    0  0.54358949953E+03 -0.94233040224E+03 -0.25060216962E+04  0.27319631194E+04  0.12699999809E+01 0.  1.
       -4    1    3    3    0  502 -0.54358949953E+03  0.94233040224E+03  0.79570637872E+03  0.13478228315E+04  0.12699999809E+01 0. -1.
</event>
<event>
 5   0  0.5177000E-08  0.3704279E+04  0.7818609E-02  0.8067014E-01
       -1   -1    0    0    0  501  0.00000000000E+00  0.00000000000E+00  0.22361663328E+04  0.22361663328E+04  0.50400001928E-02 0. -1.
        1   -1    0    0  501    0  0.00000000000E+00  0.00000000000E+00 -0.15340637151E+04  0.15340637151E+04  0.50400001928E-02 0.  1.
    10030    2    1    2    0    0  0.00000000000E+00  0.00000000000E+00  0.70210261769E+03  0.37702300479E+04  0.37042794885E+04 0.  0.
        3    1    3    3  502    0  0.61327086132E+03  0.58901935207E+03 -0.13236541851E+04  0.15732467570E+04  0.10100000352E+00 0.  1.
       -3    1    3    3    0  502 -0.61327086132E+03 -0.58901935207E+03  0.20257568028E+04  0.21969832909E+04  0.10100000352E+00 0. -1.
</event>
<event>
 5   0  0.5181371E-08  0.3700384E+04  0.7818609E-02  0.8067877E-01
        1   -1    0    0  501    0  0.00000000000E+00  0.00000000000E+00  0.25264969243E+04  0.25264969243E+04  0.50400001928E-02 0. -1.
       -1   -1    0    0    0  501  0.00000000000E+00  0.00000000000E+00 -0.13549237281E+04  0.13549237281E+04  0.50400001928E-02 0.  1.
    10030    2    1    2    0    0  0.00000000000E+00  0.00000000000E+00  0.11715731962E+04  0.38814206523E+04  0.37003841053E+04 0.  0.
        5    1    3    3  502    0  0.11136372104E+04  0.14479088968E+04  0.27718095490E+03  0.18475603865E+04  0.46999998093E+01 0.  1.
       -5    1    3    3    0  502 -0.11136372104E+04 -0.14479088968E+04  0.89439224129E+03  0.20338602659E+04  0.46999998093E+01 0. -1.
</event>
<event>
 5   0  0.5177000E-08  0.3702109E+04  0.7818609E-02  0.8067495E-01
       -1   -1    0    0    0  501  0.00000000000E+00  0.00000000000E+00  0.25171879717E+04  0.25171879717E+04  0.50400001928E-02 0. -1.
        1   -1    0    0  501    0  0.00000000000E+00  0.00000000000E+00 -0.13612023290E+04  0.13612023290E+04  0.50400001928E-02 0.  1.
    10030    2    1    2    0    0  0.00000000000E+00  0.00000000000E+00  0.11559856427E+04  0.38783903007E+04  0.37021086584E+04 0.  0.
        4    1    3    3  502    0 -0.15014885159E+04  0.30885105100E+03  0.16649644262E+04  0.22631758413E+04  0.12699999809E+01 0. -1.
       -4    1    3    3    0  502  0.15014885159E+04 -0.30885105100E+03 -0.50897878349E+03  0.16152144595E+04  0.12699999809E+01 0.  1.
</event>
<event>
 5   0  0.1658770E-07  0.3690121E+04  0.7818609E-02  0.8070155E-01
       -2   -1    0    0    0  501  0.00000000000E+00  0.00000000000E+00  0.24967179380E+04  0.24967179380E+04  0.25500000920E-02 0.  1.
        2   -1    0    0  501    0  0.00000000000E+00  0.00000000000E+00 -0.13634893531E+04  0.13634893531E+04  0.25500000920E-02 0. -1.
    10030    2    1    2    0    0  0.00000000000E+00  0.00000000000E+00  0.11332285849E+04  0.38602072911E+04  0.36901210420E+04 0.  0.
        2    1    3    3  502    0 -0.20609312703E+03  0.13021814915E+04 -0.78365439531E+03  0.15337096286E+04  0.25500000920E-02 0. -1.
       -2    1    3    3    0  502  0.20609312703E+03 -0.13021814915E+04  0.19168829802E+04  0.23264976625E+04  0.25500000920E-02 0.  1.
</event>
<event>
 5   0  0.1666189E-07  0.3750401E+04  0.7818609E-02  0.8056883E-01
        2   -1    0    0  501    0  0.00000000000E+00  0.00000000000E+00  0.22957621856E+04  0.22957621856E+04  0.25500000920E-02 0. -1.
       -2   -1    0    0    0  501  0.00000000000E+00  0.00000000000E+00 -0.15316818639E+04  0.15316818639E+04  0.25500000920E-02 0.  1.
    10030    2    1    2    0    0  0.00000000000E+00  0.00000000000E+00  0.76408032168E+03  0.38274440496E+04  0.37504012071E+04 0.  0.
        4    1    3    3  502    0 -0.54148901023E+03 -0.30612823707E+03  0.21874058655E+04  0.22741307964E+04  0.12699999809E+01 0. -1.
       -4    1    3    3    0  502  0.54148901023E+03  0.30612823707E+03 -0.14233255438E+04  0.15533132531E+04  0.12699999809E+01 0.  1.
</event>
<event>
 5   0  0.1666189E-07  0.3720865E+04  0.7818609E-02  0.8063354E-01
        2   -1    0    0  501    0  0.00000000000E+00  0.00000000000E+00  0.16214525163E+04  0.16214525163E+04  0.25500000920E-02 0.  1.
       -2   -1    0    0    0  501  0.00000000000E+00  0.00000000000E+00 -0.21346344485E+04  0.21346344485E+04  0.25500000920E-02 0. -1.
    10030    2    1    2    0    0  0.00000000000E+00  0.00000000000E+00 -0.51318193221E+03  0.37560869648E+04  0.37208646296E+04 0.  0.
        4    1    3    3  502    0  0.33605696723E+03  0.18293955932E+04 -0.29677055425E+03  0.18835330887E+04  0.12699999809E+01 0. -1.
       -4    1    3    3    0  502 -0.33605696723E+03 -0.18293955932E+04 -0.21641137796E+03  0.18725538761E+04  0.12699999809E+01 0.  1.
</event>
<event>
 5   0  0.5177000E-08  0.3711191E+04  0.7818609E-02  0.8065486E-01
       -1   -1    0    0    0  501  0.00000000000E+00  0.00000000000E+00  0.11893013898E+04  0.11893013898E+04  0.50400001928E-02 0.  1.
        1   -1    0    0  501    0  0.00000000000E+00  0.00000000000E+00 -0.28951745082E+04  0.28951745082E+04  0.50400001928E-02 0. -1.
    10030    2    1    2    0    0  0.00000000000E+00  0.00000000000E+00 -0.17058731185E+04  0.40844758980E+04  0.37111912191E+04 0.  0.
        4    1    3    3  502    0 -0.82677759835E+03  0.16596560754E+04 -0.93240728409E+03  0.20754287369E+04  0.12699999809E+01 0.  1.
       -4    1    3    3    0  502  0.82677759835E+03 -0.16596560754E+04 -0.77346583436E+03  0.20090471611E+04  0.12699999809E+01 0. -1.
</event>
<event>
 5   0  0.1658770E-07  0.3883824E+04  0.7818609E-02  0.8028402E-01
       -2   -1    0    0    0  501  0.00000000000E+00  0.00000000000E+00  0.20949458636E+04  0.20949458636E+04  0.25500000920E-02 0. -1.
        2   -1    0    0  501    0  0.00000000000E+00  0.00000000000E+00 -0.18000575616E+04  0.18000575616E+04  0.25500000920E-02 0.  1.
    10030    2    1    2    0    0  0.00000000000E+00  0.00000000000E+00  0.29488830201E+03  0.38950034252E+04  0.38838244775E+04 0.  0.
        2    1    3    3  502    0 -0.18881636543E+04  0.45091466034E+03  0.96929272421E+02  0.19436772624E+04  0.25500000920E-02 0.  1.
       -2    1    3    3    0  502  0.18881636543E+04 -0.45091466034E+03  0.19795902958E+03  0.19513261628E+04  0.25500000920E-02 0. -1.
</event>
<event>
 5   0  0.1666189E-07  0.3692121E+04  0.7818609E-02  0.8069710E-01
        2   -1    0    0  501    0  0.00000000000E+00  0.00000000000E+00  0.17500762637E+04  0.17500762637E+04  0.25500000920E-02 0. -1.
       -2   -1    0    0    0  501  0.00000000000E+00  0.00000000000E+00 -0.19473085807E+04  0.19473085807E+04  0.25500000920E-02 0.  1.
    10030    2    1    2    0    0  0.00000000000E+00  0.00000000000E+00 -0.19723231702E+03  0.36973848444E+04  0.36921205425E+04 0.  0.
        4    1    3    3  502    0 -0.16496626191E+04  0.35656550206E+03 -0.84762054806E+03  0.18886471138E+04  0.12699999809E+01 0.  1.
       -4    1    3    3    0  502  0.16496626191E+04 -0.35656550206E+03  0.65038823103E+03  0.18087377306E+04  0.12699999809E+01 0. -1.
</event>
<event>
 5   0  0.1686284E-07  0.3704997E+04  0.7818609E-02  0.8066855E-01
       -2   -1    0    0    0  501  0.00000000000E+00  0.00000000000E+00  0.19062515152E+04  0.19062515152E+04  0.25500000920E-02 0.  1.
        2   -1    0    0  501    0  0.00000000000E+00  0.00000000000E+00 -0.18002612258E+04  0.18002612258E+04  0.25500000920E-02 0. -1.
    10030    2    1    2    0    0  0.00000000000E+00  0.00000000000E+00  0.10599028938E+03  0.37065127410E+04  0.37049969984E+04 0.  0.
        5    1    3    3  502    0  0.27893491856E+03 -0.18313515589E+04  0.61680767267E+02  0.18535047419E+04  0.46999998093E+01 0. -1.
       -5    1    3    3    0  502 -0.27893491856E+03  0.18313515589E+04  0.44309522115E+02  0.18530079991E+04  0.46999998093E+01 0.  1.
</event>
<event>
 5   0  0.5177000E-08  0.3699026E+04  0.7818609E-02  0.8068178E-01
        1   -1    0    0  501    0  0.00000000000E+00  0.00000000000E+00  0.10409966380E+04  0.10409966380E+04  0.50400001928E-02 0. -1.
       -1   -1    0    0    0  501  0.00000000000E+00  0.00000000000E+00 -0.32859837402E+04  0.32859837402E+04  0.50400001928E-02 0.  1.
    10030    2    1    2    0    0  0.00000000000E+00  0.00000000000E+00 -0.22449871022E+04  0.43269803782E+04  0.36990258318E+04 0.  0.
        2    1    3    3  502    0  0.30573808615E+03  0.80909033761E+03 -0.30348292986E+04  0.31556761278E+04  0.25500000920E-02 0.  1.
       -2    1    3    3    0  502 -0.30573808615E+03 -0.80909033761E+03  0.78984219646E+03  0.11713042504E+04  0.25500000920E-02 0. -1.
</event>
<event>
 5   0  0.1587026E-07  0.3679027E+04  0.7818609E-02  0.8072626E-01
       -2   -1    0    0    0  501  0.00000000000E+00  0.00000000000E+00  0.14711678453E+04  0.14711678453E+04  0.25500000920E-02 0. -1.
        2   -1    0    0  501    0  0.00000000000E+00  0.00000000000E+00 -0.23000838281E+04  0.23000838281E+04  0.25500000920E-02 0.  1.
    10030    2    1    2    0    0  0.00000000000E+00  0.00000000000E+00 -0.82891598281E+03  0.37712516734E+04  0.36790267025E+04 0.  0.
        3    1    3    3  502    0  0.40201900349E+03  0.13489651490E+04  0.79949367417E+03  0.16188009135E+04  0.10100000352E+00 0. -1.
       -3    1    3    3    0  502 -0.40201900349E+03 -0.13489651490E+04 -0.16284096570E+04  0.21524507599E+04  0.10100000352E+00 0.  1.
</event>
<event>
 5   0  0.5177000E-08  0.3699792E+04  0.7818609E-02  0.8068008E-01
       -3   -1    0    0    0  501  0.00000000000E+00  0.00000000000E+00  0.30647569649E+04  0.30647569665E+04  0.10100000352E+00 0.  1.
        3   -1    0    0  501    0  0.00000000000E+00  0.00000000000E+00 -0.11166024845E+04  0.11166024891E+04  0.10100000352E+00 0. -1.
    10030    2    1    2    0    0  0.00000000000E+00  0.00000000000E+00  0.19481544804E+04  0.41813594556E+04  0.36997920236E+04 0.  0.
        4    1    3    3  502    0 -0.13548464003E+04 -0.31283863546E+03 -0.40482849009E+03  0.14482280551E+04  0.12699999809E+01 0. -1.
       -4    1    3    3    0  502  0.13548464003E+04  0.31283863546E+03  0.23529829705E+04  0.27331314005E+04  0.12699999809E+01 0.  1.
</event>
<event>
 5   0  0.5177000E-08  0.3701354E+04  0.7818609E-02  0.8067662E-01
       -1   -1    0    0    0  501  0.00000000000E+00  0.00000000000E+00  0.22430215935E+04  0.22430215935E+04  0.50400001928E-02 0.  1.
        1   -1    0    0  501    0  0.00000000000E+00  0.00000000000E+00 -0.15269605470E+04  0.15269605470E+04  0.50400001928E-02 0. -1.
    10030    2    1    2    0    0  0.00000000000E+00  0.00000000000E+00  0.71606104653E+03  0.37699821405E+04  0.37013540654E+04 0.  0.
        2    1    3    3  502    0 -0.16417500264E+04 -0.17484993336E+03  0.12096491548E+04  0.20467453985E+04  0.25500000920E-02 0.  1.
       -2    1    3    3    0  502  0.16417500264E+04  0.17484993336E+03 -0.49358810830E+03  0.17232367420E+04  0.25500000920E-02 0. -1.
</event>
<event>
 5   0  0.1558258E-07  0.3684689E+04  0.7818609E-02  0.8071363E-01
        2   -1    0    0  501    0  0.00000000000E+00  0.00000000000E+00  0.11694860769E+04  0.11694860769E+04  0.25500000920E-02 0. -1.
       -2   -1    0    0    0  501  0.00000000000E+00  0.00000000000E+00 -0.29023287554E+04  0.29023287554E+04  0.25500000920E-02 0.  1.
    10030    2    1    2    0    0  0.00000000000E+00  0.00000000000E+00 -0.17328426786E+04  0.40718148323E+04  0.36846888987E+04 0.  0.
        1    1    3    3  502    0  0.22919613877E+03  0.11691423563E+04  0.68650076464E+03  0.13750301884E+04  0.50400001928E-02 0. -1.
       -1    1    3    3    0  502 -0.22919613877E+03 -0.11691423563E+04 -0.24193434432E+04  0.26967846439E+04  0.50400001928E-02 0.  1.
</event>
<event>
 5   0  0.5177000E-08  0.3650672E+04  0.7818609E-02  0.8078982E-01
        1   -1    0    0  501    0  0.00000000000E+00  0.00000000000E+00  0.31095262935E+04  0.31095262935E+04  0.50400001928E-02 0. -1.
       -1   -1    0    0    0  501  0.00000000000E+00  0.00000000000E+00 -0.10714982530E+04  0.10714982530E+04  0.50400001928E-02 0.  1.
    10030    2    1    2    0    0  0.00000000000E+00  0.00000000000E+00  0.20380280405E+04  0.41810245465E+04  0.36506722620E+04 0.  0.
        4    1    3    3  502    0  0.10916324251E+04 -0.79292655306E+03  0.24270303729E+04  0.27768456770E+04  0.12699999809E+01 0. -1.
       -4    1    3    3    0  502 -0.10916324251E+04  0.79292655306E+03 -0.38900233239E+03  0.14041788695E+04  0.12699999809E+01 0.  1.
</event>
<event>
 5   0  0.1587026E-07  0.3691500E+04  0.7818609E-02  0.8069848E-01
        2   -1    0    0  501    0  0.00000000000E+00  0.00000000000E+00  0.98615878256E+03  0.98615878256E+03  0.25500000920E-02 0.  1.
       -2   -1    0    0    0  501  0.00000000000E+00  0.00000000000E+00 -0.34546088278E+04  0.34546088278E+04  0.25500000920E-02 0. -1.
    10030    2    1    2    0    0  0.00000000000E+00  0.00000000000E+00 -0.24684500452E+04  0.44407676104E+04  0.36914998772E+04 0.  0.
        3    1    3    3  502    0 -0.10110893575E+04  0.91688039948E+02  0.62010113046E+03  0.11896359980E+04  0.10100000352E+00 0.  1.
       -3    1    3    3    0  502  0.10110893575E+04 -0.91688039948E+02 -0.30885511757E+04  0.32511316123E+04  0.10100000352E+00 0. -1.
</event>
<event>
 5   0  0.5181371E-08  0.3704846E+04  0.7818609E-02  0.8066889E-01
       -1   -1    0    0    0  501  0.00000000000E+00  0.00000000000E+00  0.15282758737E+04  0.15282758737E+04  0.50400001928E-02 0.  1.
        1   -1    0    0  501    0  0.00000000000E+00  0.00000000000E+00 -0.22453215198E+04  0.22453215198E+04  0.50400001928E-02 0. -1.
    10030    2    1    2    0    0  0.00000000000E+00  0.00000000000E+00 -0.71704564607E+03  0.37735973935E+04  0.37048458578E+04 0.  0.
        5    1    3    3  502    0  0.12608243020E+04 -0.30682705361E+03  0.98798815611E+03  0.16309394372E+04  0.46999998093E+01 0.  1.
       -5    1    3    3    0  502 -0.12608243020E+04  0.30682705361E+03 -0.17050338022E+04  0.21426579563E+04  0.46999998093E+01 0. -1.
</event>
<event>
 5   0  0.5177000E-08  0.3657894E+04  0.7818609E-02  0.8077358E-01
       -1   -1    0    0    0  501  0.00000000000E+00  0.00000000000E+00  0.33700879098E+04  0.33700879098E+04  0.50400001928E-02 0.  1.
        1   -1    0    0  501    0  0.00000000000E+00  0.00000000000E+00 -0.99256948449E+03  0.99256948451E+03  0.50400001928E-02 0. -1.
    10030    2    1    2    0    0  0.00000000000E+00  0.00000000000E+00  0.23775184254E+04  0.43626573944E+04  0.36578936121E+04 0.  0.
        3    1    3    3  502    0 -0.11159166617E+04  0.46203064106E+03 -0.44928603019E+03  0.12886427963E+04  0.10100000352E+00 0. -1.
       -3    1    3    3    0  502  0.11159166617E+04 -0.46203064106E+03  0.28268044555E+04  0.30740145981E+04  0.10100000352E+00 0.  1.
</event>
<event>
 5   0  0.1658770E-07  0.3737596E+04  0.7818609E-02  0.8059681E-01
       -2   -1    0    0    0  501  0.00000000000E+00  0.00000000000E+00  0.14422704953E+04  0.14422704953E+04  0.25500000920E-02 0.  1.
        2   -1    0    0  501    0  0.00000000000E+00  0.00000000000E+00 -0.24214637363E+04  0.24214637363E+04  0.25500000920E-02 0. -1.
    10030    2    1    2    0    0  0.00000000000E+00  0.00000000000E+00 -0.97919324101E+03  0.38637342316E+04  0.37375958595E+04 0.  0.
        2    1    3    3  502    0 -0.58490807349E+03  0.19411312769E+03  0.13342030973E+04  0.14696582139E+04  0.25500000920E-02 0.  1.
       -2    1    3    3    0  502  0.58490807349E+03 -0.19411312769E+03 -0.23133963383E+04  0.23940760178E+04  0.25500000920E-02 0. -1.
</event>
<event>
 5   0  0.1686284E-07  0.3658282E+04  0.7818609E-02  0.8077270E-01
       -2   -1    0    0    0  501  0.00000000000E+00  0.00000000000E+00  0.14977795976E+04  0.14977795976E+04  0.25500000920E-02 0.  1.
        2   -1    0    0  501    0  0.00000000000E+00  0.00000000000E+00 -0.22338113050E+04  0.22338113050E+04  0.25500000920E-02 0. -1.
    10030    2    1    2    0    0  0.00000000000E+00  0.00000000000E+00 -0.73603170743E+03  0.37315909025E+04  0.36582821091E+04 0.  0.
        5    1    3    3  502    0  0.84594309126E+03 -0.13773408230E+04  0.50532319035E+03  0.16935350818E+04  0.46999998093E+01 0.  1.
       -5    1    3    3    0  502 -0.84594309126E+03  0.13773408230E+04 -0.12413548978E+04  0.20380558208E+04  0.46999998093E+01 0. -1.
</event>
<event>
 5   0  0.5177000E-08  0.3677612E+04  0.7818609E-02  0.8072942E-01
        1   -1    0    0  501    0  0.00000000000E+00  0.00000000000E+00  0.30455601101E+04  0.30455601101E+04  0.50400001928E-02 0.  1.
       -1   -1    0    0    0  501  0.00000000000E+00  0.00000000000E+00 -0.11102086132E+04  0.11102086132E+04  0.50400001928E-02 0. -1.
    10030    2    1    2    0    0  0.00000000000E+00  0.00000000000E+00  0.19353514969E+04  0.41557687234E+04  0.36776117611E+04 0.  0.
        4    1    3    3  502    0  0.10081791255E+04 -0.15008566206E+04  0.13462061004E+04  0.22541668577E+04  0.12699999809E+01 0. -1.
       -4    1    3    3    0  502 -0.10081791255E+04  0.15008566206E+04  0.58914539651E+03  0.19016018657E+04  0.12699999809E+01 0.  1.
</event>
<event>
 5   0  0.1666189E-07  0.3696441E+04  0.7818609E-02  0.8068751E-01
        2   -1    0    0  501    0  0.00000000000E+00  0.00000000000E+00  0.25157522473E+04  0.25157522473E+04  0.25500000920E-02 0.  1.
       -2   -1    0    0    0  501  0.00000000000E+00  0.00000000000E+00 -0.13578124710E+04  0.13578124710E+04  0.25500000920E-02 0. -1.
    10030    2    1    2    0    0  0.00000000000E+00  0.00000000000E+00  0.11579397762E+04  0.38735647183E+04  0.36964414105E+04 0.  0.
        4    1    3    3  502    0 -0.81917882946E+03 -0.15944709453E+04  0.10737614038E+03  0.17958070048E+04  0.12699999809E+01 0. -1.
       -4    1    3    3    0  502  0.81917882946E+03  0.15944709453E+04  0.10505636359E+04  0.20777577135E+04  0.12699999809E+01 0.  1.
</event>
<event>
 5   0  0.5181371E-08  0.3701930E+04  0.7818609E-02  0.8067534E-01
        1   -1    0    0  501    0  0.00000000000E+00  0.00000000000E+00  0.16511626544E+04  0.16511626544E+04  0.50400001928E-02 0. -1.
       -1   -1    0    0    0  501  0.00000000000E+00  0.00000000000E+00 -0.20749447070E+04  0.20749447070E+04  0.50400001928E-02 0.  1.
    10030    2    1    2    0    0  0.00000000000E+00  0.00000000000E+00 -0.42378205258E+03  0.37261073614E+04  0.37019298805E+04 0.  0.
        5    1    3    3  502    0 -0.17031577552E+04 -0.72459155166E+03 -0.19535618728E+03  0.18611731208E+04  0.46999998093E+01 0. -1.
       -5    1    3    3    0  502  0.17031577552E+04  0.72459155166E+03 -0.22842586531E+03  0.18649342406E+04  0.46999998093E+01 0.  1.
</event>
<event>
 5   0  0.1658770E-07  0.3699116E+04  0.7818609E-02  0.8068158E-01
       -2   -1    0    0    0  501  0.00000000000E+00  0.00000000000E+00  0.15205772803E+04  0.15205772803E+04  0.25500000920E-02 0.  1.
        2   -1    0    0  501    0  0.00000000000E+00  0.00000000000E+00 -0.22497139299E+04  0.22497139299E+04  0.25500000920E-02 0. -1.
    10030    2    1    2    0    0  0.00000000000E+00  0.00000000000E+00 -0.72913664963E+03  0.37702912102E+04  0.36991155100E+04 0.  0.
        2    1    3    3  502    0 -0.87092988347E+03  0.14696787778E+04 -0.10870007005E+04  0.20248568085E+04  0.25500000920E-02 0. -1.
       -2    1    3    3    0  502  0.87092988347E+03 -0.14696787778E+04  0.35786405088E+03  0.17454344018E+04  0.25500000920E-02 0.  1.
</event>
<event>
 5   0  0.1587026E-07  0.3694356E+04  0.7818609E-02  0.8069214E-01
        2   -1    0    0  501    0  0.00000000000E+00  0.00000000000E+00  0.28381714475E+04  0.28381714475E+04  0.25500000920E-02 0.  1.
       -2   -1    0    0    0  501  0.00000000000E+00  0.00000000000E+00 -0.12022062304E+04  0.12022062304E+04  0.25500000920E-02 0. -1.
    10030    2    1    2    0    0  0.00000000000E+00  0.00000000000E+00  0.16359652171E+04  0.40403776779E+04  0.36943564512E+04 0.  0.
        3    1    3    3  502    0 -0.86836893175E+03 -0.61255032253E+03 -0.83441919874E+03  0.13511246829E+04  0.10100000352E+00 0. -1.
       -3    1    3    3    0  502  0.86836893175E+03  0.61255032253E+03  0.24703844158E+04  0.26892529950E+04  0.10100000352E+00 0.  1.
</event>
<event>
 5   0  0.5177000E-08  0.3700601E+04  0.7818609E-02  0.8067829E-01
       -1   -1    0    0    0  501  0.00000000000E+00  0.00000000000E+00  0.24184242941E+04  0.24184242941E+04  0.50400001928E-02 0.  1.
        1   -1    0    0  501    0  0.00000000000E+00  0.00000000000E+00 -0.14156373777E+04  0.14156373778E+04  0.50400001928E-02 0. -1.
    10030    2    1    2    0    0  0.00000000000E+00  0.00000000000E+00  0.10027869163E+04  0.38340616718E+04  0.37006009382E+04 0.  0.
        2    1    3    3  502    0  0.29548791523E+03  0.14847757831E+04  0.16035926653E+04  0.22053076136E+04  0.25500000920E-02 0.  1.
       -2    1    3    3    0  502 -0.29548791523E+03 -0.14847757831E+04 -0.60080574900E+03  0.16287540583E+04  0.25500000920E-02 0. -1.
</event>
<event>
 5   0  0.5181371E-08  0.3706811E+04  0.7818609E-02  0.8066454E-01
       -1   -1    0    0    0  501  0.00000000000E+00  0.00000000000E+00  0.21812106072E+04  0.21812106072E+04  0.50400001928E-02 0. -1.
        1   -1    0    0  501    0  0.00000000000E+00  0.00000000000E+00 -0.15748650201E+04  0.15748650201E+04  0.50400001928E-02 0.  1.
    10030    2    1    2    0    0  0.00000000000E+00  0.00000000000E+00  0.60634558710E+03  0.37560756272E+04  0.37068111830E+04 0.  0.
        5    1    3    3  502    0  0.59992429495E+03 -0.62577053414E+03  0.19631117986E+04  0.21460027830E+04  0.46999998093E+01 0. -1.
       -5    1    3    3    0  502 -0.59992429495E+03  0.62577053414E+03 -0.13567662115E+04  0.16100728442E+04  0.46999998093E+01 0.  1.
</event>
<event>
 5   0  0.1587026E-07  0.3695203E+04  0.7818609E-02  0.8069026E-01
       -2   -1    0    0    0  501  0.00000000000E+00  0.00000000000E+00  0.19897549968E+04  0.19897549968E+04  0.25500000920E-02 0. -1.
        2   -1    0    0  501    0  0.00000000000E+00  0.00000000000E+00 -0.17156036481E+04  0.17156036481E+04  0.25500000920E-02 0.  1.
    10030    2    1    2    0    0  0.00000000000E+00  0.00000000000E+00  0.27415134867E+03  0.37053586449E+04  0.36952027990E+04 0.  0.
        3    1    3    3  502    0 -0.11307236576E+04 -0.12969620582E+04 -0.53781522404E+03  0.18027456270E+04  0.10100000352E+00 0. -1.
       -3    1    3    3    0  502  0.11307236576E+04  0.12969620582E+04  0.81196657271E+03  0.19026130179E+04  0.10100000352E+00 0.  1.
</event>
<event>
 5   0  0.1587026E-07  0.3564142E+04  0.7818609E-02  0.8098755E-01
       -2   -1    0    0    0  501  0.00000000000E+00  0.00000000000E+00  0.13920595969E+04  0.13920595969E+04  0.25500000920E-02 0.  1.
        2   -1    0    0  501    0  0.00000000000E+00  0.00000000000E+00 -0.22813513979E+04  0.22813513979E+04  0.25500000920E-02 0. -1.
    10030    2    1    2    0    0  0.00000000000E+00  0.00000000000E+00 -0.88929180102E+03  0.36734109948E+04  0.35641420327E+04 0.  0.
        3    1    3    3  502    0 -0.14471074743E+04  0.80704291699E+02  0.62403441735E+03  0.15779899205E+04  0.10100000352E+00 0. -1.
       -3    1    3    3    0  502  0.14471074743E+04 -0.80704291699E+02 -0.15133262184E+04  0.20954210742E+04  0.10100000352E+00 0.  1.
</event>
<event>
 5   0  0.1658770E-07  0.3721651E+04  0.7818609E-02  0.8063181E-01
        2   -1    0    0  501    0  0.00000000000E+00  0.00000000000E+00  0.25393479221E+04  0.25393479221E+04  0.25500000920E-02 0.  1.
       -2   -1    0    0    0  501  0.00000000000E+00  0.00000000000E+00 -0.13636063936E+04  0.13636063936E+04  0.25500000920E-02 0. -1.
    10030    2    1    2    0    0  0.00000000000E+00  0.00000000000E+00  0.11757415285E+04  0.39029543157E+04  0.37216507425E+04 0.  0.
        2    1    3    3  502    0 -0.16007145926E+04  0.41543096585E+02 -0.40628648178E+03  0.16519932630E+04  0.25500000920E-02 0. -1.
       -2    1    3    3    0  502  0.16007145926E+04 -0.41543096585E+02  0.15820280103E+04  0.22509610527E+04  0.25500000920E-02 0.  1.
</event>
<event>
 5   0  0.5177000E-08  0.3701763E+04  0.7818609E-02  0.8067571E-01
        1   -1    0    0  501    0  0.00000000000E+00  0.00000000000E+00  0.13026984677E+04  0.13026984677E+04  0.50400001928E-02 0.  1.
       -1   -1    0    0    0  501  0.00000000000E+00  0.00000000000E+00 -0.26297437046E+04  0.26297437046E+04  0.50400001928E-02 0. -1.
    10030    2    1    2    0    0  0.00000000000E+00  0.00000000000E+00 -0.13270452369E+04  0.39324421723E+04  0.37017634146E+04 0.  0.
        1    1    3    3  502    0 -0.42894556172E+03  0.14012668771E+04  0.53751463912E+03  0.15609180449E+04  0.50400001928E-02 0.  1.
       -1    1    3    3    0  502  0.42894556172E+03 -0.14012668771E+04 -0.18645598760E+04  0.23715241274E+04  0.50400001928E-02 0. -1.
</event>
<event>
 5   0  0.1666189E-07  0.3699514E+04  0.7818609E-02  0.8068070E-01
        2   -1    0    0  501    0  0.00000000000E+00  0.00000000000E+00  0.26811628136E+04  0.26811628136E+04  0.25500000920E-02 0.  1.
       -2   -1    0    0    0  501  0.00000000000E+00  0.00000000000E+00 -0.12761627777E+04  0.12761627777E+04  0.25500000920E-02 0. -1.
    10030    2    1    2    0    0  0.00000000000E+00  0.00000000000E+00  0.14050000358E+04  0.39573255913E+04  0.36995135808E+04 0.  0.
        4    1    3    3  502    0  0.63634074650E+03  0.17368548191E+04  0.70473423471E+03  0.19794560270E+04  0.12699999809E+01 0.  1.
       -4    1    3    3    0  502 -0.63634074650E+03 -0.17368548191E+04  0.70026580112E+03  0.19778695643E+04  0.12699999809E+01 0. -1.
</event>
<event>
 5   0  0.1587026E-07  0.3687461E+04  0.7818609E-02  0.8070746E-01
        2   -1    0    0  501    0  0.00000000000E+00  0.00000000000E+00  0.24037935994E+04  0.24037935994E+04  0.25500000920E-02 0. -1.
       -2   -1    0    0    0  501  0.00000000000E+00  0.00000000000E+00 -0.14141572304E+04  0.14141572304E+04  0.25500000920E-02 0.  1.
    10030    2    1    2    0    0  0.00000000000E+00  0.00000000000E+00  0.98963636907E+03  0.38179508298E+04  0.36874609687E+04 0.  0.
        3    1    3    3  502    0  0.15053305699E+04  0.82988434025E+03  0.11852081005E+04  0.20879287331E+04  0.10100000352E+00 0. -1.
       -3    1    3    3    0  502 -0.15053305699E+04 -0.82988434025E+03 -0.19557173146E+03  0.17300220967E+04  0.10100000352E+00 0.  1.
</event>
<event>
 5   0  0.5177000E-08  0.3696770E+04  0.7818609E-02  0.8068678E-01
        1   -1    0    0  501    0  0.00000000000E+00  0.00000000000E+00  0.14754194554E+04  0.14754194554E+04  0.50400001928E-02 0.  1.
       -1   -1    0    0    0  501  0.00000000000E+00  0.00000000000E+00 -0.23156309713E+04  0.23156309713E+04  0.50400001928E-02 0. -1.
    10030    2    1    2    0    0  0.00000000000E+00  0.00000000000E+00 -0.84021151589E+03  0.37910504267E+04  0.36967699342E+04 0.  0.
        2    1    3    3  502    0 -0.10321929118E+04  0.47782892811E+03 -0.19142415547E+04  0.22266709280E+04  0.25500000920E-02 0. -1.
       -2    1    3    3    0  502  0.10321929118E+04 -0.47782892811E+03  0.10740300388E+04  0.15643794987E+04  0.25500000920E-02 0.  1.
</event>
<event>
 5   0  0.5177000E-08  0.3688124E+04  0.7818609E-02  0.8070599E-01
        1   -1    0    0  501    0  0.00000000000E+00  0.00000000000E+00  0.17949372722E+04  0.17949372722E+04  0.50400001928E-02 0.  1.
       -1   -1    0    0    0  501  0.00000000000E+00  0.00000000000E+00 -0.18945310443E+04  0.18945310443E+04  0.50400001928E-02 0. -1.
    10030    2    1    2    0    0  0.00000000000E+00  0.00000000000E+00 -0.99593772088E+02  0.36894683166E+04  0.36881238509E+04 0.  0.
        1    1    3    3  502    0  0.15801623180E+04 -0.53039131366E+03 -0.83896752846E+03  0.18660370871E+04  0.50400001928E-02 0. -1.
       -1    1    3    3    0  502 -0.15801623180E+04  0.53039131366E+03  0.73937375637E+03  0.18234312294E+04  0.50400001928E-02 0.  1.
</event>
<event>
 5   0  0.1558258E-07  0.3443536E+04  0.7818609E-02  0.8127303E-01
        2   -1    0    0  501    0  0.00000000000E+00  0.00000000000E+00  0.12560096543E+04  0.12560096543E+04  0.25500000920E-02 0.  1.
       -2   -1    0    0    0  501  0.00000000000E+00  0.00000000000E+00 -0.23602401389E+04  0.23602401389E+04  0.25500000920E-02 0. -1.
    10030    2    1    2    0    0  0.00000000000E+00  0.00000000000E+00 -0.11042304846E+04  0.36162497932E+04  0.34435356255E+04 0.  0.
        1    1    3    3  502    0 -0.12029417220E+04 -0.90292300746E+03  0.32785391069E+03  0.15394242205E+04  0.50400001928E-02 0.  1.
       -1    1    3    3    0  502  0.12029417220E+04  0.90292300746E+03 -0.14320843953E+04  0.20768255727E+04  0.50400001928E-02 0. -1.
</event>
<event>
 5   0  0.5181371E-08  0.3686237E+04  0.7818609E-02  0.8071019E-01
       -1   -1    0    0    0  501  0.00000000000E+00  0.00000000000E+00  0.16150444174E+04  0.16150444174E+04  0.50400001928E-02 0.  1.
        1   -1    0    0  501    0  0.00000000000E+00  0.00000000000E+00 -0.21034005640E+04  0.21034005640E+04  0.50400001928E-02 0. -1.
    10030    2    1    2    0    0  0.00000000000E+00  0.00000000000E+00 -0.48835614666E+03  0.37184449814E+04  0.36862367468E+04 0.  0.
        5    1    3    3  502    0  0.79013923241E+03  0.10443282842E+04  0.10641204148E+04  0.16873991582E+04  0.46999998093E+01 0. -1.
       -5    1    3    3    0  502 -0.79013923241E+03 -0.10443282842E+04 -0.15524765615E+04  0.20310458232E+04  0.46999998093E+01 0.  1.
</event>
<event>
 5   0  0.5177000E-08  0.3695420E+04  0.7818609E-02  0.8068978E-01
       -1   -1    0    0    0  501  0.00000000000E+00  0.00000000000E+00  0.19648316475E+04  0.19648316475E+04  0.50400001928E-02 0. -1.
        1   -1    0    0  501    0  0.00000000000E+00  0.00000000000E+00 -0.17375696155E+04  0.17375696155E+04  0.50400001928E-02 0.  1.
    10030    2    1    2    0    0  0.00000000000E+00  0.00000000000E+00  0.22726203199E+03  0.37024012630E+04  0.36954197436E+04 0.  0.
        1    1    3    3  502    0  0.13979231482E+04  0.10708441596E+04 -0.44701122190E+03  0.18167871022E+04  0.50400001928E-02 0. -1.
       -1    1    3    3    0  502 -0.13979231482E+04 -0.10708441596E+04  0.67427325389E+03  0.18856141608E+04  0.50400001928E-02 0.  1.
</event>
<event>
 5   0  0.1587026E-07  0.3705287E+04  0.7818609E-02  0.8066791E-01
        2   -1    0    0  501    0  0.00000000000E+00  0.00000000000E+00  0.18456490336E+04  0.18456490336E+04  0.25500000920E-02 0.  1.
       -2   -1    0    0    0  501  0.00000000000E+00  0.00000000000E+00 -0.18596647254E+04  0.18596647255E+04  0.25500000920E-02 0. -1.
    10030    2    1    2    0    0  0.00000000000E+00  0.00000000000E+00 -0.14015691891E+02  0.37053137590E+04  0.37052872511E+04 0.  0.
        3    1    3    3  502    0 -0.13049224129E+04  0.82769402160E+03 -0.10289684319E+04  0.18565225399E+04  0.10100000352E+00 0. -1.
       -3    1    3    3    0  502  0.13049224129E+04 -0.82769402160E+03  0.10149527401E+04  0.18487912191E+04  0.10100000352E+00 0.  1.
</event>
<event>
 5   0  0.5177000E-08  0.3701395E+04  0.7818609E-02  0.8067653E-01
       -1   -1    0    0    0  501  0.00000000000E+00  0.00000000000E+00  0.29722667633E+04  0.29722667633E+04  0.50400001928E-02 0. -1.
        1   -1    0    0  501    0  0.00000000000E+00  0.00000000000E+00 -0.11523464067E+04  0.11523464067E+04  0.50400001928E-02 0.  1.
    10030    2    1    2    0    0  0.00000000000E+00  0.00000000000E+00  0.18199203566E+04  0.41246131700E+04  0.37013948314E+04 0.  0.
        1    1    3    3  502    0 -0.70443247071E+03  0.15911499361E+04  0.20775100986E+03  0.17524678904E+04  0.50400001928E-02 0.  1.
       -1    1    3    3    0  502  0.70443247071E+03 -0.15911499361E+04  0.16121693468E+04  0.23721452796E+04  0.50400001928E-02 0. -1.
</event>
<event>
 5   0  0.5177000E-08  0.3712468E+04  0.7818609E-02  0.8065204E-01
       -1   -1    0    0    0  501  0.00000000000E+00  0.00000000000E+00  0.20788165665E+04  0.20788165665E+04  0.50400001928E-02 0. -1.
        1   -1    0    0  501    0  0.00000000000E+00  0.00000000000E+00 -0.16574837126E+04  0.16574837126E+04  0.50400001928E-02 0.  1.
    10030    2    1    2    0    0  0.00000000000E+00  0.00000000000E+00  0.42133285385E+03  0.37363002791E+04  0.37124679665E+04 0.  0.
        1    1    3    3  502    0 -0.13620910504E+04  0.23359712516E+03 -0.10365407633E+04  0.17275058322E+04  0.50400001928E-02 0.  1.
       -1    1    3    3    0  502  0.13620910504E+04 -0.23359712516E+03  0.14578736171E+04  0.20087944469E+04  0.50400001928E-02 0. -1.
</event>
<event>
 5   0  0.5177000E-08  0.3700503E+04  0.7818609E-02  0.8067850E-01
       -1   -1    0    0    0  501  0.00000000000E+00  0.00000000000E+00  0.31218075112E+04  0.31218075112E+04  0.50400001928E-02 0.  1.
        1   -1    0    0  501    0  0.00000000000E+00  0.00000000000E+00 -0.10966181369E+04  0.10966181369E+04  0.50400001928E-02 0. -1.
    10030    2    1    2    0    0  0.00000000000E+00  0.00000000000E+00  0.20251893743E+04  0.42184256481E+04  0.37005030667E+04 0.  0.
        2    1    3    3  502    0  0.15781719045E+04  0.87638349314E+03  0.14753063507E+04  0.23313522719E+04  0.25500000920E-02 0.  1.
       -2    1    3    3    0  502 -0.15781719045E+04 -0.87638349314E+03  0.54988302355E+03  0.18870733761E+04  0.25500000920E-02 0. -1.
</event>
<event>
 5   0  0.1558258E-07  0.3710330E+04  0.7818609E-02  0.8065676E-01
        2   -1    0    0  501    0  0.00000000000E+00  0.00000000000E+00  0.16582503387E+04  0.16582503387E+04  0.25500000920E-02 0.  1.
       -2   -1    0    0    0  501  0.00000000000E+00  0.00000000000E+00 -0.20754634318E+04  0.20754634318E+04  0.25500000920E-02 0. -1.
    10030    2    1    2    0    0  0.00000000000E+00  0.00000000000E+00 -0.41721309312E+03  0.37337137705E+04  0.37103304105E+04 0.  0.
        1    1    3    3  502    0  0.62285792662E+03  0.16370932836E+04 -0.82369640531E+03  0.19355883302E+04  0.50400001928E-02 0.  1.
       -1    1    3    3    0  502 -0.62285792662E+03 -0.16370932836E+04  0.40648331219E+03  0.17981254403E+04  0.50400001928E-02 0. -1.
</event>
<event>
 5   0  0.1587026E-07  0.3711073E+04  0.7818609E-02  0.8065512E-01
        2   -1    0    0  501    0  0.00000000000E+00  0.00000000000E+00  0.27022722199E+04  0.27022722199E+04  0.25500000920E-02 0.  1.
       -2   -1    0    0    0  501  0.00000000000E+00  0.00000000000E+00 -0.12741185215E+04  0.12741185215E+04  0.25500000920E-02 0. -1.
    10030    2    1    2    0    0  0.00000000000E+00  0.00000000000E+00  0.14281536984E+04  0.39763907415E+04  0.37110726674E+04 0.  0.
        3    1    3    3  502    0 -0.14229960607E+04  0.59419019263E+03 -0.39171044897E+03  0.15910426958E+04  0.10100000352E+00 0. -1.
       -3    1    3    3    0  502  0.14229960607E+04 -0.59419019263E+03  0.18198641474E+04  0.23853480457E+04  0.10100000352E+00 0.  1.
</event>
<event>
 5   0  0.1658770E-07  0.3696378E+04  0.7818609E-02  0.8068765E-01
       -2   -1    0    0    0  501  0.00000000000E+00  0.00000000000E+00  0.24972462361E+04  0.24972462361E+04  0.25500000920E-02 0.  1.
        2   -1    0    0  501    0  0.00000000000E+00  0.00000000000E+00 -0.13678275045E+04  0.13678275045E+04  0.25500000920E-02 0. -1.
    10030    2    1    2    0    0  0.00000000000E+00  0.00000000000E+00  0.11294187316E+04  0.38650737406E+04  0.36963777335E+04 0.  0.
        2    1    3    3  502    0  0.48864570034E+03  0.60275409798E+03 -0.11892579198E+04  0.14200075785E+04  0.25500000920E-02 0. -1.
       -2    1    3    3    0  502 -0.48864570034E+03 -0.60275409798E+03  0.23186766514E+04  0.24450661621E+04  0.25500000920E-02 0.  1.
</event>
<event>
 5   0  0.1558258E-07  0.3695694E+04  0.7818609E-02  0.8068917E-01
       -2   -1    0    0    0  501  0.00000000000E+00  0.00000000000E+00  0.13180384054E+04  0.13180384054E+04  0.25500000920E-02 0. -1.
        2   -1    0    0  501    0  0.00000000000E+00  0.00000000000E+00 -0.25906219956E+04  0.25906219956E+04  0.25500000920E-02 0.  1.
    10030    2    1    2    0    0  0.00000000000E+00  0.00000000000E+00 -0.12725835902E+04  0.39086604010E+04  0.36956944052E+04 0.  0.
        1    1    3    3  502    0  0.69483558832E+03  0.88511471549E+03  0.91388360077E+03  0.14496233270E+04  0.50400001928E-02 0. -1.
       -1    1    3    3    0  502 -0.69483558832E+03 -0.88511471549E+03 -0.21864671910E+04  0.24590370741E+04  0.50400001928E-02 0.  1.
</event>
<event>
 5   0  0.1587026E-07  0.3698440E+04  0.7818609E-02  0.8068308E-01
        2   -1    0    0  501    0  0.00000000000E+00  0.00000000000E+00  0.27130495628E+04  0.27130495628E+04  0.25500000920E-02 0. -1.
       -2   -1    0    0    0  501  0.00000000000E+00  0.00000000000E+00 -0.12604322590E+04  0.12604322591E+04  0.25500000920E-02 0.  1.
    10030    2    1    2    0    0  0.00000000000E+00  0.00000000000E+00  0.14526173038E+04  0.39734818219E+04  0.36984403142E+04 0.  0.
        3    1    3    3  502    0 -0.14197594208E+04  0.10611866087E+04  0.12925533602E+04  0.21937474856E+04  0.10100000352E+00 0. -1.
       -3    1    3    3    0  502  0.14197594208E+04 -0.10611866087E+04  0.16006394353E+03  0.17797343363E+04  0.10100000352E+00 0.  1.
</event>
<event>
 5   0  0.5177000E-08  0.3676789E+04  0.7818609E-02  0.8073125E-01
       -1   -1    0    0    0  501  0.00000000000E+00  0.00000000000E+00  0.14231633564E+04  0.14231633564E+04  0.50400001928E-02 0.  1.
        1   -1    0    0  501    0  0.00000000000E+00  0.00000000000E+00 -0.23747765867E+04  0.23747765867E+04  0.50400001928E-02 0. -1.
    10030    2    1    2    0    0  0.00000000000E+00  0.00000000000E+00 -0.95161323028E+03  0.37979399431E+04  0.36767893700E+04 0.  0.
        1    1    3    3  502    0  0.47446281990E+03  0.69466270535E+03  0.12126873030E+04  0.14759003139E+04  0.50400001928E-02 0.  1.
       -1    1    3    3    0  502 -0.47446281990E+03 -0.69466270535E+03 -0.21643005332E+04  0.23220396293E+04  0.50400001928E-02 0. -1.
</event>
<event>
 5   0  0.5177000E-08  0.3706119E+04  0.7818609E-02  0.8066607E-01
        3   -1    0    0  501    0  0.00000000000E+00  0.00000000000E+00  0.17694409777E+04  0.17694409805E+04  0.10100000352E+00 0.  1.
       -3   -1    0    0    0  501  0.00000000000E+00  0.00000000000E+00 -0.19406297697E+04  0.19406297723E+04  0.10100000352E+00 0. -1.
    10030    2    1    2    0    0  0.00000000000E+00  0.00000000000E+00 -0.17118879203E+03  0.37100707529E+04  0.37061191817E+04 0.  0.
        5    1    3    3  502    0 -0.16149272284E+04  0.72232599849E+03  0.46641258135E+03  0.18295648628E+04  0.46999998093E+01 0.  1.
       -5    1    3    3    0  502  0.16149272284E+04 -0.72232599849E+03 -0.63760137338E+03  0.18805058900E+04  0.46999998093E+01 0. -1.
</event>
<event>
 5   0  0.1666189E-07  0.3693480E+04  0.7818609E-02  0.8069408E-01
        2   -1    0    0  501    0  0.00000000000E+00  0.00000000000E+00  0.17443270390E+04  0.17443270390E+04  0.25500000920E-02 0. -1.
       -2   -1    0    0    0  501  0.00000000000E+00  0.00000000000E+00 -0.19551654143E+04  0.19551654143E+04  0.25500000920E-02 0.  1.
    10030    2    1    2    0    0  0.00000000000E+00  0.00000000000E+00 -0.21083837532E+03  0.36994924533E+04  0.36934796048E+04 0.  0.
        4    1    3    3  502    0 -0.17946534697E+04 -0.32237099197E+03  0.18787511732E+03  0.18330310433E+04  0.12699999809E+01 0.  1.
       -4    1    3    3    0  502  0.17946534697E+04  0.32237099197E+03 -0.39871349264E+03  0.18664614100E+04  0.12699999809E+01 0. -1.
</event>
<event>
 5   0  0.1658770E-07  0.3698398E+04  0.7818609E-02  0.8068317E-01
       -2   -1    0    0    0  501  0.00000000000E+00  0.00000000000E+00  0.17395431018E+04  0.17395431018E+04  0.25500000920E-02 0.  1.
        2   -1    0    0  501    0  0.00000000000E+00  0.00000000000E+00 -0.19657670977E+04  0.19657670978E+04  0.25500000920E-02 0. -1.
    10030    2    1    2    0    0  0.00000000000E+00  0.00000000000E+00 -0.22622399599E+03  0.37053101995E+04  0.36983978123E+04 0.  0.
        2    1    3    3  502    0  0.74396667389E+03 -0.52766528910E+03  0.14985024722E+04  0.17542595955E+04  0.25500000920E-02 0.  1.
       -2    1    3    3    0  502 -0.74396667389E+03  0.52766528910E+03 -0.17247264682E+04  0.19510506040E+04  0.25500000920E-02 0. -1.
</event>
<event>
 5   0  0.5177000E-08  0.3706450E+04  0.7818609E-02  0.8066534E-01
        1   -1    0    0  501    0  0.00000000000E+00  0.00000000000E+00  0.18946669023E+04  0.18946669023E+04  0.50400001928E-02 0.  1.
       -1   -1    0    0    0  501  0.00000000000E+00  0.00000000000E+00 -0.18126897027E+04  0.18126897027E+04  0.50400001928E-02 0. -1.
    10030    2    1    2    0    0  0.00000000000E+00  0.00000000000E+00  0.81977199662E+02  0.37073566050E+04  0.37064501529E+04 0.  0.
        2    1    3    3  502    0 -0.55612990599E+03 -0.18542346418E+03  0.17994802269E+04  0.18925621312E+04  0.25500000920E-02 0.  1.
       -2    1    3    3    0  502  0.55612990599E+03  0.18542346418E+03 -0.17175030273E+04  0.18147944738E+04  0.25500000920E-02 0. -1.
</event>
<event>
 5   0  0.5177000E-08  0.3702516E+04  0.7818609E-02  0.8067404E-01
       -1   -1    0    0    0  501  0.00000000000E+00  0.00000000000E+00  0.12954609847E+04  0.12954609847E+04  0.50400001928E-02 0. -1.
        1   -1    0    0  501    0  0.00000000000E+00  0.00000000000E+00 -0.26455109692E+04  0.26455109692E+04  0.50400001928E-02 0.  1.
    10030    2    1    2    0    0  0.00000000000E+00  0.00000000000E+00 -0.13500499845E+04  0.39409719539E+04  0.37025160339E+04 0.  0.
        2    1    3    3  502    0  0.30502297983E+03  0.17274670901E+04 -0.13047119652E+04  0.21861964408E+04  0.25500000920E-02 0.  1.
       -2    1    3    3    0  502 -0.30502297983E+03 -0.17274670901E+04 -0.45338019298E+02  0.17547755132E+04  0.25500000920E-02 0. -1.
</event>
<event>
 5   0  0.1558258E-07  0.3696113E+04  0.7818609E-02  0.8068824E-01
        2   -1    0    0  501    0  0.00000000000E+00  0.00000000000E+00  0.26921972207E+04  0.26921972207E+04  0.25500000920E-02 0. -1.
       -2   -1    0    0    0  501  0.00000000000E+00  0.00000000000E+00 -0.12685965087E+04  0.12685965087E+04  0.25500000920E-02 0.  1.
    10030    2    1    2    0    0  0.00000000000E+00  0.00000000000E+00  0.14236007120E+04  0.39607937295E+04  0.36961125497E+04 0.  0.
        1    1    3    3  502    0  0.11657624882E+04  0.14217686819E+04  0.91194680150E+03  0.20523341182E+04  0.50400001928E-02 0. -1.
       -1    1    3    3    0  502 -0.11657624882E+04 -0.14217686819E+04  0.51165391052E+03  0.19084596113E+04  0.50400001928E-02 0.  1.
</event>
<event>
 5   0  0.5177000E-08  0.3708913E+04  0.7818609E-02  0.8065990E-01
       -1   -1    0    0    0  501  0.00000000000E+00  0.00000000000E+00  0.12272682016E+04  0.12272682016E+04  0.50400001928E-02 0. -1.
        1   -1    0    0  501    0  0.00000000000E+00  0.00000000000E+00 -0.28021650003E+04  0.28021650003E+04  0.50400001928E-02 0.  1.
    10030    2    1    2    0    0  0.00000000000E+00  0.00000000000E+00 -0.15748967988E+04  0.40294332019E+04  0.37089125093E+04 0.  0.
        1    1    3    3  502    0 -0.30721187102E+03 -0.43357553222E+03 -0.27176824695E+04  0.27691451534E+04  0.50400001928E-02 0.  1.
       -1    1    3    3    0  502  0.30721187102E+03  0.43357553222E+03  0.11427856707E+04  0.12602880485E+04  0.50400001928E-02 0. -1.
</event>
<event>
 5   0  0.5181371E-08  0.3706537E+04  0.7818609E-02  0.8066515E-01
       -1   -1    0    0    0  501  0.00000000000E+00  0.00000000000E+00  0.21001734228E+04  0.21001734228E+04  0.50400001928E-02 0. -1.
        1   -1    0    0  501    0  0.00000000000E+00  0.00000000000E+00 -0.16353904800E+04  0.16353904800E+04  0.50400001928E-02 0.  1.
    10030    2    1    2    0    0  0.00000000000E+00  0.00000000000E+00  0.46478294278E+03  0.37355639028E+04  0.37065367242E+04 0.  0.
        5    1    3    3  502    0 -0.77486598898E+03  0.36690234489E+03  0.18882884022E+04  0.20738104570E+04  0.46999998093E+01 0. -1.
       -5    1    3    3    0  502  0.77486598898E+03 -0.36690234489E+03 -0.14235054594E+04  0.16617534458E+04  0.46999998093E+01 0.  1.
</event>
<event>
 5   0  0.5177000E-08  0.3662987E+04  0.7818609E-02  0.8076214E-01
        1   -1    0    0  501    0  0.00000000000E+00  0.00000000000E+00  0.20253630462E+04  0.20253630462E+04  0.50400001928E-02 0.  1.
       -1   -1    0    0    0  501  0.00000000000E+00  0.00000000000E+00 -0.16561809682E+04  0.16561809682E+04  0.50400001928E-02 0. -1.
    10030    2    1    2    0    0  0.00000000000E+00  0.00000000000E+00  0.36918207799E+03  0.36815440144E+04  0.36629866125E+04 0.  0.
        1    1    3    3  502    0  0.17948990950E+04  0.36154113448E+03  0.13972208989E+03  0.18362725875E+04  0.50400001928E-02 0.  1.
       -1    1    3    3    0  502 -0.17948990950E+04 -0.36154113448E+03  0.22945998811E+03  0.18452714270E+04  0.50400001928E-02 0. -1.
</event>
<event>
 5   0  0.5177000E-08  0.3700942E+04  0.7818609E-02  0.8067753E-01
       -1   -1    0    0    0  501  0.00000000000E+00  0.00000000000E+00  0.15218787935E+04  0.15218787935E+04  0.50400001928E-02 0. -1.
        1   -1    0    0  501    0  0.00000000000E+00  0.00000000000E+00 -0.22500099955E+04  0.22500099955E+04  0.50400001928E-02 0.  1.
    10030    2    1    2    0    0  0.00000000000E+00  0.00000000000E+00 -0.72813120198E+03  0.37718887890E+04  0.37009417706E+04 0.  0.
        3    1    3    3  502    0 -0.17620796891E+04 -0.55939704789E+03 -0.28257915732E+03  0.18702141263E+04  0.10100000352E+00 0. -1.
       -3    1    3    3    0  502  0.17620796891E+04  0.55939704789E+03 -0.44555204465E+03  0.19016746627E+04  0.10100000352E+00 0.  1.
</event>
<event>
 5   0  0.1558258E-07  0.3668640E+04  0.7818609E-02  0.8074947E-01
       -2   -1    0    0    0  501  0.00000000000E+00  0.00000000000E+00  0.16778444868E+04  0.16778444868E+04  0.25500000920E-02 0. -1.
        2   -1    0    0  501    0  0.00000000000E+00  0.00000000000E+00 -0.20053887268E+04  0.20053887268E+04  0.25500000920E-02 0.  1.
    10030    2    1    2    0    0  0.00000000000E+00  0.00000000000E+00 -0.32754423994E+03  0.36832332136E+04  0.36686403035E+04 0.  0.
        1    1    3    3  502    0  0.81258924317E+03 -0.14948273766E+04  0.52446194996E+03  0.17804130141E+04  0.50400001928E-02 0. -1.
       -1    1    3    3    0  502 -0.81258924317E+03  0.14948273766E+04 -0.85200618990E+03  0.19028201995E+04  0.50400001928E-02 0.  1.
</event>
<event>
 5   0  0.1558258E-07  0.3704690E+04  0.7818609E-02  0.8066923E-01
       -2   -1    0    0    0  501  0.00000000000E+00  0.00000000000E+00  0.18547423408E+04  0.18547423408E+04  0.25500000920E-02 0.  1.
        2   -1    0    0  501    0  0.00000000000E+00  0.00000000000E+00 -0.18499503996E+04  0.18499503996E+04  0.25500000920E-02 0. -1.
    10030    2    1    2    0    0  0.00000000000E+00  0.00000000000E+00  0.47919412012E+01  0.37046927404E+04  0.37046896412E+04 0.  0.
        1    1    3    3  502    0  0.17668984140E+04  0.10342697863E+03 -0.54400561128E+03  0.18516396114E+04  0.50400001928E-02 0.  1.
       -1    1    3    3    0  502 -0.17668984140E+04 -0.10342697863E+03  0.54879755248E+03  0.18530531290E+04  0.50400001928E-02 0. -1.
</event>
<event>
 5   0  0.1666189E-07  0.3706825E+04  0.7818609E-02  0.8066451E-01
       -2   -1    0    0    0  501  0.00000000000E+00  0.00000000000E+00  0.15567800026E+04  0.15567800026E+04  0.25500000920E-02 0.  1.
        2   -1    0    0  501    0  0.00000000000E+00  0.00000000000E+00 -0.22065661596E+04  0.22065661596E+04  0.25500000920E-02 0. -1.
    10030    2    1    2    0    0  0.00000000000E+00  0.00000000000E+00 -0.64978615705E+03  0.37633461622E+04  0.37068250952E+04 0.  0.
        4    1    3    3  502    0  0.16148241343E+04  0.50109945890E+03  0.44587917916E+03  0.17485901486E+04  0.12699999809E+01 0. -1.
       -4    1    3    3    0  502 -0.16148241343E+04 -0.50109945890E+03 -0.10956653362E+04  0.20147560136E+04  0.12699999809E+01 0.  1.
</event>
<event>
 5   0  0.5177000E-08  0.3695741E+04  0.7818609E-02  0.8068906E-01
       -1   -1    0    0    0  501  0.00000000000E+00  0.00000000000E+00  0.15782590324E+04  0.15782590325E+04  0.50400001928E-02 0.  1.
        1   -1    0    0  501    0  0.00000000000E+00  0.00000000000E+00 -0.21635396065E+04  0.21635396065E+04  0.50400001928E-02 0. -1.
    10030    2    1    2    0    0  0.00000000000E+00  0.00000000000E+00 -0.58528057407E+03  0.37417986390E+04  0.36957412929E+04 0.  0.
        2    1    3    3  502    0 -0.96270441612E+02 -0.91730806342E+03  0.13285340381E+04  0.16173202440E+04  0.25500000920E-02 0.  1.
       -2    1    3    3    0  502  0.96270441612E+02  0.91730806342E+03 -0.19138146122E+04  0.21244783950E+04  0.25500000920E-02 0. -1.
</event>
<event>
 5   0  0.1686284E-07  0.3693104E+04  0.7818609E-02  0.8069492E-01
       -2   -1    0    0    0  501  0.00000000000E+00  0.00000000000E+00  0.15799717678E+04  0.15799717678E+04  0.25500000920E-02 0.  1.
        2   -1    0    0  501    0  0.00000000000E+00  0.00000000000E+00 -0.21581114499E+04  0.21581114499E+04  0.25500000920E-02 0. -1.
    10030    2    1    2    0    0  0.00000000000E+00  0.00000000000E+00 -0.57813968218E+03  0.37380832177E+04  0.36931044733E+04 0.  0.
        5    1    3    3  502    0 -0.10107572840E+04 -0.15049701820E+04 -0.64429645821E+03  0.19239816922E+04  0.46999998093E+01 0.  1.
       -5    1    3    3    0  502  0.10107572840E+04  0.15049701820E+04  0.66156776033E+02  0.18141015255E+04  0.46999998093E+01 0. -1.
</event>
<event>
 5   0  0.1686284E-07  0.3910576E+04  0.7818609E-02  0.8022833E-01
        2   -1    0    0  501    0  0.00000000000E+00  0.00000000000E+00  0.19466931335E+04  0.19466931335E+04  0.25500000920E-02 0.  1.
       -2   -1    0    0    0  501  0.00000000000E+00  0.00000000000E+00 -0.19639206333E+04  0.19639206333E+04  0.25500000920E-02 0. -1.
    10030    2    1    2    0    0  0.00000000000E+00  0.00000000000E+00 -0.17227499829E+02  0.39106137667E+04  0.39105758202E+04 0.  0.
        5    1    3    3  502    0  0.15053854685E+04  0.78870822613E+03 -0.97551642872E+03  0.19595663978E+04  0.46999998093E+01 0.  1.
       -5    1    3    3    0  502 -0.15053854685E+04 -0.78870822613E+03  0.95828892889E+03  0.19510473689E+04  0.46999998093E+01 0. -1.
</event>
<event>
 5   0  0.1587026E-07  0.3706931E+04  0.7818609E-02  0.8066428E-01
       -2   -1    0    0    0  501  0.00000000000E+00  0.00000000000E+00  0.14613546460E+04  0.14613546460E+04  0.25500000920E-02 0. -1.
        2   -1    0    0  501    0  0.00000000000E+00  0.00000000000E+00 -0.23507878933E+04  0.23507878933E+04  0.25500000920E-02 0.  1.
    10030    2    1    2    0    0  0.00000000000E+00  0.00000000000E+00 -0.88943324733E+03  0.38121425393E+04  0.37069312428E+04 0.  0.
        3    1    3    3  502    0 -0.98538153036E+03 -0.13856334380E+04 -0.12034774291E+04  0.20831021860E+04  0.10100000352E+00 0. -1.
       -3    1    3    3    0  502  0.98538153036E+03  0.13856334380E+04  0.31404418177E+03  0.17290403533E+04  0.10100000352E+00 0.  1.
</event>
<event>
 5   0  0.1686284E-07  0.3686174E+04  0.7818609E-02  0.8071033E-01
       -2   -1    0    0    0  501  0.00000000000E+00  0.00000000000E+00  0.21817399371E+04  0.21817399371E+04  0.25500000920E-02 0. -1.
        2   -1    0    0  501    0  0.00000000000E+00  0.00000000000E+00 -0.15570002972E+04  0.15570002972E+04  0.25500000920E-02 0.  1.
    10030    2    1    2    0    0  0.00000000000E+00  0.00000000000E+00  0.62473963992E+03  0.37387402342E+04  0.36861740221E+04 0.  0.
        5    1    3    3  502    0  0.34058663571E+03 -0.85831989961E+03 -0.13054423473E+04  0.15990353713E+04  0.46999998093E+01 0.  1.
       -5    1    3    3    0  502 -0.34058663571E+03  0.85831989961E+03  0.19301819873E+04  0.21397048629E+04  0.46999998093E+01 0. -1.
</event>
<event>
 5   0  0.1658770E-07  0.3716427E+04  0.7818609E-02  0.8064331E-01
        2   -1    0    0  501    0  0.00000000000E+00  0.00000000000E+00  0.12771145244E+04  0.12771145244E+04  0.25500000920E-02 0.  1.
       -2   -1    0    0    0  501  0.00000000000E+00  0.00000000000E+00 -0.27037179223E+04  0.27037179223E+04  0.25500000920E-02 0. -1.
    10030    2    1    2    0    0  0.00000000000E+00  0.00000000000E+00 -0.14266033979E+04  0.39808324468E+04  0.37164270092E+04 0.  0.
        2    1    3    3  502    0  0.16480397757E+04 -0.75550204310E+03 -0.11499020419E+04  0.21468798629E+04  0.25500000920E-02 0. -1.
       -2    1    3    3    0  502 -0.16480397757E+04  0.75550204310E+03 -0.27670135597E+03  0.18339525839E+04  0.25500000920E-02 0.  1.
</event>
<event>
 5   0  0.1686284E-07  0.3692660E+04  0.7818609E-02  0.8069591E-01
        2   -1    0    0  501    0  0.00000000000E+00  0.00000000000E+00  0.13151059054E+04  0.13151059054E+04  0.25500000920E-02 0.  1.
       -2   -1    0    0    0  501  0.00000000000E+00  0.00000000000E+00 -0.25921362238E+04  0.25921362238E+04  0.25500000920E-02 0. -1.
    10030    2    1    2    0    0  0.00000000000E+00  0.00000000000E+00 -0.12770303184E+04  0.39072421293E+04  0.36926595595E+04 0.  0.
        5    1    3    3  502    0  0.99404029291E+03 -0.47863544347E+02 -0.22840402491E+04  0.24914391368E+04  0.46999998093E+01 0. -1.
       -5    1    3    3    0  502 -0.99404029291E+03  0.47863544347E+02  0.10070099307E+04  0.14158029924E+04  0.46999998093E+01 0.  1.
</event>
<event>
 5   0  0.1658770E-07  0.3696607E+04  0.7818609E-02  0.8068714E-01
        2   -1    0    0  501    0  0.00000000000E+00  0.00000000000E+00  0.14092494440E+04  0.14092494440E+04  0.25500000920E-02 0.  1.
       -2   -1    0    0    0  501  0.00000000000E+00  0.00000000000E+00 -0.24241460439E+04  0.24241460439E+04  0.25500000920E-02 0. -1.
    10030    2    1    2    0    0  0.00000000000E+00  0.00000000000E+00 -0.10148965999E+04  0.38333954879E+04  0.36966073444E+04 0.  0.
        2    1    3    3  502    0  0.11765036853E+04 -0.13941882036E+04 -0.81560559308E+03  0.19982828009E+04  0.25500000920E-02 0.  1.
       -2    1    3    3    0  502 -0.11765036853E+04  0.13941882036E+04 -0.19929100678E+03  0.18351126871E+04  0.25500000920E-02 0. -1.
</event>
<event>
 5   0  0.1666189E-07  0.3719232E+04  0.7818609E-02  0.8063713E-01
        2   -1    0    0  501    0  0.00000000000E+00  0.00000000000E+00  0.23781299993E+04  0.23781299993E+04  0.25500000920E-02 0.  1.
       -2   -1    0    0    0  501  0.00000000000E+00  0.00000000000E+00 -0.14541562419E+04  0.14541562419E+04  0.25500000920E-02 0. -1.
    10030    2    1    2    0    0  0.00000000000E+00  0.00000000000E+00  0.92397375739E+03  0.38322862412E+04  0.37192324921E+04 0.  0.
        4    1    3    3  502    0  0.57324541219E+03  0.55030078107E+03  0.21943812141E+04  0.23338277095E+04  0.12699999809E+01 0.  1.
       -4    1    3    3    0  502 -0.57324541219E+03 -0.55030078107E+03 -0.12704074567E+04  0.14984585317E+04  0.12699999809E+01 0. -1.
</event>
<event>
 5   0  0.1558258E-07  0.3694968E+04  0.7818609E-02  0.8069078E-01
        2   -1    0    0  501    0  0.00000000000E+00  0.00000000000E+00  0.18109445964E+04  0.18109445964E+04  0.25500000920E-02 0. -1.
       -2   -1    0    0    0  501  0.00000000000E+00  0.00000000000E+00 -0.18847611605E+04  0.18847611605E+04  0.25500000920E-02 0.  1.
    10030    2    1    2    0    0  0.00000000000E+00  0.00000000000E+00 -0.73816564160E+02  0.36957057569E+04  0.36949684919E+04 0.  0.
        1    1    3    3  502    0  0.16845403838E+04 -0.71247880066E+03 -0.29752829379E+03  0.18530583994E+04  0.50400001928E-02 0.  1.
       -1    1    3    3    0  502 -0.16845403838E+04  0.71247880066E+03  0.22371172963E+03  0.18426473575E+04  0.50400001928E-02 0. -1.
</event>
<event>
 5   0  0.5177000E-08  0.3535216E+04  0.7818609E-02  0.8105495E-01
        1   -1    0    0  501    0  0.00000000000E+00  0.00000000000E+00  0.18061352716E+04  0.18061352716E+04  0.50400001928E-02 0. -1.
       -1   -1    0    0    0  501  0.00000000000E+00  0.00000000000E+00 -0.17299021174E+04  0.17299021174E+04  0.50400001928E-02 0.  1.
    10030    2    1    2    0    0  0.00000000000E+00  0.00000000000E+00  0.76233154186E+02  0.35360373890E+04  0.35352155411E+04 0.  0.
        1    1    3    3  502    0 -0.10050435460E+04 -0.12157577566E+04  0.83595969464E+03  0.17852193320E+04  0.50400001928E-02 0. -1.
       -1    1    3    3    0  502  0.10050435460E+04  0.12157577566E+04 -0.75972654045E+03  0.17508180570E+04  0.50400001928E-02 0.  1.
</event>
<event>
 5   0  0.5181371E-08  0.3678803E+04  0.7818609E-02  0.8072676E-01
        1   -1    0    0  501    0  0.00000000000E+00  0.00000000000E+00  0.25001469214E+04  0.25001469214E+04  0.50400001928E-02 0. -1.
       -1   -1    0    0    0  501  0.00000000000E+00  0.00000000000E+00 -0.13532796650E+04  0.13532796650E+04  0.50400001928E-02 0.  1.
    10030    2    1    2    0    0  0.00000000000E+00  0.00000000000E+00  0.11468672564E+04  0.38534265864E+04  0.36788030598E+04 0.  0.
        5    1    3    3  502    0  0.29629062286E+03  0.85398698595E+03 -0.11045733172E+04  0.14273003217E+04  0.46999998093E+01 0.  1.
       -5    1    3    3    0  502 -0.29629062286E+03 -0.85398698595E+03  0.22514405736E+04  0.24261262646E+04  0.46999998093E+01 0. -1.
</event>
<event>
 5   0  0.5177000E-08  0.3687404E+04  0.7818609E-02  0.8070759E-01
        1   -1    0    0  501    0  0.00000000000E+00  0.00000000000E+00  0.21053883240E+04  0.21053883240E+04  0.50400001928E-02 0. -1.
       -1   -1    0    0    0  501  0.00000000000E+00  0.00000000000E+00 -0.16145413935E+04  0.16145413935E+04  0.50400001928E-02 0.  1.
    10030    2    1    2    0    0  0.00000000000E+00  0.00000000000E+00  0.49084693050E+03  0.37199297176E+04  0.36874037472E+04 0.  0.
        2    1    3    3  502    0 -0.23450006575E+03  0.17893367030E+04  0.62627234442E+03  0.19102180941E+04  0.25500000920E-02 0. -1.
       -2    1    3    3    0  502  0.23450006575E+03 -0.17893367030E+04 -0.13542541392E+03  0.18097116235E+04  0.25500000920E-02 0.  1.
</event>
<event>
 5   0  0.5181371E-08  0.3696854E+04  0.7818609E-02  0.8068659E-01
       -1   -1    0    0    0  501  0.00000000000E+00  0.00000000000E+00  0.13330164282E+04  0.13330164282E+04  0.50400001928E-02 0.  1.
        1   -1    0    0  501    0  0.00000000000E+00  0.00000000000E+00 -0.25631204940E+04  0.25631204940E+04  0.50400001928E-02 0. -1.
    10030    2    1    2    0    0  0.00000000000E+00  0.00000000000E+00 -0.12301040658E+04  0.38961369222E+04  0.36968536492E+04 0.  0.
        5    1    3    3  502    0  0.14603719322E+04 -0.21868983910E+03 -0.17868081380E+04  0.23180200254E+04  0.46999998093E+01 0. -1.
       -5    1    3    3    0  502 -0.14603719322E+04  0.21868983910E+03  0.55670407220E+03  0.15781168968E+04  0.46999998093E+01 0.  1.
</event>
<event>
 5   0  0.1558258E-07  0.3651204E+04  0.7818609E-02  0.8078862E-01
        2   -1    0    0  501    0  0.00000000000E+00  0.00000000000E+00  0.19380163301E+04  0.19380163301E+04  0.25500000920E-02 0.  1.
       -2   -1    0    0    0  501  0.00000000000E+00  0.00000000000E+00 -0.17197086031E+04  0.17197086031E+04  0.25500000920E-02 0. -1.
    10030    2    1    2    0    0  0.00000000000E+00  0.00000000000E+00  0.21830772702E+03  0.36577249333E+04  0.36512043799E+04 0.  0.
        1    1    3    3  502    0 -0.46043481361E+03 -0.13015868357E+04  0.13057302977E+04  0.19002789581E+04  0.50400001928E-02 0.  1.
       -1    1    3    3    0  502  0.46043481361E+03  0.13015868357E+04 -0.10874225707E+04  0.17574459751E+04  0.50400001928E-02 0. -1.
</event>
<event>
 5   0  0.1666189E-07  0.3705473E+04  0.7818609E-02  0.8066750E-01
        2   -1    0    0  501    0  0.00000000000E+00  0.00000000000E+00  0.17616029320E+04  0.17616029320E+04  0.25500000920E-02 0. -1.
       -2   -1    0    0    0  501  0.00000000000E+00  0.00000000000E+00 -0.19485845654E+04  0.19485845654E+04  0.25500000920E-02 0.  1.
    10030    2    1    2    0    0  0.00000000000E+00  0.00000000000E+00 -0.18698163338E+03  0.37101874974E+04  0.37054728625E+04 0.  0.
        4    1    3    3  502    0 -0.70818994019E+03  0.47386357311E+03 -0.17407438941E+04  0.19381100575E+04  0.12699999809E+01 0.  1.
       -4    1    3    3    0  502  0.70818994019E+03 -0.47386357311E+03  0.15537622607E+04  0.17720774399E+04  0.12699999809E+01 0. -1.
</event>
<event>
 5   0  0.5177000E-08  0.3638262E+04  0.7818609E-02  0.8081783E-01
       -1   -1    0    0    0  501  0.00000000000E+00  0.00000000000E+00  0.14544621198E+04  0.14544621198E+04  0.50400001928E-02 0. -1.
        1   -1    0    0  501    0  0.00000000000E+00  0.00000000000E+00 -0.22752309784E+04  0.22752309784E+04  0.50400001928E-02 0.  1.
    10030    2    1    2    0    0  0.00000000000E+00  0.00000000000E+00 -0.82076885855E+03  0.37296930982E+04  0.36382618223E+04 0.  0.
        4    1    3    3  502    0  0.27761977478E+03  0.91450455633E+03 -0.19971342079E+04  0.22140320639E+04  0.12699999809E+01 0.  1.
       -4    1    3    3    0  502 -0.27761977478E+03 -0.91450455633E+03  0.11763653493E+04  0.15156610343E+04  0.12699999809E+01 0. -1.
</event>
<event>
 5   0  0.5177000E-08  0.3714584E+04  0.7818609E-02  0.8064738E-01
       -1   -1    0    0    0  501  0.00000000000E+00  0.00000000000E+00  0.22392480103E+04  0.22392480103E+04  0.50400001928E-02 0. -1.
        1   -1    0    0  501    0  0.00000000000E+00  0.00000000000E+00 -0.15404872297E+04  0.15404872297E+04  0.50400001928E-02 0.  1.
    10030    2    1    2    0    0  0.00000000000E+00  0.00000000000E+00  0.69876078062E+03  0.37797352401E+04  0.37145836720E+04 0.  0.
        2    1    3    3  502    0  0.80759782088E+02 -0.46441371305E+03 -0.14786060533E+04  0.15519272213E+04  0.25500000920E-02 0.  1.
       -2    1    3    3    0  502 -0.80759782088E+02  0.46441371305E+03  0.21773668339E+04  0.22278080188E+04  0.25500000920E-02 0. -1.
</event>
<event>
 5   0  0.5177000E-08  0.3711881E+04  0.7818609E-02  0.8065334E-01
        1   -1    0    0  501    0  0.00000000000E+00  0.00000000000E+00  0.16471950031E+04  0.16471950031E+04  0.50400001928E-02 0.  1.
       -1   -1    0    0    0  501  0.00000000000E+00  0.00000000000E+00 -0.20911402147E+04  0.20911402147E+04  0.50400001928E-02 0. -1.
    10030    2    1    2    0    0  0.00000000000E+00  0.00000000000E+00 -0.44394521162E+03  0.37383352177E+04  0.37118813086E+04 0.  0.
        2    1    3    3  502    0  0.15013182908E+04 -0.33171787454E+03  0.82491736518E+03  0.17448444108E+04  0.25500000920E-02 0.  1.
       -2    1    3    3    0  502 -0.15013182908E+04  0.33171787454E+03 -0.12688625768E+04  0.19934908069E+04  0.25500000920E-02 0. -1.
</event>
<event>
 5   0  0.1658770E-07  0.3814610E+04  0.7818609E-02  0.8043027E-01
       -2   -1    0    0    0  501  0.00000000000E+00  0.00000000000E+00  0.30370144300E+04  0.30370144300E+04  0.25500000920E-02 0. -1.
        2   -1    0    0  501    0  0.00000000000E+00  0.00000000000E+00 -0.11978251919E+04  0.11978251919E+04  0.25500000920E-02 0.  1.
    10030    2    1    2    0    0  0.00000000000E+00  0.00000000000E+00  0.18391892381E+04  0.42348396220E+04  0.38146100155E+04 0.  0.
        2    1    3    3  502    0  0.10317964321E+04  0.64819792198E+03  0.25485668314E+04  0.28248818236E+04  0.25500000920E-02 0. -1.
       -2    1    3    3    0  502 -0.10317964321E+04 -0.64819792198E+03 -0.70937759327E+03  0.14099577983E+04  0.25500000920E-02 0.  1.
</event>
<event>
 5   0  0.5177000E-08  0.3683458E+04  0.7818609E-02  0.8071638E-01
       -1   -1    0    0    0  501  0.00000000000E+00  0.00000000000E+00  0.12859496503E+04  0.12859496503E+04  0.50400001928E-02 0. -1.
        1   -1    0    0  501    0  0.00000000000E+00  0.00000000000E+00 -0.26377120773E+04  0.26377120773E+04  0.50400001928E-02 0.  1.
    10030    2    1    2    0    0  0.00000000000E+00  0.00000000000E+00 -0.13517624270E+04  0.39236617275E+04  0.36834575731E+04 0.  0.
        1    1    3    3  502    0 -0.16780136475E+03 -0.11989455184E+04  0.80255315523E+03  0.14524872533E+04  0.50400001928E-02 0. -1.
       -1    1    3    3    0  502  0.16780136475E+03  0.11989455184E+04 -0.21543155823E+04  0.24711744742E+04  0.50400001928E-02 0.  1.
</event>
<event>
 5   0  0.5177000E-08  0.3709135E+04  0.7818609E-02  0.8065940E-01
       -1   -1    0    0    0  501  0.00000000000E+00  0.00000000000E+00  0.14917714029E+04  0.14917714029E+04  0.50400001928E-02 0. -1.
        1   -1    0    0  501    0  0.00000000000E+00  0.00000000000E+00 -0.23055955295E+04  0.23055955295E+04  0.50400001928E-02 0.  1.
    10030    2    1    2    0    0  0.00000000000E+00  0.00000000000E+00 -0.81382412665E+03  0.37973669324E+04  0.37091354667E+04 0.  0.
        4    1    3    3  502    0 -0.10613104412E+04  0.61537690613E+03 -0.18308056739E+04  0.22038420128E+04  0.12699999809E+01 0.  1.
       -4    1    3    3    0  502  0.10613104412E+04 -0.61537690613E+03  0.10169815472E+04  0.15935249196E+04  0.12699999809E+01 0. -1.
</event>
<event>
 5   0  0.5177000E-08  0.3754748E+04  0.7818609E-02  0.8055936E-01
       -1   -1    0    0    0  501  0.00000000000E+00  0.00000000000E+00  0.19119361758E+04  0.19119361759E+04  0.50400001928E-02 0. -1.
        1   -1    0    0  501    0  0.00000000000E+00  0.00000000000E+00 -0.18434370353E+04  0.18434370353E+04  0.50400001928E-02 0.  1.
    10030    2    1    2    0    0  0.00000000000E+00  0.00000000000E+00  0.68499140590E+02  0.37553732111E+04  0.37547484366E+04 0.  0.
        3    1    3    3  502    0  0.90235018514E+03 -0.13614625440E+04 -0.89149497460E+03  0.18608007457E+04  0.10100000352E+00 0.  1.
       -3    1    3    3    0  502 -0.90235018514E+03  0.13614625440E+04  0.95999411519E+03  0.18945724654E+04  0.10100000352E+00 0. -1.
</event>
<event>
 5   0  0.5177000E-08  0.3725442E+04  0.7818609E-02  0.8062347E-01
        1   -1    0    0  501    0  0.00000000000E+00  0.00000000000E+00  0.20065547205E+04  0.20065547205E+04  0.50400001928E-02 0.  1.
       -1   -1    0    0    0  501  0.00000000000E+00  0.00000000000E+00 -0.17291975905E+04  0.17291975906E+04  0.50400001928E-02 0. -1.
    10030    2    1    2    0    0  0.00000000000E+00  0.00000000000E+00  0.27735712998E+03  0.37357523111E+04  0.37254420345E+04 0.  0.
        4    1    3    3  502    0  0.28972667811E+03  0.16675605924E+04  0.91866676999E+03  0.19257855863E+04  0.12699999809E+01 0.  1.
       -4    1    3    3    0  502 -0.28972667811E+03 -0.16675605924E+04 -0.64130964001E+03  0.18099667247E+04  0.12699999809E+01 0. -1.
</event>
<event>
 5   0  0.1666189E-07  0.3672393E+04  0.7818609E-02  0.8074108E-01
       -2   -1    0    0    0  501  0.00000000000E+00  0.00000000000E+00  0.12763211793E+04  0.12763211793E+04  0.25500000920E-02 0. -1.
        2   -1    0    0  501    0  0.00000000000E+00  0.00000000000E+00 -0.26416683685E+04  0.26416683685E+04  0.25500000920E-02 0.  1.
    10030    2    1    2    0    0  0.00000000000E+00  0.00000000000E+00 -0.13653471892E+04  0.39179895478E+04  0.36723928370E+04 0.  0.
        4    1    3    3  502    0 -0.88094565818E+03 -0.65223802188E+03  0.88898284246E+03  0.14113014550E+04  0.12699999809E+01 0. -1.
       -4    1    3    3    0  502  0.88094565818E+03  0.65223802188E+03 -0.22543300316E+04  0.25066880927E+04  0.12699999809E+01 0.  1.
</event>
<event>
 5   0  0.1658770E-07  0.3499055E+04  0.7818609E-02  0.8114014E-01
        2   -1    0    0  501    0  0.00000000000E+00  0.00000000000E+00  0.17700541172E+04  0.17700541172E+04  0.25500000920E-02 0. -1.
       -2   -1    0    0    0  501  0.00000000000E+00  0.00000000000E+00 -0.17292392039E+04  0.17292392039E+04  0.25500000920E-02 0.  1.
    10030    2    1    2    0    0  0.00000000000E+00  0.00000000000E+00  0.40814913279E+02  0.34992933212E+04  0.34990552854E+04 0.  0.
        2    1    3    3  502    0 -0.10751058854E+04  0.10121817087E+04 -0.91799666540E+03  0.17387013412E+04  0.25500000920E-02 0.  1.
       -2    1    3    3    0  502  0.10751058854E+04 -0.10121817087E+04  0.95881157868E+03  0.17605919799E+04  0.25500000920E-02 0. -1.
</event>
<event>
 5   0  0.1686284E-07  0.3696982E+04  0.7818609E-02  0.8068631E-01
        2   -1    0    0  501    0  0.00000000000E+00  0.00000000000E+00  0.19470856856E+04  0.19470856856E+04  0.25500000920E-02 0. -1.
       -2   -1    0    0    0  501  0.00000000000E+00  0.00000000000E+00 -0.17548891563E+04  0.17548891563E+04  0.25500000920E-02 0.  1.
    10030    2    1    2    0    0  0.00000000000E+00  0.00000000000E+00  0.19219652925E+03  0.37019748419E+04  0.36969823132E+04 0.  0.
        5    1    3    3  502    0 -0.14075716144E+04 -0.62098875170E+03  0.11221832737E+04  0.19042589816E+04  0.46999998093E+01 0. -1.
       -5    1    3    3    0  502  0.14075716144E+04  0.62098875170E+03 -0.92998674445E+03  0.17977158602E+04  0.46999998093E+01 0.  1.
</event>
<event>
 5   0  0.1587026E-07  0.3726792E+04  0.7818609E-02  0.8062050E-01
       -2   -1    0    0    0  501  0.00000000000E+00  0.00000000000E+00  0.12233324636E+04  0.12233324636E+04  0.25500000920E-02 0. -1.
        2   -1    0    0  501    0  0.00000000000E+00  0.00000000000E+00 -0.28383493304E+04  0.28383493304E+04  0.25500000920E-02 0.  1.
    10030    2    1    2    0    0  0.00000000000E+00  0.00000000000E+00 -0.16150168668E+04  0.40616817940E+04  0.37267921213E+04 0.  0.
        3    1    3    3  502    0 -0.81237435043E+03  0.11560217722E+04 -0.21315454967E+04  0.25573080842E+04  0.10100000352E+00 0.  1.
       -3    1    3    3    0  502  0.81237435043E+03 -0.11560217722E+04  0.51652862993E+03  0.15043737098E+04  0.10100000352E+00 0. -1.
</event>
<event>
 5   0  0.1558258E-07  0.3658659E+04  0.7818609E-02  0.8077186E-01
       -2   -1    0    0    0  501  0.00000000000E+00  0.00000000000E+00  0.19221689689E+04  0.19221689689E+04  0.25500000920E-02 0. -1.
        2   -1    0    0  501    0  0.00000000000E+00  0.00000000000E+00 -0.17409738623E+04  0.17409738623E+04  0.25500000920E-02 0.  1.
    10030    2    1    2    0    0  0.00000000000E+00  0.00000000000E+00  0.18119510665E+03  0.36631428312E+04  0.36586587345E+04 0.  0.
        1    1    3    3  502    0 -0.84385622422E+03  0.37090005894E+02  0.17152313307E+04  0.19119329260E+04  0.50400001928E-02 0. -1.
       -1    1    3    3    0  502  0.84385622422E+03 -0.37090005894E+02 -0.15340362240E+04  0.17512099053E+04  0.50400001928E-02 0.  1.
</event>
<event>
 5   0  0.5177000E-08  0.3710998E+04  0.7818609E-02  0.8065529E-01
        1   -1    0    0  501    0  0.00000000000E+00  0.00000000000E+00  0.15681962363E+04  0.15681962363E+04  0.50400001928E-02 0. -1.
       -1   -1    0    0    0  501  0.00000000000E+00  0.00000000000E+00 -0.21954370200E+04  0.21954370200E+04  0.50400001928E-02 0.  1.
    10030    2    1    2    0    0  0.00000000000E+00  0.00000000000E+00 -0.62724078378E+03  0.37636332563E+04  0.37109977482E+04 0.  0.
        3    1    3    3  502    0 -0.71597476814E+02 -0.18261451371E+04 -0.63901976113E+03  0.19360471393E+04  0.10100000352E+00 0.  1.
       -3    1    3    3    0  502  0.71597476814E+02  0.18261451371E+04  0.11778977352E+02  0.18275861170E+04  0.10100000352E+00 0. -1.
</event>
<event>
 5   0  0.5177000E-08  0.3686556E+04  0.7818609E-02  0.8070948E-01
       -1   -1    0    0    0  501  0.00000000000E+00  0.00000000000E+00  0.13321399549E+04  0.13321399550E+04  0.50400001928E-02 0. -1.
        1   -1    0    0  501    0  0.00000000000E+00  0.00000000000E+00 -0.25505384594E+04  0.25505384595E+04  0.50400001928E-02 0.  1.
    10030    2    1    2    0    0  0.00000000000E+00  0.00000000000E+00 -0.12183985045E+04  0.38826784144E+04  0.36865562187E+04 0.  0.
        3    1    3    3  502    0 -0.15299119971E+04  0.18296848776E+03  0.45633762321E+03  0.16069698887E+04  0.10100000352E+00 0. -1.
       -3    1    3    3    0  502  0.15299119971E+04 -0.18296848776E+03 -0.16747361277E+04  0.22757085257E+04  0.10100000352E+00 0.  1.
</event>
<event>
 5   0  0.1587026E-07  0.3692243E+04  0.7818609E-02  0.8069683E-01
       -2   -1    0    0    0  501  0.00000000000E+00  0.00000000000E+00  0.16177432619E+04  0.16177432619E+04  0.25500000920E-02 0. -1.
        2   -1    0    0  501    0  0.00000000000E+00  0.00000000000E+00 -0.21067399486E+04  0.21067399486E+04  0.25500000920E-02 0.  1.
    10030    2    1    2    0    0  0.00000000000E+00  0.00000000000E+00 -0.48899668669E+03  0.37244832105E+04  0.36922428719E+04 0.  0.
        3    1    3    3  502    0  0.14676166973E+04 -0.76812642544E+03  0.57763200860E+03  0.17543020616E+04  0.10100000352E+00 0. -1.
       -3    1    3    3    0  502 -0.14676166973E+04  0.76812642544E+03 -0.10666286953E+04  0.19701811489E+04  0.10100000352E+00 0.  1.
</event>
<event>
 5   0  0.5177000E-08  0.3724279E+04  0.7818609E-02  0.8062603E-01
       -1   -1    0    0    0  501  0.00000000000E+00  0.00000000000E+00  0.17477525314E+04  0.17477525314E+04  0.50400001928E-02 0. -1.
        1   -1    0    0  501    0  0.00000000000E+00  0.00000000000E+00 -0.19840124510E+04  0.19840124510E+04  0.50400001928E-02 0.  1.
    10030    2    1    2    0    0  0.00000000000E+00  0.00000000000E+00 -0.23625991958E+03  0.37317649824E+04  0.37242786059E+04 0.  0.
        4    1    3    3  502    0  0.91619085477E+03 -0.12061936059E+04  0.96721517075E+03  0.17971687446E+04  0.12699999809E+01 0. -1.
       -4    1    3    3    0  502 -0.91619085477E+03  0.12061936059E+04 -0.12034750903E+04  0.19345962378E+04  0.12699999809E+01 0.  1.
</event>
<event>
 5   0  0.1558258E-07  0.3701963E+04  0.7818609E-02  0.8067527E-01
       -2   -1    0    0    0  501  0.00000000000E+00  0.00000000000E+00  0.13254305327E+04  0.13254305327E+04  0.25500000920E-02 0.  1.
        2   -1    0    0  501    0  0.00000000000E+00  0.00000000000E+00 -0.25849202077E+04  0.25849202077E+04  0.25500000920E-02 0. -1.
    10030    2    1    2    0    0  0.00000000000E+00  0.00000000000E+00 -0.12594896750E+04  0.39103507404E+04  0.37019628134E+04 0.  0.
        1    1    3    3  502    0  0.50463558998E+03 -0.27750637115E+03 -0.24878764420E+04  0.25536632619E+04  0.50400001928E-02 0. -1.
       -1    1    3    3    0  502 -0.50463558998E+03  0.27750637115E+03  0.12283867670E+04  0.13566874784E+04  0.50400001928E-02 0.  1.
</event>
<event>
 5   0  0.1587026E-07  0.3705401E+04  0.7818609E-02  0.8066766E-01
        2   -1    0    0  501    0  0.00000000000E+00  0.00000000000E+00  0.19880032244E+04  0.19880032244E+04  0.25500000920E-02 0.  1.
       -2   -1    0    0    0  501  0.00000000000E+00  0.00000000000E+00 -0.17266060824E+04  0.17266060824E+04  0.25500000920E-02 0. -1.
    10030    2    1    2    0    0  0.00000000000E+00  0.00000000000E+00  0.26139714193E+03  0.37146093068E+04  0.37054006310E+04 0.  0.
        3    1    3    3  502    0 -0.12362823484E+04  0.80666651836E+03 -0.99163433426E+03  0.17783260612E+04  0.10100000352E+00 0. -1.
       -3    1    3    3    0  502  0.12362823484E+04 -0.80666651836E+03  0.12530314762E+04  0.19362832456E+04  0.10100000352E+00 0.  1.
</event>
<event>
 5   0  0.5177000E-08  0.3668827E+04  0.7818609E-02  0.8074905E-01
        1   -1    0    0  501    0  0.00000000000E+00  0.00000000000E+00  0.14053093684E+04  0.14053093684E+04  0.50400001928E-02 0. -1.
       -1   -1    0    0    0  501  0.00000000000E+00  0.00000000000E+00 -0.23945422600E+04  0.23945422600E+04  0.50400001928E-02 0.  1.
    10030    2    1    2    0    0  0.00000000000E+00  0.00000000000E+00 -0.98923289158E+03  0.37998516284E+04  0.36688268812E+04 0.  0.
        3    1    3    3  502    0  0.10543921351E+04  0.64681583801E+02  0.10586582277E+04  0.14955546580E+04  0.10100000352E+00 0. -1.
       -3    1    3    3    0  502 -0.10543921351E+04 -0.64681583801E+02 -0.20478911192E+04  0.23042969705E+04  0.10100000352E+00 0.  1.
</event>
<event>
 5   0  0.1587026E-07  0.3701505E+04  0.7818609E-02  0.8067628E-01
        2   -1    0    0  501    0  0.00000000000E+00  0.00000000000E+00  0.22000143624E+04  0.22000143624E+04  0.25500000920E-02 0. -1.
       -2   -1    0    0    0  501  0.00000000000E+00  0.00000000000E+00 -0.15569372993E+04  0.15569372993E+04  0.25500000920E-02 0.  1.
    10030    2    1    2    0    0  0.00000000000E+00  0.00000000000E+00  0.64307706307E+03  0.37569516617E+04  0.37015047858E+04 0.  0.
        3    1    3    3  502    0 -0.80696225315E+03  0.16654907938E+04  0.33715560912E+03  0.18811490045E+04  0.10100000352E+00 0.  1.
       -3    1    3    3    0  502  0.80696225315E+03 -0.16654907938E+04  0.30592145395E+03  0.18758026571E+04  0.10100000352E+00 0. -1.
</event>
<event>
 5   0  0.1558258E-07  0.3694423E+04  0.7818609E-02  0.8069199E-01
       -2   -1    0    0    0  501  0.00000000000E+00  0.00000000000E+00  0.17250724541E+04  0.17250724541E+04  0.25500000920E-02 0. -1.
        2   -1    0    0  501    0  0.00000000000E+00  0.00000000000E+00 -0.19779978917E+04  0.19779978917E+04  0.25500000920E-02 0.  1.
    10030    2    1    2    0    0  0.00000000000E+00  0.00000000000E+00 -0.25292543762E+03  0.37030703458E+04  0.36944226490E+04 0.  0.
        1    1    3    3  502    0  0.23200360667E+03  0.10046709055E+04 -0.16626951433E+04  0.19564622259E+04  0.50400001928E-02 0.  1.
       -1    1    3    3    0  502 -0.23200360667E+03 -0.10046709055E+04  0.14097697056E+04  0.17466081200E+04  0.50400001928E-02 0. -1.
</event>
<event>
 5   0  0.5177000E-08  0.3696131E+04  0.7818609E-02  0.8068820E-01
       -1   -1    0    0    0  501  0.00000000000E+00  0.00000000000E+00  0.21852231661E+04  0.21852231661E+04  0.50400001928E-02 0. -1.
        1   -1    0    0  501    0  0.00000000000E+00  0.00000000000E+00 -0.15629277459E+04  0.15629277460E+04  0.50400001928E-02 0.  1.
    10030    2    1    2    0    0  0.00000000000E+00  0.00000000000E+00  0.62229542017E+03  0.37481509121E+04  0.36961309054E+04 0.  0.
        2    1    3    3  502    0  0.77584450661E+03 -0.16697177097E+04  0.14935920952E+03  0.18472141462E+04  0.25500000920E-02 0.  1.
       -2    1    3    3    0  502 -0.77584450661E+03  0.16697177097E+04  0.47293621066E+03  0.19009367659E+04  0.25500000920E-02 0. -1.
</event>
<event>
 5   0  0.1666189E-07  0.3610936E+04  0.7818609E-02  0.8087991E-01
        2   -1    0    0  501    0  0.00000000000E+00  0.00000000000E+00  0.31759687204E+04  0.31759687204E+04  0.25500000920E-02 0. -1.
       -2   -1    0    0    0  501  0.00000000000E+00  0.00000000000E+00 -0.10263689057E+04  0.10263689057E+04  0.25500000920E-02 0.  1.
    10030    2    1    2    0    0  0.00000000000E+00  0.00000000000E+00  0.21495998147E+04  0.42023376261E+04  0.36109364659E+04 0.  0.
        4    1    3    3  502    0 -0.13553127871E+04 -0.19901929120E+03 -0.29393292996E+03  0.14010280545E+04  0.12699999809E+01 0.  1.
       -4    1    3    3    0  502  0.13553127871E+04  0.19901929120E+03  0.24435327446E+04  0.28013095716E+04  0.12699999809E+01 0. -1.
</event>
<event>
 5   0  0.1658770E-07  0.3679683E+04  0.7818609E-02  0.8072479E-01
        2   -1    0    0  501    0  0.00000000000E+00  0.00000000000E+00  0.28815544016E+04  0.28815544016E+04  0.25500000920E-02 0.  1.
       -2   -1    0    0    0  501  0.00000000000E+00  0.00000000000E+00 -0.11747192114E+04  0.11747192114E+04  0.25500000920E-02 0. -1.
    10030    2    1    2    0    0  0.00000000000E+00  0.00000000000E+00  0.17068351902E+04  0.40562736131E+04  0.36796833094E+04 0.  0.
        2    1    3    3  502    0 -0.90204225885E+03 -0.10371071605E+04  0.22015908201E+04  0.25954332274E+04  0.25500000920E-02 0.  1.
       -2    1    3    3    0  502  0.90204225885E+03  0.10371071605E+04 -0.49475562985E+03  0.14608403856E+04  0.25500000920E-02 0. -1.
</event>
<event>
 5   0  0.5177000E-08  0.3732555E+04  0.7818609E-02  0.8060785E-01
       -1   -1    0    0    0  501  0.00000000000E+00  0.00000000000E+00  0.13177386483E+04  0.13177386483E+04  0.50400001928E-02 0. -1.
        1   -1    0    0  501    0  0.00000000000E+00  0.00000000000E+00 -0.26431582126E+04  0.26431582126E+04  0.50400001928E-02 0.  1.
    10030    2    1    2    0    0  0.00000000000E+00  0.00000000000E+00 -0.13254195644E+04  0.39608968609E+04  0.37325550125E+04 0.  0.
        3    1    3    3  502    0 -0.18381637672E+04 -0.13874115368E+03 -0.97190474298E+03  0.20839131418E+04  0.10100000352E+00 0.  1.
       -3    1    3    3    0  502  0.18381637672E+04  0.13874115368E+03 -0.35351482140E+03  0.18769837191E+04  0.10100000352E+00 0. -1.
</event>
<event>
 5   0  0.5177000E-08  0.3716779E+04  0.7818609E-02  0.8064254E-01
        1   -1    0    0  501    0  0.00000000000E+00  0.00000000000E+00  0.20489559539E+04  0.20489559539E+04  0.50400001928E-02 0.  1.
       -1   -1    0    0    0  501  0.00000000000E+00  0.00000000000E+00 -0.16855467733E+04  0.16855467733E+04  0.50400001928E-02 0. -1.
    10030    2    1    2    0    0  0.00000000000E+00  0.00000000000E+00  0.36340918057E+03  0.37345027273E+04  0.37167787649E+04 0.  0.
        4    1    3    3  502    0  0.18385758525E+04 -0.10949866031E+03  0.43038911445E+03  0.18914511690E+04  0.12699999809E+01 0. -1.
       -4    1    3    3    0  502 -0.18385758525E+04  0.10949866031E+03 -0.66979933871E+02  0.18430515583E+04  0.12699999809E+01 0.  1.
</event>
<event>
 5   0  0.5181371E-08  0.3682120E+04  0.7818609E-02  0.8071936E-01
       -1   -1    0    0    0  501  0.00000000000E+00  0.00000000000E+00  0.14079153963E+04  0.14079153963E+04  0.50400001928E-02 0.  1.
        1   -1    0    0  501    0  0.00000000000E+00  0.00000000000E+00 -0.24074608742E+04  0.24074608742E+04  0.50400001928E-02 0. -1.
    10030    2    1    2    0    0  0.00000000000E+00  0.00000000000E+00 -0.99954547786E+03  0.38153762705E+04  0.36821196237E+04 0.  0.
        5    1    3    3  502    0  0.15496186398E+04 -0.18932187948E+03 -0.15109576422E+04  0.21725965547E+04  0.46999998093E+01 0. -1.
       -5    1    3    3    0  502 -0.15496186398E+04  0.18932187948E+03  0.51141216434E+03  0.16427797158E+04  0.46999998093E+01 0.  1.
</event>
<event>
 5   0  0.5177000E-08  0.3705337E+04  0.7818609E-02  0.8066780E-01
       -1   -1    0    0    0  501  0.00000000000E+00  0.00000000000E+00  0.18293997510E+04  0.18293997510E+04  0.50400001928E-02 0. -1.
        1   -1    0    0  501    0  0.00000000000E+00  0.00000000000E+00 -0.18762329455E+04  0.18762329455E+04  0.50400001928E-02 0.  1.
    10030    2    1    2    0    0  0.00000000000E+00  0.00000000000E+00 -0.46833194584E+02  0.37056326965E+04  0.37053367368E+04 0.  0.
        4    1    3    3  502    0 -0.61746920687E+03  0.12084577452E+04  0.12379296099E+04  0.18368749754E+04  0.12699999809E+01 0. -1.
       -4    1    3    3    0  502  0.61746920687E+03 -0.12084577452E+04 -0.12847628045E+04  0.18687577211E+04  0.12699999809E+01 0.  1.
</event>
<event>
 5   0  0.5177000E-08  0.3702028E+04  0.7818609E-02  0.8067513E-01
       -1   -1    0    0    0  501  0.00000000000E+00  0.00000000000E+00  0.31362395041E+04  0.31362395041E+04  0.50400001928E-02 0. -1.
        1   -1    0    0  501    0  0.00000000000E+00  0.00000000000E+00 -0.10924716888E+04  0.10924716888E+04  0.50400001928E-02 0.  1.
    10030    2    1    2    0    0  0.00000000000E+00  0.00000000000E+00  0.20437678153E+04  0.42287111928E+04  0.37020280212E+04 0.  0.
        1    1    3    3  502    0  0.69545267018E+03  0.48627989529E+03  0.29009526867E+04  0.30225236217E+04  0.50400001928E-02 0. -1.
       -1    1    3    3    0  502 -0.69545267018E+03 -0.48627989529E+03 -0.85718487141E+03  0.12061875712E+04  0.50400001928E-02 0.  1.
</event>
<event>
 5   0  0.1686284E-07  0.3740949E+04  0.7818609E-02  0.8058947E-01
        2   -1    0    0  501    0  0.00000000000E+00  0.00000000000E+00  0.17311801511E+04  0.17311801511E+04  0.25500000920E-02 0.  1.
       -2   -1    0    0    0  501  0.00000000000E+00  0.00000000000E+00 -0.20209770726E+04  0.20209770726E+04  0.25500000920E-02 0. -1.
    10030    2    1    2    0    0  0.00000000000E+00  0.00000000000E+00 -0.28979692143E+03  0.37521572237E+04  0.37409492880E+04 0.  0.
        5    1    3    3  502    0 -0.21423769155E+03 -0.40200872770E+03  0.16746879397E+04  0.17355433129E+04  0.46999998093E+01 0.  1.
       -5    1    3    3    0  502  0.21423769155E+03  0.40200872770E+03 -0.19644848611E+04  0.20166139108E+04  0.46999998093E+01 0. -1.
</event>
<event>
 5   0  0.5177000E-08  0.3686388E+04  0.7818609E-02  0.8070985E-01
        1   -1    0    0  501    0  0.00000000000E+00  0.00000000000E+00  0.24593462568E+04  0.24593462568E+04  0.50400001928E-02 0. -1.
       -1   -1    0    0    0  501  0.00000000000E+00  0.00000000000E+00 -0.13814098065E+04  0.13814098065E+04  0.50400001928E-02 0.  1.
    10030    2    1    2    0    0  0.00000000000E+00  0.00000000000E+00  0.10779364503E+04  0.38407560634E+04  0.36863884965E+04 0.  0.
        4    1    3    3  502    0 -0.30190817267E+03  0.18152251666E+04  0.64909433394E+03  0.19512857344E+04  0.12699999809E+01 0. -1.
       -4    1    3    3    0  502  0.30190817267E+03 -0.18152251666E+04  0.42884211637E+03  0.18894703289E+04  0.12699999809E+01 0.  1.
</event>
<event>
 5   0  0.1686284E-07  0.3701604E+04  0.7818609E-02  0.8067606E-01
        2   -1    0    0  501    0  0.00000000000E+00  0.00000000000E+00  0.12311816139E+04  0.12311816139E+04  0.25500000920E-02 0. -1.
       -2   -1    0    0    0  501  0.00000000000E+00  0.00000000000E+00 -0.27822610232E+04  0.27822610232E+04  0.25500000920E-02 0.  1.
    10030    2    1    2    0    0  0.00000000000E+00  0.00000000000E+00 -0.15510794093E+04  0.40134426372E+04  0.37016043100E+04 0.  0.
        5    1    3    3  502    0  0.78062838688E+03  0.55872457305E+02 -0.25940158993E+04  0.27095097316E+04  0.46999998093E+01 0.  1.
       -5    1    3    3    0  502 -0.78062838688E+03 -0.55872457305E+02  0.10429364900E+04  0.13039329055E+04  0.46999998093E+01 0. -1.
</event>
<event>
 5   0  0.1587026E-07  0.3682574E+04  0.7818609E-02  0.8071835E-01
       -2   -1    0    0    0  501  0.00000000000E+00  0.00000000000E+00  0.25616475369E+04  0.25616475369E+04  0.25500000920E-02 0. -1.
        2   -1    0    0  501    0  0.00000000000E+00  0.00000000000E+00 -0.13234988047E+04  0.13234988047E+04  0.25500000920E-02 0.  1.
    10030    2    1    2    0    0  0.00000000000E+00  0.00000000000E+00  0.12381487322E+04  0.38851463416E+04  0.36825738027E+04 0.  0.
        3    1    3    3  502    0 -0.46193241298E+03  0.16333521366E+04 -0.13369959543E+03  0.17026732946E+04  0.10100000352E+00 0.  1.
       -3    1    3    3    0  502  0.46193241298E+03 -0.16333521366E+04  0.13718483277E+04  0.21824730469E+04  0.10100000352E+00 0. -1.
</event>
<event>
 5   0  0.1587026E-07  0.3698552E+04  0.7818609E-02  0.8068283E-01
        2   -1    0    0  501    0  0.00000000000E+00  0.00000000000E+00  0.21545305643E+04  0.21545305643E+04  0.25500000920E-02 0. -1.
       -2   -1    0    0    0  501  0.00000000000E+00  0.00000000000E+00 -0.15872699704E+04  0.15872699704E+04  0.25500000920E-02 0.  1.
    10030    2    1    2    0    0  0.00000000000E+00  0.00000000000E+00  0.56726059382E+03  0.37418005347E+04  0.36985519680E+04 0.  0.
        3    1    3    3  502    0  0.15093392282E+03 -0.42646721892E+03  0.20976860441E+04  0.21459128798E+04  0.10100000352E+00 0. -1.
       -3    1    3    3    0  502 -0.15093392282E+03  0.42646721892E+03 -0.15304254503E+04  0.15958876549E+04  0.10100000352E+00 0.  1.
</event>
<event>
 5   0  0.5181371E-08  0.3689071E+04  0.7818609E-02  0.8070388E-01
       -1   -1    0    0    0  501  0.00000000000E+00  0.00000000000E+00  0.14463744028E+04  0.14463744028E+04  0.50400001928E-02 0. -1.
        1   -1    0    0  501    0  0.00000000000E+00  0.00000000000E+00 -0.23523033060E+04  0.23523033060E+04  0.50400001928E-02 0.  1.
    10030    2    1    2    0    0  0.00000000000E+00  0.00000000000E+00 -0.90592890315E+03  0.37986777088E+04  0.36890710427E+04 0.  0.
        5    1    3    3  502    0  0.67086107979E+03  0.83570254184E+03  0.10929183764E+04  0.15306684796E+04  0.46999998093E+01 0. -1.
       -5    1    3    3    0  502 -0.67086107979E+03 -0.83570254184E+03 -0.19988472796E+04  0.22680092292E+04  0.46999998093E+01 0.  1.
</event>
<event>
 5   0  0.1686284E-07  0.3711719E+04  0.7818609E-02  0.8065370E-01
       -2   -1    0    0    0  501  0.00000000000E+00  0.00000000000E+00  0.15864583959E+04  0.15864583959E+04  0.25500000920E-02 0.  1.
        2   -1    0    0  501    0  0.00000000000E+00  0.00000000000E+00 -0.21710079583E+04  0.21710079583E+04  0.25500000920E-02 0. -1.
    10030    2    1    2    0    0  0.00000000000E+00  0.00000000000E+00 -0.58454956240E+03  0.37574663542E+04  0.37117186332E+04 0.  0.
        5    1    3    3  502    0  0.10327811429E+04 -0.65224827274E+03 -0.17066807783E+04  0.20987725144E+04  0.46999998093E+01 0. -1.
       -5    1    3    3    0  502 -0.10327811429E+04  0.65224827274E+03  0.11221312159E+04  0.16586938398E+04  0.46999998093E+01 0.  1.
</event>
<event>
 5   0  0.1587026E-07  0.3677839E+04  0.7818609E-02  0.8072891E-01
        2   -1    0    0  501    0  0.00000000000E+00  0.00000000000E+00  0.18171360207E+04  0.18171360207E+04  0.25500000920E-02 0.  1.
       -2   -1    0    0    0  501  0.00000000000E+00  0.00000000000E+00 -0.18609636834E+04  0.18609636834E+04  0.25500000920E-02 0. -1.
    10030    2    1    2    0    0  0.00000000000E+00  0.00000000000E+00 -0.43827662719E+02  0.36780997042E+04  0.36778385731E+04 0.  0.
        3    1    3    3  502    0 -0.17177124423E+04  0.45228852108E+03 -0.49789214972E+03  0.18447215355E+04  0.10100000352E+00 0. -1.
       -3    1    3    3    0  502  0.17177124423E+04 -0.45228852108E+03  0.45406448700E+03  0.18333781686E+04  0.10100000352E+00 0.  1.
</event>
<event>
 5   0  0.5177000E-08  0.3705576E+04  0.7818609E-02  0.8066727E-01
       -1   -1    0    0    0  501  0.00000000000E+00  0.00000000000E+00  0.11470571537E+04  0.11470571538E+04  0.50400001928E-02 0. -1.
        1   -1    0    0  501    0  0.00000000000E+00  0.00000000000E+00 -0.29927227590E+04  0.29927227590E+04  0.50400001928E-02 0.  1.
    10030    2    1    2    0    0  0.00000000000E+00  0.00000000000E+00 -0.18456656053E+04  0.41397799128E+04  0.37055763654E+04 0.  0.
        3    1    3    3  502    0 -0.62520221999E+02 -0.11305952764E+04  0.71552340718E+03  0.13394507134E+04  0.10100000352E+00 0. -1.
       -3    1    3    3    0  502  0.62520221999E+02  0.11305952764E+04 -0.25611890124E+04  0.28003291994E+04  0.10100000352E+00 0.  1.
</event>
<event>
 5   0  0.5177000E-08  0.3708609E+04  0.7818609E-02  0.8066057E-01
       -1   -1    0    0    0  501  0.00000000000E+00  0.00000000000E+00  0.19646552963E+04  0.19646552963E+04  0.50400001928E-02 0. -1.
        1   -1    0    0  501    0  0.00000000000E+00  0.00000000000E+00 -0.17501523143E+04  0.17501523143E+04  0.50400001928E-02 0.  1.
    10030    2    1    2    0    0  0.00000000000E+00  0.00000000000E+00  0.21450298197E+03  0.37148076106E+04  0.37086094503E+04 0.  0.
        3    1    3    3  502    0 -0.74281736015E+03 -0.12749214185E+04  0.12321795241E+04  0.19223601753E+04  0.10100000352E+00 0. -1.
       -3    1    3    3    0  502  0.74281736015E+03  0.12749214185E+04 -0.10176765421E+04  0.17924474353E+04  0.10100000352E+00 0.  1.
</event>
<event>
 5   0  0.5177000E-08  0.3700790E+04  0.7818609E-02  0.8067787E-01
       -1   -1    0    0    0  501  0.00000000000E+00  0.00000000000E+00  0.14884630387E+04  0.14884630388E+04  0.50400001928E-02 0. -1.
        1   -1    0    0  501    0  0.00000000000E+00  0.00000000000E+00 -0.23003335984E+04  0.23003335984E+04  0.50400001928E-02 0.  1.
    10030    2    1    2    0    0  0.00000000000E+00  0.00000000000E+00 -0.81187055966E+03  0.37887966372E+04  0.37007899362E+04 0.  0.
        4    1    3    3  502    0  0.15828253268E+04 -0.61673259580E+03 -0.11570475504E+04  0.20553480865E+04  0.12699999809E+01 0.  1.
       -4    1    3    3    0  502 -0.15828253268E+04  0.61673259580E+03  0.34517699075E+03  0.17334485507E+04  0.12699999809E+01 0. -1.
</event>
<event>
 5   0  0.1558258E-07  0.3702609E+04  0.7818609E-02  0.8067384E-01
       -2   -1    0    0    0  501  0.00000000000E+00  0.00000000000E+00  0.25539640861E+04  0.25539640861E+04  0.25500000920E-02 0.  1.
        2   -1    0    0  501    0  0.00000000000E+00  0.00000000000E+00 -0.13419639119E+04  0.13419639119E+04  0.25500000920E-02 0. -1.
    10030    2    1    2    0    0  0.00000000000E+00  0.00000000000E+00  0.12120001743E+04  0.38959279980E+04  0.37026086133E+04 0.  0.
        1    1    3    3  502    0 -0.17076554047E+04 -0.54828567431E+03  0.12310087088E+03  0.17977369069E+04  0.50400001928E-02 0. -1.
       -1    1    3    3    0  502  0.17076554047E+04  0.54828567431E+03  0.10888993034E+04  0.20981910911E+04  0.50400001928E-02 0.  1.
</event>
<event>
 5   0  0.1686284E-07  0.3701506E+04  0.7818609E-02  0.8067628E-01
       -2   -1    0    0    0  501  0.00000000000E+00  0.00000000000E+00  0.13844065153E+04  0.13844065153E+04  0.25500000920E-02 0.  1.
        2   -1    0    0  501    0  0.00000000000E+00  0.00000000000E+00 -0.24741919463E+04  0.24741919463E+04  0.25500000920E-02 0. -1.
    10030    2    1    2    0    0  0.00000000000E+00  0.00000000000E+00 -0.10897854310E+04  0.38585984616E+04  0.37015064234E+04 0.  0.
        5    1    3    3  502    0  0.10122151050E+04  0.56470737020E+03 -0.20489684260E+04  0.23540959057E+04  0.46999998093E+01 0. -1.
       -5    1    3    3    0  502 -0.10122151050E+04 -0.56470737020E+03  0.95918299497E+03  0.15045025559E+04  0.46999998093E+01 0.  1.
</event>
<event>
 5   0  0.1658770E-07  0.3701818E+04  0.7818609E-02  0.8067559E-01
        2   -1    0    0  501    0  0.00000000000E+00  0.00000000000E+00  0.20550911209E+04  0.20550911209E+04  0.25500000920E-02 0. -1.
       -2   -1    0    0    0  501  0.00000000000E+00  0.00000000000E+00 -0.16670132950E+04  0.16670132950E+04  0.25500000920E-02 0.  1.
    10030    2    1    2    0    0  0.00000000000E+00  0.00000000000E+00  0.38807782588E+03  0.37221044158E+04  0.37018180511E+04 0.  0.
        2    1    3    3  502    0 -0.12313311555E+04  0.13192199978E+04 -0.21973344345E+03  0.18179110548E+04  0.25500000920E-02 0.  1.
       -2    1    3    3    0  502  0.12313311555E+04 -0.13192199978E+04  0.60781126933E+03  0.19041933610E+04  0.25500000920E-02 0. -1.
</event>
<event>
 5   0  0.1587026E-07  0.3662116E+04  0.7818609E-02  0.8076410E-01
        2   -1    0    0  501    0  0.00000000000E+00  0.00000000000E+00  0.25658847161E+04  0.25658847161E+04  0.25500000920E-02 0.  1.
       -2   -1    0    0    0  501  0.00000000000E+00  0.00000000000E+00 -0.13066731676E+04  0.13066731677E+04  0.25500000920E-02 0. -1.
    10030    2    1    2    0    0  0.00000000000E+00  0.00000000000E+00  0.12592115484E+04  0.38725578837E+04  0.36621156234E+04 0.  0.
        3    1    3    3  502    0 -0.74501759932E+03 -0.88316780141E+02  0.23958951931E+04  0.25106104563E+04  0.10100000352E+00 0.  1.
       -3    1    3    3    0  502  0.74501759932E+03  0.88316780141E+02 -0.11366836446E+04  0.13619474274E+04  0.10100000352E+00 0. -1.
</event>
<event>
 5   0  0.5177000E-08  0.3702922E+04  0.7818609E-02  0.8067315E-01
       -1   -1    0    0    0  501  0.00000000000E+00  0.00000000000E+00  0.16917153413E+04  0.16917153413E+04  0.50400001928E-02 0.  1.
        1   -1    0    0  501    0  0.00000000000E+00  0.00000000000E+00 -0.20262907915E+04  0.20262907916E+04  0.50400001928E-02 0. -1.
    10030    2    1    2    0    0  0.00000000000E+00  0.00000000000E+00 -0.33457545028E+03  0.37180061328E+04  0.37029216670E+04 0.  0.
        2    1    3    3  502    0 -0.13942949898E+04 -0.92416708568E+03 -0.96409713982E+03  0.19307062480E+04  0.25500000920E-02 0. -1.
       -2    1    3    3    0  502  0.13942949898E+04  0.92416708568E+03  0.62952168954E+03  0.17872998849E+04  0.25500000920E-02 0.  1.
</event>
<event>
 5   0  0.5177000E-08  0.3691557E+04  0.7818609E-02  0.8069835E-01
        1   -1    0    0  501    0  0.00000000000E+00  0.00000000000E+00  0.15355401493E+04  0.15355401494E+04  0.50400001928E-02 0. -1.
       -1   -1    0    0    0  501  0.00000000000E+00  0.00000000000E+00 -0.22186972536E+04  0.22186972536E+04  0.50400001928E-02 0.  1.
    10030    2    1    2    0    0  0.00000000000E+00  0.00000000000E+00 -0.68315710425E+03  0.37542374030E+04  0.36915572390E+04 0.  0.
        1    1    3    3  502    0  0.85004886545E+03 -0.16371458203E+04 -0.27670514212E+03  0.18653137126E+04  0.50400001928E-02 0.  1.
       -1    1    3    3    0  502 -0.85004886545E+03  0.16371458203E+04 -0.40645196212E+03  0.18889236904E+04  0.50400001928E-02 0. -1.
</event>
<event>
 5   0  0.1587026E-07  0.3700631E+04  0.7818609E-02  0.8067822E-01
       -2   -1    0    0    0  501  0.00000000000E+00  0.00000000000E+00  0.23555671223E+04  0.23555671223E+04  0.25500000920E-02 0.  1.
        2   -1    0    0  501    0  0.00000000000E+00  0.00000000000E+00 -0.14534368149E+04  0.14534368149E+04  0.25500000920E-02 0. -1.
    10030    2    1    2    0    0  0.00000000000E+00  0.00000000000E+00  0.90213030739E+03  0.38090039373E+04  0.37006312843E+04 0.  0.
        3    1    3    3  502    0 -0.14199440830E+04 -0.69679397677E+03 -0.53721180970E+03  0.16704369439E+04  0.10100000352E+00 0. -1.
       -3    1    3    3    0  502  0.14199440830E+04  0.69679397677E+03  0.14393421171E+04  0.21385669934E+04  0.10100000352E+00 0.  1.
</event>
<event>
 5   0  0.1686284E-07  0.3697203E+04  0.7818609E-02  0.8068582E-01
       -2   -1    0    0    0  501  0.00000000000E+00  0.00000000000E+00  0.25571262748E+04  0.25571262748E+04  0.25500000920E-02 0. -1.
        2   -1    0    0  501    0  0.00000000000E+00  0.00000000000E+00 -0.13363939490E+04  0.13363939490E+04  0.25500000920E-02 0.  1.
    10030    2    1    2    0    0  0.00000000000E+00  0.00000000000E+00  0.12207323258E+04  0.38935202238E+04  0.36972033108E+04 0.  0.
        5    1    3    3  502    0  0.65845474717E+02  0.56215096532E+03  0.24636274984E+04  0.25278116771E+04  0.46999998093E+01 0. -1.
       -5    1    3    3    0  502 -0.65845474717E+02 -0.56215096532E+03 -0.12428951726E+04  0.13657085466E+04  0.46999998093E+01 0.  1.
</event>
<event>
 5   0  0.5177000E-08  0.3686681E+04  0.7818609E-02  0.8070920E-01
       -1   -1    0    0    0  501  0.00000000000E+00  0.00000000000E+00  0.30887589937E+04  0.30887589937E+04  0.50400001928E-02 0.  1.
        1   -1    0    0  501    0  0.00000000000E+00  0.00000000000E+00 -0.11000870018E+04  0.11000870018E+04  0.50400001928E-02 0. -1.
    10030    2    1    2    0    0  0.00000000000E+00  0.00000000000E+00  0.19886719918E+04  0.41888459955E+04  0.36866806863E+04 0.  0.
        3    1    3    3  502    0  0.45760482790E+03 -0.20713813747E+03  0.30094994956E+04  0.30511302186E+04  0.10100000352E+00 0.  1.
       -3    1    3    3    0  502 -0.45760482790E+03  0.20713813747E+03 -0.10208275037E+04  0.11377157769E+04  0.10100000352E+00 0. -1.
</event>
<event>
 5   0  0.5177000E-08  0.3643980E+04  0.7818609E-02  0.8080491E-01
       -1   -1    0    0    0  501  0.00000000000E+00  0.00000000000E+00  0.24039118826E+04  0.24039118826E+04  0.50400001928E-02 0.  1.
        1   -1    0    0  501    0  0.00000000000E+00  0.00000000000E+00 -0.13809358111E+04  0.13809358111E+04  0.50400001928E-02 0. -1.
    10030    2    1    2    0    0  0.00000000000E+00  0.00000000000E+00  0.10229760715E+04  0.37848476937E+04  0.36439802444E+04 0.  0.
        4    1    3    3  502    0  0.57396613391E+03  0.35516822958E+03  0.22692651818E+04  0.23675193077E+04  0.12699999809E+01 0.  1.
       -4    1    3    3    0  502 -0.57396613391E+03 -0.35516822958E+03 -0.12462891103E+04  0.14173283860E+04  0.12699999809E+01 0. -1.
</event>
<event>
 5   0  0.5177000E-08  0.3633414E+04  0.7818609E-02  0.8082880E-01
        1   -1    0    0  501    0  0.00000000000E+00  0.00000000000E+00  0.25801606561E+04  0.25801606561E+04  0.50400001928E-02 0. -1.
       -1   -1    0    0    0  501  0.00000000000E+00  0.00000000000E+00 -0.12791546436E+04  0.12791546436E+04  0.50400001928E-02 0.  1.
    10030    2    1    2    0    0  0.00000000000E+00  0.00000000000E+00  0.13010060125E+04  0.38593152996E+04  0.36334140883E+04 0.  0.
        2    1    3    3  502    0 -0.13879827227E+03  0.83719503865E+03 -0.10556871664E+04  0.13544873150E+04  0.25500000920E-02 0.  1.
       -2    1    3    3    0  502  0.13879827227E+03 -0.83719503865E+03  0.23566931789E+04  0.25048279846E+04  0.25500000920E-02 0. -1.
</event>
<event>
 5   0  0.1666189E-07  0.3692717E+04  0.7818609E-02  0.8069578E-01
       -2   -1    0    0    0  501  0.00000000000E+00  0.00000000000E+00  0.12166881082E+04  0.12166881082E+04  0.25500000920E-02 0. -1.
        2   -1    0    0  501    0  0.00000000000E+00  0.00000000000E+00 -0.28019008147E+04  0.28019008147E+04  0.25500000920E-02 0.  1.
    10030    2    1    2    0    0  0.00000000000E+00  0.00000000000E+00 -0.15852127064E+04  0.40185889229E+04  0.36927168327E+04 0.  0.
        4    1    3    3  502    0 -0.64028774061E+03 -0.71926984801E+02  0.10903745910E+04  0.12665149993E+04  0.12699999809E+01 0. -1.
       -4    1    3    3    0  502  0.64028774061E+03  0.71926984801E+02 -0.26755872974E+04  0.27520739236E+04  0.12699999809E+01 0.  1.
</event>
<event>
 5   0  0.5181371E-08  0.3700616E+04  0.7818609E-02  0.8067825E-01
        1   -1    0    0  501    0  0.00000000000E+00  0.00000000000E+00  0.25422063229E+04  0.25422063229E+04  0.50400001928E-02 0. -1.
       -1   -1    0    0    0  501  0.00000000000E+00  0.00000000000E+00 -0.13467198686E+04  0.13467198686E+04  0.50400001928E-02 0.  1.
    10030    2    1    2    0    0  0.00000000000E+00  0.00000000000E+00  0.11954864543E+04  0.38889261915E+04  0.37006160379E+04 0.  0.
        5    1    3    3  502    0  0.49167513256E+03  0.12281065801E+04  0.19572615695E+04  0.23623897116E+04  0.46999998093E+01 0. -1.
       -5    1    3    3    0  502 -0.49167513256E+03 -0.12281065801E+04 -0.76177511519E+03  0.15265364798E+04  0.46999998093E+01 0.  1.
</event>
<event>
 5   0  0.1686284E-07  0.3699146E+04  0.7818609E-02  0.8068151E-01
       -2   -1    0    0    0  501  0.00000000000E+00  0.00000000000E+00  0.13000091892E+04  0.13000091892E+04  0.25500000920E-02 0.  1.
        2   -1    0    0  501    0  0.00000000000E+00  0.00000000000E+00 -0.26314582907E+04  0.26314582907E+04  0.25500000920E-02 0. -1.
    10030    2    1    2    0    0  0.00000000000E+00  0.00000000000E+00 -0.13314491015E+04  0.39314674799E+04  0.36991458251E+04 0.  0.
        5    1    3    3  502    0 -0.45659214023E+03  0.10616368874E+02 -0.25705793561E+04  0.26108407470E+04  0.46999998093E+01 0. -1.
       -5    1    3    3    0  502  0.45659214023E+03 -0.10616368874E+02  0.12391302546E+04  0.13206267329E+04  0.46999998093E+01 0.  1.
</event>
<event>
 5   0  0.5177000E-08  0.3699671E+04  0.7818609E-02  0.8068035E-01
       -1   -1    0    0    0  501  0.00000000000E+00  0.00000000000E+00  0.18346590764E+04  0.18346590764E+04  0.50400001928E-02 0. -1.
        1   -1    0    0  501    0  0.00000000000E+00  0.00000000000E+00 -0.18651377490E+04  0.18651377490E+04  0.50400001928E-02 0.  1.
    10030    2    1    2    0    0  0.00000000000E+00  0.00000000000E+00 -0.30478672603E+02  0.36997968253E+04  0.36996712826E+04 0.  0.
        2    1    3    3  502    0  0.65828560987E+03 -0.50742207306E+03 -0.16678917947E+04  0.18635128503E+04  0.25500000920E-02 0.  1.
       -2    1    3    3    0  502 -0.65828560987E+03  0.50742207306E+03  0.16374131221E+04  0.18362839750E+04  0.25500000920E-02 0. -1.
</event>
<event>
 5   0  0.1558258E-07  0.3700211E+04  0.7818609E-02  0.8067915E-01
        2   -1    0    0  501    0  0.00000000000E+00  0.00000000000E+00  0.22563174441E+04  0.22563174441E+04  0.25500000920E-02 0.  1.
       -2   -1    0    0    0  501  0.00000000000E+00  0.00000000000E+00 -0.15170254915E+04  0.15170254915E+04  0.25500000920E-02 0. -1.
    10030    2    1    2    0    0  0.00000000000E+00  0.00000000000E+00  0.73929195254E+03  0.37733429356E+04  0.37002113884E+04 0.  0.
        1    1    3    3  502    0  0.78738129488E+03  0.12854936868E+04 -0.72413261279E+03  0.16723729737E+04  0.50400001928E-02 0. -1.
       -1    1    3    3    0  502 -0.78738129488E+03 -0.12854936868E+04  0.14634245653E+04  0.21009699619E+04  0.50400001928E-02 0.  1.
</event>
<event>
 5   0  0.5181371E-08  0.3713409E+04  0.7818609E-02  0.8064997E-01
        1   -1    0    0  501    0  0.00000000000E+00  0.00000000000E+00  0.19050505750E+04  0.19050505750E+04  0.50400001928E-02 0. -1.
       -1   -1    0    0    0  501  0.00000000000E+00  0.00000000000E+00 -0.18095856136E+04  0.18095856136E+04  0.50400001928E-02 0.  1.
    10030    2    1    2    0    0  0.00000000000E+00  0.00000000000E+00  0.95464961411E+02  0.37146361885E+04  0.37134092764E+04 0.  0.
        5    1    3    3  502    0  0.16659693726E+03 -0.13313934861E+04 -0.12360336063E+04  0.18243257166E+04  0.46999998093E+01 0.  1.
       -5    1    3    3    0  502 -0.16659693726E+03  0.13313934861E+04  0.13314985677E+04  0.18903104719E+04  0.46999998093E+01 0. -1.
</event>
<event>
 5   0  0.5177000E-08  0.3700707E+04  0.7818609E-02  0.8067805E-01
        1   -1    0    0  501    0  0.00000000000E+00  0.00000000000E+00  0.26157514061E+04  0.26157514061E+04  0.50400001928E-02 0.  1.
       -1   -1    0    0    0  501  0.00000000000E+00  0.00000000000E+00 -0.13089192816E+04  0.13089192816E+04  0.50400001928E-02 0. -1.
    10030    2    1    2    0    0  0.00000000000E+00  0.00000000000E+00  0.13068321244E+04  0.39246706877E+04  0.37007066630E+04 0.  0.
        2    1    3    3  502    0 -0.67931185586E+03 -0.69169765143E+03 -0.10180030725E+04  0.14057882110E+04  0.25500000920E-02 0. -1.
       -2    1    3    3    0  502  0.67931185586E+03  0.69169765143E+03  0.23248351970E+04  0.25188824767E+04  0.25500000920E-02 0.  1.
</event>
<event>
 5   0  0.1658770E-07  0.3693972E+04  0.7818609E-02  0.8069299E-01
       -2   -1    0    0    0  501  0.00000000000E+00  0.00000000000E+00  0.13702481863E+04  0.13702481863E+04  0.25500000920E-02 0.  1.
        2   -1    0    0  501    0  0.00000000000E+00  0.00000000000E+00 -0.24895911924E+04  0.24895911924E+04  0.25500000920E-02 0. -1.
    10030    2    1    2    0    0  0.00000000000E+00  0.00000000000E+00 -0.11193430061E+04  0.38598393787E+04  0.36939722879E+04 0.  0.
        2    1    3    3  502    0  0.55292258892E+03 -0.91616222282E+02  0.12792495798E+04  0.13966375367E+04  0.25500000920E-02 0.  1.
       -2    1    3    3    0  502 -0.55292258892E+03  0.91616222282E+02 -0.23985925858E+04  0.24632018420E+04  0.25500000920E-02 0. -1.
</event>
<event>
 5   0  0.1658770E-07  0.3698248E+04  0.7818609E-02  0.8068350E-01
        2   -1    0    0  501    0  0.00000000000E+00  0.00000000000E+00  0.19797125961E+04  0.19797125961E+04  0.25500000920E-02 0. -1.
       -2   -1    0    0    0  501  0.00000000000E+00  0.00000000000E+00 -0.17271496387E+04  0.17271496387E+04  0.25500000920E-02 0.  1.
    10030    2    1    2    0    0  0.00000000000E+00  0.00000000000E+00  0.25256295746E+03  0.37068622348E+04  0.36982481772E+04 0.  0.
        2    1    3    3  502    0 -0.10291979201E+04  0.13816446297E+04  0.79946301991E+03  0.18992975970E+04  0.25500000920E-02 0. -1.
       -2    1    3    3    0  502  0.10291979201E+04 -0.13816446297E+04 -0.54690006245E+03  0.18075646378E+04  0.25500000920E-02 0.  1.
</event>
<event>
 5   0  0.1666189E-07  0.3703449E+04  0.7818609E-02  0.8067198E-01
        2   -1    0    0  501    0  0.00000000000E+00  0.00000000000E+00  0.29163893928E+04  0.29163893928E+04  0.25500000920E-02 0.  1.
       -2   -1    0    0    0  501  0.00000000000E+00  0.00000000000E+00 -0.11757291981E+04  0.11757291981E+04  0.25500000920E-02 0. -1.
    10030    2    1    2    0    0  0.00000000000E+00  0.00000000000E+00  0.17406601948E+04  0.40921185909E+04  0.37034492906E+04 0.  0.
        4    1    3    3  502    0  0.11473276654E+04  0.98528295152E+03  0.20509912684E+04  0.25482758999E+04  0.12699999809E+01 0.  1.
       -4    1    3    3    0  502 -0.11473276654E+04 -0.98528295152E+03 -0.31033107362E+03  0.15438426910E+04  0.12699999809E+01 0. -1.
</event>
<event>
 5   0  0.1658770E-07  0.3713904E+04  0.7818609E-02  0.8064887E-01
       -2   -1    0    0    0  501  0.00000000000E+00  0.00000000000E+00  0.15516455525E+04  0.15516455525E+04  0.25500000920E-02 0. -1.
        2   -1    0    0  501    0  0.00000000000E+00  0.00000000000E+00 -0.22223317356E+04  0.22223317356E+04  0.25500000920E-02 0.  1.
    10030    2    1    2    0    0  0.00000000000E+00  0.00000000000E+00 -0.67068618309E+03  0.37739772882E+04  0.37139042281E+04 0.  0.
        2    1    3    3  502    0  0.10839173769E+04  0.72200364138E+03 -0.16804247431E+04  0.21260276234E+04  0.25500000920E-02 0.  1.
       -2    1    3    3    0  502 -0.10839173769E+04 -0.72200364138E+03  0.10097385600E+04  0.16479496648E+04  0.25500000920E-02 0. -1.
</event>
<event>
 5   0  0.1658770E-07  0.3666672E+04  0.7818609E-02  0.8075388E-01
        2   -1    0    0  501    0  0.00000000000E+00  0.00000000000E+00  0.11232960912E+04  0.11232960912E+04  0.25500000920E-02 0.  1.
       -2   -1    0    0    0  501  0.00000000000E+00  0.00000000000E+00 -0.29921956310E+04  0.29921956310E+04  0.25500000920E-02 0. -1.
    10030    2    1    2    0    0  0.00000000000E+00  0.00000000000E+00 -0.18688995398E+04  0.41154917222E+04  0.36666724187E+04 0.  0.
        2    1    3    3  502    0 -0.11731199976E+04 -0.13309981897E+04 -0.14528927269E+04  0.22931777048E+04  0.25500000920E-02 0.  1.
       -2    1    3    3    0  502  0.11731199976E+04  0.13309981897E+04 -0.41600681282E+03  0.18223140174E+04  0.25500000920E-02 0. -1.
</event>
<event>
 5   0  0.1587026E-07  0.3697672E+04  0.7818609E-02  0.8068478E-01
        2   -1    0    0  501    0  0.00000000000E+00  0.00000000000E+00  0.16366188088E+04  0.16366188088E+04  0.25500000920E-02 0. -1.
       -2   -1    0    0    0  501  0.00000000000E+00  0.00000000000E+00 -0.20885713548E+04  0.20885713548E+04  0.25500000920E-02 0.  1.
    10030    2    1    2    0    0  0.00000000000E+00  0.00000000000E+00 -0.45195254603E+03  0.37251901636E+04  0.36976723288E+04 0.  0.
        3    1    3    3  502    0 -0.13740761995E+04  0.38557713458E+03 -0.14100698941E+04  0.20062532854E+04  0.10100000352E+00 0.  1.
       -3    1    3    3    0  502  0.13740761995E+04 -0.38557713458E+03  0.95811734804E+03  0.17189368783E+04  0.10100000352E+00 0. -1.
</event>
<event>
 5   0  0.5177000E-08  0.3717607E+04  0.7818609E-02  0.8064071E-01
        1   -1    0    0  501    0  0.00000000000E+00  0.00000000000E+00  0.31100692486E+04  0.31100692486E+04  0.50400001928E-02 0.  1.
       -1   -1    0    0    0  501  0.00000000000E+00  0.00000000000E+00 -0.11109560032E+04  0.11109560032E+04  0.50400001928E-02 0. -1.
    10030    2    1    2    0    0  0.00000000000E+00  0.00000000000E+00  0.19991132455E+04  0.42210252518E+04  0.37176068119E+04 0.  0.
        4    1    3    3  502    0 -0.14291123856E+04  0.54343316922E+03 -0.20069356935E+03  0.15420639875E+04  0.12699999809E+01 0. -1.
       -4    1    3    3    0  502  0.14291123856E+04 -0.54343316922E+03  0.21998068148E+04  0.26789612643E+04  0.12699999809E+01 0.  1.
</event>
<event>
 5   0  0.5177000E-08  0.3715487E+04  0.7818609E-02  0.8064538E-01
        1   -1    0    0  501    0  0.00000000000E+00  0.00000000000E+00  0.18824032539E+04  0.18824032539E+04  0.50400001928E-02 0.  1.
       -1   -1    0    0    0  501  0.00000000000E+00  0.00000000000E+00 -0.18334063156E+04  0.18334063156E+04  0.50400001928E-02 0. -1.
    10030    2    1    2    0    0  0.00000000000E+00  0.00000000000E+00  0.48996938304E+02  0.37158095695E+04  0.37154865168E+04 0.  0.
        1    1    3    3  502    0 -0.12333704115E+02  0.75105119476E+03  0.17237577344E+04  0.18803113424E+04  0.50400001928E-02 0.  1.
       -1    1    3    3    0  502  0.12333704115E+02 -0.75105119476E+03 -0.16747607961E+04  0.18354982271E+04  0.50400001928E-02 0. -1.
</event>
<event>
 5   0  0.5177000E-08  0.3697292E+04  0.7818609E-02  0.8068562E-01
        1   -1    0    0  501    0  0.00000000000E+00  0.00000000000E+00  0.10603716507E+04  0.10603716507E+04  0.50400001928E-02 0.  1.
       -1   -1    0    0    0  501  0.00000000000E+00  0.00000000000E+00 -0.32229189723E+04  0.32229189723E+04  0.50400001928E-02 0. -1.
    10030    2    1    2    0    0  0.00000000000E+00  0.00000000000E+00 -0.21625473217E+04  0.42832906230E+04  0.36972919337E+04 0.  0.
        3    1    3    3  502    0 -0.10855145701E+04  0.11883253677E+03  0.64679749848E+03  0.12691769254E+04  0.10100000352E+00 0.  1.
       -3    1    3    3    0  502  0.10855145701E+04 -0.11883253677E+03 -0.28093448201E+04  0.30141136976E+04  0.10100000352E+00 0. -1.
</event>
<event>
 5   0  0.5177000E-08  0.3698412E+04  0.7818609E-02  0.8068314E-01
        1   -1    0    0  501    0  0.00000000000E+00  0.00000000000E+00  0.22064163126E+04  0.22064163126E+04  0.50400001928E-02 0.  1.
       -1   -1    0    0    0  501  0.00000000000E+00  0.00000000000E+00 -0.15498269651E+04  0.15498269651E+04  0.50400001928E-02 0. -1.
    10030    2    1    2    0    0  0.00000000000E+00  0.00000000000E+00  0.65658934755E+03  0.37562432777E+04  0.36984123608E+04 0.  0.
        2    1    3    3  502    0  0.19513321674E+02  0.44724448076E+03  0.21505504317E+04  0.21966509861E+04  0.25500000920E-02 0.  1.
       -2    1    3    3    0  502 -0.19513321674E+02 -0.44724448076E+03 -0.14939610841E+04  0.15595922917E+04  0.25500000920E-02 0. -1.
</event>
<event>
 5   0  0.5177000E-08  0.3695462E+04  0.7818609E-02  0.8068968E-01
        1   -1    0    0  501    0  0.00000000000E+00  0.00000000000E+00  0.21900145056E+04  0.21900145056E+04  0.50400001928E-02 0. -1.
       -1   -1    0    0    0  501  0.00000000000E+00  0.00000000000E+00 -0.15589435381E+04  0.15589435381E+04  0.50400001928E-02 0.  1.
    10030    2    1    2    0    0  0.00000000000E+00  0.00000000000E+00  0.63107096751E+03  0.37489580437E+04  0.36954615202E+04 0.  0.
        3    1    3    3  502    0 -0.15161586339E+04  0.29054262514E+03 -0.71452364910E+03  0.17010867337E+04  0.10100000352E+00 0. -1.
       -3    1    3    3    0  502  0.15161586339E+04 -0.29054262514E+03  0.13455946166E+04  0.20478713101E+04  0.10100000352E+00 0.  1.
</event>
<event>
 5   0  0.1666189E-07  0.3708406E+04  0.7818609E-02  0.8066101E-01
        2   -1    0    0  501    0  0.00000000000E+00  0.00000000000E+00  0.15320702119E+04  0.15320702119E+04  0.25500000920E-02 0. -1.
       -2   -1    0    0    0  501  0.00000000000E+00  0.00000000000E+00 -0.22440676610E+04  0.22440676610E+04  0.25500000920E-02 0.  1.
    10030    2    1    2    0    0  0.00000000000E+00  0.00000000000E+00 -0.71199744902E+03  0.37761378729E+04  0.37084062436E+04 0.  0.
        4    1    3    3  502    0  0.32072599992E+03 -0.17417132189E+04  0.20324768644E+03  0.17826220403E+04  0.12699999809E+01 0. -1.
       -4    1    3    3    0  502 -0.32072599992E+03  0.17417132189E+04 -0.91524513546E+03  0.19935158326E+04  0.12699999809E+01 0.  1.
</event>
<event>
 5   0  0.1666189E-07  0.3704200E+04  0.7818609E-02  0.8067032E-01
        2   -1    0    0  501    0  0.00000000000E+00  0.00000000000E+00  0.27369015357E+04  0.27369015357E+04  0.25500000920E-02 0.  1.
       -2   -1    0    0    0  501  0.00000000000E+00  0.00000000000E+00 -0.12533423766E+04  0.12533423767E+04  0.25500000920E-02 0. -1.
    10030    2    1    2    0    0  0.00000000000E+00  0.00000000000E+00  0.14835591591E+04  0.39902439124E+04  0.37042001433E+04 0.  0.
        4    1    3    3  502    0 -0.36885806090E+02  0.15382189724E+04 -0.36874897255E+03  0.15822312054E+04  0.12699999809E+01 0. -1.
       -4    1    3    3    0  502  0.36885806090E+02 -0.15382189724E+04  0.18523081316E+04  0.24080127070E+04  0.12699999809E+01 0.  1.
</event>
<event>
 5   0  0.1658770E-07  0.3682923E+04  0.7818609E-02  0.8071757E-01
        2   -1    0    0  501    0  0.00000000000E+00  0.00000000000E+00  0.20249146970E+04  0.20249146970E+04  0.25500000920E-02 0.  1.
       -2   -1    0    0    0  501  0.00000000000E+00  0.00000000000E+00 -0.16746291402E+04  0.16746291402E+04  0.25500000920E-02 0. -1.
    10030    2    1    2    0    0  0.00000000000E+00  0.00000000000E+00  0.35028555686E+03  0.36995438372E+04  0.36829233813E+04 0.  0.
        2    1    3    3  502    0 -0.65620428477E+02 -0.56470444866E+03  0.19345561288E+04  0.20163592365E+04  0.25500000920E-02 0.  1.
       -2    1    3    3    0  502  0.65620428477E+02  0.56470444866E+03 -0.15842705720E+04  0.16831846008E+04  0.25500000920E-02 0. -1.
</event>
<event>
 5   0  0.5177000E-08  0.3755628E+04  0.7818609E-02  0.8055745E-01
       -3   -1    0    0    0  501  0.00000000000E+00  0.00000000000E+00  0.17177744683E+04  0.17177744712E+04  0.10100000352E+00 0. -1.
        3   -1    0    0  501    0  0.00000000000E+00  0.00000000000E+00 -0.20527641273E+04  0.20527641298E+04  0.10100000352E+00 0.  1.
    10030    2    1    2    0    0  0.00000000000E+00  0.00000000000E+00 -0.33498965903E+03  0.37705386010E+04  0.37556282125E+04 0.  0.
        5    1    3    3  502    0 -0.62577351555E+03  0.17176945370E+04 -0.59826320720E+03  0.19235404780E+04  0.46999998093E+01 0.  1.
       -5    1    3    3    0  502  0.62577351555E+03 -0.17176945370E+04  0.26327354817E+03  0.18469981230E+04  0.46999998093E+01 0. -1.
</event>
<event>
 5   0  0.5177000E-08  0.3715546E+04  0.7818609E-02  0.8064525E-01
        1   -1    0    0  501    0  0.00000000000E+00  0.00000000000E+00  0.24388704337E+04  0.24388704337E+04  0.50400001928E-02 0. -1.
       -1   -1    0    0    0  501  0.00000000000E+00  0.00000000000E+00 -0.14151309241E+04  0.14151309241E+04  0.50400001928E-02 0.  1.
    10030    2    1    2    0    0  0.00000000000E+00  0.00000000000E+00  0.10237395096E+04  0.38540013577E+04  0.37155462428E+04 0.  0.
        4    1    3    3  502    0 -0.57554865350E+03  0.17611555372E+04  0.65254917754E+03  0.19643693951E+04  0.12699999809E+01 0. -1.
       -4    1    3    3    0  502  0.57554865350E+03 -0.17611555372E+04  0.37119033203E+03  0.18896319626E+04  0.12699999809E+01 0.  1.
</event>
<event>
 5   0  0.5177000E-08  0.3574065E+04  0.7818609E-02  0.8096458E-01
        1   -1    0    0  501    0  0.00000000000E+00  0.00000000000E+00  0.20724879019E+04  0.20724879019E+04  0.50400001928E-02 0. -1.
       -1   -1    0    0    0  501  0.00000000000E+00  0.00000000000E+00 -0.15408944105E+04  0.15408944105E+04  0.50400001928E-02 0.  1.
    10030    2    1    2    0    0  0.00000000000E+00  0.00000000000E+00  0.53159349139E+03  0.36133823124E+04  0.35740649260E+04 0.  0.
        3    1    3    3  502    0  0.17268700848E+04 -0.11642280321E+03 -0.18390026756E+03  0.17405326419E+04  0.10100000352E+00 0. -1.
       -3    1    3    3    0  502 -0.17268700848E+04  0.11642280321E+03  0.71549375895E+03  0.18728496705E+04  0.10100000352E+00 0.  1.
</event>
<event>
 5   0  0.5177000E-08  0.3728364E+04  0.7818609E-02  0.8061705E-01
       -1   -1    0    0    0  501  0.00000000000E+00  0.00000000000E+00  0.23449354531E+04  0.23449354531E+04  0.50400001928E-02 0.  1.
        1   -1    0    0  501    0  0.00000000000E+00  0.00000000000E+00 -0.14819913266E+04  0.14819913266E+04  0.50400001928E-02 0. -1.
    10030    2    1    2    0    0  0.00000000000E+00  0.00000000000E+00  0.86294412651E+03  0.38269267797E+04  0.37283637177E+04 0.  0.
        4    1    3    3  502    0 -0.48781383944E+03 -0.41464055649E+03 -0.13656070082E+04  0.15082351430E+04  0.12699999809E+01 0. -1.
       -4    1    3    3    0  502  0.48781383944E+03  0.41464055649E+03  0.22285511347E+04  0.23186916366E+04  0.12699999809E+01 0.  1.
</event>
<event>
 5   0  0.5177000E-08  0.3705433E+04  0.7818609E-02  0.8066759E-01
       -1   -1    0    0    0  501  0.00000000000E+00  0.00000000000E+00  0.17978565524E+04  0.17978565524E+04  0.50400001928E-02 0. -1.
        1   -1    0    0  501    0  0.00000000000E+00  0.00000000000E+00 -0.19092506207E+04  0.19092506207E+04  0.50400001928E-02 0.  1.
    10030    2    1    2    0    0  0.00000000000E+00  0.00000000000E+00 -0.11139406833E+03  0.37071071731E+04  0.37054331669E+04 0.  0.
        4    1    3    3  502    0  0.28569471503E+03  0.40454396343E+03  0.17304049582E+04  0.17998833909E+04  0.12699999809E+01 0. -1.
       -4    1    3    3    0  502 -0.28569471503E+03 -0.40454396343E+03 -0.18417990265E+04  0.19072237822E+04  0.12699999809E+01 0.  1.
</event>
<event>
 5   0  0.1558258E-07  0.3689702E+04  0.7818609E-02  0.8070248E-01
        2   -1    0    0  501    0  0.00000000000E+00  0.00000000000E+00  0.19279319688E+04  0.19279319688E+04  0.25500000920E-02 0.  1.
       -2   -1    0    0    0  501  0.00000000000E+00  0.00000000000E+00 -0.17653498677E+04  0.17653498677E+04  0.25500000920E-02 0. -1.
    10030    2    1    2    0    0  0.00000000000E+00  0.00000000000E+00  0.16258210107E+03  0.36932818366E+04  0.36897015848E+04 0.  0.
        1    1    3    3  502    0 -0.16610153381E+04 -0.40621958958E+02 -0.72126768291E+03  0.18113114496E+04  0.50400001928E-02 0. -1.
       -1    1    3    3    0  502  0.16610153381E+04  0.40621958958E+02  0.88384978398E+03  0.18819703870E+04  0.50400001928E-02 0.  1.
</event>
<event>
 5   0  0.1658770E-07  0.3707970E+04  0.7818609E-02  0.8066198E-01
        2   -1    0    0  501    0  0.00000000000E+00  0.00000000000E+00  0.19996900470E+04  0.19996900470E+04  0.25500000920E-02 0.  1.
       -2   -1    0    0    0  501  0.00000000000E+00  0.00000000000E+00 -0.17188961244E+04  0.17188961244E+04  0.25500000920E-02 0. -1.
    10030    2    1    2    0    0  0.00000000000E+00  0.00000000000E+00  0.28079392267E+03  0.37185861714E+04  0.37079695100E+04 0.  0.
        2    1    3    3  502    0  0.12211138417E+04 -0.45470137941E+03 -0.11822374559E+04  0.17594197228E+04  0.25500000920E-02 0. -1.
       -2    1    3    3    0  502 -0.12211138417E+04  0.45470137941E+03  0.14630313785E+04  0.19591664486E+04  0.25500000920E-02 0.  1.
</event>
<event>
 5   0  0.1587026E-07  0.3702162E+04  0.7818609E-02  0.8067483E-01
        2   -1    0    0  501    0  0.00000000000E+00  0.00000000000E+00  0.17198545083E+04  0.17198545083E+04  0.25500000920E-02 0. -1.
       -2   -1    0    0    0  501  0.00000000000E+00  0.00000000000E+00 -0.19923198379E+04  0.19923198379E+04  0.25500000920E-02 0.  1.
    10030    2    1    2    0    0  0.00000000000E+00  0.00000000000E+00 -0.27246532956E+03  0.37121743462E+04  0.37021616687E+04 0.  0.
        3    1    3    3  502    0 -0.16817277130E+04  0.77158521859E+03 -0.19067864396E+03  0.18600833867E+04  0.10100000352E+00 0. -1.
       -3    1    3    3    0  502  0.16817277130E+04 -0.77158521859E+03 -0.81786685592E+02  0.18520909595E+04  0.10100000352E+00 0.  1.
</event>
<event>
 5   0  0.1686284E-07  0.3701406E+04  0.7818609E-02  0.8067650E-01
        2   -1    0    0  501    0  0.00000000000E+00  0.00000000000E+00  0.23212732655E+04  0.23212732655E+04  0.25500000920E-02 0. -1.
       -2   -1    0    0    0  501  0.00000000000E+00  0.00000000000E+00 -0.14755272011E+04  0.14755272011E+04  0.25500000920E-02 0.  1.
    10030    2    1    2    0    0  0.00000000000E+00  0.00000000000E+00  0.84574606436E+03  0.37968004666E+04  0.37014061352E+04 0.  0.
        5    1    3    3  502    0  0.10798156070E+04 -0.10337888938E+04 -0.69628116653E+03  0.16491060533E+04  0.46999998093E+01 0.  1.
       -5    1    3    3    0  502 -0.10798156070E+04  0.10337888938E+04  0.15420272309E+04  0.21476944133E+04  0.46999998093E+01 0. -1.
</event>
<event>
 5   0  0.5181371E-08  0.3718426E+04  0.7818609E-02  0.8063891E-01
        1   -1    0    0  501    0  0.00000000000E+00  0.00000000000E+00  0.22244967044E+04  0.22244967044E+04  0.50400001928E-02 0.  1.
       -1   -1    0    0    0  501  0.00000000000E+00  0.00000000000E+00 -0.15539121247E+04  0.15539121247E+04  0.50400001928E-02 0. -1.
    10030    2    1    2    0    0  0.00000000000E+00  0.00000000000E+00  0.67058457975E+03  0.37784088291E+04  0.37184256886E+04 0.  0.
        5    1    3    3  502    0 -0.61601213822E+03 -0.10392991319E+04 -0.11006694233E+04  0.16343527493E+04  0.46999998093E+01 0. -1.
       -5    1    3    3    0  502  0.61601213822E+03  0.10392991319E+04  0.17712540031E+04  0.21440560798E+04  0.46999998093E+01 0.  1.
</event>
<event>
 5   0  0.5177000E-08  0.3706080E+04  0.7818609E-02  0.8066616E-01
       -1   -1    0    0    0  501  0.00000000000E+00  0.00000000000E+00  0.18073169931E+04  0.18073169932E+04  0.50400001928E-02 0.  1.
        1   -1    0    0  501    0  0.00000000000E+00  0.00000000000E+00 -0.18999195865E+04  0.18999195866E+04  0.50400001928E-02 0. -1.
    10030    2    1    2    0    0  0.00000000000E+00  0.00000000000E+00 -0.92602593405E+02  0.37072365797E+04  0.37060798450E+04 0.  0.
        2    1    3    3  502    0  0.49867247059E+03  0.87476033273E+03 -0.16023822369E+04  0.18924874387E+04  0.25500000920E-02 0. -1.
       -2    1    3    3    0  502 -0.49867247059E+03 -0.87476033273E+03  0.15097796435E+04  0.18147491410E+04  0.25500000920E-02 0.  1.
</event>
<event>
 5   0  0.5181371E-08  0.3694026E+04  0.7818609E-02  0.8069287E-01
       -1   -1    0    0    0  501  0.00000000000E+00  0.00000000000E+00  0.18894872441E+04  0.18894872442E+04  0.50400001928E-02 0. -1.
        1   -1    0    0  501    0  0.00000000000E+00  0.00000000000E+00 -0.18054933246E+04  0.18054933246E+04  0.50400001928E-02 0.  1.
    10030    2    1    2    0    0  0.00000000000E+00  0.00000000000E+00  0.83993919596E+02  0.36949805687E+04  0.36940257748E+04 0.  0.
        5    1    3    3  502    0 -0.30833196412E+03  0.17970235957E+04  0.33715306993E+03  0.18541997428E+04  0.46999998093E+01 0.  1.
       -5    1    3    3    0  502  0.30833196412E+03 -0.17970235957E+04 -0.25315915034E+03  0.18407808259E+04  0.46999998093E+01 0. -1.
</event>
<event>
 5   0  0.1658770E-07  0.3737622E+04  0.7818609E-02  0.8059675E-01
        2   -1    0    0  501    0  0.00000000000E+00  0.00000000000E+00  0.12515552131E+04  0.12515552131E+04  0.25500000920E-02 0. -1.
       -2   -1    0    0    0  501  0.00000000000E+00  0.00000000000E+00 -0.27904917918E+04  0.27904917918E+04  0.25500000920E-02 0.  1.
    10030    2    1    2    0    0  0.00000000000E+00  0.00000000000E+00 -0.15389365786E+04  0.40420470049E+04  0.37376219976E+04 0.  0.
        2    1    3    3  502    0 -0.11818947847E+04  0.13982265396E+04 -0.36404494186E+03  0.18666658667E+04  0.25500000920E-02 0. -1.
       -2    1    3    3    0  502  0.11818947847E+04 -0.13982265396E+04 -0.11748916368E+04  0.21753811382E+04  0.25500000920E-02 0.  1.
</event>
<event>
 5   0  0.1558258E-07  0.3703204E+04  0.7818609E-02  0.8067252E-01
        2   -1    0    0  501    0  0.00000000000E+00  0.00000000000E+00  0.17014309777E+04  0.17014309777E+04  0.25500000920E-02 0.  1.
       -2   -1    0    0    0  501  0.00000000000E+00  0.00000000000E+00 -0.20150277927E+04  0.20150277927E+04  0.25500000920E-02 0. -1.
    10030    2    1    2    0    0  0.00000000000E+00  0.00000000000E+00 -0.31359681499E+03  0.37164587705E+04  0.37032044003E+04 0.  0.
        1    1    3    3  502    0 -0.62221572942E+03  0.99372063434E+03  0.12814385879E+04  0.17368701643E+04  0.50400001928E-02 0.  1.
       -1    1    3    3    0  502  0.62221572942E+03 -0.99372063434E+03 -0.15950354029E+04  0.19795886062E+04  0.50400001928E-02 0. -1.
</event>
<event>
 5   0  0.1558258E-07  0.3710409E+04  0.7818609E-02  0.8065659E-01
        2   -1    0    0  501    0  0.00000000000E+00  0.00000000000E+00  0.24555154612E+04  0.24555154612E+04  0.25500000920E-02 0.  1.
       -2   -1    0    0    0  501  0.00000000000E+00  0.00000000000E+00 -0.14016544682E+04  0.14016544682E+04  0.25500000920E-02 0. -1.
    10030    2    1    2    0    0  0.00000000000E+00  0.00000000000E+00  0.10538609929E+04  0.38571699294E+04  0.37104092594E+04 0.  0.
        1    1    3    3  502    0 -0.11722390134E+04 -0.49494516508E+01 -0.96786519740E+03  0.15201749379E+04  0.50400001928E-02 0. -1.
       -1    1    3    3    0  502  0.11722390134E+04  0.49494516508E+01  0.20217261903E+04  0.23369949915E+04  0.50400001928E-02 0.  1.
</event>
<event>
 5   0  0.1587026E-07  0.3688652E+04  0.7818609E-02  0.8070481E-01
        2   -1    0    0  501    0  0.00000000000E+00  0.00000000000E+00  0.22700257918E+04  0.22700257918E+04  0.25500000920E-02 0.  1.
       -2   -1    0    0    0  501  0.00000000000E+00  0.00000000000E+00 -0.14984582977E+04  0.14984582977E+04  0.25500000920E-02 0. -1.
    10030    2    1    2    0    0  0.00000000000E+00  0.00000000000E+00  0.77156749410E+03  0.37684840895E+04  0.36886523196E+04 0.  0.
        3    1    3    3  502    0 -0.12221011897E+04 -0.22115862666E+03  0.17787799504E+04  0.21694470674E+04  0.10100000352E+00 0.  1.
       -3    1    3    3    0  502  0.12221011897E+04  0.22115862666E+03 -0.10072124563E+04  0.15990370222E+04  0.10100000352E+00 0. -1.
</event>
<event>
 5   0  0.5177000E-08  0.3680595E+04  0.7818609E-02  0.8072276E-01
        1   -1    0    0  501    0  0.00000000000E+00  0.00000000000E+00  0.26470377527E+04  0.26470377527E+04  0.50400001928E-02 0. -1.
       -1   -1    0    0    0  501  0.00000000000E+00  0.00000000000E+00 -0.12794283409E+04  0.12794283410E+04  0.50400001928E-02 0.  1.
    10030    2    1    2    0    0  0.00000000000E+00  0.00000000000E+00  0.13676094118E+04  0.39264660937E+04  0.36805951260E+04 0.  0.
        4    1    3    3  502    0  0.16200499007E+04 -0.21751869813E+03  0.15857524478E+04  0.22773863316E+04  0.12699999809E+01 0. -1.
       -4    1    3    3    0  502 -0.16200499007E+04  0.21751869813E+03 -0.21814303598E+03  0.16490797621E+04  0.12699999809E+01 0.  1.
</event>
<event>
 5   0  0.1587026E-07  0.3696490E+04  0.7818609E-02  0.8068740E-01
        2   -1    0    0  501    0  0.00000000000E+00  0.00000000000E+00  0.14361278953E+04  0.14361278953E+04  0.25500000920E-02 0.  1.
       -2   -1    0    0    0  501  0.00000000000E+00  0.00000000000E+00 -0.23786252796E+04  0.23786252796E+04  0.25500000920E-02 0. -1.
    10030    2    1    2    0    0  0.00000000000E+00  0.00000000000E+00 -0.94249738428E+03  0.38147531750E+04  0.36964902903E+04 0.  0.
        3    1    3    3  502    0  0.14416274240E+04 -0.11203117842E+04 -0.76788525505E+03  0.19806655191E+04  0.10100000352E+00 0. -1.
       -3    1    3    3    0  502 -0.14416274240E+04  0.11203117842E+04 -0.17461212923E+03  0.18340876559E+04  0.10100000352E+00 0.  1.
</event>
<event>
 5   0  0.5177000E-08  0.3701677E+04  0.7818609E-02  0.8067590E-01
        1   -1    0    0  501    0  0.00000000000E+00  0.00000000000E+00  0.15676399747E+04  0.15676399747E+04  0.50400001928E-02 0.  1.
       -1   -1    0    0    0  501  0.00000000000E+00  0.00000000000E+00 -0.21851978603E+04  0.21851978603E+04  0.50400001928E-02 0. -1.
    10030    2    1    2    0    0  0.00000000000E+00  0.00000000000E+00 -0.61755788562E+03  0.37528378350E+04  0.37016771974E+04 0.  0.
        2    1    3    3  502    0 -0.16482658652E+04  0.41977739109E+03  0.43110900453E+03  0.17546647527E+04  0.25500000920E-02 0.  1.
       -2    1    3    3    0  502  0.16482658652E+04 -0.41977739109E+03 -0.10486668901E+04  0.19981730823E+04  0.25500000920E-02 0. -1.
</event>
<event>
 5   0  0.1686284E-07  0.3694863E+04  0.7818609E-02  0.8069101E-01
       -2   -1    0    0    0  501  0.00000000000E+00  0.00000000000E+00  0.12028960780E+04  0.12028960780E+04  0.25500000920E-02 0. -1.
        2   -1    0    0  501    0  0.00000000000E+00  0.00000000000E+00 -0.28373222705E+04  0.28373222705E+04  0.25500000920E-02 0.  1.
    10030    2    1    2    0    0  0.00000000000E+00  0.00000000000E+00 -0.16344261925E+04  0.40402183485E+04  0.36948633703E+04 0.  0.
        5    1    3    3  502    0 -0.46853473256E+03  0.56207912884E+03  0.10376673810E+04  0.12697375423E+04  0.46999998093E+01 0. -1.
       -5    1    3    3    0  502  0.46853473256E+03 -0.56207912884E+03 -0.26720935734E+04  0.27704808063E+04  0.46999998093E+01 0.  1.
</event>
<event>
 5   0  0.1587026E-07  0.3686802E+04  0.7818609E-02  0.8070893E-01
        2   -1    0    0  501    0  0.00000000000E+00  0.00000000000E+00  0.21010164683E+04  0.21010164683E+04  0.25500000920E-02 0.  1.
       -2   -1    0    0    0  501  0.00000000000E+00  0.00000000000E+00 -0.16173728880E+04  0.16173728880E+04  0.25500000920E-02 0. -1.
    10030    2    1    2    0    0  0.00000000000E+00  0.00000000000E+00  0.48364358023E+03  0.37183893563E+04  0.36868019058E+04 0.  0.
        3    1    3    3  502    0  0.12836348165E+03 -0.10822824260E+04  0.17412722062E+04  0.20542252406E+04  0.10100000352E+00 0.  1.
       -3    1    3    3    0  502 -0.12836348165E+03  0.10822824260E+04 -0.12576286260E+04  0.16641641157E+04  0.10100000352E+00 0. -1.
</event>
<event>
 5   0  0.5177000E-08  0.3694972E+04  0.7818609E-02  0.8069077E-01
        1   -1    0    0  501    0  0.00000000000E+00  0.00000000000E+00  0.19550171897E+04  0.19550171897E+04  0.50400001928E-02 0. -1.
       -1   -1    0    0    0  501  0.00000000000E+00  0.00000000000E+00 -0.17458691565E+04  0.17458691565E+04  0.50400001928E-02 0.  1.
    10030    2    1    2    0    0  0.00000000000E+00  0.00000000000E+00  0.20914803313E+03  0.37008863462E+04  0.36949718331E+04 0.  0.
        2    1    3    3  502    0  0.16633597438E+04 -0.73829296693E+03 -0.21430970576E+03  0.18324221108E+04  0.25500000920E-02 0. -1.
       -2    1    3    3    0  502 -0.16633597438E+04  0.73829296693E+03  0.42345773888E+03  0.18684642354E+04  0.25500000920E-02 0.  1.
</event>
<event>
 5   0  0.5177000E-08  0.3696115E+04  0.7818609E-02  0.8068823E-01
       -1   -1    0    0    0  501  0.00000000000E+00  0.00000000000E+00  0.20842342394E+04  0.20842342394E+04  0.50400001928E-02 0.  1.
        1   -1    0    0  501    0  0.00000000000E+00  0.00000000000E+00 -0.16386437372E+04  0.16386437372E+04  0.50400001928E-02 0. -1.
    10030    2    1    2    0    0  0.00000000000E+00  0.00000000000E+00  0.44559050218E+03  0.37228779765E+04  0.36961154653E+04 0.  0.
        2    1    3    3  502    0  0.60468157555E+03 -0.14028642738E+04  0.12703495165E+04  0.19868205437E+04  0.25500000920E-02 0.  1.
       -2    1    3    3    0  502 -0.60468157555E+03  0.14028642738E+04 -0.82475901435E+03  0.17360574329E+04  0.25500000920E-02 0. -1.
</event>
<event>
 5   0  0.5177000E-08  0.3733847E+04  0.7818609E-02  0.8060502E-01
       -3   -1    0    0    0  501  0.00000000000E+00  0.00000000000E+00  0.26051308826E+04  0.26051308845E+04  0.10100000352E+00 0.  1.
        3   -1    0    0  501    0  0.00000000000E+00  0.00000000000E+00 -0.13378995301E+04  0.13378995339E+04  0.10100000352E+00 0. -1.
    10030    2    1    2    0    0  0.00000000000E+00  0.00000000000E+00  0.12672313525E+04  0.39430304184E+04  0.37338470215E+04 0.  0.
        4    1    3    3  502    0  0.66958825778E+03  0.13784557896E+04 -0.49238128863E+03  0.16096365258E+04  0.12699999809E+01 0. -1.
       -4    1    3    3    0  502 -0.66958825778E+03 -0.13784557896E+04  0.17596126411E+04  0.23333938927E+04  0.12699999809E+01 0.  1.
</event>
<event>
 5   0  0.1658770E-07  0.3692262E+04  0.7818609E-02  0.8069679E-01
       -2   -1    0    0    0  501  0.00000000000E+00  0.00000000000E+00  0.20396886742E+04  0.20396886742E+04  0.25500000920E-02 0.  1.
        2   -1    0    0  501    0  0.00000000000E+00  0.00000000000E+00 -0.16709410709E+04  0.16709410709E+04  0.25500000920E-02 0. -1.
    10030    2    1    2    0    0  0.00000000000E+00  0.00000000000E+00  0.36874760326E+03  0.37106297451E+04  0.36922619503E+04 0.  0.
        2    1    3    3  502    0  0.61772213154E+01 -0.15823782970E+04  0.11400198248E+04  0.19502831676E+04  0.25500000920E-02 0.  1.
       -2    1    3    3    0  502 -0.61772213154E+01  0.15823782970E+04 -0.77127222159E+03  0.17603465774E+04  0.25500000920E-02 0. -1.
</event>
<event>
 5   0  0.1658770E-07  0.3691685E+04  0.7818609E-02  0.8069807E-01
        2   -1    0    0  501    0  0.00000000000E+00  0.00000000000E+00  0.18789866935E+04  0.18789866935E+04  0.25500000920E-02 0. -1.
       -2   -1    0    0    0  501  0.00000000000E+00  0.00000000000E+00 -0.18132833234E+04  0.18132833234E+04  0.25500000920E-02 0.  1.
    10030    2    1    2    0    0  0.00000000000E+00  0.00000000000E+00  0.65703370125E+02  0.36922700168E+04  0.36916853799E+04 0.  0.
        2    1    3    3  502    0 -0.13979443523E+04 -0.10244983635E+04 -0.60230000685E+03  0.18348325829E+04  0.25500000920E-02 0.  1.
       -2    1    3    3    0  502  0.13979443523E+04  0.10244983635E+04  0.66800337697E+03  0.18574374339E+04  0.25500000920E-02 0. -1.
</event>
<event>
 5   0  0.5177000E-08  0.3716214E+04  0.7818609E-02  0.8064378E-01
       -1   -1    0    0    0  501  0.00000000000E+00  0.00000000000E+00  0.12818762603E+04  0.12818762603E+04  0.50400001928E-02 0. -1.
        1   -1    0    0  501    0  0.00000000000E+00  0.00000000000E+00 -0.26933659368E+04  0.26933659368E+04  0.50400001928E-02 0.  1.
    10030    2    1    2    0    0  0.00000000000E+00  0.00000000000E+00 -0.14114896765E+04  0.39752421971E+04  0.37162141244E+04 0.  0.
        3    1    3    3  502    0 -0.16896796962E+04  0.69117480401E+03 -0.10760252259E+04  0.21190965958E+04  0.10100000352E+00 0. -1.
       -3    1    3    3    0  502  0.16896796962E+04 -0.69117480401E+03 -0.33546445057E+03  0.18561456013E+04  0.10100000352E+00 0.  1.
</event>
<event>
 5   0  0.1666189E-07  0.3694751E+04  0.7818609E-02  0.8069126E-01
        2   -1    0    0  501    0  0.00000000000E+00  0.00000000000E+00  0.21465221779E+04  0.21465221779E+04  0.25500000920E-02 0. -1.
       -2   -1    0    0    0  501  0.00000000000E+00  0.00000000000E+00 -0.15899192115E+04  0.15899192115E+04  0.25500000920E-02 0.  1.
    10030    2    1    2    0    0  0.00000000000E+00  0.00000000000E+00  0.55660296640E+03  0.37364413895E+04  0.36947513306E+04 0.  0.
        4    1    3    3  502    0 -0.15686574724E+04  0.56400570720E+03 -0.52692829333E+03  0.17482687845E+04  0.12699999809E+01 0. -1.
       -4    1    3    3    0  502  0.15686574724E+04 -0.56400570720E+03  0.10835312597E+04  0.19881726050E+04  0.12699999809E+01 0.  1.
</event>
<event>
 5   0  0.5177000E-08  0.3702413E+04  0.7818609E-02  0.8067427E-01
       -1   -1    0    0    0  501  0.00000000000E+00  0.00000000000E+00  0.16093687063E+04  0.16093687063E+04  0.50400001928E-02 0. -1.
        1   -1    0    0  501    0  0.00000000000E+00  0.00000000000E+00 -0.21293853122E+04  0.21293853122E+04  0.50400001928E-02 0.  1.
    10030    2    1    2    0    0  0.00000000000E+00  0.00000000000E+00 -0.52001660584E+03  0.37387540185E+04  0.37024133130E+04 0.  0.
        1    1    3    3  502    0 -0.48012384848E+03 -0.11548803711E+04  0.11181949695E+04  0.16776851824E+04  0.50400001928E-02 0. -1.
       -1    1    3    3    0  502  0.48012384848E+03  0.11548803711E+04 -0.16382115754E+04  0.20610688361E+04  0.50400001928E-02 0.  1.
</event>
<event>
 5   0  0.1658770E-07  0.3709907E+04  0.7818609E-02  0.8065770E-01
       -2   -1    0    0    0  501  0.00000000000E+00  0.00000000000E+00  0.16381472437E+04  0.16381472437E+04  0.25500000920E-02 0. -1.
        2   -1    0    0  501    0  0.00000000000E+00  0.00000000000E+00 -0.21004540125E+04  0.21004540125E+04  0.25500000920E-02 0.  1.
    10030    2    1    2    0    0  0.00000000000E+00  0.00000000000E+00 -0.46230676880E+03  0.37386012562E+04  0.37099072501E+04 0.  0.
        2    1    3    3  502    0 -0.15454583349E+04  0.41754905859E+02  0.80179554753E+03  0.17415685566E+04  0.25500000920E-02 0. -1.
       -2    1    3    3    0  502  0.15454583349E+04 -0.41754905859E+02 -0.12641023163E+04  0.19970326996E+04  0.25500000920E-02 0.  1.
</event>
<event>
 5   0  0.5181371E-08  0.3714079E+04  0.7818609E-02  0.8064849E-01
        1   -1    0    0  501    0  0.00000000000E+00  0.00000000000E+00  0.18008776162E+04  0.18008776162E+04  0.50400001928E-02 0. -1.
       -1   -1    0    0    0  501  0.00000000000E+00  0.00000000000E+00 -0.19149527876E+04  0.19149527876E+04  0.50400001928E-02 0.  1.
    10030    2    1    2    0    0  0.00000000000E+00  0.00000000000E+00 -0.11407517139E+03  0.37158304038E+04  0.37140789498E+04 0.  0.
        5    1    3    3  502    0 -0.87663617937E+03  0.10211465017E+04  0.12231526208E+04  0.18186136458E+04  0.46999998093E+01 0. -1.
       -5    1    3    3    0  502  0.87663617937E+03 -0.10211465017E+04 -0.13372277922E+04  0.18972167581E+04  0.46999998093E+01 0.  1.
</event>
<event>
 5   0  0.1558258E-07  0.3689967E+04  0.7818609E-02  0.8070189E-01
        2   -1    0    0  501    0  0.00000000000E+00  0.00000000000E+00  0.18354256154E+04  0.18354256154E+04  0.25500000920E-02 0.  1.
       -2   -1    0    0    0  501  0.00000000000E+00  0.00000000000E+00 -0.18545908580E+04  0.18545908580E+04  0.25500000920E-02 0. -1.
    10030    2    1    2    0    0  0.00000000000E+00  0.00000000000E+00 -0.19165242608E+02  0.36900164734E+04  0.36899667028E+04 0.  0.
        1    1    3    3  502    0  0.39514132129E+03 -0.95121203414E+03  0.15211315177E+04  0.18370579991E+04  0.50400001928E-02 0.  1.
       -1    1    3    3    0  502 -0.39514132129E+03  0.95121203414E+03 -0.15402967603E+04  0.18529584743E+04  0.50400001928E-02 0. -1.
</event>
<event>
 5   0  0.1686284E-07  0.3755606E+04  0.7818609E-02  0.8055749E-01
       -2   -1    0    0    0  501  0.00000000000E+00  0.00000000000E+00  0.25924901795E+04  0.25924901795E+04  0.25500000920E-02 0. -1.
        2   -1    0    0  501    0  0.00000000000E+00  0.00000000000E+00 -0.13601381408E+04  0.13601381408E+04  0.25500000920E-02 0.  1.
    10030    2    1    2    0    0  0.00000000000E+00  0.00000000000E+00  0.12323520387E+04  0.39526283203E+04  0.37556063547E+04 0.  0.
        5    1    3    3  502    0  0.11086898342E+04  0.14952761909E+04  0.35606987148E+03  0.18952181613E+04  0.46999998093E+01 0. -1.
       -5    1    3    3    0  502 -0.11086898342E+04 -0.14952761909E+04  0.87628216719E+03  0.20574101590E+04  0.46999998093E+01 0.  1.
</event>
<event>
 5   0  0.5177000E-08  0.3700573E+04  0.7818609E-02  0.8067835E-01
       -1   -1    0    0    0  501  0.00000000000E+00  0.00000000000E+00  0.18611305432E+04  0.18611305432E+04  0.50400001928E-02 0.  1.
        1   -1    0    0  501    0  0.00000000000E+00  0.00000000000E+00 -0.18395055983E+04  0.18395055983E+04  0.50400001928E-02 0. -1.
    10030    2    1    2    0    0  0.00000000000E+00  0.00000000000E+00  0.21624944873E+02  0.37006361415E+04  0.37005729575E+04 0.  0.
        1    1    3    3  502    0  0.10663573733E+04 -0.14074756175E+04  0.56350119402E+03  0.18535477488E+04  0.50400001928E-02 0.  1.
       -1    1    3    3    0  502 -0.10663573733E+04  0.14074756175E+04 -0.54187624914E+03  0.18470883928E+04  0.50400001928E-02 0. -1.
</event>
<event>
 5   0  0.5177000E-08  0.3712175E+04  0.7818609E-02  0.8065269E-01
        1   -1    0    0  501    0  0.00000000000E+00  0.00000000000E+00  0.18009101269E+04  0.18009101269E+04  0.50400001928E-02 0.  1.
       -1   -1    0    0    0  501  0.00000000000E+00  0.00000000000E+00 -0.19129554341E+04  0.19129554342E+04  0.50400001928E-02 0. -1.
    10030    2    1    2    0    0  0.00000000000E+00  0.00000000000E+00 -0.11204530728E+03  0.37138655610E+04  0.37121750032E+04 0.  0.
        4    1    3    3  502    0  0.11956080503E+04  0.80104402669E+03 -0.12286951246E+04  0.18923116722E+04  0.12699999809E+01 0. -1.
       -4    1    3    3    0  502 -0.11956080503E+04 -0.80104402669E+03  0.11166498173E+04  0.18215538889E+04  0.12699999809E+01 0.  1.
</event>
<event>
 5   0  0.5177000E-08  0.3690633E+04  0.7818609E-02  0.8070041E-01
       -1   -1    0    0    0  501  0.00000000000E+00  0.00000000000E+00  0.17529033611E+04  0.17529033611E+04  0.50400001928E-02 0. -1.
        1   -1    0    0  501    0  0.00000000000E+00  0.00000000000E+00 -0.19426013695E+04  0.19426013695E+04  0.50400001928E-02 0.  1.
    10030    2    1    2    0    0  0.00000000000E+00  0.00000000000E+00 -0.18969800845E+03  0.36955047306E+04  0.36906327208E+04 0.  0.
        4    1    3    3  502    0  0.13896181511E+04 -0.95793201411E+03  0.65213747442E+03  0.18094079827E+04  0.12699999809E+01 0. -1.
       -4    1    3    3    0  502 -0.13896181511E+04  0.95793201411E+03 -0.84183548287E+03  0.18860967479E+04  0.12699999809E+01 0.  1.
</event>
<event>
 5   0  0.1658770E-07  0.3690479E+04  0.7818609E-02  0.8070075E-01
       -2   -1    0    0    0  501  0.00000000000E+00  0.00000000000E+00  0.16204213065E+04  0.16204213065E+04  0.25500000920E-02 0.  1.
        2   -1    0    0  501    0  0.00000000000E+00  0.00000000000E+00 -0.21012490728E+04  0.21012490728E+04  0.25500000920E-02 0. -1.
    10030    2    1    2    0    0  0.00000000000E+00  0.00000000000E+00 -0.48082776636E+03  0.37216703793E+04  0.36904789759E+04 0.  0.
        2    1    3    3  502    0  0.15158215949E+03  0.48150714413E+03  0.15494340455E+04  0.16295926308E+04  0.25500000920E-02 0.  1.
       -2    1    3    3    0  502 -0.15158215949E+03 -0.48150714413E+03 -0.20302618119E+04  0.20920777485E+04  0.25500000920E-02 0. -1.
</event>
<event>
 5   0  0.1658770E-07  0.3695348E+04  0.7818609E-02  0.8068994E-01
        2   -1    0    0  501    0  0.00000000000E+00  0.00000000000E+00  0.24290496404E+04  0.24290496404E+04  0.25500000920E-02 0.  1.
       -2   -1    0    0    0  501  0.00000000000E+00  0.00000000000E+00 -0.14054461702E+04  0.14054461702E+04  0.25500000920E-02 0. -1.
    10030    2    1    2    0    0  0.00000000000E+00  0.00000000000E+00  0.10236034702E+04  0.38344958106E+04  0.36953476233E+04 0.  0.
        2    1    3    3  502    0 -0.10886937551E+04  0.14896136470E+04  0.61397573989E+03  0.19445228512E+04  0.25500000920E-02 0. -1.
       -2    1    3    3    0  502  0.10886937551E+04 -0.14896136470E+04  0.40962773036E+03  0.18899729594E+04  0.25500000920E-02 0.  1.
</event>
<event>
 5   0  0.1666189E-07  0.3699895E+04  0.7818609E-02  0.8067985E-01
       -2   -1    0    0    0  501  0.00000000000E+00  0.00000000000E+00  0.16568045200E+04  0.16568045200E+04  0.25500000920E-02 0.  1.
        2   -1    0    0  501    0  0.00000000000E+00  0.00000000000E+00 -0.20656057593E+04  0.20656057593E+04  0.25500000920E-02 0. -1.
    10030    2    1    2    0    0  0.00000000000E+00  0.00000000000E+00 -0.40880123929E+03  0.37224102793E+04  0.36998945707E+04 0.  0.
        4    1    3    3  502    0 -0.27528272776E+03  0.14101959641E+04 -0.13767687495E+04  0.19899565422E+04  0.12699999809E+01 0. -1.
       -4    1    3    3    0  502  0.27528272776E+03 -0.14101959641E+04  0.96796751024E+03  0.17324537371E+04  0.12699999809E+01 0.  1.
</event>
<event>
 5   0  0.1686284E-07  0.3697396E+04  0.7818609E-02  0.8068539E-01
       -2   -1    0    0    0  501  0.00000000000E+00  0.00000000000E+00  0.21306763809E+04  0.21306763809E+04  0.25500000920E-02 0.  1.
        2   -1    0    0  501    0  0.00000000000E+00  0.00000000000E+00 -0.16040368685E+04  0.16040368685E+04  0.25500000920E-02 0. -1.
    10030    2    1    2    0    0  0.00000000000E+00  0.00000000000E+00  0.52663951237E+03  0.37347132494E+04  0.36973955535E+04 0.  0.
        5    1    3    3  502    0  0.70377868057E+03  0.52024912371E+03 -0.13815191187E+04  0.16354145491E+04  0.46999998093E+01 0. -1.
       -5    1    3    3    0  502 -0.70377868057E+03 -0.52024912371E+03  0.19081586311E+04  0.20992987003E+04  0.46999998093E+01 0.  1.
</event>
<event>
 5   0  0.1658770E-07  0.3680072E+04  0.7818609E-02  0.8072392E-01
        2   -1    0    0  501    0  0.00000000000E+00  0.00000000000E+00  0.21212794645E+04  0.21212794645E+04  0.25500000920E-02 0.  1.
       -2   -1    0    0    0  501  0.00000000000E+00  0.00000000000E+00 -0.15960804632E+04  0.15960804633E+04  0.25500000920E-02 0. -1.
    10030    2    1    2    0    0  0.00000000000E+00  0.00000000000E+00  0.52519900130E+03  0.37173599278E+04  0.36800721245E+04 0.  0.
        2    1    3    3  502    0  0.58656647997E+03 -0.42051487408E+02 -0.14985986779E+04  0.16098529624E+04  0.25500000920E-02 0. -1.
       -2    1    3    3    0  502 -0.58656647997E+03  0.42051487408E+02  0.20237976792E+04  0.21075069654E+04  0.25500000920E-02 0.  1.
</event>
<event>
 5   0  0.1558258E-07  0.3695592E+04  0.7818609E-02  0.8068939E-01
       -2   -1    0    0    0  501  0.00000000000E+00  0.00000000000E+00  0.15909717322E+04  0.15909717322E+04  0.25500000920E-02 0. -1.
        2   -1    0    0  501    0  0.00000000000E+00  0.00000000000E+00 -0.21460787974E+04  0.21460787974E+04  0.25500000920E-02 0.  1.
    10030    2    1    2    0    0  0.00000000000E+00  0.00000000000E+00 -0.55510706520E+03  0.37370505296E+04  0.36955923486E+04 0.  0.
        1    1    3    3  502    0 -0.15831121179E+04 -0.72651998782E+03 -0.90113621308E+03  0.19611531672E+04  0.50400001928E-02 0.  1.
       -1    1    3    3    0  502  0.15831121179E+04  0.72651998782E+03  0.34602914787E+03  0.17758973624E+04  0.50400001928E-02 0. -1.
</event>
<event>
 5   0  0.1666189E-07  0.3702998E+04  0.7818609E-02  0.8067298E-01
       -2   -1    0    0    0  501  0.00000000000E+00  0.00000000000E+00  0.18018435228E+04  0.18018435228E+04  0.25500000920E-02 0. -1.
        2   -1    0    0  501    0  0.00000000000E+00  0.00000000000E+00 -0.19025226806E+04  0.19025226806E+04  0.25500000920E-02 0.  1.
    10030    2    1    2    0    0  0.00000000000E+00  0.00000000000E+00 -0.10067915779E+03  0.37043662034E+04  0.37029977958E+04 0.  0.
        4    1    3    3  502    0  0.15975033708E+04  0.23202364602E+03  0.85674495107E+03  0.18275298948E+04  0.12699999809E+01 0. -1.
       -4    1    3    3    0  502 -0.15975033708E+04 -0.23202364602E+03 -0.95742410886E+03  0.18768363086E+04  0.12699999809E+01 0.  1.
</event>
<event>
 5   0  0.1666189E-07  0.3698932E+04  0.7818609E-02  0.8068199E-01
       -2   -1    0    0    0  501  0.00000000000E+00  0.00000000000E+00  0.16923819049E+04  0.16923819049E+04  0.25500000920E-02 0. -1.
        2   -1    0    0  501    0  0.00000000000E+00  0.00000000000E+00 -0.20211304526E+04  0.20211304526E+04  0.25500000920E-02 0.  1.
    10030    2    1    2    0    0  0.00000000000E+00  0.00000000000E+00 -0.32874854773E+03  0.37135123576E+04  0.36989320651E+04 0.  0.
        4    1    3    3  502    0 -0.60922127873E+03  0.16453564353E+04 -0.75163697675E+03  0.19087451698E+04  0.12699999809E+01 0.  1.
       -4    1    3    3    0  502  0.60922127873E+03 -0.16453564353E+04  0.42288842902E+03  0.18047671877E+04  0.12699999809E+01 0. -1.
</event>
<event>
 5   0  0.1686284E-07  0.3675839E+04  0.7818609E-02  0.8073337E-01
       -2   -1    0    0    0  501  0.00000000000E+00  0.00000000000E+00  0.11555460541E+04  0.11555460541E+04  0.25500000920E-02 0.  1.
        2   -1    0    0  501    0  0.00000000000E+00  0.00000000000E+00 -0.29232483759E+04  0.29232483759E+04  0.25500000920E-02 0. -1.
    10030    2    1    2    0    0  0.00000000000E+00  0.00000000000E+00 -0.17677023218E+04  0.40787944299E+04  0.36758390203E+04 0.  0.
        5    1    3    3  502    0  0.10905767685E+04  0.18230855560E+03  0.74519134437E+03  0.13333890382E+04  0.46999998093E+01 0.  1.
       -5    1    3    3    0  502 -0.10905767685E+04 -0.18230855560E+03 -0.25128936662E+04  0.27454053917E+04  0.46999998093E+01 0. -1.
</event>
<event>
 5   0  0.5177000E-08  0.3602938E+04  0.7818609E-02  0.8089819E-01
       -1   -1    0    0    0  501  0.00000000000E+00  0.00000000000E+00  0.16031676762E+04  0.16031676762E+04  0.50400001928E-02 0. -1.
        1   -1    0    0  501    0  0.00000000000E+00  0.00000000000E+00 -0.20242992227E+04  0.20242992227E+04  0.50400001928E-02 0.  1.
    10030    2    1    2    0    0  0.00000000000E+00  0.00000000000E+00 -0.42113154649E+03  0.36274668989E+04  0.36029382902E+04 0.  0.
        4    1    3    3  502    0  0.16587758092E+04  0.59460288182E+03 -0.58754738758E+03  0.18574992107E+04  0.12699999809E+01 0.  1.
       -4    1    3    3    0  502 -0.16587758092E+04 -0.59460288182E+03  0.16641584110E+03  0.17699676882E+04  0.12699999809E+01 0. -1.
</event>
<event>
 5   0  0.1686284E-07  0.3697694E+04  0.7818609E-02  0.8068473E-01
        2   -1    0    0  501    0  0.00000000000E+00  0.00000000000E+00  0.27040240738E+04  0.27040240738E+04  0.25500000920E-02 0. -1.
       -2   -1    0    0    0  501  0.00000000000E+00  0.00000000000E+00 -0.12641291328E+04  0.12641291328E+04  0.25500000920E-02 0.  1.
    10030    2    1    2    0    0  0.00000000000E+00  0.00000000000E+00  0.14398949410E+04  0.39681532067E+04  0.36976942046E+04 0.  0.
        5    1    3    3  502    0 -0.17378359558E+04 -0.61763648317E+03  0.85848217148E+03  0.20343456844E+04  0.46999998093E+01 0.  1.
       -5    1    3    3    0  502  0.17378359558E+04  0.61763648317E+03  0.58141276952E+03  0.19338075223E+04  0.46999998093E+01 0. -1.
</event>
<event>
 5   0  0.1587026E-07  0.3687169E+04  0.7818609E-02  0.8070811E-01
        2   -1    0    0  501    0  0.00000000000E+00  0.00000000000E+00  0.20571840974E+04  0.20571840974E+04  0.25500000920E-02 0. -1.
       -2   -1    0    0    0  501  0.00000000000E+00  0.00000000000E+00 -0.16521630454E+04  0.16521630454E+04  0.25500000920E-02 0.  1.
    10030    2    1    2    0    0  0.00000000000E+00  0.00000000000E+00  0.40502105200E+03  0.37093471427E+04  0.36871688560E+04 0.  0.
        3    1    3    3  502    0 -0.11513474679E+04 -0.12882235316E+04  0.84956093818E+03  0.19253245589E+04  0.10100000352E+00 0. -1.
       -3    1    3    3    0  502  0.11513474679E+04  0.12882235316E+04 -0.44453988619E+03  0.17840225839E+04  0.10100000352E+00 0.  1.
</event>
<event>
 5   0  0.1686284E-07  0.3752009E+04  0.7818609E-02  0.8056533E-01
       -2   -1    0    0    0  501  0.00000000000E+00  0.00000000000E+00  0.15972301079E+04  0.15972301079E+04  0.25500000920E-02 0.  1.
        2   -1    0    0  501    0  0.00000000000E+00  0.00000000000E+00 -0.22034352296E+04  0.22034352296E+04  0.25500000920E-02 0. -1.
    10030    2    1    2    0    0  0.00000000000E+00  0.00000000000E+00 -0.60620512168E+03  0.38006653375E+04  0.37520091096E+04 0.  0.
        5    1    3    3  502    0  0.15323056651E+04 -0.98258537552E+03  0.15658444568E+03  0.18270127121E+04  0.46999998093E+01 0.  1.
       -5    1    3    3    0  502 -0.15323056651E+04  0.98258537552E+03 -0.76278956736E+03  0.19736526254E+04  0.46999998093E+01 0. -1.
</event>
<event>
 5   0  0.5177000E-08  0.3674005E+04  0.7818609E-02  0.8073747E-01
       -1   -1    0    0    0  501  0.00000000000E+00  0.00000000000E+00  0.28723514054E+04  0.28723514054E+04  0.50400001928E-02 0. -1.
        1   -1    0    0  501    0  0.00000000000E+00  0.00000000000E+00 -0.11748484690E+04  0.11748484690E+04  0.50400001928E-02 0.  1.
    10030    2    1    2    0    0  0.00000000000E+00  0.00000000000E+00  0.16975029363E+04  0.40471998744E+04  0.36740047094E+04 0.  0.
        1    1    3    3  502    0  0.11002035353E+04  0.13189059334E+04  0.15665682676E+04  0.23246713354E+04  0.50400001928E-02 0.  1.
       -1    1    3    3    0  502 -0.11002035353E+04 -0.13189059334E+04  0.13093466871E+03  0.17225285390E+04  0.50400001928E-02 0. -1.
</event>
<event>
 5   0  0.5181371E-08  0.3690363E+04  0.7818609E-02  0.8070101E-01
        1   -1    0    0  501    0  0.00000000000E+00  0.00000000000E+00  0.19864025785E+04  0.19864025785E+04  0.50400001928E-02 0.  1.
       -1   -1    0    0    0  501  0.00000000000E+00  0.00000000000E+00 -0.17140002959E+04  0.17140002959E+04  0.50400001928E-02 0. -1.
    10030    2    1    2    0    0  0.00000000000E+00  0.00000000000E+00  0.27240228255E+03  0.37004028744E+04  0.36903629130E+04 0.  0.
        5    1    3    3  502    0  0.17112989355E+04 -0.55777247025E+03  0.54353080836E+03  0.18801866942E+04  0.46999998093E+01 0. -1.
       -5    1    3    3    0  502 -0.17112989355E+04  0.55777247025E+03 -0.27112852581E+03  0.18202161803E+04  0.46999998093E+01 0.  1.
</event>
<event>
 5   0  0.5181371E-08  0.3690646E+04  0.7818609E-02  0.8070038E-01
       -1   -1    0    0    0  501  0.00000000000E+00  0.00000000000E+00  0.34000531744E+04  0.34000531744E+04  0.50400001928E-02 0. -1.
        1   -1    0    0  501    0  0.00000000000E+00  0.00000000000E+00 -0.10015186591E+04  0.10015186591E+04  0.50400001928E-02 0.  1.
    10030    2    1    2    0    0  0.00000000000E+00  0.00000000000E+00  0.23985345153E+04  0.44015718335E+04  0.36906458492E+04 0.  0.
        5    1    3    3  502    0  0.84827479649E+03  0.99143488205E+03  0.27554912652E+04  0.30488141068E+04  0.46999998093E+01 0. -1.
       -5    1    3    3    0  502 -0.84827479649E+03 -0.99143488205E+03 -0.35695674983E+03  0.13527577266E+04  0.46999998093E+01 0.  1.
</event>
<event>
 5   0  0.1558258E-07  0.3766558E+04  0.7818609E-02  0.8053370E-01
       -2   -1    0    0    0  501  0.00000000000E+00  0.00000000000E+00  0.27547714358E+04  0.27547714358E+04  0.25500000920E-02 0.  1.
        2   -1    0    0  501    0  0.00000000000E+00  0.00000000000E+00 -0.12874893440E+04  0.12874893440E+04  0.25500000920E-02 0. -1.
    10030    2    1    2    0    0  0.00000000000E+00  0.00000000000E+00  0.14672820918E+04  0.40422607798E+04  0.37665575098E+04 0.  0.
        1    1    3    3  502    0 -0.99405652877E+03  0.26783884361E+03 -0.95876578011E+03  0.14068112346E+04  0.50400001928E-02 0. -1.
       -1    1    3    3    0  502  0.99405652877E+03 -0.26783884361E+03  0.24260478719E+04  0.26354495452E+04  0.50400001928E-02 0.  1.
</event>
<event>
 5   0  0.1558258E-07  0.3660415E+04  0.7818609E-02  0.8076791E-01
        2   -1    0    0  501    0  0.00000000000E+00  0.00000000000E+00  0.21910402371E+04  0.21910402371E+04  0.25500000920E-02 0. -1.
       -2   -1    0    0    0  501  0.00000000000E+00  0.00000000000E+00 -0.15287991141E+04  0.15287991141E+04  0.25500000920E-02 0.  1.
    10030    2    1    2    0    0  0.00000000000E+00  0.00000000000E+00  0.66224112299E+03  0.37198393512E+04  0.36604154810E+04 0.  0.
        1    1    3    3  502    0  0.17360442287E+04  0.26179147624E+03  0.85650089110E+03  0.19534528706E+04  0.50400001928E-02 0.  1.
       -1    1    3    3    0  502 -0.17360442287E+04 -0.26179147624E+03 -0.19425976812E+03  0.17663864806E+04  0.50400001928E-02 0. -1.
</event>
<event>
 5   0  0.5177000E-08  0.3693222E+04  0.7818609E-02  0.8069466E-01
       -1   -1    0    0    0  501  0.00000000000E+00  0.00000000000E+00  0.19105925022E+04  0.19105925022E+04  0.50400001928E-02 0. -1.
        1   -1    0    0  501    0  0.00000000000E+00  0.00000000000E+00 -0.17847723791E+04  0.17847723791E+04  0.50400001928E-02 0.  1.
    10030    2    1    2    0    0  0.00000000000E+00  0.00000000000E+00  0.12582012306E+03  0.36953648813E+04  0.36932222926E+04 0.  0.
        4    1    3    3  502    0 -0.18049114948E+04  0.21201333260E+03  0.39069125113E+03  0.18588427647E+04  0.12699999809E+01 0.  1.
       -4    1    3    3    0  502  0.18049114948E+04 -0.21201333260E+03 -0.26487112807E+03  0.18365221166E+04  0.12699999809E+01 0. -1.
</event>
<event>
 5   0  0.1658770E-07  0.3702722E+04  0.7818609E-02  0.8067359E-01
       -2   -1    0    0    0  501  0.00000000000E+00  0.00000000000E+00  0.11558148323E+04  0.11558148323E+04  0.25500000920E-02 0. -1.
        2   -1    0    0  501    0  0.00000000000E+00  0.00000000000E+00 -0.29654727287E+04  0.29654727287E+04  0.25500000920E-02 0.  1.
    10030    2    1    2    0    0  0.00000000000E+00  0.00000000000E+00 -0.18096578964E+04  0.41212875610E+04  0.37027218986E+04 0.  0.
        2    1    3    3  502    0 -0.15237426253E+04 -0.37416241354E+03  0.18898584318E+03  0.15803495654E+04  0.25500000920E-02 0. -1.
       -2    1    3    3    0  502  0.15237426253E+04  0.37416241354E+03 -0.19986437396E+04  0.25409379956E+04  0.25500000920E-02 0.  1.
</event>
<event>
 5   0  0.1686284E-07  0.3701889E+04  0.7818609E-02  0.8067543E-01
        2   -1    0    0  501    0  0.00000000000E+00  0.00000000000E+00  0.12365702771E+04  0.12365702771E+04  0.25500000920E-02 0.  1.
       -2   -1    0    0    0  501  0.00000000000E+00  0.00000000000E+00 -0.27705626690E+04  0.27705626690E+04  0.25500000920E-02 0. -1.
    10030    2    1    2    0    0  0.00000000000E+00  0.00000000000E+00 -0.15339923919E+04  0.40071329460E+04  0.37018889487E+04 0.  0.
        5    1    3    3  502    0 -0.35741974521E+03  0.15047042900E+04 -0.18677480497E+04  0.24249512865E+04  0.46999998093E+01 0. -1.
       -5    1    3    3    0  502  0.35741974521E+03 -0.15047042900E+04  0.33375565781E+03  0.15821816595E+04  0.46999998093E+01 0.  1.
</event>
<event>
 5   0  0.1686284E-07  0.3722355E+04  0.7818609E-02  0.8063026E-01
       -2   -1    0    0    0  501  0.00000000000E+00  0.00000000000E+00  0.20863069784E+04  0.20863069784E+04  0.25500000920E-02 0. -1.
        2   -1    0    0  501    0  0.00000000000E+00  0.00000000000E+00 -0.16603410297E+04  0.16603410297E+04  0.25500000920E-02 0.  1.
    10030    2    1    2    0    0  0.00000000000E+00  0.00000000000E+00  0.42596594870E+03  0.37466480082E+04  0.37223546725E+04 0.  0.
        5    1    3    3  502    0  0.99035114191E+02  0.23682940818E+03  0.20683970509E+04  0.20842707532E+04  0.46999998093E+01 0. -1.
       -5    1    3    3    0  502 -0.99035114191E+02 -0.23682940818E+03 -0.16424311022E+04  0.16623772550E+04  0.46999998093E+01 0.  1.
</event>
<event>
 5   0  0.5177000E-08  0.3698467E+04  0.7818609E-02  0.8068302E-01
       -1   -1    0    0    0  501  0.00000000000E+00  0.00000000000E+00  0.15032773670E+04  0.15032773670E+04  0.50400001928E-02 0.  1.
        1   -1    0    0  501    0  0.00000000000E+00  0.00000000000E+00 -0.22748065755E+04  0.22748065755E+04  0.50400001928E-02 0. -1.
    10030    2    1    2    0    0  0.00000000000E+00  0.00000000000E+00 -0.77152920856E+03  0.37780839425E+04  0.36984673795E+04 0.  0.
        1    1    3    3  502    0 -0.28937409779E+02 -0.50956925924E+03 -0.22014312057E+04  0.22598224614E+04  0.50400001928E-02 0. -1.
       -1    1    3    3    0  502  0.28937409779E+02  0.50956925924E+03  0.14299019971E+04  0.15182614811E+04  0.50400001928E-02 0.  1.
</event>
<event>
 5   0  0.5177000E-08  0.3691692E+04  0.7818609E-02  0.8069806E-01
       -1   -1    0    0    0  501  0.00000000000E+00  0.00000000000E+00  0.12767525920E+04  0.12767525921E+04  0.50400001928E-02 0. -1.
        1   -1    0    0  501    0  0.00000000000E+00  0.00000000000E+00 -0.26686038991E+04  0.26686038991E+04  0.50400001928E-02 0.  1.
    10030    2    1    2    0    0  0.00000000000E+00  0.00000000000E+00 -0.13918513071E+04  0.39453564912E+04  0.36916917235E+04 0.  0.
        4    1    3    3  502    0 -0.12875522770E+03  0.14481094462E+04  0.51956560027E+03  0.15438746396E+04  0.12699999809E+01 0. -1.
       -4    1    3    3    0  502  0.12875522770E+03 -0.14481094462E+04 -0.19114169073E+04  0.24014818516E+04  0.12699999809E+01 0.  1.
</event>
<event>
 5   0  0.1587026E-07  0.3711005E+04  0.7818609E-02  0.8065527E-01
        2   -1    0    0  501    0  0.00000000000E+00  0.00000000000E+00  0.28494010195E+04  0.28494010195E+04  0.25500000920E-02 0. -1.
       -2   -1    0    0    0  501  0.00000000000E+00  0.00000000000E+00 -0.12082855529E+04  0.12082855529E+04  0.25500000920E-02 0.  1.
    10030    2    1    2    0    0  0.00000000000E+00  0.00000000000E+00  0.16411154666E+04  0.40576865724E+04  0.37110053012E+04 0.  0.
        3    1    3    3  502    0 -0.96322174603E+03 -0.12901305318E+04  0.18290305649E+04  0.24367161793E+04  0.10100000352E+00 0. -1.
       -3    1    3    3    0  502  0.96322174603E+03  0.12901305318E+04 -0.18791509828E+03  0.16209703931E+04  0.10100000352E+00 0.  1.
</event>
<event>
 5   0  0.1558258E-07  0.3686202E+04  0.7818609E-02  0.8071027E-01
        2   -1    0    0  501    0  0.00000000000E+00  0.00000000000E+00  0.22164839947E+04  0.22164839947E+04  0.25500000920E-02 0.  1.
       -2   -1    0    0    0  501  0.00000000000E+00  0.00000000000E+00 -0.15326171571E+04  0.15326171571E+04  0.25500000920E-02 0. -1.
    10030    2    1    2    0    0  0.00000000000E+00  0.00000000000E+00  0.68386683760E+03  0.37491011519E+04  0.36862020557E+04 0.  0.
        1    1    3    3  502    0 -0.74576459350E+03  0.68606902374E+03 -0.12238705536E+04  0.15889350730E+04  0.50400001928E-02 0. -1.
       -1    1    3    3    0  502  0.74576459350E+03 -0.68606902374E+03  0.19077373912E+04  0.21601660788E+04  0.50400001928E-02 0.  1.
</event>
<event>
 5   0  0.1686284E-07  0.3701517E+04  0.7818609E-02  0.8067626E-01
       -2   -1    0    0    0  501  0.00000000000E+00  0.00000000000E+00  0.13752940554E+04  0.13752940554E+04  0.25500000920E-02 0. -1.
        2   -1    0    0  501    0  0.00000000000E+00  0.00000000000E+00 -0.24905995545E+04  0.24905995545E+04  0.25500000920E-02 0.  1.
    10030    2    1    2    0    0  0.00000000000E+00  0.00000000000E+00 -0.11153054991E+04  0.38658936098E+04  0.37015168575E+04 0.  0.
        5    1    3    3  502    0  0.60162786809E+03 -0.17478155837E+04 -0.65376816290E+03  0.19606759821E+04  0.46999998093E+01 0.  1.
       -5    1    3    3    0  502 -0.60162786809E+03  0.17478155837E+04 -0.46153733618E+03  0.19052176277E+04  0.46999998093E+01 0. -1.
</event>
<event>
 5   0  0.5177000E-08  0.3734042E+04  0.7818609E-02  0.8060459E-01
        4   -1    0    0  501    0  0.00000000000E+00  0.00000000000E+00  0.18264726353E+04  0.18264730768E+04  0.12699999809E+01 0. -1.
       -4   -1    0    0    0  501  0.00000000000E+00  0.00000000000E+00 -0.19084686215E+04  0.19084690440E+04  0.12699999809E+01 0.  1.
    10030    2    1    2    0    0  0.00000000000E+00  0.00000000000E+00 -0.81995986202E+02  0.37349421208E+04  0.37340419527E+04 0.  0.
        3    1    3    3  502    0 -0.73753151137E+03 -0.13933331996E+04 -0.10414576829E+04  0.18894349025E+04  0.10100000352E+00 0.  1.
       -3    1    3    3    0  502  0.73753151137E+03  0.13933331996E+04  0.95946169666E+03  0.18455072183E+04  0.10100000352E+00 0. -1.
</event>
<event>
 5   0  0.1587026E-07  0.3706454E+04  0.7818609E-02  0.8066533E-01
       -2   -1    0    0    0  501  0.00000000000E+00  0.00000000000E+00  0.12446585939E+04  0.12446585939E+04  0.25500000920E-02 0. -1.
        2   -1    0    0  501    0  0.00000000000E+00  0.00000000000E+00 -0.27593518606E+04  0.27593518606E+04  0.25500000920E-02 0.  1.
    10030    2    1    2    0    0  0.00000000000E+00  0.00000000000E+00 -0.15146932666E+04  0.40040104545E+04  0.37064543742E+04 0.  0.
        3    1    3    3  502    0 -0.17405035064E+04 -0.72152435752E+02 -0.14404842659E+04  0.22604321180E+04  0.10100000352E+00 0.  1.
       -3    1    3    3    0  502  0.17405035064E+04  0.72152435752E+02 -0.74209000767E+02  0.17435783365E+04  0.10100000352E+00 0. -1.
</event>
<event>
 5   0  0.1666189E-07  0.3708998E+04  0.7818609E-02  0.8065971E-01
        2   -1    0    0  501    0  0.00000000000E+00  0.00000000000E+00  0.22596509776E+04  0.22596509776E+04  0.25500000920E-02 0.  1.
       -2   -1    0    0    0  501  0.00000000000E+00  0.00000000000E+00 -0.15219900309E+04  0.15219900309E+04  0.25500000920E-02 0. -1.
    10030    2    1    2    0    0  0.00000000000E+00  0.00000000000E+00  0.73766094679E+03  0.37816410085E+04  0.37089978491E+04 0.  0.
        4    1    3    3  502    0 -0.24430473628E+03 -0.81147373273E+03  0.20506802745E+04  0.22188883758E+04  0.12699999809E+01 0.  1.
       -4    1    3    3    0  502  0.24430473628E+03  0.81147373273E+03 -0.13130193277E+04  0.15627526327E+04  0.12699999809E+01 0. -1.
</event>
<event>
 5   0  0.5177000E-08  0.3715211E+04  0.7818609E-02  0.8064599E-01
       -3   -1    0    0    0  501  0.00000000000E+00  0.00000000000E+00  0.19823990197E+04  0.19823990223E+04  0.10100000352E+00 0. -1.
        3   -1    0    0  501    0  0.00000000000E+00  0.00000000000E+00 -0.17406680344E+04  0.17406680374E+04  0.10100000352E+00 0.  1.
    10030    2    1    2    0    0  0.00000000000E+00  0.00000000000E+00  0.24173098524E+03  0.37230670596E+04  0.37152112270E+04 0.  0.
        3    1    3    3  502    0 -0.96357501330E+02 -0.10266752024E+04  0.16692384047E+04  0.19620661562E+04  0.10100000352E+00 0. -1.
       -3    1    3    3    0  502  0.96357501330E+02  0.10266752024E+04 -0.14275074195E+04  0.17610009035E+04  0.10100000352E+00 0.  1.
</event>
<event>
 5   0  0.1587026E-07  0.3712670E+04  0.7818609E-02  0.8065160E-01
       -2   -1    0    0    0  501  0.00000000000E+00  0.00000000000E+00  0.20928035757E+04  0.20928035757E+04  0.25500000920E-02 0.  1.
        2   -1    0    0  501    0  0.00000000000E+00  0.00000000000E+00 -0.16465853892E+04  0.16465853892E+04  0.25500000920E-02 0. -1.
    10030    2    1    2    0    0  0.00000000000E+00  0.00000000000E+00  0.44621818659E+03  0.37393889649E+04  0.37126700851E+04 0.  0.
        3    1    3    3  502    0  0.34070875550E+02 -0.11807276285E+04  0.16654418889E+04  0.20418068598E+04  0.10100000352E+00 0.  1.
       -3    1    3    3    0  502 -0.34070875550E+02  0.11807276285E+04 -0.12192237023E+04  0.16975821051E+04  0.10100000352E+00 0. -1.
</event>
<event>
 5   0  0.1666189E-07  0.3695574E+04  0.7818609E-02  0.8068943E-01
        2   -1    0    0  501    0  0.00000000000E+00  0.00000000000E+00  0.16916854889E+04  0.16916854889E+04  0.25500000920E-02 0. -1.
       -2   -1    0    0    0  501  0.00000000000E+00  0.00000000000E+00 -0.20182926531E+04  0.20182926531E+04  0.25500000920E-02 0.  1.
    10030    2    1    2    0    0  0.00000000000E+00  0.00000000000E+00 -0.32660716424E+03  0.37099781420E+04  0.36955737815E+04 0.  0.
        4    1    3    3  502    0 -0.24408722461E+03 -0.15386333967E+04  0.83422099450E+03  0.17671721996E+04  0.12699999809E+01 0. -1.
       -4    1    3    3    0  502  0.24408722461E+03  0.15386333967E+04 -0.11608281587E+04  0.19428059424E+04  0.12699999809E+01 0.  1.
</event>
<event>
 5   0  0.1558258E-07  0.3704935E+04  0.7818609E-02  0.8066869E-01
        2   -1    0    0  501    0  0.00000000000E+00  0.00000000000E+00  0.15223028218E+04  0.15223028218E+04  0.25500000920E-02 0. -1.
       -2   -1    0    0    0  501  0.00000000000E+00  0.00000000000E+00 -0.22542395966E+04  0.22542395966E+04  0.25500000920E-02 0.  1.
    10030    2    1    2    0    0  0.00000000000E+00  0.00000000000E+00 -0.73193677478E+03  0.37765424184E+04  0.37049347087E+04 0.  0.
        1    1    3    3  502    0  0.73387717078E+03  0.92844222773E+03 -0.18186639513E+04  0.21698200939E+04  0.50400001928E-02 0.  1.
       -1    1    3    3    0  502 -0.73387717078E+03 -0.92844222773E+03  0.10867271765E+04  0.16067223246E+04  0.50400001928E-02 0. -1.
</event>
<event>
 5   0  0.5177000E-08  0.3697969E+04  0.7818609E-02  0.8068412E-01
       -1   -1    0    0    0  501  0.00000000000E+00  0.00000000000E+00  0.18985466215E+04  0.18985466215E+04  0.50400001928E-02 0. -1.
        1   -1    0    0  501    0  0.00000000000E+00  0.00000000000E+00 -0.18007162026E+04  0.18007162026E+04  0.50400001928E-02 0.  1.
    10030    2    1    2    0    0  0.00000000000E+00  0.00000000000E+00  0.97830418869E+02  0.36992628240E+04  0.36979689899E+04 0.  0.
        4    1    3    3  502    0 -0.28326647874E+03 -0.13083948183E+04 -0.12269153332E+04  0.18158908961E+04  0.12699999809E+01 0.  1.
       -4    1    3    3    0  502  0.28326647874E+03  0.13083948183E+04  0.13247457521E+04  0.18833719280E+04  0.12699999809E+01 0. -1.
</event>
<event>
 5   0  0.1587026E-07  0.3671523E+04  0.7818609E-02  0.8074302E-01
       -2   -1    0    0    0  501  0.00000000000E+00  0.00000000000E+00  0.29409993383E+04  0.29409993383E+04  0.25500000920E-02 0. -1.
        2   -1    0    0  501    0  0.00000000000E+00  0.00000000000E+00 -0.11458760494E+04  0.11458760494E+04  0.25500000920E-02 0.  1.
    10030    2    1    2    0    0  0.00000000000E+00  0.00000000000E+00  0.17951232889E+04  0.40868753877E+04  0.36715232278E+04 0.  0.
        3    1    3    3  502    0 -0.63731774944E+03 -0.70247851388E+03  0.26471109295E+04  0.28119114956E+04  0.10100000352E+00 0. -1.
       -3    1    3    3    0  502  0.63731774944E+03  0.70247851388E+03 -0.85198764052E+03  0.12749638920E+04  0.10100000352E+00 0.  1.
</event>
<event>
 5   0  0.1686284E-07  0.3681548E+04  0.7818609E-02  0.8072063E-01
       -2   -1    0    0    0  501  0.00000000000E+00  0.00000000000E+00  0.14478573125E+04  0.14478573125E+04  0.25500000920E-02 0. -1.
        2   -1    0    0  501    0  0.00000000000E+00  0.00000000000E+00 -0.23403194397E+04  0.23403194397E+04  0.25500000920E-02 0.  1.
    10030    2    1    2    0    0  0.00000000000E+00  0.00000000000E+00 -0.89246212724E+03  0.37881767523E+04  0.36815478345E+04 0.  0.
        5    1    3    3  502    0  0.28355464323E+03 -0.15702113848E+04 -0.13906709098E+04  0.21165903472E+04  0.46999998093E+01 0.  1.
       -5    1    3    3    0  502 -0.28355464323E+03  0.15702113848E+04  0.49820878252E+03  0.16715864051E+04  0.46999998093E+01 0. -1.
</event>
<event>
 5   0  0.5177000E-08  0.3702924E+04  0.7818609E-02  0.8067314E-01
       -1   -1    0    0    0  501  0.00000000000E+00  0.00000000000E+00  0.21726236290E+04  0.21726236290E+04  0.50400001928E-02 0.  1.
        1   -1    0    0  501    0  0.00000000000E+00  0.00000000000E+00 -0.15777748359E+04  0.15777748359E+04  0.50400001928E-02 0. -1.
    10030    2    1    2    0    0  0.00000000000E+00  0.00000000000E+00  0.59484879316E+03  0.37503984649E+04  0.37029236502E+04 0.  0.
        3    1    3    3  502    0 -0.11113308748E+03  0.18442720334E+04  0.41820507613E+03  0.18943561946E+04  0.10100000352E+00 0. -1.
       -3    1    3    3    0  502  0.11113308748E+03 -0.18442720334E+04  0.17664371703E+03  0.18560422703E+04  0.10100000352E+00 0.  1.
</event>
<event>
 5   0  0.5177000E-08  0.3703558E+04  0.7818609E-02  0.8067174E-01
        1   -1    0    0  501    0  0.00000000000E+00  0.00000000000E+00  0.11138258368E+04  0.11138258368E+04  0.50400001928E-02 0.  1.
       -1   -1    0    0    0  501  0.00000000000E+00  0.00000000000E+00 -0.30786556461E+04  0.30786556461E+04  0.50400001928E-02 0. -1.
    10030    2    1    2    0    0  0.00000000000E+00  0.00000000000E+00 -0.19648298093E+04  0.41924814828E+04  0.37035583976E+04 0.  0.
        4    1    3    3  502    0  0.74770113247E+03  0.65121569803E+03 -0.27528310585E+04  0.29259561375E+04  0.12699999809E+01 0. -1.
       -4    1    3    3    0  502 -0.74770113247E+03 -0.65121569803E+03  0.78800124919E+03  0.12665253454E+04  0.12699999809E+01 0.  1.
</event>
<event>
 5   0  0.1666189E-07  0.3695703E+04  0.7818609E-02  0.8068915E-01
        2   -1    0    0  501    0  0.00000000000E+00  0.00000000000E+00  0.19796932271E+04  0.19796932271E+04  0.25500000920E-02 0.  1.
       -2   -1    0    0    0  501  0.00000000000E+00  0.00000000000E+00 -0.17247896163E+04  0.17247896163E+04  0.25500000920E-02 0. -1.
    10030    2    1    2    0    0  0.00000000000E+00  0.00000000000E+00  0.25490361084E+03  0.37044828434E+04  0.36957025430E+04 0.  0.
        4    1    3    3  502    0  0.12693422089E+04  0.12990350318E+04  0.46860000080E+03  0.18757156583E+04  0.12699999809E+01 0.  1.
       -4    1    3    3    0  502 -0.12693422089E+04 -0.12990350318E+04 -0.21369638996E+03  0.18287671851E+04  0.12699999809E+01 0. -1.
</event>
<event>
 5   0  0.5177000E-08  0.3712260E+04  0.7818609E-02  0.8065250E-01
        1   -1    0    0  501    0  0.00000000000E+00  0.00000000000E+00  0.22740911949E+04  0.22740911949E+04  0.50400001928E-02 0.  1.
       -1   -1    0    0    0  501  0.00000000000E+00  0.00000000000E+00 -0.15149867868E+04  0.15149867868E+04  0.50400001928E-02 0. -1.
    10030    2    1    2    0    0  0.00000000000E+00  0.00000000000E+00  0.75910440805E+03  0.37890779817E+04  0.37122597497E+04 0.  0.
        3    1    3    3  502    0 -0.67632627896E+03 -0.88538338519E+03 -0.11357206618E+04  0.15909690149E+04  0.10100000352E+00 0. -1.
       -3    1    3    3    0  502  0.67632627896E+03  0.88538338519E+03  0.18948250699E+04  0.21981089668E+04  0.10100000352E+00 0.  1.
</event>
<event>
 5   0  0.1686284E-07  0.3687635E+04  0.7818609E-02  0.8070708E-01
       -2   -1    0    0    0  501  0.00000000000E+00  0.00000000000E+00  0.21153050079E+04  0.21153050079E+04  0.25500000920E-02 0.  1.
        2   -1    0    0  501    0  0.00000000000E+00  0.00000000000E+00 -0.16071741810E+04  0.16071741810E+04  0.25500000920E-02 0. -1.
    10030    2    1    2    0    0  0.00000000000E+00  0.00000000000E+00  0.50813082691E+03  0.37224791888E+04  0.36876353364E+04 0.  0.
        5    1    3    3  502    0 -0.65730051974E+03  0.29963441100E+03  0.19665074433E+04  0.20949936439E+04  0.46999998093E+01 0.  1.
       -5    1    3    3    0  502  0.65730051974E+03 -0.29963441100E+03 -0.14583766164E+04  0.16274855449E+04  0.46999998093E+01 0. -1.
</event>
<event>
 5   0  0.1658770E-07  0.3678720E+04  0.7818609E-02  0.8072694E-01
       -2   -1    0    0    0  501  0.00000000000E+00  0.00000000000E+00  0.25453204850E+04  0.25453204850E+04  0.25500000920E-02 0. -1.
        2   -1    0    0  501    0  0.00000000000E+00  0.00000000000E+00 -0.13292018591E+04  0.13292018591E+04  0.25500000920E-02 0.  1.
    10030    2    1    2    0    0  0.00000000000E+00  0.00000000000E+00  0.12161186259E+04  0.38745223441E+04  0.36787197342E+04 0.  0.
        2    1    3    3  502    0 -0.92010439582E+03  0.12840736291E+04 -0.38432726408E+03  0.16257750860E+04  0.25500000920E-02 0.  1.
       -2    1    3    3    0  502  0.92010439582E+03 -0.12840736291E+04  0.16004458900E+04  0.22487472582E+04  0.25500000920E-02 0. -1.
</event>
<event>
 5   0  0.1686284E-07  0.3740019E+04  0.7818609E-02  0.8059150E-01
       -2   -1    0    0    0  501  0.00000000000E+00  0.00000000000E+00  0.25204154311E+04  0.25204154311E+04  0.25500000920E-02 0.  1.
        2   -1    0    0  501    0  0.00000000000E+00  0.00000000000E+00 -0.13874444645E+04  0.13874444645E+04  0.25500000920E-02 0. -1.
    10030    2    1    2    0    0  0.00000000000E+00  0.00000000000E+00  0.11329709666E+04  0.39078598956E+04  0.37400194856E+04 0.  0.
        5    1    3    3  502    0  0.16882779800E+03  0.15351624120E+04 -0.53519728814E+03  0.16345288874E+04  0.46999998093E+01 0. -1.
       -5    1    3    3    0  502 -0.16882779800E+03 -0.15351624120E+04  0.16681682547E+04  0.22733310082E+04  0.46999998093E+01 0.  1.
</event>
<event>
 5   0  0.5181371E-08  0.3700722E+04  0.7818609E-02  0.8067802E-01
       -1   -1    0    0    0  501  0.00000000000E+00  0.00000000000E+00  0.16714897463E+04  0.16714897463E+04  0.50400001928E-02 0. -1.
        1   -1    0    0  501    0  0.00000000000E+00  0.00000000000E+00 -0.20483735380E+04  0.20483735380E+04  0.50400001928E-02 0.  1.
    10030    2    1    2    0    0  0.00000000000E+00  0.00000000000E+00 -0.37688379175E+03  0.37198632843E+04  0.37007217488E+04 0.  0.
        5    1    3    3  502    0  0.19772922024E+03 -0.65654730267E+03  0.15390696122E+04  0.16849061002E+04  0.46999998093E+01 0. -1.
       -5    1    3    3    0  502 -0.19772922024E+03  0.65654730267E+03 -0.19159534040E+04  0.20349571842E+04  0.46999998093E+01 0.  1.
</event>
<event>
 5   0  0.5177000E-08  0.3693513E+04  0.7818609E-02  0.8069401E-01
        1   -1    0    0  501    0  0.00000000000E+00  0.00000000000E+00  0.12021254463E+04  0.12021254463E+04  0.50400001928E-02 0.  1.
       -1   -1    0    0    0  501  0.00000000000E+00  0.00000000000E+00 -0.28370668059E+04  0.28370668059E+04  0.50400001928E-02 0. -1.
    10030    2    1    2    0    0  0.00000000000E+00  0.00000000000E+00 -0.16349413596E+04  0.40391922523E+04  0.36935133412E+04 0.  0.
        4    1    3    3  502    0  0.15694771407E+03  0.11283069442E+04  0.77211517455E+03  0.13761804391E+04  0.12699999809E+01 0.  1.
       -4    1    3    3    0  502 -0.15694771407E+03 -0.11283069442E+04 -0.24070565341E+04  0.26630118131E+04  0.12699999809E+01 0. -1.
</event>
<event>
 5   0  0.1587026E-07  0.3698556E+04  0.7818609E-02  0.8068282E-01
       -2   -1    0    0    0  501  0.00000000000E+00  0.00000000000E+00  0.21286373032E+04  0.21286373032E+04  0.25500000920E-02 0.  1.
        2   -1    0    0  501    0  0.00000000000E+00  0.00000000000E+00 -0.16065817432E+04  0.16065817432E+04  0.25500000920E-02 0. -1.
    10030    2    1    2    0    0  0.00000000000E+00  0.00000000000E+00  0.52205555999E+03  0.37352190464E+04  0.36985563828E+04 0.  0.
        3    1    3    3  502    0  0.44718168402E+03 -0.69369280463E+03  0.19323184603E+04  0.21011986598E+04  0.10100000352E+00 0.  1.
       -3    1    3    3    0  502 -0.44718168402E+03  0.69369280463E+03 -0.14102629003E+04  0.16340203866E+04  0.10100000352E+00 0. -1.
</event>
<event>
 5   0  0.5177000E-08  0.3721943E+04  0.7818609E-02  0.8063116E-01
        1   -1    0    0  501    0  0.00000000000E+00  0.00000000000E+00  0.12027864421E+04  0.12027864421E+04  0.50400001928E-02 0. -1.
       -1   -1    0    0    0  501  0.00000000000E+00  0.00000000000E+00 -0.28793261546E+04  0.28793261546E+04  0.50400001928E-02 0.  1.
    10030    2    1    2    0    0  0.00000000000E+00  0.00000000000E+00 -0.16765397125E+04  0.40821125967E+04  0.37219427514E+04 0.  0.
        2    1    3    3  502    0  0.14065517418E+04  0.10296605794E+04 -0.15529610886E+04  0.23345828008E+04  0.25500000920E-02 0.  1.
       -2    1    3    3    0  502 -0.14065517418E+04 -0.10296605794E+04 -0.12357862394E+03  0.17475297959E+04  0.25500000920E-02 0. -1.
</event>
<event>
 5   0  0.1666189E-07  0.3699925E+04  0.7818609E-02  0.8067979E-01
        2   -1    0    0  501    0  0.00000000000E+00  0.00000000000E+00  0.18409015087E+04  0.18409015087E+04  0.25500000920E-02 0.  1.
       -2   -1    0    0    0  501  0.00000000000E+00  0.00000000000E+00 -0.18590678479E+04  0.18590678479E+04  0.25500000920E-02 0. -1.
    10030    2    1    2    0    0  0.00000000000E+00  0.00000000000E+00 -0.18166339285E+02  0.36999693566E+04  0.36999247592E+04 0.  0.
        4    1    3    3  502    0 -0.21381405481E+03  0.20836047367E+03  0.18166520278E+04  0.18410205703E+04  0.12699999809E+01 0.  1.
       -4    1    3    3    0  502  0.21381405481E+03 -0.20836047367E+03 -0.18348183671E+04  0.18589487863E+04  0.12699999809E+01 0. -1.
</event>
<event>
 5   0  0.5177000E-08  0.3709033E+04  0.7818609E-02  0.8065963E-01
        1   -1    0    0  501    0  0.00000000000E+00  0.00000000000E+00  0.13737581118E+04  0.13737581118E+04  0.50400001928E-02 0. -1.
       -1   -1    0    0    0  501  0.00000000000E+00  0.00000000000E+00 -0.25035197518E+04  0.25035197519E+04  0.50400001928E-02 0.  1.
    10030    2    1    2    0    0  0.00000000000E+00  0.00000000000E+00 -0.11297616400E+04  0.38772778637E+04  0.37090325246E+04 0.  0.
        4    1    3    3  502    0 -0.77300480499E+03  0.33521946665E+03  0.11621239910E+04  0.14354240846E+04  0.12699999809E+01 0. -1.
       -4    1    3    3    0  502  0.77300480499E+03 -0.33521946665E+03 -0.22918856311E+04  0.24418537790E+04  0.12699999809E+01 0.  1.
</event>
<event>
 5   0  0.5177000E-08  0.3703087E+04  0.7818609E-02  0.8067278E-01
        1   -1    0    0  501    0  0.00000000000E+00  0.00000000000E+00  0.10518868744E+04  0.10518868744E+04  0.50400001928E-02 0. -1.
       -1   -1    0    0    0  501  0.00000000000E+00  0.00000000000E+00 -0.32591085778E+04  0.32591085778E+04  0.50400001928E-02 0.  1.
    10030    2    1    2    0    0  0.00000000000E+00  0.00000000000E+00 -0.22072217034E+04  0.43109954522E+04  0.37030871096E+04 0.  0.
        1    1    3    3  502    0 -0.13220446484E+04 -0.93389464463E+03 -0.56995490986E+02  0.16196325959E+04  0.50400001928E-02 0. -1.
       -1    1    3    3    0  502  0.13220446484E+04  0.93389464463E+03 -0.21502262124E+04  0.26913628563E+04  0.50400001928E-02 0.  1.
</event>
<event>
 5   0  0.5181371E-08  0.3687176E+04  0.7818609E-02  0.8070810E-01
        1   -1    0    0  501    0  0.00000000000E+00  0.00000000000E+00  0.19055338755E+04  0.19055338755E+04  0.50400001928E-02 0.  1.
       -1   -1    0    0    0  501  0.00000000000E+00  0.00000000000E+00 -0.17836559621E+04  0.17836559621E+04  0.50400001928E-02 0. -1.
    10030    2    1    2    0    0  0.00000000000E+00  0.00000000000E+00  0.12187791341E+03  0.36891898375E+04  0.36871760782E+04 0.  0.
        5    1    3    3  502    0 -0.42376741695E+03 -0.16019742278E+04 -0.74752122906E+03  0.18178862253E+04  0.46999998093E+01 0. -1.
       -5    1    3    3    0  502  0.42376741695E+03  0.16019742278E+04  0.86939914246E+03  0.18713036122E+04  0.46999998093E+01 0.  1.
</event>
<event>
 5   0  0.5177000E-08  0.3699193E+04  0.7818609E-02  0.8068141E-01
       -1   -1    0    0    0  501  0.00000000000E+00  0.00000000000E+00  0.20340382544E+04  0.20340382544E+04  0.50400001928E-02 0.  1.
        1   -1    0    0  501    0  0.00000000000E+00  0.00000000000E+00 -0.16818794729E+04  0.16818794729E+04  0.50400001928E-02 0. -1.
    10030    2    1    2    0    0  0.00000000000E+00  0.00000000000E+00  0.35215878145E+03  0.37159177273E+04  0.36991929862E+04 0.  0.
        3    1    3    3  502    0  0.11449414554E+04  0.12523931290E+04  0.91536036720E+03  0.19280207722E+04  0.10100000352E+00 0.  1.
       -3    1    3    3    0  502 -0.11449414554E+04 -0.12523931290E+04 -0.56320158575E+03  0.17878969552E+04  0.10100000352E+00 0. -1.
</event>
<event>
 5   0  0.1658770E-07  0.3681457E+04  0.7818609E-02  0.8072084E-01
       -2   -1    0    0    0  501  0.00000000000E+00  0.00000000000E+00  0.12967961155E+04  0.12967961155E+04  0.25500000920E-02 0. -1.
        2   -1    0    0  501    0  0.00000000000E+00  0.00000000000E+00 -0.26128097148E+04  0.26128097148E+04  0.25500000920E-02 0.  1.
    10030    2    1    2    0    0  0.00000000000E+00  0.00000000000E+00 -0.13160135993E+04  0.39096058302E+04  0.36814570423E+04 0.  0.
        2    1    3    3  502    0  0.74554617936E+02 -0.10798188039E+04  0.92312514265E+03  0.14225776145E+04  0.25500000920E-02 0. -1.
       -2    1    3    3    0  502 -0.74554617936E+02  0.10798188039E+04 -0.22391387420E+04  0.24870282158E+04  0.25500000920E-02 0.  1.
</event>
<event>
 5   0  0.5177000E-08  0.3679299E+04  0.7818609E-02  0.8072565E-01
        1   -1    0    0  501    0  0.00000000000E+00  0.00000000000E+00  0.18851755519E+04  0.18851755519E+04  0.50400001928E-02 0.  1.
       -1   -1    0    0    0  501  0.00000000000E+00  0.00000000000E+00 -0.17952227675E+04  0.17952227675E+04  0.50400001928E-02 0. -1.
    10030    2    1    2    0    0  0.00000000000E+00  0.00000000000E+00  0.89952784396E+02  0.36803983194E+04  0.36792988851E+04 0.  0.
        4    1    3    3  502    0  0.16531748308E+04  0.29155205261E+02  0.85173547163E+03  0.18599171954E+04  0.12699999809E+01 0.  1.
       -4    1    3    3    0  502 -0.16531748308E+04 -0.29155205261E+02 -0.76178268724E+03  0.18204811240E+04  0.12699999809E+01 0. -1.
</event>
<event>
 5   0  0.1587026E-07  0.3687076E+04  0.7818609E-02  0.8070832E-01
        2   -1    0    0  501    0  0.00000000000E+00  0.00000000000E+00  0.29080381038E+04  0.29080381038E+04  0.25500000920E-02 0.  1.
       -2   -1    0    0    0  501  0.00000000000E+00  0.00000000000E+00 -0.11687026376E+04  0.11687026377E+04  0.25500000920E-02 0. -1.
    10030    2    1    2    0    0  0.00000000000E+00  0.00000000000E+00  0.17393354662E+04  0.40767407415E+04  0.36870756989E+04 0.  0.
        3    1    3    3  502    0 -0.55689043878E+03  0.96742715797E+03  0.24918948276E+04  0.27304911846E+04  0.10100000352E+00 0.  1.
       -3    1    3    3    0  502  0.55689043878E+03 -0.96742715797E+03 -0.75255936146E+03  0.13462495569E+04  0.10100000352E+00 0. -1.
</event>
<event>
 5   0  0.1666189E-07  0.3695812E+04  0.7818609E-02  0.8068891E-01
       -2   -1    0    0    0  501  0.00000000000E+00  0.00000000000E+00  0.21533745524E+04  0.21533745524E+04  0.25500000920E-02 0. -1.
        2   -1    0    0  501    0  0.00000000000E+00  0.00000000000E+00 -0.15857697984E+04  0.15857697984E+04  0.25500000920E-02 0.  1.
    10030    2    1    2    0    0  0.00000000000E+00  0.00000000000E+00  0.56760475399E+03  0.37391443507E+04  0.36958118619E+04 0.  0.
        4    1    3    3  502    0  0.56899408052E+03  0.67622879583E+02  0.20612238535E+04  0.21393860112E+04  0.12699999809E+01 0. -1.
       -4    1    3    3    0  502 -0.56899408052E+03 -0.67622879583E+02 -0.14936190996E+04  0.15997583395E+04  0.12699999809E+01 0.  1.
</event>
<event>
 5   0  0.5177000E-08  0.3695871E+04  0.7818609E-02  0.8068877E-01
       -1   -1    0    0    0  501  0.00000000000E+00  0.00000000000E+00  0.27309334057E+04  0.27309334057E+04  0.50400001928E-02 0. -1.
        1   -1    0    0  501    0  0.00000000000E+00  0.00000000000E+00 -0.12504391083E+04  0.12504391083E+04  0.50400001928E-02 0.  1.
    10030    2    1    2    0    0  0.00000000000E+00  0.00000000000E+00  0.14804942974E+04  0.39813725139E+04  0.36958711734E+04 0.  0.
        1    1    3    3  502    0 -0.66969037106E+03 -0.16995773695E+04  0.43974011680E+03  0.18789411375E+04  0.50400001928E-02 0.  1.
       -1    1    3    3    0  502  0.66969037106E+03  0.16995773695E+04  0.10407541806E+04  0.21024313764E+04  0.50400001928E-02 0. -1.
</event>
<event>
 5   0  0.1686284E-07  0.3709221E+04  0.7818609E-02  0.8065921E-01
       -2   -1    0    0    0  501  0.00000000000E+00  0.00000000000E+00  0.21087762228E+04  0.21087762228E+04  0.25500000920E-02 0. -1.
        2   -1    0    0  501    0  0.00000000000E+00  0.00000000000E+00 -0.16310787612E+04  0.16310787612E+04  0.25500000920E-02 0.  1.
    10030    2    1    2    0    0  0.00000000000E+00  0.00000000000E+00  0.47769746167E+03  0.37398549840E+04  0.37092210013E+04 0.  0.
        5    1    3    3  502    0 -0.13855945571E+04  0.99524759716E+03  0.97229587824E+03  0.19636118306E+04  0.46999998093E+01 0.  1.
       -5    1    3    3    0  502  0.13855945571E+04 -0.99524759716E+03 -0.49459841657E+03  0.17762431534E+04  0.46999998093E+01 0. -1.
</event>
<event>
 5   0  0.1558258E-07  0.3703590E+04  0.7818609E-02  0.8067167E-01
        2   -1    0    0  501    0  0.00000000000E+00  0.00000000000E+00  0.12899990848E+04  0.12899990848E+04  0.25500000920E-02 0.  1.
       -2   -1    0    0    0  501  0.00000000000E+00  0.00000000000E+00 -0.26582530502E+04  0.26582530502E+04  0.25500000920E-02 0. -1.
    10030    2    1    2    0    0  0.00000000000E+00  0.00000000000E+00 -0.13682539654E+04  0.39482521350E+04  0.37035896112E+04 0.  0.
        1    1    3    3  502    0  0.84572600414E+03  0.15409327075E+04 -0.13052096434E+04  0.21893602482E+04  0.50400001928E-02 0. -1.
       -1    1    3    3    0  502 -0.84572600414E+03 -0.15409327075E+04 -0.63044322053E+02  0.17588918869E+04  0.50400001928E-02 0.  1.
</event>
<event>
 5   0  0.1587026E-07  0.3699961E+04  0.7818609E-02  0.8067970E-01
        2   -1    0    0  501    0  0.00000000000E+00  0.00000000000E+00  0.28736074781E+04  0.28736074781E+04  0.25500000920E-02 0.  1.
       -2   -1    0    0    0  501  0.00000000000E+00  0.00000000000E+00 -0.11909866492E+04  0.11909866492E+04  0.25500000920E-02 0. -1.
    10030    2    1    2    0    0  0.00000000000E+00  0.00000000000E+00  0.16826208290E+04  0.40645941273E+04  0.36999611574E+04 0.  0.
        3    1    3    3  502    0 -0.12682908998E+04  0.10344364565E+04  0.17887473454E+04  0.24245077160E+04  0.10100000352E+00 0.  1.
       -3    1    3    3    0  502  0.12682908998E+04 -0.10344364565E+04 -0.10612651642E+03  0.16400864114E+04  0.10100000352E+00 0. -1.
</event>
<event>
 5   0  0.5177000E-08  0.3697332E+04  0.7818609E-02  0.8068553E-01
        1   -1    0    0  501    0  0.00000000000E+00  0.00000000000E+00  0.10068204401E+04  0.10068204401E+04  0.50400001928E-02 0.  1.
       -1   -1    0    0    0  501  0.00000000000E+00  0.00000000000E+00 -0.33944152097E+04  0.33944152097E+04  0.50400001928E-02 0. -1.
    10030    2    1    2    0    0  0.00000000000E+00  0.00000000000E+00 -0.23875947696E+04  0.44012356498E+04  0.36973323439E+04 0.  0.
        1    1    3    3  502    0  0.11220985857E+04 -0.13664713415E+04 -0.18361815560E+04  0.25491002078E+04  0.50400001928E-02 0.  1.
       -1    1    3    3    0  502 -0.11220985857E+04  0.13664713415E+04 -0.55141321368E+03  0.18521354420E+04  0.50400001928E-02 0. -1.
</event>
<event>
 5   0  0.5177000E-08  0.3701220E+04  0.7818609E-02  0.8067691E-01
        1   -1    0    0  501    0  0.00000000000E+00  0.00000000000E+00  0.15494251256E+04  0.15494251256E+04  0.50400001928E-02 0. -1.
       -1   -1    0    0    0  501  0.00000000000E+00  0.00000000000E+00 -0.22103407736E+04  0.22103407736E+04  0.50400001928E-02 0.  1.
    10030    2    1    2    0    0  0.00000000000E+00  0.00000000000E+00 -0.66091564798E+03  0.37597658992E+04  0.37012200857E+04 0.  0.
        2    1    3    3  502    0  0.16125636553E+04  0.69204144897E+03  0.26661041415E+03  0.17749264837E+04  0.25500000920E-02 0. -1.
       -2    1    3    3    0  502 -0.16125636553E+04 -0.69204144897E+03 -0.92752606213E+03  0.19848394155E+04  0.25500000920E-02 0.  1.
</event>
<event>
 5   0  0.1558258E-07  0.3694836E+04  0.7818609E-02  0.8069107E-01
        2   -1    0    0  501    0  0.00000000000E+00  0.00000000000E+00  0.23328700631E+04  0.23328700631E+04  0.25500000920E-02 0. -1.
       -2   -1    0    0    0  501  0.00000000000E+00  0.00000000000E+00 -0.14629850659E+04  0.14629850659E+04  0.25500000920E-02 0.  1.
    10030    2    1    2    0    0  0.00000000000E+00  0.00000000000E+00  0.86988499719E+03  0.37958551290E+04  0.36948364310E+04 0.  0.
        1    1    3    3  502    0  0.93455906494E+03 -0.12282991015E+04  0.14780016404E+04  0.21369623716E+04  0.50400001928E-02 0. -1.
       -1    1    3    3    0  502 -0.93455906494E+03  0.12282991015E+04 -0.60811664326E+03  0.16588927574E+04  0.50400001928E-02 0.  1.
</event>
<event>
 5   0  0.1587026E-07  0.3699055E+04  0.7818609E-02  0.8068171E-01
        2   -1    0    0  501    0  0.00000000000E+00  0.00000000000E+00  0.19491693878E+04  0.19491693878E+04  0.25500000920E-02 0.  1.
       -2   -1    0    0    0  501  0.00000000000E+00  0.00000000000E+00 -0.17549789748E+04  0.17549789748E+04  0.25500000920E-02 0. -1.
    10030    2    1    2    0    0  0.00000000000E+00  0.00000000000E+00  0.19419041299E+03  0.37041483627E+04  0.36990546328E+04 0.  0.
        3    1    3    3  502    0  0.12556718094E+03 -0.11194081324E+04 -0.13718636740E+04  0.17750638395E+04  0.10100000352E+00 0. -1.
       -3    1    3    3    0  502 -0.12556718094E+03  0.11194081324E+04  0.15660540870E+04  0.19290845232E+04  0.10100000352E+00 0.  1.
</event>
<event>
 5   0  0.5181371E-08  0.3696326E+04  0.7818609E-02  0.8068776E-01
        1   -1    0    0  501    0  0.00000000000E+00  0.00000000000E+00  0.26851132610E+04  0.26851132610E+04  0.50400001928E-02 0.  1.
       -1   -1    0    0    0  501  0.00000000000E+00  0.00000000000E+00 -0.12720904427E+04  0.12720904427E+04  0.50400001928E-02 0. -1.
    10030    2    1    2    0    0  0.00000000000E+00  0.00000000000E+00  0.14130228183E+04  0.39572037036E+04  0.36963262393E+04 0.  0.
        5    1    3    3  502    0 -0.16282377182E+04 -0.31775615058E+03  0.15785937395E+04  0.22900015988E+04  0.46999998093E+01 0. -1.
       -5    1    3    3    0  502  0.16282377182E+04  0.31775615058E+03 -0.16557092119E+03  0.16672021048E+04  0.46999998093E+01 0.  1.
</event>
<event>
 5   0  0.1587026E-07  0.3687487E+04  0.7818609E-02  0.8070741E-01
        2   -1    0    0  501    0  0.00000000000E+00  0.00000000000E+00  0.13825812121E+04  0.13825812121E+04  0.25500000920E-02 0.  1.
       -2   -1    0    0    0  501  0.00000000000E+00  0.00000000000E+00 -0.24587272190E+04  0.24587272190E+04  0.25500000920E-02 0. -1.
    10030    2    1    2    0    0  0.00000000000E+00  0.00000000000E+00 -0.10761460070E+04  0.38413084311E+04  0.36874869809E+04 0.  0.
        3    1    3    3  502    0  0.58986924505E+03  0.37133323039E+03 -0.23161901312E+04  0.24187953259E+04  0.10100000352E+00 0. -1.
       -3    1    3    3    0  502 -0.58986924505E+03 -0.37133323039E+03  0.12400441243E+04  0.14225131052E+04  0.10100000352E+00 0.  1.
</event>
<event>
 5   0  0.5177000E-08  0.3574955E+04  0.7818609E-02  0.8096253E-01
        1   -1    0    0  501    0  0.00000000000E+00  0.00000000000E+00  0.20400266034E+04  0.20400266034E+04  0.50400001928E-02 0.  1.
       -1   -1    0    0    0  501  0.00000000000E+00  0.00000000000E+00 -0.15661927868E+04  0.15661927868E+04  0.50400001928E-02 0. -1.
    10030    2    1    2    0    0  0.00000000000E+00  0.00000000000E+00  0.47383381663E+03  0.36062193902E+04  0.35749545178E+04 0.  0.
        4    1    3    3  502    0  0.10132790266E+04 -0.29994526247E+03  0.16911808737E+04  0.19941905392E+04  0.12699999809E+01 0.  1.
       -4    1    3    3    0  502 -0.10132790266E+04  0.29994526247E+03 -0.12173470571E+04  0.16120288510E+04  0.12699999809E+01 0. -1.
</event>
<event>
 5   0  0.5177000E-08  0.3685874E+04  0.7818609E-02  0.8071100E-01
        1   -1    0    0  501    0  0.00000000000E+00  0.00000000000E+00  0.30884825763E+04  0.30884825763E+04  0.50400001928E-02 0. -1.
       -1   -1    0    0    0  501  0.00000000000E+00  0.00000000000E+00 -0.10997039479E+04  0.10997039479E+04  0.50400001928E-02 0.  1.
    10030    2    1    2    0    0  0.00000000000E+00  0.00000000000E+00  0.19887786284E+04  0.41881865242E+04  0.36858738351E+04 0.  0.
        4    1    3    3  502    0 -0.11062985226E+04  0.10633670242E+04 -0.16537907842E+03  0.15433721851E+04  0.12699999809E+01 0.  1.
       -4    1    3    3    0  502  0.11062985226E+04 -0.10633670242E+04  0.21541577069E+04  0.26448143391E+04  0.12699999809E+01 0. -1.
</event>
<event>
 5   0  0.1587026E-07  0.3733055E+04  0.7818609E-02  0.8060676E-01
        2   -1    0    0  501    0  0.00000000000E+00  0.00000000000E+00  0.25865088192E+04  0.25865088192E+04  0.25500000920E-02 0.  1.
       -2   -1    0    0    0  501  0.00000000000E+00  0.00000000000E+00 -0.13469605936E+04  0.13469605936E+04  0.25500000920E-02 0. -1.
    10030    2    1    2    0    0  0.00000000000E+00  0.00000000000E+00  0.12395482256E+04  0.39334694128E+04  0.37330552926E+04 0.  0.
        3    1    3    3  502    0 -0.97027163310E+03 -0.11822105930E+04  0.17472069463E+04  0.23220208982E+04  0.10100000352E+00 0.  1.
       -3    1    3    3    0  502  0.97027163310E+03  0.11822105930E+04 -0.50765872067E+03  0.16114485146E+04  0.10100000352E+00 0. -1.
</event>
<event>
 5   0  0.5181371E-08  0.3706825E+04  0.7818609E-02  0.8066451E-01
       -1   -1    0    0    0  501  0.00000000000E+00  0.00000000000E+00  0.27059751729E+04  0.27059751729E+04  0.50400001928E-02 0. -1.
        1   -1    0    0  501    0  0.00000000000E+00  0.00000000000E+00 -0.12694641366E+04  0.12694641366E+04  0.50400001928E-02 0.  1.
    10030    2    1    2    0    0  0.00000000000E+00  0.00000000000E+00  0.14365110364E+04  0.39754393095E+04  0.37068252921E+04 0.  0.
        5    1    3    3  502    0  0.84182753386E+03 -0.13053150651E+04  0.18027688942E+04  0.23796047553E+04  0.46999998093E+01 0. -1.
       -5    1    3    3    0  502 -0.84182753386E+03  0.13053150651E+04 -0.36625785782E+03  0.15958345542E+04  0.46999998093E+01 0.  1.
</event>
<event>
 5   0  0.5177000E-08  0.3711263E+04  0.7818609E-02  0.8065470E-01
        1   -1    0    0  501    0  0.00000000000E+00  0.00000000000E+00  0.18140093543E+04  0.18140093543E+04  0.50400001928E-02 0.  1.
       -1   -1    0    0    0  501  0.00000000000E+00  0.00000000000E+00 -0.18982086699E+04  0.18982086699E+04  0.50400001928E-02 0. -1.
    10030    2    1    2    0    0  0.00000000000E+00  0.00000000000E+00 -0.84199315588E+02  0.37122180242E+04  0.37112630107E+04 0.  0.
        1    1    3    3  502    0  0.16922078924E+04  0.59970627724E+03  0.42722584928E+03  0.18454639244E+04  0.50400001928E-02 0.  1.
       -1    1    3    3    0  502 -0.16922078924E+04 -0.59970627724E+03 -0.51142516487E+03  0.18667540998E+04  0.50400001928E-02 0. -1.
</event>
<event>
 5   0  0.5177000E-08  0.3676582E+04  0.7818609E-02  0.8073171E-01
        1   -1    0    0  501    0  0.00000000000E+00  0.00000000000E+00  0.13197225803E+04  0.13197225803E+04  0.50400001928E-02 0.  1.
       -1   -1    0    0    0  501  0.00000000000E+00  0.00000000000E+00 -0.25606245054E+04  0.25606245054E+04  0.50400001928E-02 0. -1.
    10030    2    1    2    0    0  0.00000000000E+00  0.00000000000E+00 -0.12409019251E+04  0.38803470858E+04  0.36765820973E+04 0.  0.
        4    1    3    3  502    0  0.10002129064E+04  0.66113260580E+03 -0.20911623547E+04  0.24104945110E+04  0.12699999809E+01 0. -1.
       -4    1    3    3    0  502 -0.10002129064E+04 -0.66113260580E+03  0.85026042965E+03  0.14698525748E+04  0.12699999809E+01 0.  1.
</event>
<event>
 5   0  0.1658770E-07  0.3724264E+04  0.7818609E-02  0.8062606E-01
        2   -1    0    0  501    0  0.00000000000E+00  0.00000000000E+00  0.14537671682E+04  0.14537671682E+04  0.25500000920E-02 0. -1.
       -2   -1    0    0    0  501  0.00000000000E+00  0.00000000000E+00 -0.23852074630E+04  0.23852074630E+04  0.25500000920E-02 0.  1.
    10030    2    1    2    0    0  0.00000000000E+00  0.00000000000E+00 -0.93144029477E+03  0.38389746312E+04  0.37242643832E+04 0.  0.
        2    1    3    3  502    0  0.82657567906E+03  0.41041484640E+03  0.12014606555E+04  0.15149836323E+04  0.25500000920E-02 0. -1.
       -2    1    3    3    0  502 -0.82657567906E+03 -0.41041484640E+03 -0.21329009502E+04  0.23239909989E+04  0.25500000920E-02 0.  1.
</event>
<event>
 5   0  0.1658770E-07  0.3794085E+04  0.7818609E-02  0.8047425E-01
        2   -1    0    0  501    0  0.00000000000E+00  0.00000000000E+00  0.31752941131E+04  0.31752941131E+04  0.25500000920E-02 0. -1.
       -2   -1    0    0    0  501  0.00000000000E+00  0.00000000000E+00 -0.11333658891E+04  0.11333658891E+04  0.25500000920E-02 0.  1.
    10030    2    1    2    0    0  0.00000000000E+00  0.00000000000E+00  0.20419282240E+04  0.43086600022E+04  0.37940848886E+04 0.  0.
        2    1    3    3  502    0 -0.15540473038E+04  0.50765829532E+03 -0.71829998847E+02  0.16364411129E+04  0.25500000920E-02 0.  1.
       -2    1    3    3    0  502  0.15540473038E+04 -0.50765829532E+03  0.21137582228E+04  0.26722188892E+04  0.25500000920E-02 0. -1.
</event>
<event>
 5   0  0.1658770E-07  0.3685195E+04  0.7818609E-02  0.8071251E-01
       -2   -1    0    0    0  501  0.00000000000E+00  0.00000000000E+00  0.17807573248E+04  0.17807573248E+04  0.25500000920E-02 0.  1.
        2   -1    0    0  501    0  0.00000000000E+00  0.00000000000E+00 -0.19065852666E+04  0.19065852666E+04  0.25500000920E-02 0. -1.
    10030    2    1    2    0    0  0.00000000000E+00  0.00000000000E+00 -0.12582794177E+03  0.36873425914E+04  0.36851950715E+04 0.  0.
        2    1    3    3  502    0 -0.65042350921E+02  0.18313498976E+04  0.12979297667E+03  0.18370953082E+04  0.25500000920E-02 0. -1.
       -2    1    3    3    0  502  0.65042350921E+02 -0.18313498976E+04 -0.25562091844E+03  0.18502472831E+04  0.25500000920E-02 0.  1.
</event>
<event>
 5   0  0.5177000E-08  0.3700776E+04  0.7818609E-02  0.8067790E-01
       -1   -1    0    0    0  501  0.00000000000E+00  0.00000000000E+00  0.13186221528E+04  0.13186221528E+04  0.50400001928E-02 0. -1.
        1   -1    0    0  501    0  0.00000000000E+00  0.00000000000E+00 -0.25966008353E+04  0.25966008353E+04  0.50400001928E-02 0.  1.
    10030    2    1    2    0    0  0.00000000000E+00  0.00000000000E+00 -0.12779786825E+04  0.39152229881E+04  0.37007758016E+04 0.  0.
        2    1    3    3  502    0  0.79162958133E+03 -0.14473569758E+04  0.24767828970E+03  0.16681918788E+04  0.25500000920E-02 0. -1.
       -2    1    3    3    0  502 -0.79162958133E+03  0.14473569758E+04 -0.15256569722E+04  0.22470311093E+04  0.25500000920E-02 0.  1.
</event>
<event>
 5   0  0.5177000E-08  0.3687643E+04  0.7818609E-02  0.8070706E-01
       -1   -1    0    0    0  501  0.00000000000E+00  0.00000000000E+00  0.16608473088E+04  0.16608473088E+04  0.50400001928E-02 0. -1.
        1   -1    0    0  501    0  0.00000000000E+00  0.00000000000E+00 -0.20469534532E+04  0.20469534532E+04  0.50400001928E-02 0.  1.
    10030    2    1    2    0    0  0.00000000000E+00  0.00000000000E+00 -0.38610614441E+03  0.37078007621E+04  0.36876426801E+04 0.  0.
        4    1    3    3  502    0 -0.93650581223E+03 -0.13396280430E+04  0.66485730962E+03  0.17645631995E+04  0.12699999809E+01 0. -1.
       -4    1    3    3    0  502  0.93650581223E+03  0.13396280430E+04 -0.10509634540E+04  0.19432375626E+04  0.12699999809E+01 0.  1.
</event>
<event>
 5   0  0.5177000E-08  0.3661670E+04  0.7818609E-02  0.8076510E-01
       -1   -1    0    0    0  501  0.00000000000E+00  0.00000000000E+00  0.26434699909E+04  0.26434699909E+04  0.50400001928E-02 0. -1.
        1   -1    0    0  501    0  0.00000000000E+00  0.00000000000E+00 -0.12680141387E+04  0.12680141387E+04  0.50400001928E-02 0.  1.
    10030    2    1    2    0    0  0.00000000000E+00  0.00000000000E+00  0.13754558522E+04  0.39114841296E+04  0.36616702875E+04 0.  0.
        3    1    3    3  502    0  0.63825610334E+03 -0.49343214067E+03  0.24433602446E+04  0.25731022960E+04  0.10100000352E+00 0. -1.
       -3    1    3    3    0  502 -0.63825610334E+03  0.49343214067E+03 -0.10679043924E+04  0.13383818335E+04  0.10100000352E+00 0.  1.
</event>
<event>
 5   0  0.1686284E-07  0.3709327E+04  0.7818609E-02  0.8065898E-01
        2   -1    0    0  501    0  0.00000000000E+00  0.00000000000E+00  0.17069972652E+04  0.17069972652E+04  0.25500000920E-02 0.  1.
       -2   -1    0    0    0  501  0.00000000000E+00  0.00000000000E+00 -0.20151039035E+04  0.20151039035E+04  0.25500000920E-02 0. -1.
    10030    2    1    2    0    0  0.00000000000E+00  0.00000000000E+00 -0.30810663834E+03  0.37221011687E+04  0.37093270831E+04 0.  0.
        5    1    3    3  502    0 -0.63447356476E+03 -0.93609958930E+03  0.13210143593E+04  0.17389480076E+04  0.46999998093E+01 0.  1.
       -5    1    3    3    0  502  0.63447356476E+03  0.93609958930E+03 -0.16291209977E+04  0.19831531611E+04  0.46999998093E+01 0. -1.
</event>
<event>
 5   0  0.5177000E-08  0.3702724E+04  0.7818609E-02  0.8067359E-01
       -1   -1    0    0    0  501  0.00000000000E+00  0.00000000000E+00  0.14249462926E+04  0.14249462926E+04  0.50400001928E-02 0. -1.
        1   -1    0    0  501    0  0.00000000000E+00  0.00000000000E+00 -0.24053822082E+04  0.24053822082E+04  0.50400001928E-02 0.  1.
    10030    2    1    2    0    0  0.00000000000E+00  0.00000000000E+00 -0.98043591562E+03  0.38303285009E+04  0.37027235705E+04 0.  0.
        4    1    3    3  502    0 -0.79443981789E+03 -0.11723207928E+04  0.74338369040E+03  0.15994035105E+04  0.12699999809E+01 0. -1.
       -4    1    3    3    0  502  0.79443981789E+03  0.11723207928E+04 -0.17238196060E+04  0.22309249903E+04  0.12699999809E+01 0.  1.
</event>
<event>
 5   0  0.1686284E-07  0.3703682E+04  0.7818609E-02  0.8067146E-01
        2   -1    0    0  501    0  0.00000000000E+00  0.00000000000E+00  0.17260062802E+04  0.17260062802E+04  0.25500000920E-02 0. -1.
       -2   -1    0    0    0  501  0.00000000000E+00  0.00000000000E+00 -0.19868499066E+04  0.19868499066E+04  0.25500000920E-02 0.  1.
    10030    2    1    2    0    0  0.00000000000E+00  0.00000000000E+00 -0.26084362635E+03  0.37128561868E+04  0.37036821768E+04 0.  0.
        5    1    3    3  502    0 -0.97230493475E+03 -0.12239818773E+04  0.86490447762E+03  0.17865022719E+04  0.46999998093E+01 0. -1.
       -5    1    3    3    0  502  0.97230493475E+03  0.12239818773E+04 -0.11257481040E+04  0.19263539149E+04  0.46999998093E+01 0.  1.
</event>
<event>
 5   0  0.5177000E-08  0.3716383E+04  0.7818609E-02  0.8064341E-01
       -1   -1    0    0    0  501  0.00000000000E+00  0.00000000000E+00  0.23115271487E+04  0.23115271487E+04  0.50400001928E-02 0.  1.
        1   -1    0    0  501    0  0.00000000000E+00  0.00000000000E+00 -0.14937635585E+04  0.14937635585E+04  0.50400001928E-02 0. -1.
    10030    2    1    2    0    0  0.00000000000E+00  0.00000000000E+00  0.81776359028E+03  0.38052907072E+04  0.37163826602E+04 0.  0.
        4    1    3    3  502    0 -0.73867453479E+03  0.15816823817E+04 -0.24315249973E+03  0.17625220498E+04  0.12699999809E+01 0. -1.
       -4    1    3    3    0  502  0.73867453479E+03 -0.15816823817E+04  0.10609160900E+04  0.20427686574E+04  0.12699999809E+01 0.  1.
</event>
<event>
 5   0  0.5177000E-08  0.3689970E+04  0.7818609E-02  0.8070188E-01
        3   -1    0    0  501    0  0.00000000000E+00  0.00000000000E+00  0.28170077828E+04  0.28170077846E+04  0.10100000352E+00 0. -1.
       -3   -1    0    0    0  501  0.00000000000E+00  0.00000000000E+00 -0.12083637570E+04  0.12083637613E+04  0.10100000352E+00 0.  1.
    10030    2    1    2    0    0  0.00000000000E+00  0.00000000000E+00  0.16086440258E+04  0.40253715459E+04  0.36899702547E+04 0.  0.
        4    1    3    3  502    0  0.12545239065E+04 -0.13079854106E+04  0.42750893056E+03  0.18621013842E+04  0.12699999809E+01 0. -1.
       -4    1    3    3    0  502 -0.12545239065E+04  0.13079854106E+04  0.11811350952E+04  0.21632701617E+04  0.12699999809E+01 0.  1.
</event>
<event>
 5   0  0.5177000E-08  0.3693327E+04  0.7818609E-02  0.8069442E-01
        1   -1    0    0  501    0  0.00000000000E+00  0.00000000000E+00  0.28313771127E+04  0.28313771127E+04  0.50400001928E-02 0. -1.
       -1   -1    0    0    0  501  0.00000000000E+00  0.00000000000E+00 -0.12044195861E+04  0.12044195861E+04  0.50400001928E-02 0.  1.
    10030    2    1    2    0    0  0.00000000000E+00  0.00000000000E+00  0.16269575266E+04  0.40357966988E+04  0.36933269826E+04 0.  0.
        3    1    3    3  502    0 -0.17399168399E+03  0.15001750379E+04 -0.34778057774E+03  0.15497579136E+04  0.10100000352E+00 0.  1.
       -3    1    3    3    0  502  0.17399168399E+03 -0.15001750379E+04  0.19747381043E+04  0.24860387851E+04  0.10100000352E+00 0. -1.
</event>
<event>
 5   0  0.5177000E-08  0.3686917E+04  0.7818609E-02  0.8070867E-01
       -1   -1    0    0    0  501  0.00000000000E+00  0.00000000000E+00  0.17802556650E+04  0.17802556650E+04  0.50400001928E-02 0. -1.
        1   -1    0    0  501    0  0.00000000000E+00  0.00000000000E+00 -0.19089048357E+04  0.19089048357E+04  0.50400001928E-02 0.  1.
    10030    2    1    2    0    0  0.00000000000E+00  0.00000000000E+00 -0.12864917062E+03  0.36891605007E+04  0.36869166781E+04 0.  0.
        3    1    3    3  502    0  0.12333361059E+04  0.78858394292E+03  0.10567840236E+04  0.18054847183E+04  0.10100000352E+00 0. -1.
       -3    1    3    3    0  502 -0.12333361059E+04 -0.78858394292E+03 -0.11854331942E+04  0.18836757824E+04  0.10100000352E+00 0.  1.
</event>
<event>
 5   0  0.1666189E-07  0.3712637E+04  0.7818609E-02  0.8065167E-01
       -2   -1    0    0    0  501  0.00000000000E+00  0.00000000000E+00  0.12293301931E+04  0.12293301931E+04  0.25500000920E-02 0.  1.
        2   -1    0    0  501    0  0.00000000000E+00  0.00000000000E+00 -0.28030857430E+04  0.28030857430E+04  0.25500000920E-02 0. -1.
    10030    2    1    2    0    0  0.00000000000E+00  0.00000000000E+00 -0.15737555499E+04  0.40324159361E+04  0.37126367653E+04 0.  0.
        4    1    3    3  502    0  0.65454878637E+03 -0.13809492823E+04 -0.19314272577E+04  0.24628982721E+04  0.12699999809E+01 0. -1.
       -4    1    3    3    0  502 -0.65454878637E+03  0.13809492823E+04  0.35767170786E+03  0.15695176640E+04  0.12699999809E+01 0.  1.
</event>
<event>
 5   0  0.1658770E-07  0.3700222E+04  0.7818609E-02  0.8067913E-01
        2   -1    0    0  501    0  0.00000000000E+00  0.00000000000E+00  0.22983168522E+04  0.22983168522E+04  0.25500000920E-02 0. -1.
       -2   -1    0    0    0  501  0.00000000000E+00  0.00000000000E+00 -0.14893121135E+04  0.14893121135E+04  0.25500000920E-02 0.  1.
    10030    2    1    2    0    0  0.00000000000E+00  0.00000000000E+00  0.80900473866E+03  0.37876289657E+04  0.37002222250E+04 0.  0.
        2    1    3    3  502    0  0.44801887485E+03 -0.12341222289E+04  0.17388016454E+04  0.21788092505E+04  0.25500000920E-02 0. -1.
       -2    1    3    3    0  502 -0.44801887485E+03  0.12341222289E+04 -0.92979690677E+03  0.16088197151E+04  0.25500000920E-02 0.  1.
</event>
<event>
 5   0  0.5177000E-08  0.3680182E+04  0.7818609E-02  0.8072368E-01
        1   -1    0    0  501    0  0.00000000000E+00  0.00000000000E+00  0.16862231432E+04  0.16862231432E+04  0.50400001928E-02 0.  1.
       -1   -1    0    0    0  501  0.00000000000E+00  0.00000000000E+00 -0.20079988600E+04  0.20079988600E+04  0.50400001928E-02 0. -1.
    10030    2    1    2    0    0  0.00000000000E+00  0.00000000000E+00 -0.32177571675E+03  0.36942220032E+04  0.36801815983E+04 0.  0.
        3    1    3    3  502    0 -0.54780719209E+03 -0.13250577230E+04 -0.13185715646E+04  0.19479480666E+04  0.10100000352E+00 0.  1.
       -3    1    3    3    0  502  0.54780719209E+03  0.13250577230E+04  0.99679584788E+03  0.17462739366E+04  0.10100000352E+00 0. -1.
</event>
<event>
 5   0  0.1587026E-07  0.3761399E+04  0.7818609E-02  0.8054490E-01
        2   -1    0    0  501    0  0.00000000000E+00  0.00000000000E+00  0.25666944685E+04  0.25666944685E+04  0.25500000920E-02 0.  1.
       -2   -1    0    0    0  501  0.00000000000E+00  0.00000000000E+00 -0.13780490516E+04  0.13780490516E+04  0.25500000920E-02 0. -1.
    10030    2    1    2    0    0  0.00000000000E+00  0.00000000000E+00  0.11886454169E+04  0.39447435201E+04  0.37613991429E+04 0.  0.
        3    1    3    3  502    0  0.14191905840E+04 -0.96627990894E+03 -0.21070818361E+03  0.17297967294E+04  0.10100000352E+00 0.  1.
       -3    1    3    3    0  502 -0.14191905840E+04  0.96627990894E+03  0.13993536005E+04  0.22149467907E+04  0.10100000352E+00 0. -1.
</event>
<event>
 5   0  0.5177000E-08  0.3699490E+04  0.7818609E-02  0.8068075E-01
       -1   -1    0    0    0  501  0.00000000000E+00  0.00000000000E+00  0.16155113304E+04  0.16155113304E+04  0.50400001928E-02 0.  1.
        1   -1    0    0  501    0  0.00000000000E+00  0.00000000000E+00 -0.21179402886E+04  0.21179402887E+04  0.50400001928E-02 0. -1.
    10030    2    1    2    0    0  0.00000000000E+00  0.00000000000E+00 -0.50242895829E+03  0.37334516190E+04  0.36994899829E+04 0.  0.
        1    1    3    3  502    0 -0.89403896284E+03  0.13323184093E+03 -0.18798761091E+04  0.20859028204E+04  0.50400001928E-02 0. -1.
       -1    1    3    3    0  502  0.89403896284E+03 -0.13323184093E+03  0.13774471508E+04  0.16475487986E+04  0.50400001928E-02 0.  1.
</event>
<event>
 5   0  0.5177000E-08  0.3698679E+04  0.7818609E-02  0.8068255E-01
       -1   -1    0    0    0  501  0.00000000000E+00  0.00000000000E+00  0.18320912651E+04  0.18320912652E+04  0.50400001928E-02 0. -1.
        1   -1    0    0  501    0  0.00000000000E+00  0.00000000000E+00 -0.18667496592E+04  0.18667496592E+04  0.50400001928E-02 0.  1.
    10030    2    1    2    0    0  0.00000000000E+00  0.00000000000E+00 -0.34658394086E+02  0.36988409244E+04  0.36986785451E+04 0.  0.
        4    1    3    3  502    0 -0.13671174564E+04  0.52000466786E+03 -0.11490321552E+04  0.18600245968E+04  0.12699999809E+01 0.  1.
       -4    1    3    3    0  502  0.13671174564E+04 -0.52000466786E+03  0.11143737612E+04  0.18388163276E+04  0.12699999809E+01 0. -1.
</event>
<event>
 5   0  0.5181371E-08  0.3704226E+04  0.7818609E-02  0.8067026E-01
       -1   -1    0    0    0  501  0.00000000000E+00  0.00000000000E+00  0.16424297679E+04  0.16424297679E+04  0.50400001928E-02 0. -1.
        1   -1    0    0  501    0  0.00000000000E+00  0.00000000000E+00 -0.20885657005E+04  0.20885657005E+04  0.50400001928E-02 0.  1.
    10030    2    1    2    0    0  0.00000000000E+00  0.00000000000E+00 -0.44613593261E+03  0.37309954684E+04  0.37042259535E+04 0.  0.
        5    1    3    3  502    0  0.13490016801E+03  0.75344634352E+03  0.14756613621E+04  0.16623711961E+04  0.46999998093E+01 0. -1.
       -5    1    3    3    0  502 -0.13490016801E+03 -0.75344634352E+03 -0.19217972947E+04  0.20686242723E+04  0.46999998093E+01 0.  1.
</event>
<event>
 5   0  0.1587026E-07  0.3720338E+04  0.7818609E-02  0.8063470E-01
       -2   -1    0    0    0  501  0.00000000000E+00  0.00000000000E+00  0.16884293128E+04  0.16884293128E+04  0.25500000920E-02 0. -1.
        2   -1    0    0  501    0  0.00000000000E+00  0.00000000000E+00 -0.20493771095E+04  0.20493771095E+04  0.25500000920E-02 0.  1.
    10030    2    1    2    0    0  0.00000000000E+00  0.00000000000E+00 -0.36094779672E+03  0.37378064223E+04  0.37203378259E+04 0.  0.
        3    1    3    3  502    0  0.18388313326E+04 -0.90018714713E+02  0.86904109670E+02  0.18430833874E+04  0.10100000352E+00 0. -1.
       -3    1    3    3    0  502 -0.18388313326E+04  0.90018714713E+02 -0.44785190639E+03  0.18947230349E+04  0.10100000352E+00 0.  1.
</event>
<event>
 5   0  0.5177000E-08  0.3674591E+04  0.7818609E-02  0.8073616E-01
        1   -1    0    0  501    0  0.00000000000E+00  0.00000000000E+00  0.23170068261E+04  0.23170068261E+04  0.50400001928E-02 0.  1.
       -1   -1    0    0    0  501  0.00000000000E+00  0.00000000000E+00 -0.14569033313E+04  0.14569033313E+04  0.50400001928E-02 0. -1.
    10030    2    1    2    0    0  0.00000000000E+00  0.00000000000E+00  0.86010349480E+03  0.37739101574E+04  0.36745911139E+04 0.  0.
        1    1    3    3  502    0  0.12958006049E+04  0.14437450843E+03 -0.89942943594E+03  0.15839559705E+04  0.50400001928E-02 0. -1.
       -1    1    3    3    0  502 -0.12958006049E+04 -0.14437450843E+03  0.17595329307E+04  0.21899541869E+04  0.50400001928E-02 0.  1.
</event>
<event>
 5   0  0.1558258E-07  0.3681147E+04  0.7818609E-02  0.8072153E-01
        2   -1    0    0  501    0  0.00000000000E+00  0.00000000000E+00  0.28034659869E+04  0.28034659869E+04  0.25500000920E-02 0. -1.
       -2   -1    0    0    0  501  0.00000000000E+00  0.00000000000E+00 -0.12084010652E+04  0.12084010652E+04  0.25500000920E-02 0.  1.
    10030    2    1    2    0    0  0.00000000000E+00  0.00000000000E+00  0.15950649217E+04  0.40118670521E+04  0.36811472586E+04 0.  0.
        1    1    3    3  502    0  0.12177027947E+03 -0.26502456279E+03 -0.11830562807E+04  0.12184778140E+04  0.50400001928E-02 0.  1.
       -1    1    3    3    0  502 -0.12177027947E+03  0.26502456279E+03  0.27781212024E+04  0.27933892381E+04  0.50400001928E-02 0. -1.
</event>
<event>
 5   0  0.5177000E-08  0.3700417E+04  0.7818609E-02  0.8067869E-01
       -1   -1    0    0    0  501  0.00000000000E+00  0.00000000000E+00  0.23597693271E+04  0.23597693271E+04  0.50400001928E-02 0. -1.
        1   -1    0    0  501    0  0.00000000000E+00  0.00000000000E+00 -0.14506806525E+04  0.14506806525E+04  0.50400001928E-02 0.  1.
    10030    2    1    2    0    0  0.00000000000E+00  0.00000000000E+00  0.90908867464E+03  0.38104499796E+04  0.37004171155E+04 0.  0.
        4    1    3    3  502    0 -0.10256713570E+04 -0.14667749688E+03  0.20330159994E+04  0.22818132455E+04  0.12699999809E+01 0. -1.
       -4    1    3    3    0  502  0.10256713570E+04  0.14667749688E+03 -0.11239273247E+04  0.15286367341E+04  0.12699999809E+01 0.  1.
</event>
<event>
 5   0  0.5181371E-08  0.3653179E+04  0.7818609E-02  0.8078418E-01
       -1   -1    0    0    0  501  0.00000000000E+00  0.00000000000E+00  0.31459314799E+04  0.31459314799E+04  0.50400001928E-02 0. -1.
        1   -1    0    0  501    0  0.00000000000E+00  0.00000000000E+00 -0.10605537808E+04  0.10605537808E+04  0.50400001928E-02 0.  1.
    10030    2    1    2    0    0  0.00000000000E+00  0.00000000000E+00  0.20853776991E+04  0.42064852607E+04  0.36531791772E+04 0.  0.
        5    1    3    3  502    0  0.12654897866E+04 -0.27841316419E+03  0.25250904791E+04  0.28381476895E+04  0.46999998093E+01 0. -1.
       -5    1    3    3    0  502 -0.12654897866E+04  0.27841316419E+03 -0.43971278000E+03  0.13683375712E+04  0.46999998093E+01 0.  1.
</event>
<event>
 5   0  0.5177000E-08  0.3694246E+04  0.7818609E-02  0.8069238E-01
       -1   -1    0    0    0  501  0.00000000000E+00  0.00000000000E+00  0.29164911829E+04  0.29164911829E+04  0.50400001928E-02 0.  1.
        1   -1    0    0  501    0  0.00000000000E+00  0.00000000000E+00 -0.11698522586E+04  0.11698522586E+04  0.50400001928E-02 0. -1.
    10030    2    1    2    0    0  0.00000000000E+00  0.00000000000E+00  0.17466389243E+04  0.40863434414E+04  0.36942462275E+04 0.  0.
        2    1    3    3  502    0 -0.98246586330E+03  0.71233194995E+03  0.24136758104E+04  0.27015711905E+04  0.25500000920E-02 0.  1.
       -2    1    3    3    0  502  0.98246586330E+03 -0.71233194995E+03 -0.66703688617E+03  0.13847722509E+04  0.25500000920E-02 0. -1.
</event>
<event>
 5   0  0.5177000E-08  0.3808849E+04  0.7818609E-02  0.8044259E-01
        1   -1    0    0  501    0  0.00000000000E+00  0.00000000000E+00  0.16179573120E+04  0.16179573120E+04  0.50400001928E-02 0.  1.
       -1   -1    0    0    0  501  0.00000000000E+00  0.00000000000E+00 -0.22416117619E+04  0.22416117619E+04  0.50400001928E-02 0. -1.
    10030    2    1    2    0    0  0.00000000000E+00  0.00000000000E+00 -0.62365444993E+03  0.38595690739E+04  0.38088487189E+04 0.  0.
        4    1    3    3  502    0  0.11544573408E+04  0.15145744596E+04 -0.30058980121E+03  0.19279687204E+04  0.12699999809E+01 0. -1.
       -4    1    3    3    0  502 -0.11544573408E+04 -0.15145744596E+04 -0.32306464872E+03  0.19316003535E+04  0.12699999809E+01 0.  1.
</event>
<event>
 5   0  0.5181371E-08  0.3711868E+04  0.7818609E-02  0.8065337E-01
        1   -1    0    0  501    0  0.00000000000E+00  0.00000000000E+00  0.14194285077E+04  0.14194285077E+04  0.50400001928E-02 0. -1.
       -1   -1    0    0    0  501  0.00000000000E+00  0.00000000000E+00 -0.24266744818E+04  0.24266744818E+04  0.50400001928E-02 0.  1.
    10030    2    1    2    0    0  0.00000000000E+00  0.00000000000E+00 -0.10072459741E+04  0.38461029895E+04  0.37118679602E+04 0.  0.
        5    1    3    3  502    0  0.10138502317E+04  0.46470376486E+03 -0.20407211580E+04  0.23255981631E+04  0.46999998093E+01 0.  1.
       -5    1    3    3    0  502 -0.10138502317E+04 -0.46470376486E+03  0.10334751839E+04  0.15205048264E+04  0.46999998093E+01 0. -1.
</event>
<event>
 5   0  0.1658770E-07  0.3714154E+04  0.7818609E-02  0.8064832E-01
       -2   -1    0    0    0  501  0.00000000000E+00  0.00000000000E+00  0.99502196935E+03  0.99502196935E+03  0.25500000920E-02 0. -1.
        2   -1    0    0  501    0  0.00000000000E+00  0.00000000000E+00 -0.34659896428E+04  0.34659896428E+04  0.25500000920E-02 0.  1.
    10030    2    1    2    0    0  0.00000000000E+00  0.00000000000E+00 -0.24709676734E+04  0.44610116121E+04  0.37141544610E+04 0.  0.
        2    1    3    3  502    0  0.52615570068E+03 -0.15446506348E+04 -0.17067665353E+03  0.16407059228E+04  0.25500000920E-02 0. -1.
       -2    1    3    3    0  502 -0.52615570068E+03  0.15446506348E+04 -0.23002910199E+04  0.28203056893E+04  0.25500000920E-02 0.  1.
</event>
<event>
 5   0  0.5177000E-08  0.3711828E+04  0.7818609E-02  0.8065346E-01
        1   -1    0    0  501    0  0.00000000000E+00  0.00000000000E+00  0.16413800603E+04  0.16413800603E+04  0.50400001928E-02 0.  1.
       -1   -1    0    0    0  501  0.00000000000E+00  0.00000000000E+00 -0.20984879583E+04  0.20984879583E+04  0.50400001928E-02 0. -1.
    10030    2    1    2    0    0  0.00000000000E+00  0.00000000000E+00 -0.45710789795E+03  0.37398680186E+04  0.37118277393E+04 0.  0.
        1    1    3    3  502    0 -0.31725515782E+03  0.17625888234E+04  0.26199784300E+03  0.18099759848E+04  0.50400001928E-02 0. -1.
       -1    1    3    3    0  502  0.31725515782E+03 -0.17625888234E+04 -0.71910574095E+03  0.19298920339E+04  0.50400001928E-02 0.  1.
</event>
<event>
 5   0  0.5177000E-08  0.3688264E+04  0.7818609E-02  0.8070568E-01
       -1   -1    0    0    0  501  0.00000000000E+00  0.00000000000E+00  0.11661267849E+04  0.11661267849E+04  0.50400001928E-02 0. -1.
        1   -1    0    0  501    0  0.00000000000E+00  0.00000000000E+00 -0.29163408273E+04  0.29163408273E+04  0.50400001928E-02 0.  1.
    10030    2    1    2    0    0  0.00000000000E+00  0.00000000000E+00 -0.17502140423E+04  0.40824676122E+04  0.36882641731E+04 0.  0.
        1    1    3    3  502    0  0.45497142672E+03 -0.15917141622E+04 -0.17745250103E+04  0.24268275558E+04  0.50400001928E-02 0.  1.
       -1    1    3    3    0  502 -0.45497142672E+03  0.15917141622E+04  0.24310968000E+02  0.16556400564E+04  0.50400001928E-02 0. -1.
</event>
<event>
 5   0  0.5177000E-08  0.3674155E+04  0.7818609E-02  0.8073714E-01
       -1   -1    0    0    0  501  0.00000000000E+00  0.00000000000E+00  0.11702134334E+04  0.11702134335E+04  0.50400001928E-02 0.  1.
        1   -1    0    0  501    0  0.00000000000E+00  0.00000000000E+00 -0.28839637746E+04  0.28839637746E+04  0.50400001928E-02 0. -1.
    10030    2    1    2    0    0  0.00000000000E+00  0.00000000000E+00 -0.17137503412E+04  0.40541772081E+04  0.36741546786E+04 0.  0.
        1    1    3    3  502    0  0.44794067785E+03 -0.16292999682E+04 -0.61497965306E+02  0.16908729216E+04  0.50400001928E-02 0.  1.
       -1    1    3    3    0  502 -0.44794067785E+03  0.16292999682E+04 -0.16522523758E+04  0.23633042865E+04  0.50400001928E-02 0. -1.
</event>
<event>
 5   0  0.1666189E-07  0.3699233E+04  0.7818609E-02  0.8068132E-01
       -2   -1    0    0    0  501  0.00000000000E+00  0.00000000000E+00  0.11275550204E+04  0.11275550204E+04  0.25500000920E-02 0. -1.
        2   -1    0    0  501    0  0.00000000000E+00  0.00000000000E+00 -0.30340699616E+04  0.30340699616E+04  0.25500000920E-02 0.  1.
    10030    2    1    2    0    0  0.00000000000E+00  0.00000000000E+00 -0.19065149411E+04  0.41616249820E+04  0.36992327948E+04 0.  0.
        4    1    3    3  502    0 -0.49171453333E+03 -0.17816264171E+04 -0.87289038794E+03  0.20439948910E+04  0.12699999809E+01 0.  1.
       -4    1    3    3    0  502  0.49171453333E+03  0.17816264171E+04 -0.10336245532E+04  0.21176300910E+04  0.12699999809E+01 0. -1.
</event>
<event>
 5   0  0.5177000E-08  0.3697427E+04  0.7818609E-02  0.8068532E-01
        1   -1    0    0  501    0  0.00000000000E+00  0.00000000000E+00  0.28761040734E+04  0.28761040734E+04  0.50400001928E-02 0.  1.
       -1   -1    0    0    0  501  0.00000000000E+00  0.00000000000E+00 -0.11883233015E+04  0.11883233015E+04  0.50400001928E-02 0. -1.
    10030    2    1    2    0    0  0.00000000000E+00  0.00000000000E+00  0.16877807719E+04  0.40644273749E+04  0.36974269366E+04 0.  0.
        3    1    3    3  502    0  0.66201447252E+03 -0.11353479018E+04  0.22731221530E+04  0.26257117802E+04  0.10100000352E+00 0.  1.
       -3    1    3    3    0  502 -0.66201447252E+03  0.11353479018E+04 -0.58534138113E+03  0.14387155947E+04  0.10100000352E+00 0. -1.
</event>
<event>
 5   0  0.1666189E-07  0.3712328E+04  0.7818609E-02  0.8065235E-01
        2   -1    0    0  501    0  0.00000000000E+00  0.00000000000E+00  0.27692703754E+04  0.27692703754E+04  0.25500000920E-02 0.  1.
       -2   -1    0    0    0  501  0.00000000000E+00  0.00000000000E+00 -0.12441345100E+04  0.12441345100E+04  0.25500000920E-02 0. -1.
    10030    2    1    2    0    0  0.00000000000E+00  0.00000000000E+00  0.15251358655E+04  0.40134048854E+04  0.37123280252E+04 0.  0.
        4    1    3    3  502    0 -0.93102179491E+03 -0.14727644544E+04  0.14543941804E+04  0.22696036583E+04  0.12699999809E+01 0. -1.
       -4    1    3    3    0  502  0.93102179491E+03  0.14727644544E+04  0.70741685022E+02  0.17438012271E+04  0.12699999809E+01 0.  1.
</event>
<event>
 5   0  0.1587026E-07  0.3704798E+04  0.7818609E-02  0.8066899E-01
       -2   -1    0    0    0  501  0.00000000000E+00  0.00000000000E+00  0.17852717362E+04  0.17852717362E+04  0.25500000920E-02 0. -1.
        2   -1    0    0  501    0  0.00000000000E+00  0.00000000000E+00 -0.19220506890E+04  0.19220506890E+04  0.25500000920E-02 0.  1.
    10030    2    1    2    0    0  0.00000000000E+00  0.00000000000E+00 -0.13677895287E+03  0.37073224252E+04  0.37047983862E+04 0.  0.
        3    1    3    3  502    0  0.93985827571E+03 -0.45188349507E+03  0.14636174611E+04  0.17971389357E+04  0.10100000352E+00 0. -1.
       -3    1    3    3    0  502 -0.93985827571E+03  0.45188349507E+03 -0.16003964140E+04  0.19101834895E+04  0.10100000352E+00 0.  1.
</event>
<event>
 5   0  0.1558258E-07  0.3702887E+04  0.7818609E-02  0.8067322E-01
        2   -1    0    0  501    0  0.00000000000E+00  0.00000000000E+00  0.19981385662E+04  0.19981385662E+04  0.25500000920E-02 0.  1.
       -2   -1    0    0    0  501  0.00000000000E+00  0.00000000000E+00 -0.17155178362E+04  0.17155178362E+04  0.25500000920E-02 0. -1.
    10030    2    1    2    0    0  0.00000000000E+00  0.00000000000E+00  0.28262072998E+03  0.37136564024E+04  0.37028866305E+04 0.  0.
        1    1    3    3  502    0  0.84635788221E+03 -0.13136037796E+04 -0.85453573719E+03  0.17810412350E+04  0.50400001928E-02 0. -1.
       -1    1    3    3    0  502 -0.84635788221E+03  0.13136037796E+04  0.11371564672E+04  0.19326151674E+04  0.50400001928E-02 0.  1.
</event>
<event>
 5   0  0.1666189E-07  0.3694939E+04  0.7818609E-02  0.8069084E-01
       -2   -1    0    0    0  501  0.00000000000E+00  0.00000000000E+00  0.17863262760E+04  0.17863262760E+04  0.25500000920E-02 0.  1.
        2   -1    0    0  501    0  0.00000000000E+00  0.00000000000E+00 -0.19107054436E+04  0.19107054436E+04  0.25500000920E-02 0. -1.
    10030    2    1    2    0    0  0.00000000000E+00  0.00000000000E+00 -0.12437916754E+03  0.36970317196E+04  0.36949388843E+04 0.  0.
        4    1    3    3  502    0 -0.11074973088E+04  0.75287007449E+03 -0.13356154796E+04  0.18913577029E+04  0.12699999809E+01 0. -1.
       -4    1    3    3    0  502  0.11074973088E+04 -0.75287007449E+03  0.12112363120E+04  0.18056740167E+04  0.12699999809E+01 0.  1.
</event>
<event>
 5   0  0.5177000E-08  0.3692973E+04  0.7818609E-02  0.8069521E-01
        1   -1    0    0  501    0  0.00000000000E+00  0.00000000000E+00  0.25330840074E+04  0.25330840074E+04  0.50400001928E-02 0. -1.
       -1   -1    0    0    0  501  0.00000000000E+00  0.00000000000E+00 -0.13459925130E+04  0.13459925130E+04  0.50400001928E-02 0.  1.
    10030    2    1    2    0    0  0.00000000000E+00  0.00000000000E+00  0.11870914944E+04  0.38790765204E+04  0.36929728452E+04 0.  0.
        3    1    3    3  502    0  0.12749449913E+04  0.10089030804E+04 -0.32585923251E+03  0.16581780381E+04  0.10100000352E+00 0.  1.
       -3    1    3    3    0  502 -0.12749449913E+04 -0.10089030804E+04  0.15129507269E+04  0.22208984823E+04  0.10100000352E+00 0. -1.
</event>
<event>
 5   0  0.1587026E-07  0.3705236E+04  0.7818609E-02  0.8066802E-01
        2   -1    0    0  501    0  0.00000000000E+00  0.00000000000E+00  0.22206357137E+04  0.22206357137E+04  0.25500000920E-02 0. -1.
       -2   -1    0    0    0  501  0.00000000000E+00  0.00000000000E+00 -0.15455905098E+04  0.15455905098E+04  0.25500000920E-02 0.  1.
    10030    2    1    2    0    0  0.00000000000E+00  0.00000000000E+00  0.67504520393E+03  0.37662262235E+04  0.37052360167E+04 0.  0.
        3    1    3    3  502    0  0.90148798885E+03 -0.15689961587E+04 -0.66210529414E+02  0.18107493986E+04  0.10100000352E+00 0.  1.
       -3    1    3    3    0  502 -0.90148798885E+03  0.15689961587E+04  0.74125573334E+03  0.19554768249E+04  0.10100000352E+00 0. -1.
</event>
<event>
 5   0  0.5177000E-08  0.3695782E+04  0.7818609E-02  0.8068897E-01
        1   -1    0    0  501    0  0.00000000000E+00  0.00000000000E+00  0.13196755889E+04  0.13196755889E+04  0.50400001928E-02 0. -1.
       -1   -1    0    0    0  501  0.00000000000E+00  0.00000000000E+00 -0.25875300974E+04  0.25875300974E+04  0.50400001928E-02 0.  1.
    10030    2    1    2    0    0  0.00000000000E+00  0.00000000000E+00 -0.12678545085E+04  0.39072056863E+04  0.36957815439E+04 0.  0.
        3    1    3    3  502    0  0.15163240437E+04  0.71002868768E+03  0.19267126395E+03  0.16853787612E+04  0.10100000352E+00 0. -1.
       -3    1    3    3    0  502 -0.15163240437E+04 -0.71002868768E+03 -0.14605257725E+04  0.22218269251E+04  0.10100000352E+00 0.  1.
</event>
<event>
 5   0  0.1666189E-07  0.3712717E+04  0.7818609E-02  0.8065150E-01
       -2   -1    0    0    0  501  0.00000000000E+00  0.00000000000E+00  0.21166789807E+04  0.21166789807E+04  0.25500000920E-02 0. -1.
        2   -1    0    0  501    0  0.00000000000E+00  0.00000000000E+00 -0.16280532630E+04  0.16280532630E+04  0.25500000920E-02 0.  1.
    10030    2    1    2    0    0  0.00000000000E+00  0.00000000000E+00  0.48862571765E+03  0.37447322437E+04  0.37127165910E+04 0.  0.
        4    1    3    3  502    0  0.12278538643E+03 -0.37473833536E+03 -0.15853195368E+04  0.16336293086E+04  0.12699999809E+01 0.  1.
       -4    1    3    3    0  502 -0.12278538643E+03  0.37473833536E+03  0.20739452545E+04  0.21111029351E+04  0.12699999809E+01 0. -1.
</event>
<event>
 5   0  0.1658770E-07  0.3693416E+04  0.7818609E-02  0.8069423E-01
        2   -1    0    0  501    0  0.00000000000E+00  0.00000000000E+00  0.23869930902E+04  0.23869930902E+04  0.25500000920E-02 0. -1.
       -2   -1    0    0    0  501  0.00000000000E+00  0.00000000000E+00 -0.14287137320E+04  0.14287137320E+04  0.25500000920E-02 0.  1.
    10030    2    1    2    0    0  0.00000000000E+00  0.00000000000E+00  0.95827935824E+03  0.38157068222E+04  0.36934156582E+04 0.  0.
        2    1    3    3  502    0  0.26563831621E+03  0.17237531665E+04  0.11062310934E+04  0.20653416003E+04  0.25500000920E-02 0. -1.
       -2    1    3    3    0  502 -0.26563831621E+03 -0.17237531665E+04 -0.14795173519E+03  0.17503652219E+04  0.25500000920E-02 0.  1.
</event>
<event>
 5   0  0.1558258E-07  0.3697159E+04  0.7818609E-02  0.8068592E-01
        2   -1    0    0  501    0  0.00000000000E+00  0.00000000000E+00  0.23007220624E+04  0.23007220624E+04  0.25500000920E-02 0.  1.
       -2   -1    0    0    0  501  0.00000000000E+00  0.00000000000E+00 -0.14852929783E+04  0.14852929784E+04  0.25500000920E-02 0. -1.
    10030    2    1    2    0    0  0.00000000000E+00  0.00000000000E+00  0.81542908404E+03  0.37860150407E+04  0.36971590847E+04 0.  0.
        1    1    3    3  502    0 -0.69967859530E+03 -0.10071967573E+04  0.18241609834E+04  0.21980806941E+04  0.50400001928E-02 0.  1.
       -1    1    3    3    0  502  0.69967859530E+03  0.10071967573E+04 -0.10087318993E+04  0.15879343466E+04  0.50400001928E-02 0. -1.
</event>
<event>
 5   0  0.1587026E-07  0.3696965E+04  0.7818609E-02  0.8068635E-01
       -2   -1    0    0    0  501  0.00000000000E+00  0.00000000000E+00  0.16605848567E+04  0.16605848567E+04  0.25500000920E-02 0. -1.
        2   -1    0    0  501    0  0.00000000000E+00  0.00000000000E+00 -0.20576407783E+04  0.20576407783E+04  0.25500000920E-02 0.  1.
    10030    2    1    2    0    0  0.00000000000E+00  0.00000000000E+00 -0.39705592163E+03  0.37182256350E+04  0.36969647643E+04 0.  0.
        3    1    3    3  502    0  0.13979587757E+04  0.10931000384E+04  0.32187468419E+03  0.18035408937E+04  0.10100000352E+00 0. -1.
       -3    1    3    3    0  502 -0.13979587757E+04 -0.10931000384E+04 -0.71893060581E+03  0.19146847414E+04  0.10100000352E+00 0.  1.
</event>
<event>
 5   0  0.1658770E-07  0.3671505E+04  0.7818609E-02  0.8074306E-01
       -2   -1    0    0    0  501  0.00000000000E+00  0.00000000000E+00  0.16642321521E+04  0.16642321521E+04  0.25500000920E-02 0. -1.
        2   -1    0    0  501    0  0.00000000000E+00  0.00000000000E+00 -0.20249502505E+04  0.20249502505E+04  0.25500000920E-02 0.  1.
    10030    2    1    2    0    0  0.00000000000E+00  0.00000000000E+00 -0.36071809836E+03  0.36891824025E+04  0.36715050392E+04 0.  0.
        2    1    3    3  502    0  0.44290785813E+03 -0.74096217746E+03 -0.18082814314E+04  0.20037649699E+04  0.25500000920E-02 0.  1.
       -2    1    3    3    0  502 -0.44290785813E+03  0.74096217746E+03  0.14475633331E+04  0.16854174327E+04  0.25500000920E-02 0. -1.
</event>
<event>
 5   0  0.5177000E-08  0.3696564E+04  0.7818609E-02  0.8068724E-01
        1   -1    0    0  501    0  0.00000000000E+00  0.00000000000E+00  0.19845368808E+04  0.19845368808E+04  0.50400001928E-02 0. -1.
       -1   -1    0    0    0  501  0.00000000000E+00  0.00000000000E+00 -0.17213818212E+04  0.17213818212E+04  0.50400001928E-02 0.  1.
    10030    2    1    2    0    0  0.00000000000E+00  0.00000000000E+00  0.26315505959E+03  0.37059187019E+04  0.36965636529E+04 0.  0.
        2    1    3    3  502    0  0.42654128858E+03  0.88947340362E+03  0.16985575505E+04  0.19642296604E+04  0.25500000920E-02 0. -1.
       -2    1    3    3    0  502 -0.42654128858E+03 -0.88947340362E+03 -0.14354024909E+04  0.17416890415E+04  0.25500000920E-02 0.  1.
</event>
<event>
 5   0  0.5177000E-08  0.3700722E+04  0.7818609E-02  0.8067802E-01
        1   -1    0    0  501    0  0.00000000000E+00  0.00000000000E+00  0.11657189368E+04  0.11657189368E+04  0.50400001928E-02 0.  1.
       -1   -1    0    0    0  501  0.00000000000E+00  0.00000000000E+00 -0.29371023462E+04  0.29371023462E+04  0.50400001928E-02 0. -1.
    10030    2    1    2    0    0  0.00000000000E+00  0.00000000000E+00 -0.17713834094E+04  0.41028212831E+04  0.37007219968E+04 0.  0.
        2    1    3    3  502    0 -0.15954694383E+04 -0.90640564757E+03 -0.62160406991E+03  0.19373914283E+04  0.25500000920E-02 0.  1.
       -2    1    3    3    0  502  0.15954694383E+04  0.90640564757E+03 -0.11497793395E+04  0.21654298548E+04  0.25500000920E-02 0. -1.
</event>
<event>
 5   0  0.5177000E-08  0.3700566E+04  0.7818609E-02  0.8067836E-01
        1   -1    0    0  501    0  0.00000000000E+00  0.00000000000E+00  0.16138398711E+04  0.16138398711E+04  0.50400001928E-02 0.  1.
       -1   -1    0    0    0  501  0.00000000000E+00  0.00000000000E+00 -0.21213672544E+04  0.21213672544E+04  0.50400001928E-02 0. -1.
    10030    2    1    2    0    0  0.00000000000E+00  0.00000000000E+00 -0.50752738327E+03  0.37352071255E+04  0.37005659332E+04 0.  0.
        4    1    3    3  502    0 -0.47625480006E+03  0.69999957690E+02 -0.20570562996E+04  0.21126288981E+04  0.12699999809E+01 0. -1.
       -4    1    3    3    0  502  0.47625480006E+03 -0.69999957690E+02  0.15495289163E+04  0.16225782274E+04  0.12699999809E+01 0.  1.
</event>
<event>
 5   0  0.5181371E-08  0.3672794E+04  0.7818609E-02  0.8074018E-01
       -1   -1    0    0    0  501  0.00000000000E+00  0.00000000000E+00  0.18575588590E+04  0.18575588590E+04  0.50400001928E-02 0. -1.
        1   -1    0    0  501    0  0.00000000000E+00  0.00000000000E+00 -0.18154766367E+04  0.18154766367E+04  0.50400001928E-02 0.  1.
    10030    2    1    2    0    0  0.00000000000E+00  0.00000000000E+00  0.42082222254E+02  0.36730354957E+04  0.36727944183E+04 0.  0.
        5    1    3    3  502    0 -0.44926764471E+03 -0.77535144030E+03  0.16240565983E+04  0.18548836074E+04  0.46999998093E+01 0. -1.
       -5    1    3    3    0  502  0.44926764471E+03  0.77535144030E+03 -0.15819743760E+04  0.18181518883E+04  0.46999998093E+01 0.  1.
</event>
<event>
 5   0  0.5181371E-08  0.3697515E+04  0.7818609E-02  0.8068513E-01
       -1   -1    0    0    0  501  0.00000000000E+00  0.00000000000E+00  0.18025206738E+04  0.18025206738E+04  0.50400001928E-02 0.  1.
        1   -1    0    0  501    0  0.00000000000E+00  0.00000000000E+00 -0.18961802788E+04  0.18961802788E+04  0.50400001928E-02 0. -1.
    10030    2    1    2    0    0  0.00000000000E+00  0.00000000000E+00 -0.93659604934E+02  0.36987009526E+04  0.36975149243E+04 0.  0.
        5    1    3    3  502    0  0.10841676693E+04  0.82597117314E+03 -0.12963237972E+04  0.18809905346E+04  0.46999998093E+01 0. -1.
       -5    1    3    3    0  502 -0.10841676693E+04 -0.82597117314E+03  0.12026641923E+04  0.18177104180E+04  0.46999998093E+01 0.  1.
</event>
<event>
 5   0  0.1587026E-07  0.3642640E+04  0.7818609E-02  0.8080794E-01
        2   -1    0    0  501    0  0.00000000000E+00  0.00000000000E+00  0.21996117929E+04  0.21996117929E+04  0.25500000920E-02 0.  1.
       -2   -1    0    0    0  501  0.00000000000E+00  0.00000000000E+00 -0.15080871097E+04  0.15080871097E+04  0.25500000920E-02 0. -1.
    10030    2    1    2    0    0  0.00000000000E+00  0.00000000000E+00  0.69152468322E+03  0.37076989026E+04  0.36426398072E+04 0.  0.
        3    1    3    3  502    0 -0.44882739621E+03  0.56335170102E+03 -0.13569557010E+04  0.15362747005E+04  0.10100000352E+00 0. -1.
       -3    1    3    3    0  502  0.44882739621E+03 -0.56335170102E+03  0.20484803843E+04  0.21714242021E+04  0.10100000352E+00 0.  1.
</event>
<event>
 5   0  0.1587026E-07  0.3706427E+04  0.7818609E-02  0.8066539E-01
        2   -1    0    0  501    0  0.00000000000E+00  0.00000000000E+00  0.20204688788E+04  0.20204688788E+04  0.25500000920E-02 0. -1.
       -2   -1    0    0    0  501  0.00000000000E+00  0.00000000000E+00 -0.16998034382E+04  0.16998034382E+04  0.25500000920E-02 0.  1.
    10030    2    1    2    0    0  0.00000000000E+00  0.00000000000E+00  0.32066544057E+03  0.37202723169E+04  0.37064268221E+04 0.  0.
        3    1    3    3  502    0  0.87834808178E+03  0.73071423870E+03 -0.13042138378E+04  0.17339009189E+04  0.10100000352E+00 0.  1.
       -3    1    3    3    0  502 -0.87834808178E+03 -0.73071423870E+03  0.16248792784E+04  0.19863713981E+04  0.10100000352E+00 0. -1.
</event>
<event>
 5   0  0.5177000E-08  0.3696716E+04  0.7818609E-02  0.8068690E-01
       -3   -1    0    0    0  501  0.00000000000E+00  0.00000000000E+00  0.24069670328E+04  0.24069670349E+04  0.10100000352E+00 0.  1.
        3   -1    0    0  501    0  0.00000000000E+00  0.00000000000E+00 -0.14193908213E+04  0.14193908249E+04  0.10100000352E+00 0. -1.
    10030    2    1    2    0    0  0.00000000000E+00  0.00000000000E+00  0.98757621150E+03  0.38263578599E+04  0.36967157989E+04 0.  0.
        4    1    3    3  502    0  0.13753866843E+04 -0.75715052060E+03  0.15034239466E+04  0.21737641588E+04  0.12699999809E+01 0.  1.
       -4    1    3    3    0  502 -0.13753866843E+04  0.75715052060E+03 -0.51584773506E+03  0.16525937011E+04  0.12699999809E+01 0. -1.
</event>
<event>
 5   0  0.1558258E-07  0.3712078E+04  0.7818609E-02  0.8065290E-01
       -2   -1    0    0    0  501  0.00000000000E+00  0.00000000000E+00  0.14646561128E+04  0.14646561128E+04  0.25500000920E-02 0.  1.
        2   -1    0    0  501    0  0.00000000000E+00  0.00000000000E+00 -0.23520064615E+04  0.23520064615E+04  0.25500000920E-02 0. -1.
    10030    2    1    2    0    0  0.00000000000E+00  0.00000000000E+00 -0.88735034869E+03  0.38166625743E+04  0.37120779308E+04 0.  0.
        1    1    3    3  502    0  0.15184604932E+04  0.68087122535E+03 -0.12887647441E+04  0.21048093645E+04  0.50400001928E-02 0. -1.
       -1    1    3    3    0  502 -0.15184604932E+04 -0.68087122535E+03  0.40141439544E+03  0.17118532098E+04  0.50400001928E-02 0.  1.
</event>
<event>
 5   0  0.5177000E-08  0.3701757E+04  0.7818609E-02  0.8067572E-01
        1   -1    0    0  501    0  0.00000000000E+00  0.00000000000E+00  0.17409049286E+04  0.17409049286E+04  0.50400001928E-02 0. -1.
       -1   -1    0    0    0  501  0.00000000000E+00  0.00000000000E+00 -0.19677994817E+04  0.19677994817E+04  0.50400001928E-02 0.  1.
    10030    2    1    2    0    0  0.00000000000E+00  0.00000000000E+00 -0.22689455309E+03  0.37087044102E+04  0.37017573211E+04 0.  0.
        2    1    3    3  502    0  0.10424046903E+04  0.17219585016E+03 -0.16360008727E+04  0.19475003991E+04  0.25500000920E-02 0.  1.
       -2    1    3    3    0  502 -0.10424046903E+04 -0.17219585016E+03  0.14091063196E+04  0.17612040112E+04  0.25500000920E-02 0. -1.
</event>
<event>
 5   0  0.1587026E-07  0.3692375E+04  0.7818609E-02  0.8069654E-01
        2   -1    0    0  501    0  0.00000000000E+00  0.00000000000E+00  0.17794543568E+04  0.17794543568E+04  0.25500000920E-02 0. -1.
       -2   -1    0    0    0  501  0.00000000000E+00  0.00000000000E+00 -0.19154228121E+04  0.19154228121E+04  0.25500000920E-02 0.  1.
    10030    2    1    2    0    0  0.00000000000E+00  0.00000000000E+00 -0.13596845524E+03  0.36948771689E+04  0.36923745575E+04 0.  0.
        3    1    3    3  502    0  0.56603952450E+03 -0.17522524607E+04 -0.20080711267E+03  0.18523263579E+04  0.10100000352E+00 0.  1.
       -3    1    3    3    0  502 -0.56603952450E+03  0.17522524607E+04  0.64838657437E+02  0.18425508110E+04  0.10100000352E+00 0. -1.
</event>
<event>
 5   0  0.1666189E-07  0.3693096E+04  0.7818609E-02  0.8069494E-01
       -2   -1    0    0    0  501  0.00000000000E+00  0.00000000000E+00  0.23880848933E+04  0.23880848933E+04  0.25500000920E-02 0. -1.
        2   -1    0    0  501    0  0.00000000000E+00  0.00000000000E+00 -0.14278133983E+04  0.14278133983E+04  0.25500000920E-02 0.  1.
    10030    2    1    2    0    0  0.00000000000E+00  0.00000000000E+00  0.96027149502E+03  0.38158982917E+04  0.36930960491E+04 0.  0.
        4    1    3    3  502    0 -0.17892518588E+04 -0.10075314040E+03  0.20176654912E+02  0.17922003570E+04  0.12699999809E+01 0.  1.
       -4    1    3    3    0  502  0.17892518588E+04  0.10075314040E+03  0.94009484011E+03  0.20236979346E+04  0.12699999809E+01 0. -1.
</event>
<event>
 5   0  0.1686284E-07  0.3636293E+04  0.7818609E-02  0.8082229E-01
        2   -1    0    0  501    0  0.00000000000E+00  0.00000000000E+00  0.25750239699E+04  0.25750239699E+04  0.25500000920E-02 0.  1.
       -2   -1    0    0    0  501  0.00000000000E+00  0.00000000000E+00 -0.12837383930E+04  0.12837383930E+04  0.25500000920E-02 0. -1.
    10030    2    1    2    0    0  0.00000000000E+00  0.00000000000E+00  0.12912855769E+04  0.38587623629E+04  0.36362932407E+04 0.  0.
        5    1    3    3  502    0 -0.20509371550E+03  0.81648675944E+03  0.23557309596E+04  0.25016403628E+04  0.46999998093E+01 0.  1.
       -5    1    3    3    0  502  0.20509371550E+03 -0.81648675944E+03 -0.10644453827E+04  0.13571220001E+04  0.46999998093E+01 0. -1.
</event>
<event>
 5   0  0.5177000E-08  0.3685264E+04  0.7818609E-02  0.8071235E-01
        1   -1    0    0  501    0  0.00000000000E+00  0.00000000000E+00  0.22953940285E+04  0.22953940285E+04  0.50400001928E-02 0. -1.
       -1   -1    0    0    0  501  0.00000000000E+00  0.00000000000E+00 -0.14791765825E+04  0.14791765825E+04  0.50400001928E-02 0.  1.
    10030    2    1    2    0    0  0.00000000000E+00  0.00000000000E+00  0.81621744602E+03  0.37745706110E+04  0.36852642209E+04 0.  0.
        1    1    3    3  502    0 -0.13951442194E+04  0.96432831315E+03 -0.32972088182E+03  0.17277361918E+04  0.50400001928E-02 0.  1.
       -1    1    3    3    0  502  0.13951442194E+04 -0.96432831315E+03  0.11459383278E+04  0.20468344192E+04  0.50400001928E-02 0. -1.
</event>
<event>
 5   0  0.5177000E-08  0.3702308E+04  0.7818609E-02  0.8067451E-01
       -1   -1    0    0    0  501  0.00000000000E+00  0.00000000000E+00  0.12148223256E+04  0.12148223257E+04  0.50400001928E-02 0.  1.
        1   -1    0    0  501    0  0.00000000000E+00  0.00000000000E+00 -0.28208002825E+04  0.28208002825E+04  0.50400001928E-02 0. -1.
    10030    2    1    2    0    0  0.00000000000E+00  0.00000000000E+00 -0.16059779569E+04  0.40356226082E+04  0.37023080150E+04 0.  0.
        3    1    3    3  502    0  0.30093680118E+03 -0.31542536277E+03 -0.27640460437E+04  0.27982149059E+04  0.10100000352E+00 0. -1.
       -3    1    3    3    0  502 -0.30093680118E+03  0.31542536277E+03  0.11580680868E+04  0.12374077023E+04  0.10100000352E+00 0.  1.
</event>
<event>
 5   0  0.5177000E-08  0.3698048E+04  0.7818609E-02  0.8068394E-01
       -1   -1    0    0    0  501  0.00000000000E+00  0.00000000000E+00  0.14328906682E+04  0.14328906682E+04  0.50400001928E-02 0. -1.
        1   -1    0    0  501    0  0.00000000000E+00  0.00000000000E+00 -0.23860091606E+04  0.23860091606E+04  0.50400001928E-02 0.  1.
    10030    2    1    2    0    0  0.00000000000E+00  0.00000000000E+00 -0.95311849246E+03  0.38188998288E+04  0.36980482747E+04 0.  0.
        4    1    3    3  502    0 -0.18761463559E+02 -0.18669262518E+03 -0.23761519573E+04  0.23835490063E+04  0.12699999809E+01 0.  1.
       -4    1    3    3    0  502  0.18761463559E+02  0.18669262518E+03  0.14230334648E+04  0.14353508225E+04  0.12699999809E+01 0. -1.
</event>
<event>
 5   0  0.5181371E-08  0.3701612E+04  0.7818609E-02  0.8067605E-01
        1   -1    0    0  501    0  0.00000000000E+00  0.00000000000E+00  0.26717793771E+04  0.26717793771E+04  0.50400001928E-02 0. -1.
       -1   -1    0    0    0  501  0.00000000000E+00  0.00000000000E+00 -0.12820981472E+04  0.12820981472E+04  0.50400001928E-02 0.  1.
    10030    2    1    2    0    0  0.00000000000E+00  0.00000000000E+00  0.13896812299E+04  0.39538775242E+04  0.37016122914E+04 0.  0.
        5    1    3    3  502    0 -0.57341556455E+03  0.10358133072E+04  0.22143743935E+04  0.25110138712E+04  0.46999998093E+01 0. -1.
       -5    1    3    3    0  502  0.57341556455E+03 -0.10358133072E+04 -0.82469316357E+03  0.14428636530E+04  0.46999998093E+01 0.  1.
</event>
<event>
 5   0  0.1587026E-07  0.3712186E+04  0.7818609E-02  0.8065267E-01
        2   -1    0    0  501    0  0.00000000000E+00  0.00000000000E+00  0.26148458405E+04  0.26148458405E+04  0.25500000920E-02 0.  1.
       -2   -1    0    0    0  501  0.00000000000E+00  0.00000000000E+00 -0.13175085907E+04  0.13175085907E+04  0.25500000920E-02 0. -1.
    10030    2    1    2    0    0  0.00000000000E+00  0.00000000000E+00  0.12973372498E+04  0.39323544311E+04  0.37121863413E+04 0.  0.
        3    1    3    3  502    0  0.46085498057E+03 -0.15743014215E+04  0.15686651343E+04  0.22696965860E+04  0.10100000352E+00 0.  1.
       -3    1    3    3    0  502 -0.46085498057E+03  0.15743014215E+04 -0.27132788450E+03  0.16626578451E+04  0.10100000352E+00 0. -1.
</event>
<event>
 5   0  0.5177000E-08  0.3695254E+04  0.7818609E-02  0.8069014E-01
        1   -1    0    0  501    0  0.00000000000E+00  0.00000000000E+00  0.17998462785E+04  0.17998462785E+04  0.50400001928E-02 0.  1.
       -1   -1    0    0    0  501  0.00000000000E+00  0.00000000000E+00 -0.18966758187E+04  0.18966758187E+04  0.50400001928E-02 0. -1.
    10030    2    1    2    0    0  0.00000000000E+00  0.00000000000E+00 -0.96829540158E+02  0.36965220972E+04  0.36952536659E+04 0.  0.
        2    1    3    3  502    0 -0.11344700863E+04  0.11702221178E+04  0.82210387445E+03  0.18254580143E+04  0.25500000920E-02 0.  1.
       -2    1    3    3    0  502  0.11344700863E+04 -0.11702221178E+04 -0.91893341460E+03  0.18710640829E+04  0.25500000920E-02 0. -1.
</event>
<event>
 5   0  0.5177000E-08  0.3700435E+04  0.7818609E-02  0.8067865E-01
        1   -1    0    0  501    0  0.00000000000E+00  0.00000000000E+00  0.30707769132E+04  0.30707769132E+04  0.50400001928E-02 0. -1.
       -1   -1    0    0    0  501  0.00000000000E+00  0.00000000000E+00 -0.11148009490E+04  0.11148009490E+04  0.50400001928E-02 0.  1.
    10030    2    1    2    0    0  0.00000000000E+00  0.00000000000E+00  0.19559759641E+04  0.41855778622E+04  0.37004351188E+04 0.  0.
        4    1    3    3  502    0 -0.12004854802E+04  0.47067837224E+03  0.24788230407E+04  0.27941490294E+04  0.12699999809E+01 0. -1.
       -4    1    3    3    0  502  0.12004854802E+04 -0.47067837224E+03 -0.52284707659E+03  0.13914288328E+04  0.12699999809E+01 0.  1.
</event>
<event>
 5   0  0.5177000E-08  0.3586102E+04  0.7818609E-02  0.8093683E-01
        1   -1    0    0  501    0  0.00000000000E+00  0.00000000000E+00  0.23493721176E+04  0.23493721176E+04  0.50400001928E-02 0. -1.
       -1   -1    0    0    0  501  0.00000000000E+00  0.00000000000E+00 -0.13684644686E+04  0.13684644687E+04  0.50400001928E-02 0.  1.
    10030    2    1    2    0    0  0.00000000000E+00  0.00000000000E+00  0.98090764892E+03  0.37178365862E+04  0.35861022108E+04 0.  0.
        3    1    3    3  502    0  0.57846630473E+02  0.54762071629E+03 -0.12786292329E+04  0.13921664437E+04  0.10100000352E+00 0.  1.
       -3    1    3    3    0  502 -0.57846630473E+02 -0.54762071629E+03  0.22595368818E+04  0.23256701425E+04  0.10100000352E+00 0. -1.
</event>
<event>
 5   0  0.5177000E-08  0.3700812E+04  0.7818609E-02  0.8067782E-01
        1   -1    0    0  501    0  0.00000000000E+00  0.00000000000E+00  0.21639736357E+04  0.21639736358E+04  0.50400001928E-02 0. -1.
       -1   -1    0    0    0  501  0.00000000000E+00  0.00000000000E+00 -0.15822754677E+04  0.15822754677E+04  0.50400001928E-02 0.  1.
    10030    2    1    2    0    0  0.00000000000E+00  0.00000000000E+00  0.58169816801E+03  0.37462491035E+04  0.37008120172E+04 0.  0.
        4    1    3    3  502    0 -0.11003714984E+03 -0.80584733541E+03  0.19733332297E+04  0.21343719804E+04  0.12699999809E+01 0. -1.
       -4    1    3    3    0  502  0.11003714984E+03  0.80584733541E+03 -0.13916350617E+04  0.16118771231E+04  0.12699999809E+01 0.  1.
</event>
<event>
 5   0  0.1658770E-07  0.3689423E+04  0.7818609E-02  0.8070310E-01
       -2   -1    0    0    0  501  0.00000000000E+00  0.00000000000E+00  0.14952472628E+04  0.14952472628E+04  0.25500000920E-02 0. -1.
        2   -1    0    0  501    0  0.00000000000E+00  0.00000000000E+00 -0.22758510205E+04  0.22758510205E+04  0.25500000920E-02 0.  1.
    10030    2    1    2    0    0  0.00000000000E+00  0.00000000000E+00 -0.78060375773E+03  0.37710982833E+04  0.36894227240E+04 0.  0.
        2    1    3    3  502    0  0.79855054493E+03  0.10417330872E+04  0.93456736841E+03  0.16113059809E+04  0.25500000920E-02 0. -1.
       -2    1    3    3    0  502 -0.79855054493E+03 -0.10417330872E+04 -0.17151711261E+04  0.21597923025E+04  0.25500000920E-02 0.  1.
</event>
<event>
 5   0  0.1686284E-07  0.3682440E+04  0.7818609E-02  0.8071865E-01
       -2   -1    0    0    0  501  0.00000000000E+00  0.00000000000E+00  0.18753828104E+04  0.18753828104E+04  0.25500000920E-02 0. -1.
        2   -1    0    0  501    0  0.00000000000E+00  0.00000000000E+00 -0.18076793621E+04  0.18076793621E+04  0.25500000920E-02 0.  1.
    10030    2    1    2    0    0  0.00000000000E+00  0.00000000000E+00  0.67703448323E+02  0.36830621726E+04  0.36824398447E+04 0.  0.
        5    1    3    3  502    0  0.13514061924E+04 -0.10640097499E+04  0.69096600490E+03  0.18536104107E+04  0.46999998093E+01 0. -1.
       -5    1    3    3    0  502 -0.13514061924E+04  0.10640097499E+04 -0.62326255658E+03  0.18294517619E+04  0.46999998093E+01 0.  1.
</event>
<event>
 5   0  0.1587026E-07  0.3575928E+04  0.7818609E-02  0.8096028E-01
       -2   -1    0    0    0  501  0.00000000000E+00  0.00000000000E+00  0.18558204277E+04  0.18558204277E+04  0.25500000920E-02 0. -1.
        2   -1    0    0  501    0  0.00000000000E+00  0.00000000000E+00 -0.17225883817E+04  0.17225883817E+04  0.25500000920E-02 0.  1.
    10030    2    1    2    0    0  0.00000000000E+00  0.00000000000E+00  0.13323204594E+03  0.35784088094E+04  0.35759276879E+04 0.  0.
        3    1    3    3  502    0 -0.11298885687E+04 -0.18329159642E+03 -0.13078619050E+04  0.17380295624E+04  0.10100000352E+00 0.  1.
       -3    1    3    3    0  502  0.11298885687E+04  0.18329159642E+03  0.14410939509E+04  0.18403792470E+04  0.10100000352E+00 0. -1.
</event>
<event>
 5   0  0.1686284E-07  0.3700038E+04  0.7818609E-02  0.8067953E-01
       -2   -1    0    0    0  501  0.00000000000E+00  0.00000000000E+00  0.14211875389E+04  0.14211875389E+04  0.25500000920E-02 0.  1.
        2   -1    0    0  501    0  0.00000000000E+00  0.00000000000E+00 -0.24082465044E+04  0.24082465044E+04  0.25500000920E-02 0. -1.
    10030    2    1    2    0    0  0.00000000000E+00  0.00000000000E+00 -0.98705896552E+03  0.38294340433E+04  0.37000377959E+04 0.  0.
        5    1    3    3  502    0 -0.61234311140E+03  0.11051955625E+04  0.90507161452E+03  0.15542194294E+04  0.46999998093E+01 0.  1.
       -5    1    3    3    0  502  0.61234311140E+03 -0.11051955625E+04 -0.18921305800E+04  0.22752146139E+04  0.46999998093E+01 0. -1.
</event>
<event>
 5   0  0.5177000E-08  0.3704174E+04  0.7818609E-02  0.8067037E-01
        1   -1    0    0  501    0  0.00000000000E+00  0.00000000000E+00  0.19051401793E+04  0.19051401793E+04  0.50400001928E-02 0.  1.
       -1   -1    0    0    0  501  0.00000000000E+00  0.00000000000E+00 -0.18005115334E+04  0.18005115334E+04  0.50400001928E-02 0. -1.
    10030    2    1    2    0    0  0.00000000000E+00  0.00000000000E+00  0.10462864593E+03  0.37056517127E+04  0.37041743294E+04 0.  0.
        4    1    3    3  502    0  0.58772051929E+02 -0.16886342017E+04  0.81109269654E+03  0.18742498757E+04  0.12699999809E+01 0.  1.
       -4    1    3    3    0  502 -0.58772051929E+02  0.16886342017E+04 -0.70646405062E+03  0.18314018371E+04  0.12699999809E+01 0. -1.
</event>
<event>
 5   0  0.5181371E-08  0.3662182E+04  0.7818609E-02  0.8076395E-01
        1   -1    0    0  501    0  0.00000000000E+00  0.00000000000E+00  0.14786929057E+04  0.14786929057E+04  0.50400001928E-02 0. -1.
       -1   -1    0    0    0  501  0.00000000000E+00  0.00000000000E+00 -0.22674711056E+04  0.22674711056E+04  0.50400001928E-02 0.  1.
    10030    2    1    2    0    0  0.00000000000E+00  0.00000000000E+00 -0.78877819985E+03  0.37461640113E+04  0.36621815562E+04 0.  0.
        5    1    3    3  502    0  0.60639717883E+03 -0.12027126824E+04  0.87447427788E+03  0.16059149067E+04  0.46999998093E+01 0. -1.
       -5    1    3    3    0  502 -0.60639717883E+03  0.12027126824E+04 -0.16632524777E+04  0.21402491046E+04  0.46999998093E+01 0.  1.
</event>
<event>
 5   0  0.5177000E-08  0.3700768E+04  0.7818609E-02  0.8067792E-01
        1   -1    0    0  501    0  0.00000000000E+00  0.00000000000E+00  0.24462548519E+04  0.24462548519E+04  0.50400001928E-02 0.  1.
       -1   -1    0    0    0  501  0.00000000000E+00  0.00000000000E+00 -0.13996583472E+04  0.13996583472E+04  0.50400001928E-02 0. -1.
    10030    2    1    2    0    0  0.00000000000E+00  0.00000000000E+00  0.10465965046E+04  0.38459131991E+04  0.37007680408E+04 0.  0.
        3    1    3    3  502    0  0.12923667189E+04  0.12029513213E+04  0.10987461503E+04  0.20795544548E+04  0.10100000352E+00 0.  1.
       -3    1    3    3    0  502 -0.12923667189E+04 -0.12029513213E+04 -0.52149645704E+02  0.17663587442E+04  0.10100000352E+00 0. -1.
</event>
<event>
 5   0  0.5181371E-08  0.3683381E+04  0.7818609E-02  0.8071655E-01
        1   -1    0    0  501    0  0.00000000000E+00  0.00000000000E+00  0.17720036042E+04  0.17720036042E+04  0.50400001928E-02 0.  1.
       -1   -1    0    0    0  501  0.00000000000E+00  0.00000000000E+00 -0.19141182906E+04  0.19141182906E+04  0.50400001928E-02 0. -1.
    10030    2    1    2    0    0  0.00000000000E+00  0.00000000000E+00 -0.14211468637E+03  0.36861218949E+04  0.36833813324E+04 0.  0.
        5    1    3    3  502    0 -0.89855838226E+03  0.60291214974E+03  0.14203172788E+04  0.17855625134E+04  0.46999998093E+01 0.  1.
       -5    1    3    3    0  502  0.89855838226E+03 -0.60291214974E+03 -0.15624319652E+04  0.19005593815E+04  0.46999998093E+01 0. -1.
</event>
<event>
 5   0  0.1658770E-07  0.3684508E+04  0.7818609E-02  0.8071404E-01
       -2   -1    0    0    0  501  0.00000000000E+00  0.00000000000E+00  0.15658041892E+04  0.15658041892E+04  0.25500000920E-02 0.  1.
        2   -1    0    0  501    0  0.00000000000E+00  0.00000000000E+00 -0.21675119415E+04  0.21675119415E+04  0.25500000920E-02 0. -1.
    10030    2    1    2    0    0  0.00000000000E+00  0.00000000000E+00 -0.60170775231E+03  0.37333161308E+04  0.36845077165E+04 0.  0.
        2    1    3    3  502    0  0.43510204445E+03  0.16627411325E+03 -0.21068619769E+04  0.21577368374E+04  0.25500000920E-02 0. -1.
       -2    1    3    3    0  502 -0.43510204445E+03 -0.16627411325E+03  0.15051542246E+04  0.15755792934E+04  0.25500000920E-02 0.  1.
</event>
<event>
 5   0  0.1587026E-07  0.3687665E+04  0.7818609E-02  0.8070701E-01
        2   -1    0    0  501    0  0.00000000000E+00  0.00000000000E+00  0.22224697770E+04  0.22224697770E+04  0.25500000920E-02 0. -1.
       -2   -1    0    0    0  501  0.00000000000E+00  0.00000000000E+00 -0.15297028529E+04  0.15297028529E+04  0.25500000920E-02 0.  1.
    10030    2    1    2    0    0  0.00000000000E+00  0.00000000000E+00  0.69276692403E+03  0.37521726299E+04  0.36876650381E+04 0.  0.
        3    1    3    3  502    0 -0.59129508671E+03 -0.15978697891E+04 -0.37085919104E+03  0.17436611748E+04  0.10100000352E+00 0.  1.
       -3    1    3    3    0  502  0.59129508671E+03  0.15978697891E+04  0.10636261151E+04  0.20085114551E+04  0.10100000352E+00 0. -1.
</event>
<event>
 5   0  0.1587026E-07  0.3678955E+04  0.7818609E-02  0.8072642E-01
       -2   -1    0    0    0  501  0.00000000000E+00  0.00000000000E+00  0.20090846703E+04  0.20090846703E+04  0.25500000920E-02 0. -1.
        2   -1    0    0  501    0  0.00000000000E+00  0.00000000000E+00 -0.16841890387E+04  0.16841890387E+04  0.25500000920E-02 0.  1.
    10030    2    1    2    0    0  0.00000000000E+00  0.00000000000E+00  0.32489563156E+03  0.36932737090E+04  0.36789554929E+04 0.  0.
        3    1    3    3  502    0  0.16033583750E+04  0.82747721261E+03  0.52189405413E+03  0.18782571789E+04  0.10100000352E+00 0. -1.
       -3    1    3    3    0  502 -0.16033583750E+04 -0.82747721261E+03 -0.19699842257E+03  0.18150165302E+04  0.10100000352E+00 0.  1.
</event>
<event>
 5   0  0.5177000E-08  0.3701015E+04  0.7818609E-02  0.8067737E-01
        1   -1    0    0  501    0  0.00000000000E+00  0.00000000000E+00  0.20485249567E+04  0.20485249567E+04  0.50400001928E-02 0.  1.
       -1   -1    0    0    0  501  0.00000000000E+00  0.00000000000E+00 -0.16716309995E+04  0.16716309995E+04  0.50400001928E-02 0. -1.
    10030    2    1    2    0    0  0.00000000000E+00  0.00000000000E+00  0.37689395715E+03  0.37201559562E+04  0.37010148991E+04 0.  0.
        2    1    3    3  502    0 -0.17431915696E+04  0.32960119656E+03 -0.34060583683E+03  0.18064789324E+04  0.25500000920E-02 0. -1.
       -2    1    3    3    0  502  0.17431915696E+04 -0.32960119656E+03  0.71749979398E+03  0.19136770238E+04  0.25500000920E-02 0.  1.
</event>
<event>
 5   0  0.1666189E-07  0.3689199E+04  0.7818609E-02  0.8070360E-01
        2   -1    0    0  501    0  0.00000000000E+00  0.00000000000E+00  0.20403955029E+04  0.20403955029E+04  0.25500000920E-02 0. -1.
       -2   -1    0    0    0  501  0.00000000000E+00  0.00000000000E+00 -0.16675924784E+04  0.16675924784E+04  0.25500000920E-02 0.  1.
    10030    2    1    2    0    0  0.00000000000E+00  0.00000000000E+00  0.37280302451E+03  0.37079879813E+04  0.36891994761E+04 0.  0.
        4    1    3    3  502    0  0.60144338661E+03  0.53236048417E+03 -0.14825988812E+04  0.16861918301E+04  0.12699999809E+01 0.  1.
       -4    1    3    3    0  502 -0.60144338661E+03 -0.53236048417E+03  0.18554019057E+04  0.20217961512E+04  0.12699999809E+01 0. -1.
</event>
<event>
 5   0  0.1587026E-07  0.3700778E+04  0.7818609E-02  0.8067789E-01
       -2   -1    0    0    0  501  0.00000000000E+00  0.00000000000E+00  0.21200046761E+04  0.21200046761E+04  0.25500000920E-02 0. -1.
        2   -1    0    0  501    0  0.00000000000E+00  0.00000000000E+00 -0.16150621821E+04  0.16150621821E+04  0.25500000920E-02 0.  1.
    10030    2    1    2    0    0  0.00000000000E+00  0.00000000000E+00  0.50494249400E+03  0.37350668582E+04  0.37007779605E+04 0.  0.
        3    1    3    3  502    0  0.15989965975E+04 -0.51829314641E+03 -0.52833848146E+03  0.17619760116E+04  0.10100000352E+00 0.  1.
       -3    1    3    3    0  502 -0.15989965975E+04  0.51829314641E+03  0.10332809755E+04  0.19730908466E+04  0.10100000352E+00 0. -1.
</event>
<event>
 5   0  0.1587026E-07  0.3745892E+04  0.7818609E-02  0.8057867E-01
        2   -1    0    0  501    0  0.00000000000E+00  0.00000000000E+00  0.14717645243E+04  0.14717645243E+04  0.25500000920E-02 0. -1.
       -2   -1    0    0    0  501  0.00000000000E+00  0.00000000000E+00 -0.23834838738E+04  0.23834838738E+04  0.25500000920E-02 0.  1.
    10030    2    1    2    0    0  0.00000000000E+00  0.00000000000E+00 -0.91171934952E+03  0.38552483981E+04  0.37458921552E+04 0.  0.
        3    1    3    3  502    0 -0.62998964744E+03  0.11157922831E+04  0.95005335945E+03  0.15951428685E+04  0.10100000352E+00 0. -1.
       -3    1    3    3    0  502  0.62998964744E+03 -0.11157922831E+04 -0.18617727090E+04  0.22601055296E+04  0.10100000352E+00 0.  1.
</event>
<event>
 5   0  0.1587026E-07  0.3698761E+04  0.7818609E-02  0.8068237E-01
       -2   -1    0    0    0  501  0.00000000000E+00  0.00000000000E+00  0.24747608862E+04  0.24747608862E+04  0.25500000920E-02 0. -1.
        2   -1    0    0  501    0  0.00000000000E+00  0.00000000000E+00 -0.13820355641E+04  0.13820355641E+04  0.25500000920E-02 0.  1.
    10030    2    1    2    0    0  0.00000000000E+00  0.00000000000E+00  0.10927253222E+04  0.38567964503E+04  0.36987606342E+04 0.  0.
        3    1    3    3  502    0 -0.14666458524E+04 -0.19968930195E+03 -0.60973945332E+03  0.16008460529E+04  0.10100000352E+00 0.  1.
       -3    1    3    3    0  502  0.14666458524E+04  0.19968930195E+03  0.17024647755E+04  0.22559503975E+04  0.10100000352E+00 0. -1.
</event>
<event>
 5   0  0.1686284E-07  0.3680828E+04  0.7818609E-02  0.8072224E-01
        2   -1    0    0  501    0  0.00000000000E+00  0.00000000000E+00  0.11255916235E+04  0.11255916235E+04  0.25500000920E-02 0.  1.
       -2   -1    0    0    0  501  0.00000000000E+00  0.00000000000E+00 -0.30091938060E+04  0.30091938060E+04  0.25500000920E-02 0. -1.
    10030    2    1    2    0    0  0.00000000000E+00  0.00000000000E+00 -0.18836021825E+04  0.41347854295E+04  0.36808278099E+04 0.  0.
        5    1    3    3  502    0  0.18289211544E+04  0.65946750930E+02 -0.11602005643E+04  0.21668846306E+04  0.46999998093E+01 0.  1.
       -5    1    3    3    0  502 -0.18289211544E+04 -0.65946750930E+02 -0.72340161815E+03  0.19679007988E+04  0.46999998093E+01 0. -1.
</event>
<event>
 5   0  0.5177000E-08  0.3700506E+04  0.7818609E-02  0.8067850E-01
        1   -1    0    0  501    0  0.00000000000E+00  0.00000000000E+00  0.23931214175E+04  0.23931214175E+04  0.50400001928E-02 0.  1.
       -1   -1    0    0    0  501  0.00000000000E+00  0.00000000000E+00 -0.14305320945E+04  0.14305320945E+04  0.50400001928E-02 0. -1.
    10030    2    1    2    0    0  0.00000000000E+00  0.00000000000E+00  0.96258932303E+03  0.38236535120E+04  0.37005064485E+04 0.  0.
        3    1    3    3  502    0 -0.95314373428E+03  0.38093295302E+02  0.21194574685E+04  0.23242276240E+04  0.10100000352E+00 0.  1.
       -3    1    3    3    0  502  0.95314373428E+03 -0.38093295302E+02 -0.11568681455E+04  0.14994258880E+04  0.10100000352E+00 0. -1.
</event>
<event>
 5   0  0.5177000E-08  0.3700667E+04  0.7818609E-02  0.8067814E-01
        1   -1    0    0  501    0  0.00000000000E+00  0.00000000000E+00  0.19524468241E+04  0.19524468241E+04  0.50400001928E-02 0.  1.
       -1   -1    0    0    0  501  0.00000000000E+00  0.00000000000E+00 -0.17535603814E+04  0.17535603814E+04  0.50400001928E-02 0. -1.
    10030    2    1    2    0    0  0.00000000000E+00  0.00000000000E+00  0.19888644270E+03  0.37060072055E+04  0.37006666414E+04 0.  0.
        2    1    3    3  502    0 -0.11342756796E+03  0.10135757961E+04  0.16455402990E+04  0.19359763901E+04  0.25500000920E-02 0.  1.
       -2    1    3    3    0  502  0.11342756796E+03 -0.10135757961E+04 -0.14466538563E+04  0.17700308154E+04  0.25500000920E-02 0. -1.
</event>
<event>
 5   0  0.5177000E-08  0.3713959E+04  0.7818609E-02  0.8064875E-01
       -1   -1    0    0    0  501  0.00000000000E+00  0.00000000000E+00  0.13413032095E+04  0.13413032095E+04  0.50400001928E-02 0. -1.
        1   -1    0    0  501    0  0.00000000000E+00  0.00000000000E+00 -0.25709123387E+04  0.25709123387E+04  0.50400001928E-02 0.  1.
    10030    2    1    2    0    0  0.00000000000E+00  0.00000000000E+00 -0.12296091291E+04  0.39122155482E+04  0.37139590581E+04 0.  0.
        4    1    3    3  502    0  0.76074556441E+01 -0.18530439699E+04 -0.74183000975E+03  0.19960318645E+04  0.12699999809E+01 0.  1.
       -4    1    3    3    0  502 -0.76074556441E+01  0.18530439699E+04 -0.48777911937E+03  0.19161836837E+04  0.12699999809E+01 0. -1.
</event>
<event>
 5   0  0.1587026E-07  0.3701510E+04  0.7818609E-02  0.8067627E-01
       -2   -1    0    0    0  501  0.00000000000E+00  0.00000000000E+00  0.19312712660E+04  0.19312712660E+04  0.25500000920E-02 0. -1.
        2   -1    0    0  501    0  0.00000000000E+00  0.00000000000E+00 -0.17735955632E+04  0.17735955632E+04  0.25500000920E-02 0.  1.
    10030    2    1    2    0    0  0.00000000000E+00  0.00000000000E+00  0.15767570277E+03  0.37048668292E+04  0.37015100425E+04 0.  0.
        3    1    3    3  502    0 -0.42688722867E+03  0.97369041216E+03 -0.14374579019E+04  0.17879012709E+04  0.10100000352E+00 0.  1.
       -3    1    3    3    0  502  0.42688722867E+03 -0.97369041216E+03  0.15951336046E+04  0.19169655583E+04  0.10100000352E+00 0. -1.
</event>
<event>
 5   0  0.1587026E-07  0.3702066E+04  0.7818609E-02  0.8067504E-01
        2   -1    0    0  501    0  0.00000000000E+00  0.00000000000E+00  0.21809204911E+04  0.21809204911E+04  0.25500000920E-02 0. -1.
       -2   -1    0    0    0  501  0.00000000000E+00  0.00000000000E+00 -0.15710444159E+04  0.15710444159E+04  0.25500000920E-02 0.  1.
    10030    2    1    2    0    0  0.00000000000E+00  0.00000000000E+00  0.60987607520E+03  0.37519649071E+04  0.37020658877E+04 0.  0.
        3    1    3    3  502    0 -0.93081369375E+03 -0.14521109060E+04  0.98576850501E+03  0.19866503898E+04  0.10100000352E+00 0. -1.
       -3    1    3    3    0  502  0.93081369375E+03  0.14521109060E+04 -0.37589242982E+03  0.17653145172E+04  0.10100000352E+00 0.  1.
</event>
<event>
 5   0  0.1558258E-07  0.3732496E+04  0.7818609E-02  0.8060798E-01
       -2   -1    0    0    0  501  0.00000000000E+00  0.00000000000E+00  0.11907658287E+04  0.11907658288E+04  0.25500000920E-02 0. -1.
        2   -1    0    0  501    0  0.00000000000E+00  0.00000000000E+00 -0.29249093326E+04  0.29249093326E+04  0.25500000920E-02 0.  1.
    10030    2    1    2    0    0  0.00000000000E+00  0.00000000000E+00 -0.17341435038E+04  0.41156751613E+04  0.37324962615E+04 0.  0.
        1    1    3    3  502    0  0.16854551369E+04 -0.68004616714E+03 -0.13344491874E+04  0.22547674918E+04  0.50400001928E-02 0.  1.
       -1    1    3    3    0  502 -0.16854551369E+04  0.68004616714E+03 -0.39969431645E+03  0.18609076696E+04  0.50400001928E-02 0. -1.
</event>
<event>
 5   0  0.5177000E-08  0.3705077E+04  0.7818609E-02  0.8066838E-01
       -1   -1    0    0    0  501  0.00000000000E+00  0.00000000000E+00  0.16017066253E+04  0.16017066253E+04  0.50400001928E-02 0.  1.
        1   -1    0    0  501    0  0.00000000000E+00  0.00000000000E+00 -0.21426516600E+04  0.21426516600E+04  0.50400001928E-02 0. -1.
    10030    2    1    2    0    0  0.00000000000E+00  0.00000000000E+00 -0.54094503468E+03  0.37443582854E+04  0.37050772514E+04 0.  0.
        1    1    3    3  502    0 -0.26802915340E+03  0.99595043846E+03 -0.18256646220E+04  0.20968567464E+04  0.50400001928E-02 0. -1.
       -1    1    3    3    0  502  0.26802915340E+03 -0.99595043846E+03  0.12847195873E+04  0.16475015390E+04  0.50400001928E-02 0.  1.
</event>
<event>
 5   0  0.1658770E-07  0.3701251E+04  0.7818609E-02  0.8067685E-01
       -2   -1    0    0    0  501  0.00000000000E+00  0.00000000000E+00  0.10686303145E+04  0.10686303145E+04  0.25500000920E-02 0. -1.
        2   -1    0    0  501    0  0.00000000000E+00  0.00000000000E+00 -0.32048633150E+04  0.32048633150E+04  0.25500000920E-02 0.  1.
    10030    2    1    2    0    0  0.00000000000E+00  0.00000000000E+00 -0.21362330005E+04  0.42734936295E+04  0.37012506493E+04 0.  0.
        2    1    3    3  502    0  0.18264671870E+04 -0.16235442341E+03 -0.13567055645E+04  0.22810066490E+04  0.25500000920E-02 0.  1.
       -2    1    3    3    0  502 -0.18264671870E+04  0.16235442341E+03 -0.77952743594E+03  0.19924869805E+04  0.25500000920E-02 0. -1.
</event>
<event>
 5   0  0.1587026E-07  0.3713256E+04  0.7818609E-02  0.8065031E-01
        2   -1    0    0  501    0  0.00000000000E+00  0.00000000000E+00  0.16421228903E+04  0.16421228903E+04  0.25500000920E-02 0.  1.
       -2   -1    0    0    0  501  0.00000000000E+00  0.00000000000E+00 -0.20991527618E+04  0.20991527618E+04  0.25500000920E-02 0. -1.
    10030    2    1    2    0    0  0.00000000000E+00  0.00000000000E+00 -0.45702987159E+03  0.37412756521E+04  0.37132556068E+04 0.  0.
        3    1    3    3  502    0  0.41085976208E+03 -0.14815603311E+04 -0.12771568504E+04  0.19987386997E+04  0.10100000352E+00 0. -1.
       -3    1    3    3    0  502 -0.41085976208E+03  0.14815603311E+04  0.82012697884E+03  0.17425369524E+04  0.10100000352E+00 0.  1.
</event>
<event>
 5   0  0.5177000E-08  0.3707687E+04  0.7818609E-02  0.8066260E-01
        1   -1    0    0  501    0  0.00000000000E+00  0.00000000000E+00  0.10921629610E+04  0.10921629610E+04  0.50400001928E-02 0. -1.
       -1   -1    0    0    0  501  0.00000000000E+00  0.00000000000E+00 -0.31467246970E+04  0.31467246971E+04  0.50400001928E-02 0.  1.
    10030    2    1    2    0    0  0.00000000000E+00  0.00000000000E+00 -0.20545617361E+04  0.42388876580E+04  0.37076872374E+04 0.  0.
        1    1    3    3  502    0 -0.11660551812E+04  0.43238534988E+03 -0.25990565340E+04  0.28812734413E+04  0.50400001928E-02 0.  1.
       -1    1    3    3    0  502  0.11660551812E+04 -0.43238534988E+03  0.54449479797E+03  0.13576142167E+04  0.50400001928E-02 0. -1.
</event>
<event>
 5   0  0.1666189E-07  0.3706161E+04  0.7818609E-02  0.8066598E-01
        2   -1    0    0  501    0  0.00000000000E+00  0.00000000000E+00  0.20434601217E+04  0.20434601217E+04  0.25500000920E-02 0. -1.
       -2   -1    0    0    0  501  0.00000000000E+00  0.00000000000E+00 -0.16804380495E+04  0.16804380495E+04  0.25500000920E-02 0.  1.
    10030    2    1    2    0    0  0.00000000000E+00  0.00000000000E+00  0.36302207221E+03  0.37238981712E+04  0.37061614326E+04 0.  0.
        4    1    3    3  502    0  0.18228063915E+04 -0.11595039447E+02 -0.15347455843E+03  0.18292932075E+04  0.12699999809E+01 0.  1.
       -4    1    3    3    0  502 -0.18228063915E+04  0.11595039447E+02  0.51649663065E+03  0.18946049637E+04  0.12699999809E+01 0. -1.
</event>
<event>
 5   0  0.5177000E-08  0.3671238E+04  0.7818609E-02  0.8074366E-01
       -3   -1    0    0    0  501  0.00000000000E+00  0.00000000000E+00  0.18155474829E+04  0.18155474857E+04  0.10100000352E+00 0. -1.
        3   -1    0    0  501    0  0.00000000000E+00  0.00000000000E+00 -0.18559127798E+04  0.18559127826E+04  0.10100000352E+00 0.  1.
    10030    2    1    2    0    0  0.00000000000E+00  0.00000000000E+00 -0.40365296916E+02  0.36714602683E+04  0.36712383666E+04 0.  0.
        1    1    3    3  502    0  0.41789474799E+03  0.16573651632E+04 -0.68955297978E+03  0.18430894218E+04  0.50400001928E-02 0. -1.
       -1    1    3    3    0  502 -0.41789474799E+03 -0.16573651632E+04  0.64918768287E+03  0.18283708465E+04  0.50400001928E-02 0.  1.
</event>
<event>
 5   0  0.1686284E-07  0.3691101E+04  0.7818609E-02  0.8069937E-01
        2   -1    0    0  501    0  0.00000000000E+00  0.00000000000E+00  0.23073727090E+04  0.23073727090E+04  0.25500000920E-02 0. -1.
       -2   -1    0    0    0  501  0.00000000000E+00  0.00000000000E+00 -0.14761626095E+04  0.14761626095E+04  0.25500000920E-02 0.  1.
    10030    2    1    2    0    0  0.00000000000E+00  0.00000000000E+00  0.83121009945E+03  0.37835353185E+04  0.36911013636E+04 0.  0.
        5    1    3    3  502    0  0.71184239835E+02  0.79519796077E+03  0.21211930917E+04  0.22664706517E+04  0.46999998093E+01 0. -1.
       -5    1    3    3    0  502 -0.71184239835E+02 -0.79519796077E+03 -0.12899829923E+04  0.15170646668E+04  0.46999998093E+01 0.  1.
</event>
<event>
 5   0  0.1666189E-07  0.3694755E+04  0.7818609E-02  0.8069125E-01
       -2   -1    0    0    0  501  0.00000000000E+00  0.00000000000E+00  0.18287502424E+04  0.18287502424E+04  0.25500000920E-02 0.  1.
        2   -1    0    0  501    0  0.00000000000E+00  0.00000000000E+00 -0.18661942529E+04  0.18661942529E+04  0.25500000920E-02 0. -1.
    10030    2    1    2    0    0  0.00000000000E+00  0.00000000000E+00 -0.37444010564E+02  0.36949444953E+04  0.36947547644E+04 0.  0.
        4    1    3    3  502    0  0.93451246091E+03 -0.24811055425E+03 -0.15929467953E+04  0.18634252044E+04  0.12699999809E+01 0. -1.
       -4    1    3    3    0  502 -0.93451246091E+03  0.24811055425E+03  0.15555027847E+04  0.18315192909E+04  0.12699999809E+01 0.  1.
</event>
<event>
 5   0  0.1587026E-07  0.3707830E+04  0.7818609E-02  0.8066229E-01
        2   -1    0    0  501    0  0.00000000000E+00  0.00000000000E+00  0.15460693145E+04  0.15460693145E+04  0.25500000920E-02 0.  1.
       -2   -1    0    0    0  501  0.00000000000E+00  0.00000000000E+00 -0.22230579803E+04  0.22230579803E+04  0.25500000920E-02 0. -1.
    10030    2    1    2    0    0  0.00000000000E+00  0.00000000000E+00 -0.67698866583E+03  0.37691272947E+04  0.37078304856E+04 0.  0.
        3    1    3    3  502    0  0.16572619862E+04 -0.37821825741E+03 -0.10906147247E+04  0.20196551263E+04  0.10100000352E+00 0. -1.
       -3    1    3    3    0  502 -0.16572619862E+04  0.37821825741E+03  0.41362605892E+03  0.17494721684E+04  0.10100000352E+00 0.  1.
</event>
<event>
 5   0  0.1587026E-07  0.3694964E+04  0.7818609E-02  0.8069079E-01
        2   -1    0    0  501    0  0.00000000000E+00  0.00000000000E+00  0.14974676910E+04  0.14974676910E+04  0.25500000920E-02 0.  1.
       -2   -1    0    0    0  501  0.00000000000E+00  0.00000000000E+00 -0.22793072848E+04  0.22793072848E+04  0.25500000920E-02 0. -1.
    10030    2    1    2    0    0  0.00000000000E+00  0.00000000000E+00 -0.78183959377E+03  0.37767749758E+04  0.36949636084E+04 0.  0.
        3    1    3    3  502    0 -0.96526842217E+03  0.15336453926E+04 -0.75857493518E+03  0.19644966937E+04  0.10100000352E+00 0. -1.
       -3    1    3    3    0  502  0.96526842217E+03 -0.15336453926E+04 -0.23264658585E+02  0.18122782821E+04  0.10100000352E+00 0.  1.
</event>
<event>
 5   0  0.1666189E-07  0.3705166E+04  0.7818609E-02  0.8066818E-01
        2   -1    0    0  501    0  0.00000000000E+00  0.00000000000E+00  0.18064313248E+04  0.18064313248E+04  0.25500000920E-02 0.  1.
       -2   -1    0    0    0  501  0.00000000000E+00  0.00000000000E+00 -0.18999142882E+04  0.18999142882E+04  0.25500000920E-02 0. -1.
    10030    2    1    2    0    0  0.00000000000E+00  0.00000000000E+00 -0.93482963387E+02  0.37063456130E+04  0.37051664927E+04 0.  0.
        4    1    3    3  502    0  0.18375309541E+04 -0.23565072033E+03 -0.43304945611E+02  0.18530861288E+04  0.12699999809E+01 0. -1.
       -4    1    3    3    0  502 -0.18375309541E+04  0.23565072033E+03 -0.50178017776E+02  0.18532594842E+04  0.12699999809E+01 0.  1.
</event>
<event>
 5   0  0.1587026E-07  0.3693935E+04  0.7818609E-02  0.8069307E-01
       -2   -1    0    0    0  501  0.00000000000E+00  0.00000000000E+00  0.27599244096E+04  0.27599244096E+04  0.25500000920E-02 0. -1.
        2   -1    0    0  501    0  0.00000000000E+00  0.00000000000E+00 -0.12360081298E+04  0.12360081298E+04  0.25500000920E-02 0.  1.
    10030    2    1    2    0    0  0.00000000000E+00  0.00000000000E+00  0.15239162798E+04  0.39959325394E+04  0.36939350334E+04 0.  0.
        3    1    3    3  502    0 -0.26142423525E+03 -0.17438392066E+04  0.13564030992E+04  0.22246678824E+04  0.10100000352E+00 0. -1.
       -3    1    3    3    0  502  0.26142423525E+03  0.17438392066E+04  0.16751318058E+03  0.17712646570E+04  0.10100000352E+00 0.  1.
</event>
<event>
 5   0  0.5181371E-08  0.3698497E+04  0.7818609E-02  0.8068295E-01
       -1   -1    0    0    0  501  0.00000000000E+00  0.00000000000E+00  0.17853477934E+04  0.17853477934E+04  0.50400001928E-02 0. -1.
        1   -1    0    0  501    0  0.00000000000E+00  0.00000000000E+00 -0.19154368068E+04  0.19154368069E+04  0.50400001928E-02 0.  1.
    10030    2    1    2    0    0  0.00000000000E+00  0.00000000000E+00 -0.13008901344E+03  0.37007846003E+04  0.36984974660E+04 0.  0.
        5    1    3    3  502    0 -0.62540412481E+03  0.12852870729E+04 -0.12390584365E+04  0.18916609311E+04  0.46999998093E+01 0.  1.
       -5    1    3    3    0  502  0.62540412481E+03 -0.12852870729E+04  0.11089694231E+04  0.18091236692E+04  0.46999998093E+01 0. -1.
</event>
<event>
 5   0  0.1558258E-07  0.3693993E+04  0.7818609E-02  0.8069294E-01
       -2   -1    0    0    0  501  0.00000000000E+00  0.00000000000E+00  0.17757173497E+04  0.17757173497E+04  0.25500000920E-02 0. -1.
        2   -1    0    0  501    0  0.00000000000E+00  0.00000000000E+00 -0.19211368522E+04  0.19211368522E+04  0.25500000920E-02 0.  1.
    10030    2    1    2    0    0  0.00000000000E+00  0.00000000000E+00 -0.14541950250E+03  0.36968542019E+04  0.36939929829E+04 0.  0.
        1    1    3    3  502    0 -0.85208291305E+02 -0.17255443895E+04  0.58096700893E+03  0.18227140638E+04  0.50400001928E-02 0. -1.
       -1    1    3    3    0  502  0.85208291305E+02  0.17255443895E+04 -0.72638651143E+03  0.18741401380E+04  0.50400001928E-02 0.  1.
</event>
<event>
 5   0  0.5177000E-08  0.3699187E+04  0.7818609E-02  0.8068142E-01
        1   -1    0    0  501    0  0.00000000000E+00  0.00000000000E+00  0.28322310310E+04  0.28322310310E+04  0.50400001928E-02 0.  1.
       -1   -1    0    0    0  501  0.00000000000E+00  0.00000000000E+00 -0.12078802573E+04  0.12078802573E+04  0.50400001928E-02 0. -1.
    10030    2    1    2    0    0  0.00000000000E+00  0.00000000000E+00  0.16243507738E+04  0.40401112883E+04  0.36991869087E+04 0.  0.
        3    1    3    3  502    0 -0.32100792660E+03 -0.10549385537E+04 -0.80962244813E+03  0.13680021782E+04  0.10100000352E+00 0. -1.
       -3    1    3    3    0  502  0.32100792660E+03  0.10549385537E+04  0.24339732219E+04  0.26721091101E+04  0.10100000352E+00 0.  1.
</event>
<event>
 5   0  0.1666189E-07  0.3699329E+04  0.7818609E-02  0.8068111E-01
        2   -1    0    0  501    0  0.00000000000E+00  0.00000000000E+00  0.17492210306E+04  0.17492210306E+04  0.25500000920E-02 0.  1.
       -2   -1    0    0    0  501  0.00000000000E+00  0.00000000000E+00 -0.19558756712E+04  0.19558756712E+04  0.25500000920E-02 0. -1.
    10030    2    1    2    0    0  0.00000000000E+00  0.00000000000E+00 -0.20665464065E+03  0.37050967018E+04  0.36993290513E+04 0.  0.
        4    1    3    3  502    0 -0.10889034073E+04  0.14191438696E+04 -0.57478119460E+03  0.18788440562E+04  0.12699999809E+01 0.  1.
       -4    1    3    3    0  502  0.10889034073E+04 -0.14191438696E+04  0.36812655395E+03  0.18262526456E+04  0.12699999809E+01 0. -1.
</event>
<event>
 5   0  0.1666189E-07  0.3661079E+04  0.7818609E-02  0.8076642E-01
        2   -1    0    0  501    0  0.00000000000E+00  0.00000000000E+00  0.11717966014E+04  0.11717966014E+04  0.25500000920E-02 0. -1.
       -2   -1    0    0    0  501  0.00000000000E+00  0.00000000000E+00 -0.28596047409E+04  0.28596047409E+04  0.25500000920E-02 0.  1.
    10030    2    1    2    0    0  0.00000000000E+00  0.00000000000E+00 -0.16878081395E+04  0.40314013424E+04  0.36610791397E+04 0.  0.
        4    1    3    3  502    0 -0.42408798557E+03  0.17534550228E+04 -0.50198225782E+03  0.18725498489E+04  0.12699999809E+01 0. -1.
       -4    1    3    3    0  502  0.42408798557E+03 -0.17534550228E+04 -0.11858258817E+04  0.21588514935E+04  0.12699999809E+01 0.  1.
</event>
<event>
 5   0  0.1666189E-07  0.3693553E+04  0.7818609E-02  0.8069392E-01
       -2   -1    0    0    0  501  0.00000000000E+00  0.00000000000E+00  0.11096537624E+04  0.11096537624E+04  0.25500000920E-02 0.  1.
        2   -1    0    0  501    0  0.00000000000E+00  0.00000000000E+00 -0.30735571531E+04  0.30735571531E+04  0.25500000920E-02 0. -1.
    10030    2    1    2    0    0  0.00000000000E+00  0.00000000000E+00 -0.19639033907E+04  0.41832109155E+04  0.36935534429E+04 0.  0.
        4    1    3    3  502    0  0.11280563170E+04  0.56486897037E+03 -0.25094512215E+04  0.28087248092E+04  0.12699999809E+01 0. -1.
       -4    1    3    3    0  502 -0.11280563170E+04 -0.56486897037E+03  0.54554783072E+03  0.13744861063E+04  0.12699999809E+01 0.  1.
</event>
<event>
 5   0  0.1558258E-07  0.3713794E+04  0.7818609E-02  0.8064912E-01
       -2   -1    0    0    0  501  0.00000000000E+00  0.00000000000E+00  0.13248313101E+04  0.13248313101E+04  0.25500000920E-02 0. -1.
        2   -1    0    0  501    0  0.00000000000E+00  0.00000000000E+00 -0.26026458688E+04  0.26026458688E+04  0.25500000920E-02 0.  1.
    10030    2    1    2    0    0  0.00000000000E+00  0.00000000000E+00 -0.12778145587E+04  0.39274771789E+04  0.37137941441E+04 0.  0.
        1    1    3    3  502    0 -0.67274173438E+03 -0.15967989816E+04  0.67127474734E+02  0.17340284100E+04  0.50400001928E-02 0. -1.
       -1    1    3    3    0  502  0.67274173438E+03  0.15967989816E+04 -0.13449420335E+04  0.21934487690E+04  0.50400001928E-02 0.  1.
</event>
<event>
 5   0  0.5177000E-08  0.3701367E+04  0.7818609E-02  0.8067659E-01
       -1   -1    0    0    0  501  0.00000000000E+00  0.00000000000E+00  0.18533973990E+04  0.18533973990E+04  0.50400001928E-02 0. -1.
        1   -1    0    0  501    0  0.00000000000E+00  0.00000000000E+00 -0.18479735330E+04  0.18479735330E+04  0.50400001928E-02 0.  1.
    10030    2    1    2    0    0  0.00000000000E+00  0.00000000000E+00  0.54238659554E+01  0.37013709320E+04  0.37013669580E+04 0.  0.
        4    1    3    3  502    0  0.15306809467E+04  0.95355917973E+03 -0.41294276472E+03  0.18500763794E+04  0.12699999809E+01 0. -1.
       -4    1    3    3    0  502 -0.15306809467E+04 -0.95355917973E+03  0.41836663067E+03  0.18512945526E+04  0.12699999809E+01 0.  1.
</event>
<event>
 5   0  0.5181371E-08  0.3817687E+04  0.7818609E-02  0.8042370E-01
       -1   -1    0    0    0  501  0.00000000000E+00  0.00000000000E+00  0.18166336438E+04  0.18166336438E+04  0.50400001928E-02 0. -1.
        1   -1    0    0  501    0  0.00000000000E+00  0.00000000000E+00 -0.20057338193E+04  0.20057338193E+04  0.50400001928E-02 0.  1.
    10030    2    1    2    0    0  0.00000000000E+00  0.00000000000E+00 -0.18910017550E+03  0.38223674632E+04  0.38176870154E+04 0.  0.
        5    1    3    3  502    0 -0.85694772953E+03 -0.14875376202E+04 -0.93015932594E+03  0.19525229945E+04  0.46999998093E+01 0.  1.
       -5    1    3    3    0  502  0.85694772953E+03  0.14875376202E+04  0.74105915044E+03  0.18698444687E+04  0.46999998093E+01 0. -1.
</event>
<event>
 5   0  0.1666189E-07  0.3666502E+04  0.7818609E-02  0.8075426E-01
        2   -1    0    0  501    0  0.00000000000E+00  0.00000000000E+00  0.30462411125E+04  0.30462411125E+04  0.25500000920E-02 0.  1.
       -2   -1    0    0    0  501  0.00000000000E+00  0.00000000000E+00 -0.11032645703E+04  0.11032645703E+04  0.25500000920E-02 0. -1.
    10030    2    1    2    0    0  0.00000000000E+00  0.00000000000E+00  0.19429765422E+04  0.41495056828E+04  0.36665023616E+04 0.  0.
        4    1    3    3  502    0  0.14186799000E+04 -0.11571485485E+04  0.10798210425E+04  0.21254788916E+04  0.12699999809E+01 0. -1.
       -4    1    3    3    0  502 -0.14186799000E+04  0.11571485485E+04  0.86315549978E+03  0.20240267912E+04  0.12699999809E+01 0.  1.
</event>
<event>
 5   0  0.1558258E-07  0.3698560E+04  0.7818609E-02  0.8068281E-01
       -2   -1    0    0    0  501  0.00000000000E+00  0.00000000000E+00  0.18566224492E+04  0.18566224492E+04  0.25500000920E-02 0.  1.
        2   -1    0    0  501    0  0.00000000000E+00  0.00000000000E+00 -0.18419666773E+04  0.18419666773E+04  0.25500000920E-02 0. -1.
    10030    2    1    2    0    0  0.00000000000E+00  0.00000000000E+00  0.14655771885E+02  0.36985891264E+04  0.36985600894E+04 0.  0.
        1    1    3    3  502    0 -0.69349169146E+03 -0.27575711573E+03 -0.16846853891E+04  0.18425899092E+04  0.50400001928E-02 0. -1.
       -1    1    3    3    0  502  0.69349169146E+03  0.27575711573E+03  0.16993411610E+04  0.18559992173E+04  0.50400001928E-02 0.  1.
</event>
<event>
 5   0  0.1658770E-07  0.3680497E+04  0.7818609E-02  0.8072298E-01
       -2   -1    0    0    0  501  0.00000000000E+00  0.00000000000E+00  0.12552842579E+04  0.12552842579E+04  0.25500000920E-02 0. -1.
        2   -1    0    0  501    0  0.00000000000E+00  0.00000000000E+00 -0.26978063976E+04  0.26978063976E+04  0.25500000920E-02 0.  1.
    10030    2    1    2    0    0  0.00000000000E+00  0.00000000000E+00 -0.14425221397E+04  0.39530906555E+04  0.36804966522E+04 0.  0.
        2    1    3    3  502    0  0.14707804919E+04  0.92663941325E+03 -0.13698555468E+04  0.22132239102E+04  0.25500000920E-02 0.  1.
       -2    1    3    3    0  502 -0.14707804919E+04 -0.92663941325E+03 -0.72666592960E+02  0.17398667453E+04  0.25500000920E-02 0. -1.
</event>
<event>
 5   0  0.1686284E-07  0.3655214E+04  0.7818609E-02  0.8077960E-01
       -2   -1    0    0    0  501  0.00000000000E+00  0.00000000000E+00  0.14653477185E+04  0.14653477185E+04  0.25500000920E-02 0.  1.
        2   -1    0    0  501    0  0.00000000000E+00  0.00000000000E+00 -0.22794228684E+04  0.22794228684E+04  0.25500000920E-02 0. -1.
    10030    2    1    2    0    0  0.00000000000E+00  0.00000000000E+00 -0.81407514992E+03  0.37447705869E+04  0.36552138650E+04 0.  0.
        5    1    3    3  502    0 -0.60525138886E+03 -0.58884800291E+03  0.12534931188E+04  0.15114027601E+04  0.46999998093E+01 0.  1.
       -5    1    3    3    0  502  0.60525138886E+03  0.58884800291E+03 -0.20675682687E+04  0.22333678269E+04  0.46999998093E+01 0. -1.
</event>
<event>
 5   0  0.1658770E-07  0.3692584E+04  0.7818609E-02  0.8069607E-01
        2   -1    0    0  501    0  0.00000000000E+00  0.00000000000E+00  0.18493359008E+04  0.18493359008E+04  0.25500000920E-02 0. -1.
       -2   -1    0    0    0  501  0.00000000000E+00  0.00000000000E+00 -0.18432529470E+04  0.18432529470E+04  0.25500000920E-02 0.  1.
    10030    2    1    2    0    0  0.00000000000E+00  0.00000000000E+00  0.60829537706E+01  0.36925888478E+04  0.36925838375E+04 0.  0.
        2    1    3    3  502    0 -0.99221038500E+03  0.39112832977E+03 -0.15040541387E+04  0.18438117232E+04  0.25500000920E-02 0.  1.
       -2    1    3    3    0  502  0.99221038500E+03 -0.39112832977E+03  0.15101370925E+04  0.18487771246E+04  0.25500000920E-02 0. -1.
</event>
<event>
 5   0  0.5177000E-08  0.3694516E+04  0.7818609E-02  0.8069178E-01
       -1   -1    0    0    0  501  0.00000000000E+00  0.00000000000E+00  0.25742421048E+04  0.25742421048E+04  0.50400001928E-02 0. -1.
        1   -1    0    0  501    0  0.00000000000E+00  0.00000000000E+00 -0.13255795385E+04  0.13255795385E+04  0.50400001928E-02 0.  1.
    10030    2    1    2    0    0  0.00000000000E+00  0.00000000000E+00  0.12486625664E+04  0.38998216433E+04  0.36945162938E+04 0.  0.
        3    1    3    3  502    0  0.18639328860E+03  0.11453354986E+04  0.21415008111E+04  0.24356850364E+04  0.10100000352E+00 0. -1.
       -3    1    3    3    0  502 -0.18639328860E+03 -0.11453354986E+04 -0.89283824473E+03  0.14641366069E+04  0.10100000352E+00 0.  1.
</event>
<event>
 5   0  0.1558258E-07  0.3720267E+04  0.7818609E-02  0.8063485E-01
        2   -1    0    0  501    0  0.00000000000E+00  0.00000000000E+00  0.19022725763E+04  0.19022725763E+04  0.25500000920E-02 0. -1.
       -2   -1    0    0    0  501  0.00000000000E+00  0.00000000000E+00 -0.18189279869E+04  0.18189279869E+04  0.25500000920E-02 0.  1.
    10030    2    1    2    0    0  0.00000000000E+00  0.00000000000E+00  0.83344589398E+02  0.37212005633E+04  0.37202671022E+04 0.  0.
        1    1    3    3  502    0  0.16357119605E+03 -0.99636806307E+03 -0.15209591006E+04  0.18256016650E+04  0.50400001928E-02 0.  1.
       -1    1    3    3    0  502 -0.16357119605E+03  0.99636806307E+03  0.16043036900E+04  0.18955988983E+04  0.50400001928E-02 0. -1.
</event>
<event>
 5   0  0.5177000E-08  0.3711230E+04  0.7818609E-02  0.8065478E-01
        1   -1    0    0  501    0  0.00000000000E+00  0.00000000000E+00  0.20683544413E+04  0.20683544413E+04  0.50400001928E-02 0. -1.
       -1   -1    0    0    0  501  0.00000000000E+00  0.00000000000E+00 -0.16647564404E+04  0.16647564404E+04  0.50400001928E-02 0.  1.
    10030    2    1    2    0    0  0.00000000000E+00  0.00000000000E+00  0.40359800083E+03  0.37331108817E+04  0.37112296491E+04 0.  0.
        2    1    3    3  502    0  0.26388850437E+02  0.70196316648E+03  0.19294403702E+04  0.20533360174E+04  0.25500000920E-02 0. -1.
       -2    1    3    3    0  502 -0.26388850437E+02 -0.70196316648E+03 -0.15258423693E+04  0.16797748642E+04  0.25500000920E-02 0.  1.
</event>
<event>
 5   0  0.5177000E-08  0.3705770E+04  0.7818609E-02  0.8066684E-01
        1   -1    0    0  501    0  0.00000000000E+00  0.00000000000E+00  0.28858866373E+04  0.28858866373E+04  0.50400001928E-02 0. -1.
       -1   -1    0    0    0  501  0.00000000000E+00  0.00000000000E+00 -0.11896457302E+04  0.11896457302E+04  0.50400001928E-02 0.  1.
    10030    2    1    2    0    0  0.00000000000E+00  0.00000000000E+00  0.16962409070E+04  0.40755323675E+04  0.37057699421E+04 0.  0.
        4    1    3    3  502    0 -0.38147136840E+03 -0.65256840954E+03 -0.10123667312E+04  0.12634294382E+04  0.12699999809E+01 0.  1.
       -4    1    3    3    0  502  0.38147136840E+03  0.65256840954E+03  0.27086076382E+04  0.28121029293E+04  0.12699999809E+01 0. -1.
</event>
<event>
 5   0  0.1587026E-07  0.3681601E+04  0.7818609E-02  0.8072052E-01
       -2   -1    0    0    0  501  0.00000000000E+00  0.00000000000E+00  0.18463174999E+04  0.18463174999E+04  0.25500000920E-02 0.  1.
        2   -1    0    0  501    0  0.00000000000E+00  0.00000000000E+00 -0.18352999382E+04  0.18352999382E+04  0.25500000920E-02 0. -1.
    10030    2    1    2    0    0  0.00000000000E+00  0.00000000000E+00  0.11017561706E+02  0.36816174380E+04  0.36816009525E+04 0.  0.
        3    1    3    3  502    0  0.24648501673E+03 -0.26296784507E+03 -0.17996694971E+04  0.18354065654E+04  0.10100000352E+00 0. -1.
       -3    1    3    3    0  502 -0.24648501673E+03  0.26296784507E+03  0.18106870589E+04  0.18462108727E+04  0.10100000352E+00 0.  1.
</event>
<event>
 5   0  0.1686284E-07  0.3728245E+04  0.7818609E-02  0.8061731E-01
        2   -1    0    0  501    0  0.00000000000E+00  0.00000000000E+00  0.14528036244E+04  0.14528036244E+04  0.25500000920E-02 0. -1.
       -2   -1    0    0    0  501  0.00000000000E+00  0.00000000000E+00 -0.23918944090E+04  0.23918944090E+04  0.25500000920E-02 0.  1.
    10030    2    1    2    0    0  0.00000000000E+00  0.00000000000E+00 -0.93909078459E+03  0.38446980334E+04  0.37282450921E+04 0.  0.
        5    1    3    3  502    0 -0.62599863009E+03 -0.51288013553E+03  0.12621964090E+04  0.14993605914E+04  0.46999998093E+01 0. -1.
       -5    1    3    3    0  502  0.62599863009E+03  0.51288013553E+03 -0.22012871936E+04  0.23453374420E+04  0.46999998093E+01 0.  1.
</event>
<event>
 5   0  0.1686284E-07  0.3695341E+04  0.7818609E-02  0.8068995E-01
       -2   -1    0    0    0  501  0.00000000000E+00  0.00000000000E+00  0.19962532481E+04  0.19962532481E+04  0.25500000920E-02 0. -1.
        2   -1    0    0  501    0  0.00000000000E+00  0.00000000000E+00 -0.17101466840E+04  0.17101466840E+04  0.25500000920E-02 0.  1.
    10030    2    1    2    0    0  0.00000000000E+00  0.00000000000E+00  0.28610656406E+03  0.37063999321E+04  0.36953407814E+04 0.  0.
        5    1    3    3  502    0 -0.12130863701E+04 -0.12796943638E+04 -0.41056561205E+03  0.18104646967E+04  0.46999998093E+01 0.  1.
       -5    1    3    3    0  502  0.12130863701E+04  0.12796943638E+04  0.69667217610E+03  0.18959352355E+04  0.46999998093E+01 0. -1.
</event>
<event>
 5   0  0.1558258E-07  0.3675824E+04  0.7818609E-02  0.8073341E-01
       -2   -1    0    0    0  501  0.00000000000E+00  0.00000000000E+00  0.19689714145E+04  0.19689714146E+04  0.25500000920E-02 0.  1.
        2   -1    0    0  501    0  0.00000000000E+00  0.00000000000E+00 -0.17155759195E+04  0.17155759195E+04  0.25500000920E-02 0. -1.
    10030    2    1    2    0    0  0.00000000000E+00  0.00000000000E+00  0.25339549503E+03  0.36845473341E+04  0.36758236873E+04 0.  0.
        1    1    3    3  502    0 -0.13983801496E+04 -0.11589963770E+04  0.40875549957E+03  0.18616714810E+04  0.50400001928E-02 0. -1.
       -1    1    3    3    0  502  0.13983801496E+04  0.11589963770E+04 -0.15536000453E+03  0.18228758531E+04  0.50400001928E-02 0.  1.
</event>
<event>
 5   0  0.5177000E-08  0.3656884E+04  0.7818609E-02  0.8077584E-01
       -1   -1    0    0    0  501  0.00000000000E+00  0.00000000000E+00  0.15703153089E+04  0.15703153089E+04  0.50400001928E-02 0. -1.
        1   -1    0    0  501    0  0.00000000000E+00  0.00000000000E+00 -0.21289997659E+04  0.21289997659E+04  0.50400001928E-02 0.  1.
    10030    2    1    2    0    0  0.00000000000E+00  0.00000000000E+00 -0.55868445705E+03  0.36993150748E+04  0.36568844253E+04 0.  0.
        4    1    3    3  502    0  0.20958857303E+03 -0.18149942645E+04 -0.35135643756E+03  0.18605333937E+04  0.12699999809E+01 0.  1.
       -4    1    3    3    0  502 -0.20958857303E+03  0.18149942645E+04 -0.20732801949E+03  0.18387816811E+04  0.12699999809E+01 0. -1.
</event>
<event>
 5   0  0.5177000E-08  0.3703708E+04  0.7818609E-02  0.8067141E-01
       -3   -1    0    0    0  501  0.00000000000E+00  0.00000000000E+00  0.13011511128E+04  0.13011511167E+04  0.10100000352E+00 0.  1.
        3   -1    0    0  501    0  0.00000000000E+00  0.00000000000E+00 -0.26356373023E+04  0.26356373042E+04  0.10100000352E+00 0. -1.
    10030    2    1    2    0    0  0.00000000000E+00  0.00000000000E+00 -0.13344861895E+04  0.39367884209E+04  0.37037075588E+04 0.  0.
        1    1    3    3  502    0  0.55192093546E+03  0.41837976608E+03  0.11583105973E+04  0.13495709643E+04  0.50400001928E-02 0.  1.
       -1    1    3    3    0  502 -0.55192093546E+03 -0.41837976608E+03 -0.24927967868E+04  0.25872174567E+04  0.50400001928E-02 0. -1.
</event>
<event>
 5   0  0.1686284E-07  0.3700978E+04  0.7818609E-02  0.8067745E-01
       -2   -1    0    0    0  501  0.00000000000E+00  0.00000000000E+00  0.15264399946E+04  0.15264399946E+04  0.25500000920E-02 0. -1.
        2   -1    0    0  501    0  0.00000000000E+00  0.00000000000E+00 -0.22433302616E+04  0.22433302616E+04  0.25500000920E-02 0.  1.
    10030    2    1    2    0    0  0.00000000000E+00  0.00000000000E+00 -0.71689026694E+03  0.37697702562E+04  0.37009777262E+04 0.  0.
        5    1    3    3  502    0  0.61514116077E+03  0.12626430178E+04 -0.15856724653E+04  0.21182646896E+04  0.46999998093E+01 0.  1.
       -5    1    3    3    0  502 -0.61514116077E+03 -0.12626430178E+04  0.86878219840E+03  0.16515055665E+04  0.46999998093E+01 0. -1.
</event>
<event>
 5   0  0.1658770E-07  0.3701815E+04  0.7818609E-02  0.8067560E-01
        2   -1    0    0  501    0  0.00000000000E+00  0.00000000000E+00  0.29546768864E+04  0.29546768864E+04  0.25500000920E-02 0. -1.
       -2   -1    0    0    0  501  0.00000000000E+00  0.00000000000E+00 -0.11594697564E+04  0.11594697564E+04  0.25500000920E-02 0.  1.
    10030    2    1    2    0    0  0.00000000000E+00  0.00000000000E+00  0.17952071301E+04  0.41141466428E+04  0.37018149547E+04 0.  0.
        2    1    3    3  502    0  0.89999028997E+03 -0.13046318325E+04 -0.16480956820E+03  0.15934895463E+04  0.25500000920E-02 0.  1.
       -2    1    3    3    0  502 -0.89999028997E+03  0.13046318325E+04  0.19600166983E+04  0.25206570965E+04  0.25500000920E-02 0. -1.
</event>
<event>
 5   0  0.1587026E-07  0.3688241E+04  0.7818609E-02  0.8070573E-01
       -2   -1    0    0    0  501  0.00000000000E+00  0.00000000000E+00  0.14015200732E+04  0.14015200732E+04  0.25500000920E-02 0. -1.
        2   -1    0    0  501    0  0.00000000000E+00  0.00000000000E+00 -0.24264941163E+04  0.24264941163E+04  0.25500000920E-02 0.  1.
    10030    2    1    2    0    0  0.00000000000E+00  0.00000000000E+00 -0.10249740431E+04  0.38280141895E+04  0.36882408877E+04 0.  0.
        3    1    3    3  502    0  0.15642028198E+04  0.94943616328E+03 -0.75057234211E+03  0.19777558850E+04  0.10100000352E+00 0.  1.
       -3    1    3    3    0  502 -0.15642028198E+04 -0.94943616328E+03 -0.27440170102E+03  0.18502583045E+04  0.10100000352E+00 0. -1.
</event>
<event>
 5   0  0.5177000E-08  0.3707127E+04  0.7818609E-02  0.8066384E-01
       -1   -1    0    0    0  501  0.00000000000E+00  0.00000000000E+00  0.29800201587E+04  0.29800201587E+04  0.50400001928E-02 0. -1.
        1   -1    0    0  501    0  0.00000000000E+00  0.00000000000E+00 -0.11529111257E+04  0.11529111257E+04  0.50400001928E-02 0.  1.
    10030    2    1    2    0    0  0.00000000000E+00  0.00000000000E+00  0.18271090330E+04  0.41329312844E+04  0.37071274031E+04 0.  0.
        1    1    3    3  502    0 -0.72391971972E+03 -0.54899786241E+03 -0.88764114291E+03  0.12701831412E+04  0.50400001928E-02 0.  1.
       -1    1    3    3    0  502  0.72391971972E+03  0.54899786241E+03  0.27147501759E+04  0.28627481432E+04  0.50400001928E-02 0. -1.
</event>
<event>
 5   0  0.1587026E-07  0.3712722E+04  0.7818609E-02  0.8065148E-01
       -2   -1    0    0    0  501  0.00000000000E+00  0.00000000000E+00  0.12907180687E+04  0.12907180687E+04  0.25500000920E-02 0. -1.
        2   -1    0    0  501    0  0.00000000000E+00  0.00000000000E+00 -0.26698907008E+04  0.26698907008E+04  0.25500000920E-02 0.  1.
    10030    2    1    2    0    0  0.00000000000E+00  0.00000000000E+00 -0.13791726321E+04  0.39606087696E+04  0.37127220037E+04 0.  0.
        3    1    3    3  502    0 -0.47479608134E+03  0.81210663257E+03 -0.23967891613E+04  0.25747906314E+04  0.10100000352E+00 0.  1.
       -3    1    3    3    0  502  0.47479608134E+03 -0.81210663257E+03  0.10176165292E+04  0.13858181382E+04  0.10100000352E+00 0. -1.
</event>
<event>
 5   0  0.1686284E-07  0.3696208E+04  0.7818609E-02  0.8068803E-01
       -2   -1    0    0    0  501  0.00000000000E+00  0.00000000000E+00  0.15574285817E+04  0.15574285817E+04  0.25500000920E-02 0. -1.
        2   -1    0    0  501    0  0.00000000000E+00  0.00000000000E+00 -0.21930302980E+04  0.21930302980E+04  0.25500000920E-02 0.  1.
    10030    2    1    2    0    0  0.00000000000E+00  0.00000000000E+00 -0.63560171634E+03  0.37504588797E+04  0.36962078224E+04 0.  0.
        5    1    3    3  502    0 -0.77589484478E+03 -0.13468179601E+01  0.13841528031E+04  0.15867941569E+04  0.46999998093E+01 0. -1.
       -5    1    3    3    0  502  0.77589484478E+03  0.13468179601E+01 -0.20197545194E+04  0.21636647228E+04  0.46999998093E+01 0.  1.
</event>
<event>
 5   0  0.5177000E-08  0.3683425E+04  0.7818609E-02  0.8071645E-01
        1   -1    0    0  501    0  0.00000000000E+00  0.00000000000E+00  0.21787509140E+04  0.21787509140E+04  0.50400001928E-02 0. -1.
       -1   -1    0    0    0  501  0.00000000000E+00  0.00000000000E+00 -0.15568118060E+04  0.15568118060E+04  0.50400001928E-02 0.  1.
    10030    2    1    2    0    0  0.00000000000E+00  0.00000000000E+00  0.62193910802E+03  0.37355627200E+04  0.36834251154E+04 0.  0.
        1    1    3    3  502    0  0.76228725350E+03  0.16304872688E+04  0.70679471864E+03  0.19336828501E+04  0.50400001928E-02 0. -1.
       -1    1    3    3    0  502 -0.76228725350E+03 -0.16304872688E+04 -0.84855610623E+02  0.18018798698E+04  0.50400001928E-02 0.  1.
</event>
<event>
 5   0  0.5177000E-08  0.3603634E+04  0.7818609E-02  0.8089660E-01
        1   -1    0    0  501    0  0.00000000000E+00  0.00000000000E+00  0.21499101280E+04  0.21499101280E+04  0.50400001928E-02 0. -1.
       -1   -1    0    0    0  501  0.00000000000E+00  0.00000000000E+00 -0.15100840868E+04  0.15100840868E+04  0.50400001928E-02 0.  1.
    10030    2    1    2    0    0  0.00000000000E+00  0.00000000000E+00  0.63982604123E+03  0.36599942148E+04  0.36036343168E+04 0.  0.
        2    1    3    3  502    0 -0.94793463750E+03 -0.10760688275E+04 -0.78803815856E+03  0.16363093649E+04  0.25500000920E-02 0.  1.
       -2    1    3    3    0  502  0.94793463750E+03  0.10760688275E+04  0.14278641998E+04  0.20236848498E+04  0.25500000920E-02 0. -1.
</event>
<event>
 5   0  0.1666189E-07  0.3696019E+04  0.7818609E-02  0.8068845E-01
        2   -1    0    0  501    0  0.00000000000E+00  0.00000000000E+00  0.21745832214E+04  0.21745832214E+04  0.25500000920E-02 0. -1.
       -2   -1    0    0    0  501  0.00000000000E+00  0.00000000000E+00 -0.15704800026E+04  0.15704800026E+04  0.25500000920E-02 0.  1.
    10030    2    1    2    0    0  0.00000000000E+00  0.00000000000E+00  0.60410321875E+03  0.37450632240E+04  0.36960191900E+04 0.  0.
        4    1    3    3  502    0  0.17959310775E+04  0.33726354978E+03  0.58143244920E+03  0.19175975707E+04  0.12699999809E+01 0. -1.
       -4    1    3    3    0  502 -0.17959310775E+04 -0.33726354978E+03  0.22670769553E+02  0.18274656533E+04  0.12699999809E+01 0.  1.
</event>
<event>
 5   0  0.1666189E-07  0.3697186E+04  0.7818609E-02  0.8068586E-01
       -2   -1    0    0    0  501  0.00000000000E+00  0.00000000000E+00  0.17540515078E+04  0.17540515078E+04  0.25500000920E-02 0.  1.
        2   -1    0    0  501    0  0.00000000000E+00  0.00000000000E+00 -0.19482296647E+04  0.19482296647E+04  0.25500000920E-02 0. -1.
    10030    2    1    2    0    0  0.00000000000E+00  0.00000000000E+00 -0.19417815688E+03  0.37022811725E+04  0.36971855138E+04 0.  0.
        4    1    3    3  502    0  0.27986733589E+03  0.96622215041E+03  0.14559780873E+04  0.17696849361E+04  0.12699999809E+01 0.  1.
       -4    1    3    3    0  502 -0.27986733589E+03 -0.96622215041E+03 -0.16501562442E+04  0.19325962363E+04  0.12699999809E+01 0. -1.
</event>
<event>
 5   0  0.1658770E-07  0.3697767E+04  0.7818609E-02  0.8068457E-01
       -2   -1    0    0    0  501  0.00000000000E+00  0.00000000000E+00  0.15880380505E+04  0.15880380505E+04  0.25500000920E-02 0. -1.
        2   -1    0    0  501    0  0.00000000000E+00  0.00000000000E+00 -0.21525740088E+04  0.21525740088E+04  0.25500000920E-02 0.  1.
    10030    2    1    2    0    0  0.00000000000E+00  0.00000000000E+00 -0.56453595832E+03  0.37406120594E+04  0.36977665868E+04 0.  0.
        2    1    3    3  502    0  0.45052107697E+03 -0.75310135216E+03 -0.19284646802E+04  0.21187512620E+04  0.25500000920E-02 0.  1.
       -2    1    3    3    0  502 -0.45052107697E+03  0.75310135216E+03  0.13639287219E+04  0.16218607973E+04  0.25500000920E-02 0. -1.
</event>
<event>
 5   0  0.1558258E-07  0.3697613E+04  0.7818609E-02  0.8068491E-01
        2   -1    0    0  501    0  0.00000000000E+00  0.00000000000E+00  0.22481436864E+04  0.22481436864E+04  0.25500000920E-02 0. -1.
       -2   -1    0    0    0  501  0.00000000000E+00  0.00000000000E+00 -0.15204033580E+04  0.15204033580E+04  0.25500000920E-02 0.  1.
    10030    2    1    2    0    0  0.00000000000E+00  0.00000000000E+00  0.72774032835E+03  0.37685470444E+04  0.36976128570E+04 0.  0.
        1    1    3    3  502    0 -0.10049803260E+04 -0.73236493132E+03 -0.10304914604E+04  0.16150097517E+04  0.50400001928E-02 0.  1.
       -1    1    3    3    0  502  0.10049803260E+04  0.73236493132E+03  0.17582317887E+04  0.21535372927E+04  0.50400001928E-02 0. -1.
</event>
<event>
 5   0  0.1666189E-07  0.3703815E+04  0.7818609E-02  0.8067117E-01
       -2   -1    0    0    0  501  0.00000000000E+00  0.00000000000E+00  0.15870331502E+04  0.15870331502E+04  0.25500000920E-02 0.  1.
        2   -1    0    0  501    0  0.00000000000E+00  0.00000000000E+00 -0.21609894395E+04  0.21609894395E+04  0.25500000920E-02 0. -1.
    10030    2    1    2    0    0  0.00000000000E+00  0.00000000000E+00 -0.57395628926E+03  0.37480225897E+04  0.37038152641E+04 0.  0.
        4    1    3    3  502    0  0.16662260638E+03 -0.18173162206E+04  0.31675426593E+02  0.18252140379E+04  0.12699999809E+01 0.  1.
       -4    1    3    3    0  502 -0.16662260638E+03  0.18173162206E+04 -0.60563171586E+03  0.19228085518E+04  0.12699999809E+01 0. -1.
</event>
<event>
 5   0  0.1587026E-07  0.3710408E+04  0.7818609E-02  0.8065659E-01
       -2   -1    0    0    0  501  0.00000000000E+00  0.00000000000E+00  0.14168929822E+04  0.14168929822E+04  0.25500000920E-02 0.  1.
        2   -1    0    0  501    0  0.00000000000E+00  0.00000000000E+00 -0.24291051911E+04  0.24291051911E+04  0.25500000920E-02 0. -1.
    10030    2    1    2    0    0  0.00000000000E+00  0.00000000000E+00 -0.10122122088E+04  0.38459981733E+04  0.37104081168E+04 0.  0.
        3    1    3    3  502    0  0.80600055257E+03  0.15734890378E+03 -0.22304437225E+04  0.23768203082E+04  0.10100000352E+00 0. -1.
       -3    1    3    3    0  502 -0.80600055257E+03 -0.15734890378E+03  0.12182315136E+04  0.14691778651E+04  0.10100000352E+00 0.  1.
</event>
<event>
 5   0  0.5177000E-08  0.3710517E+04  0.7818609E-02  0.8065635E-01
       -1   -1    0    0    0  501  0.00000000000E+00  0.00000000000E+00  0.27969259938E+04  0.27969259938E+04  0.50400001928E-02 0.  1.
        1   -1    0    0  501    0  0.00000000000E+00  0.00000000000E+00 -0.12306311236E+04  0.12306311237E+04  0.50400001928E-02 0. -1.
    10030    2    1    2    0    0  0.00000000000E+00  0.00000000000E+00  0.15662948701E+04  0.40275571175E+04  0.37105170413E+04 0.  0.
        3    1    3    3  502    0  0.15865499238E+04  0.49019845152E+03  0.16812160999E+04  0.23630325362E+04  0.10100000352E+00 0.  1.
       -3    1    3    3    0  502 -0.15865499238E+04 -0.49019845152E+03 -0.11492122972E+03  0.16645245813E+04  0.10100000352E+00 0. -1.
</event>
<event>
 5   0  0.5177000E-08  0.3701371E+04  0.7818609E-02  0.8067658E-01
        1   -1    0    0  501    0  0.00000000000E+00  0.00000000000E+00  0.28393672519E+04  0.28393672519E+04  0.50400001928E-02 0.  1.
       -1   -1    0    0    0  501  0.00000000000E+00  0.00000000000E+00 -0.12062674749E+04  0.12062674749E+04  0.50400001928E-02 0. -1.
    10030    2    1    2    0    0  0.00000000000E+00  0.00000000000E+00  0.16330997771E+04  0.40456347268E+04  0.37013707543E+04 0.  0.
        3    1    3    3  502    0 -0.91538176263E+03  0.99964236873E+03  0.21938410767E+04  0.25787879550E+04  0.10100000352E+00 0.  1.
       -3    1    3    3    0  502  0.91538176263E+03 -0.99964236873E+03 -0.56074129962E+03  0.14668467718E+04  0.10100000352E+00 0. -1.
</event>
<event>
 5   0  0.5177000E-08  0.3689413E+04  0.7818609E-02  0.8070312E-01
        1   -1    0    0  501    0  0.00000000000E+00  0.00000000000E+00  0.20603480772E+04  0.20603480772E+04  0.50400001928E-02 0.  1.
       -1   -1    0    0    0  501  0.00000000000E+00  0.00000000000E+00 -0.16516343484E+04  0.16516343484E+04  0.50400001928E-02 0. -1.
    10030    2    1    2    0    0  0.00000000000E+00  0.00000000000E+00  0.40871372881E+03  0.37119824256E+04  0.36894127738E+04 0.  0.
        4    1    3    3  502    0 -0.16418572685E+04  0.60786204624E+03 -0.38035966101E+03  0.17916100698E+04  0.12699999809E+01 0.  1.
       -4    1    3    3    0  502  0.16418572685E+04 -0.60786204624E+03  0.78907338982E+03  0.19203723558E+04  0.12699999809E+01 0. -1.
</event>
<event>
 5   0  0.5177000E-08  0.3739318E+04  0.7818609E-02  0.8059304E-01
       -1   -1    0    0    0  501  0.00000000000E+00  0.00000000000E+00  0.28118834620E+04  0.28118834620E+04  0.50400001928E-02 0. -1.
        1   -1    0    0  501    0  0.00000000000E+00  0.00000000000E+00 -0.12431613911E+04  0.12431613911E+04  0.50400001928E-02 0.  1.
    10030    2    1    2    0    0  0.00000000000E+00  0.00000000000E+00  0.15687220709E+04  0.40550448532E+04  0.37393180963E+04 0.  0.
        1    1    3    3  502    0  0.13462028938E+03 -0.10145971279E+04  0.24811091868E+04  0.26839211521E+04  0.50400001928E-02 0. -1.
       -1    1    3    3    0  502 -0.13462028938E+03  0.10145971279E+04 -0.91238711586E+03  0.13711237010E+04  0.50400001928E-02 0.  1.
</event>
<event>
 5   0  0.1558258E-07  0.3681992E+04  0.7818609E-02  0.8071964E-01
        2   -1    0    0  501    0  0.00000000000E+00  0.00000000000E+00  0.23412932768E+04  0.23412932768E+04  0.25500000920E-02 0. -1.
       -2   -1    0    0    0  501  0.00000000000E+00  0.00000000000E+00 -0.14476040232E+04  0.14476040232E+04  0.25500000920E-02 0.  1.
    10030    2    1    2    0    0  0.00000000000E+00  0.00000000000E+00  0.89368925360E+03  0.37888973001E+04  0.36819916171E+04 0.  0.
        1    1    3    3  502    0  0.97099495164E+03  0.95193615740E+03  0.17239476064E+04  0.21956796200E+04  0.50400001928E-02 0. -1.
       -1    1    3    3    0  502 -0.97099495164E+03 -0.95193615740E+03 -0.83025835279E+03  0.15932176801E+04  0.50400001928E-02 0.  1.
</event>
<event>
 5   0  0.1666189E-07  0.3638331E+04  0.7818609E-02  0.8081768E-01
       -2   -1    0    0    0  501  0.00000000000E+00  0.00000000000E+00  0.24902385053E+04  0.24902385053E+04  0.25500000920E-02 0. -1.
        2   -1    0    0  501    0  0.00000000000E+00  0.00000000000E+00 -0.13289338436E+04  0.13289338436E+04  0.25500000920E-02 0.  1.
    10030    2    1    2    0    0  0.00000000000E+00  0.00000000000E+00  0.11613046617E+04  0.38191723490E+04  0.36383305119E+04 0.  0.
        4    1    3    3  502    0  0.74249124200E+03 -0.44565124868E+03 -0.10986986811E+04  0.13989419876E+04  0.12699999809E+01 0.  1.
       -4    1    3    3    0  502 -0.74249124200E+03  0.44565124868E+03  0.22600033428E+04  0.24202303614E+04  0.12699999809E+01 0. -1.
</event>
<event>
 5   0  0.1658770E-07  0.3699055E+04  0.7818609E-02  0.8068171E-01
        2   -1    0    0  501    0  0.00000000000E+00  0.00000000000E+00  0.25110164794E+04  0.25110164794E+04  0.25500000920E-02 0. -1.
       -2   -1    0    0    0  501  0.00000000000E+00  0.00000000000E+00 -0.13622980567E+04  0.13622980567E+04  0.25500000920E-02 0.  1.
    10030    2    1    2    0    0  0.00000000000E+00  0.00000000000E+00  0.11487184227E+04  0.38733145361E+04  0.36990554850E+04 0.  0.
        2    1    3    3  502    0 -0.12328523472E+04 -0.11119481375E+04 -0.27914664046E+03  0.16835309374E+04  0.25500000920E-02 0.  1.
       -2    1    3    3    0  502  0.12328523472E+04  0.11119481375E+04  0.14278650631E+04  0.21897835986E+04  0.25500000920E-02 0. -1.
</event>
<event>
 5   0  0.5177000E-08  0.3693288E+04  0.7818609E-02  0.8069451E-01
       -3   -1    0    0    0  501  0.00000000000E+00  0.00000000000E+00  0.19777263856E+04  0.19777263881E+04  0.10100000352E+00 0.  1.
        3   -1    0    0  501    0  0.00000000000E+00  0.00000000000E+00 -0.17242496930E+04  0.17242496960E+04  0.10100000352E+00 0. -1.
    10030    2    1    2    0    0  0.00000000000E+00  0.00000000000E+00  0.25347669256E+03  0.37019760841E+04  0.36932880329E+04 0.  0.
        2    1    3    3  502    0  0.10622954798E+04  0.14070785076E+04  0.67735060465E+03  0.18886888189E+04  0.25500000920E-02 0. -1.
       -2    1    3    3    0  502 -0.10622954798E+04 -0.14070785076E+04 -0.42387391209E+03  0.18132872652E+04  0.25500000920E-02 0.  1.
</event>
<event>
 5   0  0.5177000E-08  0.3704141E+04  0.7818609E-02  0.8067045E-01
       -1   -1    0    0    0  501  0.00000000000E+00  0.00000000000E+00  0.32247548785E+04  0.32247548785E+04  0.50400001928E-02 0.  1.
        1   -1    0    0  501    0  0.00000000000E+00  0.00000000000E+00 -0.10636980857E+04  0.10636980857E+04  0.50400001928E-02 0. -1.
    10030    2    1    2    0    0  0.00000000000E+00  0.00000000000E+00  0.21610567928E+04  0.42884529642E+04  0.37041412452E+04 0.  0.
        3    1    3    3  502    0 -0.58552232942E+03  0.11211217267E+04  0.26468752026E+04  0.29335471144E+04  0.10100000352E+00 0.  1.
       -3    1    3    3    0  502  0.58552232942E+03 -0.11211217267E+04 -0.48581840974E+03  0.13549058498E+04  0.10100000352E+00 0. -1.
</event>
<event>
 5   0  0.1558258E-07  0.3698706E+04  0.7818609E-02  0.8068249E-01
       -2   -1    0    0    0  501  0.00000000000E+00  0.00000000000E+00  0.15807751026E+04  0.15807751026E+04  0.25500000920E-02 0. -1.
        2   -1    0    0  501    0  0.00000000000E+00  0.00000000000E+00 -0.21635625037E+04  0.21635625037E+04  0.25500000920E-02 0.  1.
    10030    2    1    2    0    0  0.00000000000E+00  0.00000000000E+00 -0.58278740107E+03  0.37443376062E+04  0.36987055783E+04 0.  0.
        1    1    3    3  502    0 -0.40275171830E+03  0.74304859624E+03  0.13738244025E+04  0.16129859429E+04  0.50400001928E-02 0. -1.
       -1    1    3    3    0  502  0.40275171830E+03 -0.74304859624E+03 -0.19566118036E+04  0.21313516634E+04  0.50400001928E-02 0.  1.
</event>
<event>
 5   0  0.5177000E-08  0.3691761E+04  0.7818609E-02  0.8069790E-01
        1   -1    0    0  501    0  0.00000000000E+00  0.00000000000E+00  0.24181005270E+04  0.24181005270E+04  0.50400001928E-02 0.  1.
       -1   -1    0    0    0  501  0.00000000000E+00  0.00000000000E+00 -0.14090705592E+04  0.14090705592E+04  0.50400001928E-02 0. -1.
    10030    2    1    2    0    0  0.00000000000E+00  0.00000000000E+00  0.10090299678E+04  0.38271710862E+04  0.36917606974E+04 0.  0.
        4    1    3    3  502    0 -0.85611507678E+03  0.11108079218E+04 -0.73969228202E+03  0.15855514967E+04  0.12699999809E+01 0. -1.
       -4    1    3    3    0  502  0.85611507678E+03 -0.11108079218E+04  0.17487222499E+04  0.22416195895E+04  0.12699999809E+01 0.  1.
</event>
<event>
 5   0  0.5177000E-08  0.3657759E+04  0.7818609E-02  0.8077388E-01
        1   -1    0    0  501    0  0.00000000000E+00  0.00000000000E+00  0.27828301822E+04  0.27828301822E+04  0.50400001928E-02 0.  1.
       -1   -1    0    0    0  501  0.00000000000E+00  0.00000000000E+00 -0.12019421564E+04  0.12019421564E+04  0.50400001928E-02 0. -1.
    10030    2    1    2    0    0  0.00000000000E+00  0.00000000000E+00  0.15808880258E+04  0.39847723387E+04  0.36577593744E+04 0.  0.
        3    1    3    3  502    0 -0.87318487398E+03  0.14044330385E+04 -0.60348621352E+02  0.16548492228E+04  0.10100000352E+00 0. -1.
       -3    1    3    3    0  502  0.87318487398E+03 -0.14044330385E+04  0.16412366471E+04  0.23299231159E+04  0.10100000352E+00 0.  1.
</event>
<event>
 5   0  0.5177000E-08  0.3692564E+04  0.7818609E-02  0.8069612E-01
        1   -1    0    0  501    0  0.00000000000E+00  0.00000000000E+00  0.25135221596E+04  0.25135221596E+04  0.50400001928E-02 0. -1.
       -1   -1    0    0    0  501  0.00000000000E+00  0.00000000000E+00 -0.13561676640E+04  0.13561676640E+04  0.50400001928E-02 0.  1.
    10030    2    1    2    0    0  0.00000000000E+00  0.00000000000E+00  0.11573544956E+04  0.38696898236E+04  0.36925641366E+04 0.  0.
        1    1    3    3  502    0 -0.12546370930E+04 -0.47239559145E+03 -0.75165870661E+03  0.15369654001E+04  0.50400001928E-02 0.  1.
       -1    1    3    3    0  502  0.12546370930E+04  0.47239559145E+03  0.19090132022E+04  0.23327244235E+04  0.50400001928E-02 0. -1.
</event>
<event>
 5   0  0.5177000E-08  0.3699372E+04  0.7818609E-02  0.8068101E-01
       -3   -1    0    0    0  501  0.00000000000E+00  0.00000000000E+00  0.17017020990E+04  0.17017021020E+04  0.10100000352E+00 0.  1.
        3   -1    0    0  501    0  0.00000000000E+00  0.00000000000E+00 -0.20105386682E+04  0.20105386707E+04  0.10100000352E+00 0. -1.
    10030    2    1    2    0    0  0.00000000000E+00  0.00000000000E+00 -0.30883656915E+03  0.37122407728E+04  0.36993717749E+04 0.  0.
        2    1    3    3  502    0  0.55662063021E+03  0.10068254753E+04  0.12990033772E+04  0.17352042640E+04  0.25500000920E-02 0.  1.
       -2    1    3    3    0  502 -0.55662063021E+03 -0.10068254753E+04 -0.16078399464E+04  0.19770365088E+04  0.25500000920E-02 0. -1.
</event>
<event>
 5   0  0.5177000E-08  0.3705538E+04  0.7818609E-02  0.8066736E-01
       -1   -1    0    0    0  501  0.00000000000E+00  0.00000000000E+00  0.17594036618E+04  0.17594036618E+04  0.50400001928E-02 0.  1.
        1   -1    0    0  501    0  0.00000000000E+00  0.00000000000E+00 -0.19510894194E+04  0.19510894194E+04  0.50400001928E-02 0. -1.
    10030    2    1    2    0    0  0.00000000000E+00  0.00000000000E+00 -0.19168575757E+03  0.37104930812E+04  0.37055384866E+04 0.  0.
        3    1    3    3  502    0 -0.40958209804E+03  0.10128070428E+04  0.14025596975E+04  0.17778383830E+04  0.10100000352E+00 0.  1.
       -3    1    3    3    0  502  0.40958209804E+03 -0.10128070428E+04 -0.15942454551E+04  0.19326546981E+04  0.10100000352E+00 0. -1.
</event>
<event>
 5   0  0.1666189E-07  0.3692901E+04  0.7818609E-02  0.8069537E-01
       -2   -1    0    0    0  501  0.00000000000E+00  0.00000000000E+00  0.15882387927E+04  0.15882387927E+04  0.25500000920E-02 0.  1.
        2   -1    0    0  501    0  0.00000000000E+00  0.00000000000E+00 -0.21466421542E+04  0.21466421542E+04  0.25500000920E-02 0. -1.
    10030    2    1    2    0    0  0.00000000000E+00  0.00000000000E+00 -0.55840336150E+03  0.37348809470E+04  0.36929014845E+04 0.  0.
        4    1    3    3  502    0  0.13830491359E+04  0.11873846917E+04 -0.57694839473E+03  0.19119566892E+04  0.12699999809E+01 0.  1.
       -4    1    3    3    0  502 -0.13830491359E+04 -0.11873846917E+04  0.18545033222E+02  0.18229242578E+04  0.12699999809E+01 0. -1.
</event>
<event>
 5   0  0.1558258E-07  0.3694231E+04  0.7818609E-02  0.8069242E-01
        2   -1    0    0  501    0  0.00000000000E+00  0.00000000000E+00  0.16670502418E+04  0.16670502418E+04  0.25500000920E-02 0.  1.
       -2   -1    0    0    0  501  0.00000000000E+00  0.00000000000E+00 -0.20466302717E+04  0.20466302717E+04  0.25500000920E-02 0. -1.
    10030    2    1    2    0    0  0.00000000000E+00  0.00000000000E+00 -0.37958002983E+03  0.37136805135E+04  0.36942309020E+04 0.  0.
        1    1    3    3  502    0  0.13244997693E+04 -0.36829989978E+03  0.10503544557E+04  0.17300835060E+04  0.50400001928E-02 0.  1.
       -1    1    3    3    0  502 -0.13244997693E+04  0.36829989978E+03 -0.14299344856E+04  0.19835970075E+04  0.50400001928E-02 0. -1.
</event>
<event>
 5   0  0.5177000E-08  0.3713179E+04  0.7818609E-02  0.8065048E-01
       -1   -1    0    0    0  501  0.00000000000E+00  0.00000000000E+00  0.19030933561E+04  0.19030933561E+04  0.50400001928E-02 0.  1.
        1   -1    0    0  501    0  0.00000000000E+00  0.00000000000E+00 -0.18112216680E+04  0.18112216680E+04  0.50400001928E-02 0. -1.
    10030    2    1    2    0    0  0.00000000000E+00  0.00000000000E+00  0.91871688144E+02  0.37143150241E+04  0.37131786506E+04 0.  0.
        4    1    3    3  502    0 -0.18075695366E+04  0.41201392209E+03  0.14525977661E+03  0.18596142389E+04  0.12699999809E+01 0.  1.
       -4    1    3    3    0  502  0.18075695366E+04 -0.41201392209E+03 -0.53388088462E+02  0.18547007852E+04  0.12699999809E+01 0. -1.
</event>
<event>
 5   0  0.1686284E-07  0.3701023E+04  0.7818609E-02  0.8067735E-01
       -2   -1    0    0    0  501  0.00000000000E+00  0.00000000000E+00  0.21975747028E+04  0.21975747028E+04  0.25500000920E-02 0. -1.
        2   -1    0    0  501    0  0.00000000000E+00  0.00000000000E+00 -0.15582599670E+04  0.15582599670E+04  0.25500000920E-02 0.  1.
    10030    2    1    2    0    0  0.00000000000E+00  0.00000000000E+00  0.63931473582E+03  0.37558346698E+04  0.37010229309E+04 0.  0.
        5    1    3    3  502    0  0.11846620804E+04 -0.21875505486E+03 -0.11058137483E+04  0.16352749477E+04  0.46999998093E+01 0. -1.
       -5    1    3    3    0  502 -0.11846620804E+04  0.21875505486E+03  0.17451284841E+04  0.21205597220E+04  0.46999998093E+01 0.  1.
</event>
<event>
 5   0  0.5177000E-08  0.3700433E+04  0.7818609E-02  0.8067866E-01
       -1   -1    0    0    0  501  0.00000000000E+00  0.00000000000E+00  0.25424638626E+04  0.25424638626E+04  0.50400001928E-02 0. -1.
        1   -1    0    0  501    0  0.00000000000E+00  0.00000000000E+00 -0.13464498880E+04  0.13464498880E+04  0.50400001928E-02 0.  1.
    10030    2    1    2    0    0  0.00000000000E+00  0.00000000000E+00  0.11960139746E+04  0.38889137506E+04  0.37004325061E+04 0.  0.
        4    1    3    3  502    0 -0.28778850008E+03  0.11083289953E+04  0.21253315415E+04  0.24141771180E+04  0.12699999809E+01 0. -1.
       -4    1    3    3    0  502  0.28778850008E+03 -0.11083289953E+04 -0.92931756690E+03  0.14747366326E+04  0.12699999809E+01 0.  1.
</event>
<event>
 5   0  0.5177000E-08  0.3683956E+04  0.7818609E-02  0.8071527E-01
       -1   -1    0    0    0  501  0.00000000000E+00  0.00000000000E+00  0.18450743336E+04  0.18450743336E+04  0.50400001928E-02 0.  1.
        1   -1    0    0  501    0  0.00000000000E+00  0.00000000000E+00 -0.18388870876E+04  0.18388870876E+04  0.50400001928E-02 0. -1.
    10030    2    1    2    0    0  0.00000000000E+00  0.00000000000E+00  0.61872459962E+01  0.36839614213E+04  0.36839562255E+04 0.  0.
        1    1    3    3  502    0 -0.31472349785E+02  0.19041961004E+03 -0.18287477174E+04  0.18389041168E+04  0.50400001928E-02 0. -1.
       -1    1    3    3    0  502  0.31472349785E+02 -0.19041961004E+03  0.18349349634E+04  0.18450573045E+04  0.50400001928E-02 0.  1.
</event>
<event>
 5   0  0.5177000E-08  0.3713393E+04  0.7818609E-02  0.8065000E-01
       -1   -1    0    0    0  501  0.00000000000E+00  0.00000000000E+00  0.25852331454E+04  0.25852331454E+04  0.50400001928E-02 0.  1.
        1   -1    0    0  501    0  0.00000000000E+00  0.00000000000E+00 -0.13334663923E+04  0.13334663923E+04  0.50400001928E-02 0. -1.
    10030    2    1    2    0    0  0.00000000000E+00  0.00000000000E+00  0.12517667531E+04  0.39186995378E+04  0.37133927968E+04 0.  0.
        1    1    3    3  502    0  0.10459711419E+04 -0.84771486745E+03  0.19751036304E+04  0.23903368961E+04  0.50400001928E-02 0.  1.
       -1    1    3    3    0  502 -0.10459711419E+04  0.84771486745E+03 -0.72333687727E+03  0.15283626416E+04  0.50400001928E-02 0. -1.
</event>
<event>
 5   0  0.5177000E-08  0.3701961E+04  0.7818609E-02  0.8067527E-01
       -1   -1    0    0    0  501  0.00000000000E+00  0.00000000000E+00  0.13933019900E+04  0.13933019901E+04  0.50400001928E-02 0.  1.
        1   -1    0    0  501    0  0.00000000000E+00  0.00000000000E+00 -0.24589995123E+04  0.24589995123E+04  0.50400001928E-02 0. -1.
    10030    2    1    2    0    0  0.00000000000E+00  0.00000000000E+00 -0.10656975223E+04  0.38523015024E+04  0.37019610555E+04 0.  0.
        3    1    3    3  502    0  0.85121514678E+02  0.66608960649E+03  0.12620794410E+04  0.14296032882E+04  0.10100000352E+00 0.  1.
       -3    1    3    3    0  502 -0.85121514678E+02 -0.66608960649E+03 -0.23277769633E+04  0.24226982142E+04  0.10100000352E+00 0. -1.
</event>
<event>
 5   0  0.1686284E-07  0.3729512E+04  0.7818609E-02  0.8061453E-01
       -2   -1    0    0    0  501  0.00000000000E+00  0.00000000000E+00  0.19829652348E+04  0.19829652348E+04  0.25500000920E-02 0. -1.
        2   -1    0    0  501    0  0.00000000000E+00  0.00000000000E+00 -0.17535939322E+04  0.17535939322E+04  0.25500000920E-02 0.  1.
    10030    2    1    2    0    0  0.00000000000E+00  0.00000000000E+00  0.22937130267E+03  0.37365591670E+04  0.37295124633E+04 0.  0.
        5    1    3    3  502    0  0.10956763643E+04 -0.11217196805E+04 -0.89644467169E+03  0.18062106401E+04  0.46999998093E+01 0. -1.
       -5    1    3    3    0  502 -0.10956763643E+04  0.11217196805E+04  0.11258159744E+04  0.19303485269E+04  0.46999998093E+01 0.  1.
</event>
<event>
 5   0  0.1558258E-07  0.3691514E+04  0.7818609E-02  0.8069845E-01
       -2   -1    0    0    0  501  0.00000000000E+00  0.00000000000E+00  0.16395442522E+04  0.16395442522E+04  0.25500000920E-02 0.  1.
        2   -1    0    0  501    0  0.00000000000E+00  0.00000000000E+00 -0.20779063070E+04  0.20779063070E+04  0.25500000920E-02 0. -1.
    10030    2    1    2    0    0  0.00000000000E+00  0.00000000000E+00 -0.43836205487E+03  0.37174505592E+04  0.36915142380E+04 0.  0.
        1    1    3    3  502    0 -0.10046506570E+04  0.59032156795E+03  0.12223148940E+04  0.16887439701E+04  0.50400001928E-02 0.  1.
       -1    1    3    3    0  502  0.10046506570E+04 -0.59032156795E+03 -0.16606769489E+04  0.20287065892E+04  0.50400001928E-02 0. -1.
</event>
<event>
 5   0  0.5177000E-08  0.3696730E+04  0.7818609E-02  0.8068687E-01
        1   -1    0    0  501    0  0.00000000000E+00  0.00000000000E+00  0.16764714481E+04  0.16764714481E+04  0.50400001928E-02 0. -1.
       -1   -1    0    0    0  501  0.00000000000E+00  0.00000000000E+00 -0.20378828717E+04  0.20378828717E+04  0.50400001928E-02 0.  1.
    10030    2    1    2    0    0  0.00000000000E+00  0.00000000000E+00 -0.36141142365E+03  0.37143543198E+04  0.36967296081E+04 0.  0.
        4    1    3    3  502    0  0.17982208919E+04  0.31307108272E+03  0.11195424488E+03  0.18287009720E+04  0.12699999809E+01 0.  1.
       -4    1    3    3    0  502 -0.17982208919E+04 -0.31307108272E+03 -0.47336566853E+03  0.18856533478E+04  0.12699999809E+01 0. -1.
</event>
<event>
 5   0  0.5177000E-08  0.3746508E+04  0.7818609E-02  0.8057733E-01
       -1   -1    0    0    0  501  0.00000000000E+00  0.00000000000E+00  0.14930378720E+04  0.14930378720E+04  0.50400001928E-02 0.  1.
        1   -1    0    0  501    0  0.00000000000E+00  0.00000000000E+00 -0.23502954650E+04  0.23502954650E+04  0.50400001928E-02 0. -1.
    10030    2    1    2    0    0  0.00000000000E+00  0.00000000000E+00 -0.85725759306E+03  0.38433333370E+04  0.37465077817E+04 0.  0.
        3    1    3    3  502    0 -0.20025102529E+03 -0.12024094963E+04  0.10305209451E+04  0.15962025243E+04  0.10100000352E+00 0.  1.
       -3    1    3    3    0  502  0.20025102529E+03  0.12024094963E+04 -0.18877785382E+04  0.22471308127E+04  0.10100000352E+00 0. -1.
</event>
<event>
 5   0  0.1686284E-07  0.3701398E+04  0.7818609E-02  0.8067652E-01
       -2   -1    0    0    0  501  0.00000000000E+00  0.00000000000E+00  0.13656325498E+04  0.13656325498E+04  0.25500000920E-02 0. -1.
        2   -1    0    0  501    0  0.00000000000E+00  0.00000000000E+00 -0.25080589815E+04  0.25080589815E+04  0.25500000920E-02 0.  1.
    10030    2    1    2    0    0  0.00000000000E+00  0.00000000000E+00 -0.11424264317E+04  0.38736915313E+04  0.37013981045E+04 0.  0.
        5    1    3    3  502    0 -0.77502062768E+03  0.12081213643E+04 -0.17938622452E+04  0.22974285732E+04  0.46999998093E+01 0.  1.
       -5    1    3    3    0  502  0.77502062768E+03 -0.12081213643E+04  0.65143581347E+03  0.15762629581E+04  0.46999998093E+01 0. -1.
</event>
<event>
 5   0  0.5181371E-08  0.3702775E+04  0.7818609E-02  0.8067347E-01
        1   -1    0    0  501    0  0.00000000000E+00  0.00000000000E+00  0.15165678565E+04  0.15165678565E+04  0.50400001928E-02 0. -1.
       -1   -1    0    0    0  501  0.00000000000E+00  0.00000000000E+00 -0.22601263068E+04  0.22601263068E+04  0.50400001928E-02 0.  1.
    10030    2    1    2    0    0  0.00000000000E+00  0.00000000000E+00 -0.74355845030E+03  0.37766941634E+04  0.37027745860E+04 0.  0.
        5    1    3    3  502    0 -0.15013214710E+04 -0.62350846216E+03 -0.12754021518E+04  0.20662530582E+04  0.46999998093E+01 0.  1.
       -5    1    3    3    0  502  0.15013214710E+04  0.62350846216E+03  0.53184370152E+03  0.17104411052E+04  0.46999998093E+01 0. -1.
</event>
<event>
 5   0  0.5177000E-08  0.3494721E+04  0.7818609E-02  0.8115042E-01
        1   -1    0    0  501    0  0.00000000000E+00  0.00000000000E+00  0.21856576987E+04  0.21856576987E+04  0.50400001928E-02 0.  1.
       -1   -1    0    0    0  501  0.00000000000E+00  0.00000000000E+00 -0.13969567512E+04  0.13969567512E+04  0.50400001928E-02 0. -1.
    10030    2    1    2    0    0  0.00000000000E+00  0.00000000000E+00  0.78870094747E+03  0.35826144499E+04  0.34947213211E+04 0.  0.
        3    1    3    3  502    0 -0.19170280610E+03 -0.32337083810E+03  0.21437118169E+04  0.21764234489E+04  0.10100000352E+00 0.  1.
       -3    1    3    3    0  502  0.19170280610E+03  0.32337083810E+03 -0.13550108694E+04  0.14061910010E+04  0.10100000352E+00 0. -1.
</event>
<event>
 5   0  0.1666189E-07  0.3703633E+04  0.7818609E-02  0.8067157E-01
       -2   -1    0    0    0  501  0.00000000000E+00  0.00000000000E+00  0.11726009972E+04  0.11726009972E+04  0.25500000920E-02 0. -1.
        2   -1    0    0  501    0  0.00000000000E+00  0.00000000000E+00 -0.29244597433E+04  0.29244597433E+04  0.25500000920E-02 0.  1.
    10030    2    1    2    0    0  0.00000000000E+00  0.00000000000E+00 -0.17518587460E+04  0.40970607405E+04  0.37036330333E+04 0.  0.
        4    1    3    3  502    0 -0.11510327366E+04  0.31574675371E+03 -0.24421890917E+04  0.27182460422E+04  0.12699999809E+01 0.  1.
       -4    1    3    3    0  502  0.11510327366E+04 -0.31574675371E+03  0.69033034563E+03  0.13788146983E+04  0.12699999809E+01 0. -1.
</event>
<event>
 5   0  0.1658770E-07  0.3707872E+04  0.7818609E-02  0.8066219E-01
        2   -1    0    0  501    0  0.00000000000E+00  0.00000000000E+00  0.16898569520E+04  0.16898569520E+04  0.25500000920E-02 0.  1.
       -2   -1    0    0    0  501  0.00000000000E+00  0.00000000000E+00 -0.20339469139E+04  0.20339469139E+04  0.25500000920E-02 0. -1.
    10030    2    1    2    0    0  0.00000000000E+00  0.00000000000E+00 -0.34408996189E+03  0.37238038660E+04  0.37078723455E+04 0.  0.
        2    1    3    3  502    0 -0.34928332717E+01  0.17326027304E+04 -0.83454206228E+03  0.19231185286E+04  0.25500000920E-02 0. -1.
       -2    1    3    3    0  502  0.34928332717E+01 -0.17326027304E+04  0.49045210038E+03  0.18006853374E+04  0.25500000920E-02 0.  1.
</event>
<event>
 5   0  0.5177000E-08  0.3709686E+04  0.7818609E-02  0.8065819E-01
       -1   -1    0    0    0  501  0.00000000000E+00  0.00000000000E+00  0.15665444325E+04  0.15665444325E+04  0.50400001928E-02 0. -1.
        1   -1    0    0  501    0  0.00000000000E+00  0.00000000000E+00 -0.21961989256E+04  0.21961989256E+04  0.50400001928E-02 0.  1.
    10030    2    1    2    0    0  0.00000000000E+00  0.00000000000E+00 -0.62965449310E+03  0.37627433580E+04  0.37096863476E+04 0.  0.
        2    1    3    3  502    0  0.74708790586E+03  0.28214564817E+02  0.14069510549E+04  0.15932506619E+04  0.25500000920E-02 0. -1.
       -2    1    3    3    0  502 -0.74708790586E+03 -0.28214564817E+02 -0.20366055480E+04  0.21694926962E+04  0.25500000920E-02 0.  1.
</event>
<event>
 5   0  0.1658770E-07  0.3743664E+04  0.7818609E-02  0.8058354E-01
       -2   -1    0    0    0  501  0.00000000000E+00  0.00000000000E+00  0.30747377510E+04  0.30747377510E+04  0.25500000920E-02 0.  1.
        2   -1    0    0  501    0  0.00000000000E+00  0.00000000000E+00 -0.11395294850E+04  0.11395294850E+04  0.25500000920E-02 0. -1.
    10030    2    1    2    0    0  0.00000000000E+00  0.00000000000E+00  0.19352082660E+04  0.42142672361E+04  0.37436636206E+04 0.  0.
        2    1    3    3  502    0 -0.39588606447E+03 -0.30533863499E+03  0.29981858472E+04  0.30395848125E+04  0.25500000920E-02 0.  1.
       -2    1    3    3    0  502  0.39588606447E+03  0.30533863499E+03 -0.10629775812E+04  0.11746824236E+04  0.25500000920E-02 0. -1.
</event>
<event>
 5   0  0.5177000E-08  0.3699991E+04  0.7818609E-02  0.8067964E-01
        1   -1    0    0  501    0  0.00000000000E+00  0.00000000000E+00  0.11642738388E+04  0.11642738388E+04  0.50400001928E-02 0. -1.
       -1   -1    0    0    0  501  0.00000000000E+00  0.00000000000E+00 -0.29395856763E+04  0.29395856763E+04  0.50400001928E-02 0.  1.
    10030    2    1    2    0    0  0.00000000000E+00  0.00000000000E+00 -0.17753118375E+04  0.41038595151E+04  0.36999906486E+04 0.  0.
        2    1    3    3  502    0  0.19910525461E+03 -0.11847997950E+04 -0.24480149830E+04  0.27269343252E+04  0.25500000920E-02 0.  1.
       -2    1    3    3    0  502 -0.19910525461E+03  0.11847997950E+04  0.67270314555E+03  0.13769251900E+04  0.25500000920E-02 0. -1.
</event>
<event>
 5   0  0.5177000E-08  0.3691700E+04  0.7818609E-02  0.8069804E-01
       -1   -1    0    0    0  501  0.00000000000E+00  0.00000000000E+00  0.15667434965E+04  0.15667434965E+04  0.50400001928E-02 0. -1.
        1   -1    0    0  501    0  0.00000000000E+00  0.00000000000E+00 -0.21746779337E+04  0.21746779337E+04  0.50400001928E-02 0.  1.
    10030    2    1    2    0    0  0.00000000000E+00  0.00000000000E+00 -0.60793443726E+03  0.37414214302E+04  0.36917001555E+04 0.  0.
        1    1    3    3  502    0 -0.18182789292E+04 -0.31783124706E+03 -0.30118368038E+03  0.18702584248E+04  0.50400001928E-02 0. -1.
       -1    1    3    3    0  502  0.18182789292E+04  0.31783124706E+03 -0.30675075688E+03  0.18711630054E+04  0.50400001928E-02 0.  1.
</event>
<event>
 5   0  0.1658770E-07  0.3703122E+04  0.7818609E-02  0.8067270E-01
       -2   -1    0    0    0  501  0.00000000000E+00  0.00000000000E+00  0.20813817887E+04  0.20813817887E+04  0.25500000920E-02 0.  1.
        2   -1    0    0  501    0  0.00000000000E+00  0.00000000000E+00 -0.16471164161E+04  0.16471164161E+04  0.25500000920E-02 0. -1.
    10030    2    1    2    0    0  0.00000000000E+00  0.00000000000E+00  0.43426537257E+03  0.37284982048E+04  0.37031219868E+04 0.  0.
        2    1    3    3  502    0 -0.53419392006E+03 -0.12114517188E+04 -0.10860706262E+04  0.17124625007E+04  0.25500000920E-02 0. -1.
       -2    1    3    3    0  502  0.53419392006E+03  0.12114517188E+04  0.15203359987E+04  0.20160357041E+04  0.25500000920E-02 0.  1.
</event>
<event>
 5   0  0.1666189E-07  0.3682645E+04  0.7818609E-02  0.8071819E-01
       -2   -1    0    0    0  501  0.00000000000E+00  0.00000000000E+00  0.23391804978E+04  0.23391804978E+04  0.25500000920E-02 0. -1.
        2   -1    0    0  501    0  0.00000000000E+00  0.00000000000E+00 -0.14494257573E+04  0.14494257573E+04  0.25500000920E-02 0.  1.
    10030    2    1    2    0    0  0.00000000000E+00  0.00000000000E+00  0.88975474044E+03  0.37886062551E+04  0.36826449542E+04 0.  0.
        4    1    3    3  502    0 -0.13427113140E+03  0.10294809130E+03 -0.14414111827E+04  0.14513079814E+04  0.12699999809E+01 0.  1.
       -4    1    3    3    0  502  0.13427113140E+03 -0.10294809130E+03  0.23311659232E+04  0.23372982738E+04  0.12699999809E+01 0. -1.
</event>
<event>
 5   0  0.1558258E-07  0.3706522E+04  0.7818609E-02  0.8066518E-01
        2   -1    0    0  501    0  0.00000000000E+00  0.00000000000E+00  0.18501174083E+04  0.18501174083E+04  0.25500000920E-02 0. -1.
       -2   -1    0    0    0  501  0.00000000000E+00  0.00000000000E+00 -0.18564102113E+04  0.18564102113E+04  0.25500000920E-02 0.  1.
    10030    2    1    2    0    0  0.00000000000E+00  0.00000000000E+00 -0.62928030238E+01  0.37065276196E+04  0.37065222777E+04 0.  0.
        1    1    3    3  502    0 -0.70785197659E+03  0.73919634194E+03 -0.15481765231E+04  0.18558869037E+04  0.50400001928E-02 0.  1.
       -1    1    3    3    0  502  0.70785197659E+03 -0.73919634194E+03  0.15418837201E+04  0.18506407158E+04  0.50400001928E-02 0. -1.
</event>
<event>
 5   0  0.1558258E-07  0.3701426E+04  0.7818609E-02  0.8067646E-01
       -2   -1    0    0    0  501  0.00000000000E+00  0.00000000000E+00  0.14067605407E+04  0.14067605407E+04  0.25500000920E-02 0.  1.
        2   -1    0    0  501    0  0.00000000000E+00  0.00000000000E+00 -0.24347704471E+04  0.24347704471E+04  0.25500000920E-02 0. -1.
    10030    2    1    2    0    0  0.00000000000E+00  0.00000000000E+00 -0.10280099064E+04  0.38415309878E+04  0.37014262066E+04 0.  0.
        1    1    3    3  502    0  0.28488626945E+02  0.62733105635E+03 -0.23208157464E+04  0.24042756882E+04  0.50400001928E-02 0. -1.
       -1    1    3    3    0  502 -0.28488626945E+02 -0.62733105635E+03  0.12928058400E+04  0.14372552996E+04  0.50400001928E-02 0.  1.
</event>
<event>
 5   0  0.5177000E-08  0.3702855E+04  0.7818609E-02  0.8067329E-01
       -1   -1    0    0    0  501  0.00000000000E+00  0.00000000000E+00  0.31239604447E+04  0.31239604447E+04  0.50400001928E-02 0. -1.
        1   -1    0    0  501    0  0.00000000000E+00  0.00000000000E+00 -0.10972556941E+04  0.10972556941E+04  0.50400001928E-02 0.  1.
    10030    2    1    2    0    0  0.00000000000E+00  0.00000000000E+00  0.20267047506E+04  0.42212161388E+04  0.37028547831E+04 0.  0.
        2    1    3    3  502    0 -0.10046736809E+04  0.68120602088E+03 -0.58034033165E+03  0.13454388684E+04  0.25500000920E-02 0.  1.
       -2    1    3    3    0  502  0.10046736809E+04 -0.68120602088E+03  0.26070450823E+04  0.28757772704E+04  0.25500000920E-02 0. -1.
</event>
<event>
 5   0  0.5177000E-08  0.3689212E+04  0.7818609E-02  0.8070357E-01
       -1   -1    0    0    0  501  0.00000000000E+00  0.00000000000E+00  0.23470619419E+04  0.23470619420E+04  0.50400001928E-02 0. -1.
        1   -1    0    0  501    0  0.00000000000E+00  0.00000000000E+00 -0.14497155385E+04  0.14497155385E+04  0.50400001928E-02 0.  1.
    10030    2    1    2    0    0  0.00000000000E+00  0.00000000000E+00  0.89734640342E+03  0.37967774805E+04  0.36892124727E+04 0.  0.
        2    1    3    3  502    0  0.17663178044E+04 -0.23889257372E+03 -0.40175027242E+02  0.17828522880E+04  0.25500000920E-02 0. -1.
       -2    1    3    3    0  502 -0.17663178044E+04  0.23889257372E+03  0.93752143066E+03  0.20139251925E+04  0.25500000920E-02 0.  1.
</event>
<event>
 5   0  0.1558258E-07  0.3691772E+04  0.7818609E-02  0.8069788E-01
        2   -1    0    0  501    0  0.00000000000E+00  0.00000000000E+00  0.21736628582E+04  0.21736628582E+04  0.25500000920E-02 0.  1.
       -2   -1    0    0    0  501  0.00000000000E+00  0.00000000000E+00 -0.15675363657E+04  0.15675363657E+04  0.25500000920E-02 0. -1.
    10030    2    1    2    0    0  0.00000000000E+00  0.00000000000E+00  0.60612649253E+03  0.37411992239E+04  0.36917722448E+04 0.  0.
        1    1    3    3  502    0 -0.81847611046E+03  0.10449262162E+04 -0.99689000236E+03  0.16599890414E+04  0.50400001928E-02 0. -1.
       -1    1    3    3    0  502  0.81847611046E+03 -0.10449262162E+04  0.16030164949E+04  0.20812101825E+04  0.50400001928E-02 0.  1.
</event>
<event>
 5   0  0.1686284E-07  0.3707321E+04  0.7818609E-02  0.8066341E-01
       -2   -1    0    0    0  501  0.00000000000E+00  0.00000000000E+00  0.12609270612E+04  0.12609270612E+04  0.25500000920E-02 0.  1.
        2   -1    0    0  501    0  0.00000000000E+00  0.00000000000E+00 -0.27250240990E+04  0.27250240990E+04  0.25500000920E-02 0. -1.
    10030    2    1    2    0    0  0.00000000000E+00  0.00000000000E+00 -0.14640970378E+04  0.39859511602E+04  0.37073206653E+04 0.  0.
        5    1    3    3  502    0  0.61349418623E+03 -0.40688974512E+03  0.10970142070E+04  0.13211346038E+04  0.46999998093E+01 0.  1.
       -5    1    3    3    0  502 -0.61349418623E+03  0.40688974512E+03 -0.25611112447E+04  0.26648165564E+04  0.46999998093E+01 0. -1.
</event>
<event>
 5   0  0.1666189E-07  0.3700048E+04  0.7818609E-02  0.8067951E-01
        2   -1    0    0  501    0  0.00000000000E+00  0.00000000000E+00  0.12815751552E+04  0.12815751552E+04  0.25500000920E-02 0.  1.
       -2   -1    0    0    0  501  0.00000000000E+00  0.00000000000E+00 -0.26706113556E+04  0.26706113556E+04  0.25500000920E-02 0. -1.
    10030    2    1    2    0    0  0.00000000000E+00  0.00000000000E+00 -0.13890362004E+04  0.39521865108E+04  0.37000481957E+04 0.  0.
        4    1    3    3  502    0 -0.16857574013E+04  0.70038346069E+03 -0.37358989618E+03  0.18632997696E+04  0.12699999809E+01 0.  1.
       -4    1    3    3    0  502  0.16857574013E+04 -0.70038346069E+03 -0.10154463042E+04  0.20888867412E+04  0.12699999809E+01 0. -1.
</event>
<event>
 5   0  0.5177000E-08  0.3679996E+04  0.7818609E-02  0.8072409E-01
       -1   -1    0    0    0  501  0.00000000000E+00  0.00000000000E+00  0.15188328224E+04  0.15188328224E+04  0.50400001928E-02 0.  1.
        1   -1    0    0  501    0  0.00000000000E+00  0.00000000000E+00 -0.22290754005E+04  0.22290754006E+04  0.50400001928E-02 0. -1.
    10030    2    1    2    0    0  0.00000000000E+00  0.00000000000E+00 -0.71024257818E+03  0.37479082229E+04  0.36799961315E+04 0.  0.
        1    1    3    3  502    0  0.16741946926E+04 -0.62927330012E+03 -0.79515974201E+03  0.19573430385E+04  0.50400001928E-02 0.  1.
       -1    1    3    3    0  502 -0.16741946926E+04  0.62927330012E+03  0.84917163826E+02  0.17905651844E+04  0.50400001928E-02 0. -1.
</event>
<event>
 5   0  0.1587026E-07  0.3698803E+04  0.7818609E-02  0.8068227E-01
       -2   -1    0    0    0  501  0.00000000000E+00  0.00000000000E+00  0.26277297114E+04  0.26277297114E+04  0.25500000920E-02 0. -1.
        2   -1    0    0  501    0  0.00000000000E+00  0.00000000000E+00 -0.13016127315E+04  0.13016127315E+04  0.25500000920E-02 0.  1.
    10030    2    1    2    0    0  0.00000000000E+00  0.00000000000E+00  0.13261169799E+04  0.39293424429E+04  0.36988032915E+04 0.  0.
        3    1    3    3  502    0 -0.17846355701E+03  0.14944342146E+03  0.26121058841E+04  0.26224568132E+04  0.10100000352E+00 0. -1.
       -3    1    3    3    0  502  0.17846355701E+03 -0.14944342146E+03 -0.12859889041E+04  0.13068856297E+04  0.10100000352E+00 0.  1.
</event>
<event>
 5   0  0.1558258E-07  0.3703217E+04  0.7818609E-02  0.8067249E-01
       -2   -1    0    0    0  501  0.00000000000E+00  0.00000000000E+00  0.11804254296E+04  0.11804254296E+04  0.25500000920E-02 0. -1.
        2   -1    0    0  501    0  0.00000000000E+00  0.00000000000E+00 -0.29044220592E+04  0.29044220592E+04  0.25500000920E-02 0.  1.
    10030    2    1    2    0    0  0.00000000000E+00  0.00000000000E+00 -0.17239966297E+04  0.40848474888E+04  0.37032167946E+04 0.  0.
        1    1    3    3  502    0  0.53117847162E+03  0.20573846106E+03  0.10813730562E+04  0.12222301624E+04  0.50400001928E-02 0. -1.
       -1    1    3    3    0  502 -0.53117847162E+03 -0.20573846106E+03 -0.28053696859E+04  0.28626173264E+04  0.50400001928E-02 0.  1.
</event>
<event>
 5   0  0.5177000E-08  0.3727294E+04  0.7818609E-02  0.8061940E-01
       -1   -1    0    0    0  501  0.00000000000E+00  0.00000000000E+00  0.33862458679E+04  0.33862458679E+04  0.50400001928E-02 0. -1.
        1   -1    0    0  501    0  0.00000000000E+00  0.00000000000E+00 -0.10256726359E+04  0.10256726359E+04  0.50400001928E-02 0.  1.
    10030    2    1    2    0    0  0.00000000000E+00  0.00000000000E+00  0.23605732320E+04  0.44119185038E+04  0.37272937771E+04 0.  0.
        4    1    3    3  502    0  0.13218945626E+04  0.12898976499E+04  0.88570292715E+03  0.20483438359E+04  0.12699999809E+01 0.  1.
       -4    1    3    3    0  502 -0.13218945626E+04 -0.12898976499E+04  0.14748703049E+04  0.23635746679E+04  0.12699999809E+01 0. -1.
</event>
<event>
 5   0  0.1587026E-07  0.3676049E+04  0.7818609E-02  0.8073290E-01
       -2   -1    0    0    0  501  0.00000000000E+00  0.00000000000E+00  0.14511168353E+04  0.14511168353E+04  0.25500000920E-02 0.  1.
        2   -1    0    0  501    0  0.00000000000E+00  0.00000000000E+00 -0.23280923662E+04  0.23280923662E+04  0.25500000920E-02 0. -1.
    10030    2    1    2    0    0  0.00000000000E+00  0.00000000000E+00 -0.87697553087E+03  0.37792092016E+04  0.36760489806E+04 0.  0.
        3    1    3    3  502    0 -0.61576441533E+03 -0.15783084086E+04  0.29433481648E+03  0.17195511746E+04  0.10100000352E+00 0.  1.
       -3    1    3    3    0  502  0.61576441533E+03  0.15783084086E+04 -0.11713103474E+04  0.20596580269E+04  0.10100000352E+00 0. -1.
</event>
<event>
 5   0  0.1558258E-07  0.3704973E+04  0.7818609E-02  0.8066861E-01
        2   -1    0    0  501    0  0.00000000000E+00  0.00000000000E+00  0.11738115533E+04  0.11738115533E+04  0.25500000920E-02 0. -1.
       -2   -1    0    0    0  501  0.00000000000E+00  0.00000000000E+00 -0.29235581201E+04  0.29235581201E+04  0.25500000920E-02 0.  1.
    10030    2    1    2    0    0  0.00000000000E+00  0.00000000000E+00 -0.17497465668E+04  0.40973696734E+04  0.37049730353E+04 0.  0.
        1    1    3    3  502    0  0.10334856514E+04 -0.13341269884E+04 -0.29940872953E+02  0.16878636997E+04  0.50400001928E-02 0. -1.
       -1    1    3    3    0  502 -0.10334856514E+04  0.13341269884E+04 -0.17198056939E+04  0.24095059737E+04  0.50400001928E-02 0.  1.
</event>
<event>
 5   0  0.5177000E-08  0.3711846E+04  0.7818609E-02  0.8065342E-01
       -1   -1    0    0    0  501  0.00000000000E+00  0.00000000000E+00  0.18972911548E+04  0.18972911548E+04  0.50400001928E-02 0. -1.
        1   -1    0    0  501    0  0.00000000000E+00  0.00000000000E+00 -0.18154568123E+04  0.18154568123E+04  0.50400001928E-02 0.  1.
    10030    2    1    2    0    0  0.00000000000E+00  0.00000000000E+00  0.81834342467E+02  0.37127479671E+04  0.37118459838E+04 0.  0.
        2    1    3    3  502    0  0.11358521503E+04 -0.13464892085E+04  0.62523106624E+03  0.18692531081E+04  0.25500000920E-02 0. -1.
       -2    1    3    3    0  502 -0.11358521503E+04  0.13464892085E+04 -0.54339672377E+03  0.18434948590E+04  0.25500000920E-02 0.  1.
</event>
<event>
 5   0  0.1686284E-07  0.3699818E+04  0.7818609E-02  0.8068002E-01
       -2   -1    0    0    0  501  0.00000000000E+00  0.00000000000E+00  0.17393004429E+04  0.17393004429E+04  0.25500000920E-02 0.  1.
        2   -1    0    0  501    0  0.00000000000E+00  0.00000000000E+00 -0.19675519279E+04  0.19675519279E+04  0.25500000920E-02 0. -1.
    10030    2    1    2    0    0  0.00000000000E+00  0.00000000000E+00 -0.22825148501E+03  0.37068523708E+04  0.36998183413E+04 0.  0.
        5    1    3    3  502    0 -0.11845063779E+04  0.14130175315E+04 -0.26430383166E+03  0.18626734843E+04  0.46999998093E+01 0. -1.
       -5    1    3    3    0  502  0.11845063779E+04 -0.14130175315E+04  0.36052346655E+02  0.18441788865E+04  0.46999998093E+01 0.  1.
</event>
<event>
 5   0  0.5177000E-08  0.3725214E+04  0.7818609E-02  0.8062397E-01
       -1   -1    0    0    0  501  0.00000000000E+00  0.00000000000E+00  0.30539259756E+04  0.30539259756E+04  0.50400001928E-02 0.  1.
        1   -1    0    0  501    0  0.00000000000E+00  0.00000000000E+00 -0.11360144120E+04  0.11360144120E+04  0.50400001928E-02 0. -1.
    10030    2    1    2    0    0  0.00000000000E+00  0.00000000000E+00  0.19179115635E+04  0.41899403876E+04  0.37252135088E+04 0.  0.
        1    1    3    3  502    0  0.10232639841E+04 -0.11430502506E+04 -0.22906686870E+03  0.15511623664E+04  0.50400001928E-02 0. -1.
       -1    1    3    3    0  502 -0.10232639841E+04  0.11430502506E+04  0.21469784322E+04  0.26387780212E+04  0.50400001928E-02 0.  1.
</event>
<event>
 5   0  0.1558258E-07  0.3716760E+04  0.7818609E-02  0.8064258E-01
        2   -1    0    0  501    0  0.00000000000E+00  0.00000000000E+00  0.19499626061E+04  0.19499626061E+04  0.25500000920E-02 0.  1.
       -2   -1    0    0    0  501  0.00000000000E+00  0.00000000000E+00 -0.17710984916E+04  0.17710984916E+04  0.25500000920E-02 0. -1.
    10030    2    1    2    0    0  0.00000000000E+00  0.00000000000E+00  0.17886411441E+03  0.37210610977E+04  0.37167597880E+04 0.  0.
        1    1    3    3  502    0  0.70813306060E+03  0.15775517134E+04  0.77099445177E+03  0.18932919174E+04  0.50400001928E-02 0.  1.
       -1    1    3    3    0  502 -0.70813306060E+03 -0.15775517134E+04 -0.59213033735E+03  0.18277691803E+04  0.50400001928E-02 0. -1.
</event>
<event>
 5   0  0.1658770E-07  0.3748548E+04  0.7818609E-02  0.8057287E-01
        2   -1    0    0  501    0  0.00000000000E+00  0.00000000000E+00  0.22780052695E+04  0.22780052695E+04  0.25500000920E-02 0. -1.
       -2   -1    0    0    0  501  0.00000000000E+00  0.00000000000E+00 -0.15420960454E+04  0.15420960454E+04  0.25500000920E-02 0.  1.
    10030    2    1    2    0    0  0.00000000000E+00  0.00000000000E+00  0.73590922416E+03  0.38201013149E+04  0.37485479415E+04 0.  0.
        2    1    3    3  502    0 -0.16006570038E+03  0.13034610062E+04  0.17307432821E+04  0.21725800173E+04  0.25500000920E-02 0. -1.
       -2    1    3    3    0  502  0.16006570038E+03 -0.13034610062E+04 -0.99483405795E+03  0.16475212976E+04  0.25500000920E-02 0.  1.
</event>
<event>
 5   0  0.5177000E-08  0.3689341E+04  0.7818609E-02  0.8070328E-01
        3   -1    0    0  501    0  0.00000000000E+00  0.00000000000E+00  0.22646547616E+04  0.22646547639E+04  0.10100000352E+00 0.  1.
       -3   -1    0    0    0  501  0.00000000000E+00  0.00000000000E+00 -0.15025732147E+04  0.15025732181E+04  0.10100000352E+00 0. -1.
    10030    2    1    2    0    0  0.00000000000E+00  0.00000000000E+00  0.76208154691E+03  0.37672279820E+04  0.36893411856E+04 0.  0.
        2    1    3    3  502    0  0.16672183013E+04 -0.57878054135E+03 -0.16714082652E+03  0.17727210257E+04  0.25500000920E-02 0. -1.
       -2    1    3    3    0  502 -0.16672183013E+04  0.57878054135E+03  0.92922237343E+03  0.19945069562E+04  0.25500000920E-02 0.  1.
</event>
<event>
 5   0  0.5177000E-08  0.3736754E+04  0.7818609E-02  0.8059865E-01
       -1   -1    0    0    0  501  0.00000000000E+00  0.00000000000E+00  0.20937398814E+04  0.20937398814E+04  0.50400001928E-02 0.  1.
        1   -1    0    0  501    0  0.00000000000E+00  0.00000000000E+00 -0.16672716825E+04  0.16672716825E+04  0.50400001928E-02 0. -1.
    10030    2    1    2    0    0  0.00000000000E+00  0.00000000000E+00  0.42646819891E+03  0.37610115638E+04  0.37367543214E+04 0.  0.
        3    1    3    3  502    0 -0.18440747640E+04 -0.47802912294E+02 -0.85231541559E+02  0.18466621996E+04  0.10100000352E+00 0.  1.
       -3    1    3    3    0  502  0.18440747640E+04  0.47802912294E+02  0.51169974047E+03  0.19143493642E+04  0.10100000352E+00 0. -1.
</event>
<event>
 5   0  0.1587026E-07  0.3721734E+04  0.7818609E-02  0.8063162E-01
        2   -1    0    0  501    0  0.00000000000E+00  0.00000000000E+00  0.29115307310E+04  0.29115307311E+04  0.25500000920E-02 0. -1.
       -2   -1    0    0    0  501  0.00000000000E+00  0.00000000000E+00 -0.11893491504E+04  0.11893491504E+04  0.25500000920E-02 0.  1.
    10030    2    1    2    0    0  0.00000000000E+00  0.00000000000E+00  0.17221815807E+04  0.41008798814E+04  0.37217343276E+04 0.  0.
        3    1    3    3  502    0  0.42040470294E+03  0.11486626616E+04 -0.68415078793E+03  0.14015093061E+04  0.10100000352E+00 0.  1.
       -3    1    3    3    0  502 -0.42040470294E+03 -0.11486626616E+04  0.24063323686E+04  0.26993705753E+04  0.10100000352E+00 0. -1.
</event>
<event>
 5   0  0.1686284E-07  0.3706256E+04  0.7818609E-02  0.8066577E-01
       -2   -1    0    0    0  501  0.00000000000E+00  0.00000000000E+00  0.19489098355E+04  0.19489098355E+04  0.25500000920E-02 0. -1.
        2   -1    0    0  501    0  0.00000000000E+00  0.00000000000E+00 -0.17620532882E+04  0.17620532882E+04  0.25500000920E-02 0.  1.
    10030    2    1    2    0    0  0.00000000000E+00  0.00000000000E+00  0.18685654737E+03  0.37109631237E+04  0.37062557840E+04 0.  0.
        5    1    3    3  502    0 -0.16469951419E+04 -0.77389595707E+03  0.44394853322E+03  0.18731311593E+04  0.46999998093E+01 0. -1.
       -5    1    3    3    0  502  0.16469951419E+04  0.77389595707E+03 -0.25709198585E+03  0.18378319643E+04  0.46999998093E+01 0.  1.
</event>
<event>
 5   0  0.5177000E-08  0.3704869E+04  0.7818609E-02  0.8066884E-01
        3   -1    0    0  501    0  0.00000000000E+00  0.00000000000E+00  0.17320740173E+04  0.17320740203E+04  0.10100000352E+00 0.  1.
       -3   -1    0    0    0  501  0.00000000000E+00  0.00000000000E+00 -0.19811587494E+04  0.19811587520E+04  0.10100000352E+00 0. -1.
    10030    2    1    2    0    0  0.00000000000E+00  0.00000000000E+00 -0.24908473205E+03  0.37132327722E+04  0.37048690148E+04 0.  0.
        2    1    3    3  502    0 -0.18289522726E+04  0.27262282363E+03 -0.23489990572E+03  0.18640192019E+04  0.25500000920E-02 0. -1.
       -2    1    3    3    0  502  0.18289522726E+04 -0.27262282363E+03 -0.14184826327E+02  0.18492135703E+04  0.25500000920E-02 0.  1.
</event>
<event>
 5   0  0.1558258E-07  0.3695164E+04  0.7818609E-02  0.8069034E-01
       -2   -1    0    0    0  501  0.00000000000E+00  0.00000000000E+00  0.16068634617E+04  0.16068634617E+04  0.25500000920E-02 0.  1.
        2   -1    0    0  501    0  0.00000000000E+00  0.00000000000E+00 -0.21243620077E+04  0.21243620077E+04  0.25500000920E-02 0. -1.
    10030    2    1    2    0    0  0.00000000000E+00  0.00000000000E+00 -0.51749854597E+03  0.37312254694E+04  0.36951642397E+04 0.  0.
        1    1    3    3  502    0 -0.13686354548E+04 -0.97690701542E+03  0.51426025431E+03  0.17584009594E+04  0.50400001928E-02 0.  1.
       -1    1    3    3    0  502  0.13686354548E+04  0.97690701542E+03 -0.10317588003E+04  0.19728245099E+04  0.50400001928E-02 0. -1.
</event>
<event>
 5   0  0.5177000E-08  0.3741052E+04  0.7818609E-02  0.8058925E-01
        1   -1    0    0  501    0  0.00000000000E+00  0.00000000000E+00  0.12400314022E+04  0.12400314022E+04  0.50400001928E-02 0. -1.
       -1   -1    0    0    0  501  0.00000000000E+00  0.00000000000E+00 -0.28215960416E+04  0.28215960416E+04  0.50400001928E-02 0.  1.
    10030    2    1    2    0    0  0.00000000000E+00  0.00000000000E+00 -0.15815646395E+04  0.40616274438E+04  0.37410520958E+04 0.  0.
        1    1    3    3  502    0  0.55413935818E+03  0.86232036339E+03 -0.24895338143E+04  0.26922937154E+04  0.50400001928E-02 0.  1.
       -1    1    3    3    0  502 -0.55413935818E+03 -0.86232036339E+03  0.90796917481E+03  0.13693337284E+04  0.50400001928E-02 0. -1.
</event>
<event>
 5   0  0.1587026E-07  0.3732639E+04  0.7818609E-02  0.8060767E-01
        2   -1    0    0  501    0  0.00000000000E+00  0.00000000000E+00  0.25187058225E+04  0.25187058225E+04  0.25500000920E-02 0. -1.
       -2   -1    0    0    0  501  0.00000000000E+00  0.00000000000E+00 -0.13829118659E+04  0.13829118659E+04  0.25500000920E-02 0.  1.
    10030    2    1    2    0    0  0.00000000000E+00  0.00000000000E+00  0.11357939565E+04  0.39016176884E+04  0.37326388353E+04 0.  0.
        3    1    3    3  502    0 -0.89565769466E+03  0.88188499449E+03 -0.87413114159E+03  0.15310222443E+04  0.10100000352E+00 0.  1.
       -3    1    3    3    0  502  0.89565769466E+03 -0.88188499449E+03  0.20099250981E+04  0.23705954441E+04  0.10100000352E+00 0. -1.
</event>
<event>
 5   0  0.1666189E-07  0.3680260E+04  0.7818609E-02  0.8072351E-01
       -2   -1    0    0    0  501  0.00000000000E+00  0.00000000000E+00  0.17344291733E+04  0.17344291733E+04  0.25500000920E-02 0.  1.
        2   -1    0    0  501    0  0.00000000000E+00  0.00000000000E+00 -0.19522724030E+04  0.19522724030E+04  0.25500000920E-02 0. -1.
    10030    2    1    2    0    0  0.00000000000E+00  0.00000000000E+00 -0.21784322969E+03  0.36867015763E+04  0.36802598875E+04 0.  0.
        4    1    3    3  502    0  0.88577338624E+03  0.82283385457E+03  0.12807435363E+04  0.17612369695E+04  0.12699999809E+01 0.  1.
       -4    1    3    3    0  502 -0.88577338624E+03 -0.82283385457E+03 -0.14985867660E+04  0.19254646068E+04  0.12699999809E+01 0. -1.
</event>
<event>
 5   0  0.1658770E-07  0.3689953E+04  0.7818609E-02  0.8070192E-01
       -2   -1    0    0    0  501  0.00000000000E+00  0.00000000000E+00  0.17079547209E+04  0.17079547209E+04  0.25500000920E-02 0.  1.
        2   -1    0    0  501    0  0.00000000000E+00  0.00000000000E+00 -0.19929904290E+04  0.19929904290E+04  0.25500000920E-02 0. -1.
    10030    2    1    2    0    0  0.00000000000E+00  0.00000000000E+00 -0.28503570807E+03  0.37009451499E+04  0.36899525265E+04 0.  0.
        2    1    3    3  502    0  0.93615575597E+02  0.84481352646E+03  0.14998779478E+04  0.17239801706E+04  0.25500000920E-02 0.  1.
       -2    1    3    3    0  502 -0.93615575597E+02 -0.84481352646E+03 -0.17849136559E+04  0.19769649793E+04  0.25500000920E-02 0. -1.
</event>
<event>
 5   0  0.1658770E-07  0.3692796E+04  0.7818609E-02  0.8069560E-01
       -2   -1    0    0    0  501  0.00000000000E+00  0.00000000000E+00  0.21576360484E+04  0.21576360484E+04  0.25500000920E-02 0.  1.
        2   -1    0    0  501    0  0.00000000000E+00  0.00000000000E+00 -0.15800562157E+04  0.15800562157E+04  0.25500000920E-02 0. -1.
    10030    2    1    2    0    0  0.00000000000E+00  0.00000000000E+00  0.57757983271E+03  0.37376922641E+04  0.36927963657E+04 0.  0.
        2    1    3    3  502    0  0.97237416843E+03 -0.14851972897E+04 -0.22518664916E+03  0.17894221245E+04  0.25500000920E-02 0. -1.
       -2    1    3    3    0  502 -0.97237416843E+03  0.14851972897E+04  0.80276648187E+03  0.19482701397E+04  0.25500000920E-02 0.  1.
</event>
<event>
 5   0  0.1558258E-07  0.3692774E+04  0.7818609E-02  0.8069565E-01
       -2   -1    0    0    0  501  0.00000000000E+00  0.00000000000E+00  0.16118942618E+04  0.16118942618E+04  0.25500000920E-02 0. -1.
        2   -1    0    0  501    0  0.00000000000E+00  0.00000000000E+00 -0.21149925670E+04  0.21149925670E+04  0.25500000920E-02 0.  1.
    10030    2    1    2    0    0  0.00000000000E+00  0.00000000000E+00 -0.50309830514E+03  0.37268868288E+04  0.36927736906E+04 0.  0.
        1    1    3    3  502    0  0.91579400923E+03 -0.63340503026E+03 -0.17379970631E+04  0.20641013519E+04  0.50400001928E-02 0.  1.
       -1    1    3    3    0  502 -0.91579400923E+03  0.63340503026E+03  0.12348987580E+04  0.16627854769E+04  0.50400001928E-02 0. -1.
</event>
<event>
 5   0  0.5177000E-08  0.3734257E+04  0.7818609E-02  0.8060412E-01
       -3   -1    0    0    0  501  0.00000000000E+00  0.00000000000E+00  0.29550085908E+04  0.29550085925E+04  0.10100000352E+00 0. -1.
        3   -1    0    0  501    0  0.00000000000E+00  0.00000000000E+00 -0.11797493766E+04  0.11797493809E+04  0.10100000352E+00 0.  1.
    10030    2    1    2    0    0  0.00000000000E+00  0.00000000000E+00  0.17752592142E+04  0.41347579735E+04  0.37342573856E+04 0.  0.
        2    1    3    3  502    0 -0.13197112933E+04 -0.11935486911E+04  0.26130044472E+03  0.17984644278E+04  0.25500000920E-02 0.  1.
       -2    1    3    3    0  502  0.13197112933E+04  0.11935486911E+04  0.15139587694E+04  0.23362935456E+04  0.25500000920E-02 0. -1.
</event>
<event>
 5   0  0.5177000E-08  0.3650716E+04  0.7818609E-02  0.8078972E-01
        1   -1    0    0  501    0  0.00000000000E+00  0.00000000000E+00  0.21632094178E+04  0.21632094178E+04  0.50400001928E-02 0. -1.
       -1   -1    0    0    0  501  0.00000000000E+00  0.00000000000E+00 -0.15402726951E+04  0.15402726951E+04  0.50400001928E-02 0.  1.
    10030    2    1    2    0    0  0.00000000000E+00  0.00000000000E+00  0.62293672271E+03  0.37034821129E+04  0.36507163133E+04 0.  0.
        1    1    3    3  502    0  0.61807979798E+03 -0.81842582093E+03  0.18432895017E+04  0.21093979350E+04  0.50400001928E-02 0. -1.
       -1    1    3    3    0  502 -0.61807979798E+03  0.81842582093E+03 -0.12203527790E+04  0.15940841779E+04  0.50400001928E-02 0.  1.
</event>
<event>
 5   0  0.1558258E-07  0.3779031E+04  0.7818609E-02  0.8050670E-01
       -2   -1    0    0    0  501  0.00000000000E+00  0.00000000000E+00  0.18989362193E+04  0.18989362193E+04  0.25500000920E-02 0.  1.
        2   -1    0    0  501    0  0.00000000000E+00  0.00000000000E+00 -0.18801419886E+04  0.18801419886E+04  0.25500000920E-02 0. -1.
    10030    2    1    2    0    0  0.00000000000E+00  0.00000000000E+00  0.18794230672E+02  0.37790782079E+04  0.37790314736E+04 0.  0.
        1    1    3    3  502    0  0.17470700474E+04  0.68895904455E+03  0.21760969044E+03  0.18905745933E+04  0.50400001928E-02 0.  1.
       -1    1    3    3    0  502 -0.17470700474E+04 -0.68895904455E+03 -0.19881545977E+03  0.18885036146E+04  0.50400001928E-02 0. -1.
</event>
<event>
 5   0  0.5177000E-08  0.3704346E+04  0.7818609E-02  0.8066999E-01
        1   -1    0    0  501    0  0.00000000000E+00  0.00000000000E+00  0.16930112519E+04  0.16930112519E+04  0.50400001928E-02 0. -1.
       -1   -1    0    0    0  501  0.00000000000E+00  0.00000000000E+00 -0.20262980901E+04  0.20262980901E+04  0.50400001928E-02 0.  1.
    10030    2    1    2    0    0  0.00000000000E+00  0.00000000000E+00 -0.33328683819E+03  0.37193093420E+04  0.37043463479E+04 0.  0.
        2    1    3    3  502    0 -0.14821740435E+04 -0.10293108050E+02  0.94851824050E+03  0.17597251762E+04  0.25500000920E-02 0. -1.
       -2    1    3    3    0  502  0.14821740435E+04  0.10293108050E+02 -0.12818050787E+04  0.19595841658E+04  0.25500000920E-02 0.  1.
</event>
<event>
 5   0  0.5177000E-08  0.3751916E+04  0.7818609E-02  0.8056553E-01
        1   -1    0    0  501    0  0.00000000000E+00  0.00000000000E+00  0.23051284496E+04  0.23051284496E+04  0.50400001928E-02 0.  1.
       -1   -1    0    0    0  501  0.00000000000E+00  0.00000000000E+00 -0.15266905997E+04  0.15266905997E+04  0.50400001928E-02 0. -1.
    10030    2    1    2    0    0  0.00000000000E+00  0.00000000000E+00  0.77843784986E+03  0.38318190493E+04  0.37519157428E+04 0.  0.
        3    1    3    3  502    0  0.42925639739E+03  0.39416047598E+03 -0.14318977723E+04  0.15459478569E+04  0.10100000352E+00 0. -1.
       -3    1    3    3    0  502 -0.42925639739E+03 -0.39416047598E+03  0.22103356222E+04  0.22858711925E+04  0.10100000352E+00 0.  1.
</event>
<event>
 5   0  0.5177000E-08  0.3693161E+04  0.7818609E-02  0.8069479E-01
       -1   -1    0    0    0  501  0.00000000000E+00  0.00000000000E+00  0.21652560471E+04  0.21652560471E+04  0.50400001928E-02 0. -1.
        1   -1    0    0  501    0  0.00000000000E+00  0.00000000000E+00 -0.15748064038E+04  0.15748064038E+04  0.50400001928E-02 0.  1.
    10030    2    1    2    0    0  0.00000000000E+00  0.00000000000E+00  0.59044964329E+03  0.37400624509E+04  0.36931607541E+04 0.  0.
        4    1    3    3  502    0  0.13745405195E+04 -0.90251335327E+03 -0.55566313366E+03  0.17357001825E+04  0.12699999809E+01 0.  1.
       -4    1    3    3    0  502 -0.13745405195E+04  0.90251335327E+03  0.11461127770E+04  0.20043622684E+04  0.12699999809E+01 0. -1.
</event>
<event>
 5   0  0.1558258E-07  0.3777047E+04  0.7818609E-02  0.8051098E-01
        2   -1    0    0  501    0  0.00000000000E+00  0.00000000000E+00  0.24997565067E+04  0.24997565067E+04  0.25500000920E-02 0. -1.
       -2   -1    0    0    0  501  0.00000000000E+00  0.00000000000E+00 -0.14267475957E+04  0.14267475957E+04  0.25500000920E-02 0.  1.
    10030    2    1    2    0    0  0.00000000000E+00  0.00000000000E+00  0.10730089110E+04  0.39265041024E+04  0.37770473049E+04 0.  0.
        1    1    3    3  502    0  0.13610197544E+04  0.13077891206E+04  0.47213141433E+03  0.19456606149E+04  0.50400001928E-02 0. -1.
       -1    1    3    3    0  502 -0.13610197544E+04 -0.13077891206E+04  0.60087749662E+03  0.19808434875E+04  0.50400001928E-02 0.  1.
</event>
<event>
 5   0  0.5177000E-08  0.3739377E+04  0.7818609E-02  0.8059291E-01
       -1   -1    0    0    0  501  0.00000000000E+00  0.00000000000E+00  0.30425885324E+04  0.30425885324E+04  0.50400001928E-02 0.  1.
        1   -1    0    0  501    0  0.00000000000E+00  0.00000000000E+00 -0.11489346785E+04  0.11489346786E+04  0.50400001928E-02 0. -1.
    10030    2    1    2    0    0  0.00000000000E+00  0.00000000000E+00  0.18936538539E+04  0.41915232110E+04  0.37393772088E+04 0.  0.
        2    1    3    3  502    0 -0.15349770432E+04 -0.93566667459E+03  0.37077178427E+03  0.18355103827E+04  0.25500000920E-02 0.  1.
       -2    1    3    3    0  502  0.15349770432E+04  0.93566667459E+03  0.15228820696E+04  0.23560128283E+04  0.25500000920E-02 0. -1.
</event>
<event>
 5   0  0.5181371E-08  0.3811897E+04  0.7818609E-02  0.8043607E-01
       -1   -1    0    0    0  501  0.00000000000E+00  0.00000000000E+00  0.14452385305E+04  0.14452385305E+04  0.50400001928E-02 0.  1.
        1   -1    0    0  501    0  0.00000000000E+00  0.00000000000E+00 -0.25135223096E+04  0.25135223096E+04  0.50400001928E-02 0. -1.
    10030    2    1    2    0    0  0.00000000000E+00  0.00000000000E+00 -0.10682837791E+04  0.39587608401E+04  0.38118967924E+04 0.  0.
        5    1    3    3  502    0 -0.13255917418E+04 -0.59644516004E+03 -0.18143888801E+04  0.23248590050E+04  0.46999998093E+01 0. -1.
       -5    1    3    3    0  502  0.13255917418E+04  0.59644516004E+03  0.74610510102E+03  0.16339018351E+04  0.46999998093E+01 0.  1.
</event>
<event>
 5   0  0.5181371E-08  0.3706291E+04  0.7818609E-02  0.8066569E-01
        1   -1    0    0  501    0  0.00000000000E+00  0.00000000000E+00  0.13417221398E+04  0.13417221398E+04  0.50400001928E-02 0.  1.
       -1   -1    0    0    0  501  0.00000000000E+00  0.00000000000E+00 -0.25595074916E+04  0.25595074917E+04  0.50400001928E-02 0. -1.
    10030    2    1    2    0    0  0.00000000000E+00  0.00000000000E+00 -0.12177853519E+04  0.39012296315E+04  0.37062907973E+04 0.  0.
        5    1    3    3  502    0 -0.62317141563E+03  0.72015918029E+03  0.10644229629E+04  0.14282822523E+04  0.46999998093E+01 0.  1.
       -5    1    3    3    0  502  0.62317141563E+03 -0.72015918029E+03 -0.22822083148E+04  0.24729473792E+04  0.46999998093E+01 0. -1.
</event>
<event>
 5   0  0.1558258E-07  0.3692342E+04  0.7818609E-02  0.8069661E-01
        2   -1    0    0  501    0  0.00000000000E+00  0.00000000000E+00  0.18878762205E+04  0.18878762205E+04  0.25500000920E-02 0.  1.
       -2   -1    0    0    0  501  0.00000000000E+00  0.00000000000E+00 -0.18053874089E+04  0.18053874089E+04  0.25500000920E-02 0. -1.
    10030    2    1    2    0    0  0.00000000000E+00  0.00000000000E+00  0.82488811550E+02  0.36932636294E+04  0.36923423233E+04 0.  0.
        1    1    3    3  502    0 -0.12022809561E+04  0.11486959043E+04 -0.76105683637E+03  0.18287124668E+04  0.50400001928E-02 0. -1.
       -1    1    3    3    0  502  0.12022809561E+04 -0.11486959043E+04  0.84354564792E+03  0.18645511626E+04  0.50400001928E-02 0.  1.
</event>
<event>
 5   0  0.5181371E-08  0.3669105E+04  0.7818609E-02  0.8074843E-01
       -1   -1    0    0    0  501  0.00000000000E+00  0.00000000000E+00  0.13253305030E+04  0.13253305031E+04  0.50400001928E-02 0. -1.
        1   -1    0    0  501    0  0.00000000000E+00  0.00000000000E+00 -0.25394290507E+04  0.25394290507E+04  0.50400001928E-02 0.  1.
    10030    2    1    2    0    0  0.00000000000E+00  0.00000000000E+00 -0.12140985477E+04  0.38647595538E+04  0.36691049488E+04 0.  0.
        5    1    3    3  502    0  0.70342002688E+03 -0.14745887882E+03  0.11708610553E+04  0.13738564539E+04  0.46999998093E+01 0. -1.
       -5    1    3    3    0  502 -0.70342002688E+03  0.14745887882E+03 -0.23849596030E+04  0.24909030999E+04  0.46999998093E+01 0.  1.
</event>
<event>
 5   0  0.1658770E-07  0.3690365E+04  0.7818609E-02  0.8070100E-01
        2   -1    0    0  501    0  0.00000000000E+00  0.00000000000E+00  0.12210275672E+04  0.12210275672E+04  0.25500000920E-02 0. -1.
       -2   -1    0    0    0  501  0.00000000000E+00  0.00000000000E+00 -0.27883882008E+04  0.27883882008E+04  0.25500000920E-02 0.  1.
    10030    2    1    2    0    0  0.00000000000E+00  0.00000000000E+00 -0.15673606336E+04  0.40094157680E+04  0.36903652183E+04 0.  0.
        2    1    3    3  502    0  0.14081896930E+04 -0.56794427819E+03  0.35535775815E+03  0.15594351704E+04  0.25500000920E-02 0.  1.
       -2    1    3    3    0  502 -0.14081896930E+04  0.56794427819E+03 -0.19227183917E+04  0.24499805975E+04  0.25500000920E-02 0. -1.
</event>
<event>
 5   0  0.5177000E-08  0.3721682E+04  0.7818609E-02  0.8063174E-01
       -1   -1    0    0    0  501  0.00000000000E+00  0.00000000000E+00  0.14584933525E+04  0.14584933525E+04  0.50400001928E-02 0. -1.
        1   -1    0    0  501    0  0.00000000000E+00  0.00000000000E+00 -0.23741827472E+04  0.23741827472E+04  0.50400001928E-02 0.  1.
    10030    2    1    2    0    0  0.00000000000E+00  0.00000000000E+00 -0.91568939465E+03  0.38326760997E+04  0.37216822833E+04 0.  0.
        2    1    3    3  502    0 -0.11506079878E+02  0.33404124025E+03 -0.23430164884E+04  0.23667366151E+04  0.25500000920E-02 0.  1.
       -2    1    3    3    0  502  0.11506079878E+02 -0.33404124025E+03  0.14273270938E+04  0.14659394847E+04  0.25500000920E-02 0. -1.
</event>
<event>
 5   0  0.1686284E-07  0.3712995E+04  0.7818609E-02  0.8065088E-01
        2   -1    0    0  501    0  0.00000000000E+00  0.00000000000E+00  0.11911072552E+04  0.11911072552E+04  0.25500000920E-02 0.  1.
       -2   -1    0    0    0  501  0.00000000000E+00  0.00000000000E+00 -0.28935958026E+04  0.28935958026E+04  0.25500000920E-02 0. -1.
    10030    2    1    2    0    0  0.00000000000E+00  0.00000000000E+00 -0.17024885474E+04  0.40847030578E+04  0.37129949927E+04 0.  0.
        5    1    3    3  502    0  0.17606355340E+04 -0.13962342244E+02 -0.14988423718E+04  0.23122679291E+04  0.46999998093E+01 0. -1.
       -5    1    3    3    0  502 -0.17606355340E+04  0.13962342244E+02 -0.20364617558E+03  0.17724351287E+04  0.46999998093E+01 0.  1.
</event>
<event>
 5   0  0.1666189E-07  0.3756982E+04  0.7818609E-02  0.8055450E-01
        2   -1    0    0  501    0  0.00000000000E+00  0.00000000000E+00  0.17637010712E+04  0.17637010712E+04  0.25500000920E-02 0.  1.
       -2   -1    0    0    0  501  0.00000000000E+00  0.00000000000E+00 -0.20007525137E+04  0.20007525137E+04  0.25500000920E-02 0. -1.
    10030    2    1    2    0    0  0.00000000000E+00  0.00000000000E+00 -0.23705144256E+03  0.37644535849E+04  0.37569824868E+04 0.  0.
        4    1    3    3  502    0  0.12789581802E+04  0.41452058822E+03  0.11960154872E+04  0.17994488055E+04  0.12699999809E+01 0.  1.
       -4    1    3    3    0  502 -0.12789581802E+04 -0.41452058822E+03 -0.14330669298E+04  0.19650047794E+04  0.12699999809E+01 0. -1.
</event>
<event>
 5   0  0.1666189E-07  0.3717734E+04  0.7818609E-02  0.8064043E-01
        2   -1    0    0  501    0  0.00000000000E+00  0.00000000000E+00  0.13737319259E+04  0.13737319259E+04  0.25500000920E-02 0. -1.
       -2   -1    0    0    0  501  0.00000000000E+00  0.00000000000E+00 -0.25153283166E+04  0.25153283166E+04  0.25500000920E-02 0.  1.
    10030    2    1    2    0    0  0.00000000000E+00  0.00000000000E+00 -0.11415963907E+04  0.38890602425E+04  0.37177341555E+04 0.  0.
        4    1    3    3  502    0 -0.60800428292E+02 -0.12464609862E+03 -0.25099084969E+04  0.25137373805E+04  0.12699999809E+01 0.  1.
       -4    1    3    3    0  502  0.60800428292E+02  0.12464609862E+03  0.13683121062E+04  0.13753228621E+04  0.12699999809E+01 0. -1.
</event>
<event>
 5   0  0.5177000E-08  0.3697823E+04  0.7818609E-02  0.8068444E-01
       -3   -1    0    0    0  501  0.00000000000E+00  0.00000000000E+00  0.21980355513E+04  0.21980355536E+04  0.10100000352E+00 0. -1.
        3   -1    0    0  501    0  0.00000000000E+00  0.00000000000E+00 -0.15552403302E+04  0.15552403335E+04  0.10100000352E+00 0.  1.
    10030    2    1    2    0    0  0.00000000000E+00  0.00000000000E+00  0.64279522111E+03  0.37532758871E+04  0.36978228985E+04 0.  0.
        4    1    3    3  502    0  0.18123837337E+04  0.34824292299E+03  0.20808111202E+03  0.18572310825E+04  0.12699999809E+01 0. -1.
       -4    1    3    3    0  502 -0.18123837337E+04 -0.34824292299E+03  0.43471410909E+03  0.18960448046E+04  0.12699999809E+01 0.  1.
</event>
<event>
 5   0  0.5177000E-08  0.3683792E+04  0.7818609E-02  0.8071563E-01
        3   -1    0    0  501    0  0.00000000000E+00  0.00000000000E+00  0.16514799776E+04  0.16514799807E+04  0.10100000352E+00 0.  1.
       -3   -1    0    0    0  501  0.00000000000E+00  0.00000000000E+00 -0.20542675362E+04  0.20542675386E+04  0.10100000352E+00 0. -1.
    10030    2    1    2    0    0  0.00000000000E+00  0.00000000000E+00 -0.40278755857E+03  0.37057475193E+04  0.36837924561E+04 0.  0.
        5    1    3    3  502    0 -0.23249987686E+03  0.67046564924E+03 -0.19112235845E+04  0.20387197109E+04  0.46999998093E+01 0. -1.
       -5    1    3    3    0  502  0.23249987686E+03 -0.67046564924E+03  0.15084360260E+04  0.16670278084E+04  0.46999998093E+01 0.  1.
</event>
<event>
 5   0  0.5181371E-08  0.3692124E+04  0.7818609E-02  0.8069709E-01
        1   -1    0    0  501    0  0.00000000000E+00  0.00000000000E+00  0.17257665622E+04  0.17257665622E+04  0.50400001928E-02 0.  1.
       -1   -1    0    0    0  501  0.00000000000E+00  0.00000000000E+00 -0.19747427094E+04  0.19747427094E+04  0.50400001928E-02 0. -1.
    10030    2    1    2    0    0  0.00000000000E+00  0.00000000000E+00 -0.24897614719E+03  0.37005092716E+04  0.36921240157E+04 0.  0.
        5    1    3    3  502    0 -0.11336924895E+04 -0.11222383911E+04  0.80673193191E+03  0.17876006733E+04  0.46999998093E+01 0.  1.
       -5    1    3    3    0  502  0.11336924895E+04  0.11222383911E+04 -0.10557080791E+04  0.19129085983E+04  0.46999998093E+01 0. -1.
</event>
<event>
 5   0  0.1558258E-07  0.3689172E+04  0.7818609E-02  0.8070366E-01
        2   -1    0    0  501    0  0.00000000000E+00  0.00000000000E+00  0.21274784070E+04  0.21274784070E+04  0.25500000920E-02 0.  1.
       -2   -1    0    0    0  501  0.00000000000E+00  0.00000000000E+00 -0.15993096044E+04  0.15993096044E+04  0.25500000920E-02 0. -1.
    10030    2    1    2    0    0  0.00000000000E+00  0.00000000000E+00  0.52816880260E+03  0.37267880114E+04  0.36891715328E+04 0.  0.
        1    1    3    3  502    0  0.37653478585E+02 -0.54847843312E+03  0.20427905986E+04  0.21154762598E+04  0.50400001928E-02 0.  1.
       -1    1    3    3    0  502 -0.37653478585E+02  0.54847843312E+03 -0.15146217960E+04  0.16113117516E+04  0.50400001928E-02 0. -1.
</event>
<event>
 5   0  0.1686284E-07  0.3699085E+04  0.7818609E-02  0.8068165E-01
        2   -1    0    0  501    0  0.00000000000E+00  0.00000000000E+00  0.97621584385E+03  0.97621584385E+03  0.25500000920E-02 0.  1.
       -2   -1    0    0    0  501  0.00000000000E+00  0.00000000000E+00 -0.35041512991E+04  0.35041512991E+04  0.25500000920E-02 0. -1.
    10030    2    1    2    0    0  0.00000000000E+00  0.00000000000E+00 -0.25279354553E+04  0.44803671430E+04  0.36990853018E+04 0.  0.
        5    1    3    3  502    0  0.81919776510E+03  0.11832441065E+04  0.14313989646E+03  0.14462581768E+04  0.46999998093E+01 0.  1.
       -5    1    3    3    0  502 -0.81919776510E+03 -0.11832441065E+04 -0.26710753517E+04  0.30341089662E+04  0.46999998093E+01 0. -1.
</event>
<event>
 5   0  0.5181371E-08  0.3684124E+04  0.7818609E-02  0.8071489E-01
        1   -1    0    0  501    0  0.00000000000E+00  0.00000000000E+00  0.21921536088E+04  0.21921536088E+04  0.50400001928E-02 0.  1.
       -1   -1    0    0    0  501  0.00000000000E+00  0.00000000000E+00 -0.15478810838E+04  0.15478810838E+04  0.50400001928E-02 0. -1.
    10030    2    1    2    0    0  0.00000000000E+00  0.00000000000E+00  0.64427252496E+03  0.37400346926E+04  0.36841243757E+04 0.  0.
        5    1    3    3  502    0 -0.93233375509E+03  0.88304903093E+03 -0.10185685330E+04  0.16390624663E+04  0.46999998093E+01 0. -1.
       -5    1    3    3    0  502  0.93233375509E+03 -0.88304903093E+03  0.16628410579E+04  0.21009722263E+04  0.46999998093E+01 0.  1.
</event>
<event>
 5   0  0.1666189E-07  0.3703236E+04  0.7818609E-02  0.8067245E-01
        2   -1    0    0  501    0  0.00000000000E+00  0.00000000000E+00  0.22510883878E+04  0.22510883878E+04  0.25500000920E-02 0.  1.
       -2   -1    0    0    0  501  0.00000000000E+00  0.00000000000E+00 -0.15230359125E+04  0.15230359125E+04  0.25500000920E-02 0. -1.
    10030    2    1    2    0    0  0.00000000000E+00  0.00000000000E+00  0.72805247537E+03  0.37741243003E+04  0.37032355889E+04 0.  0.
        4    1    3    3  502    0 -0.14605423824E+04 -0.75799669274E+03 -0.50119130769E+03  0.17201562071E+04  0.12699999809E+01 0.  1.
       -4    1    3    3    0  502  0.14605423824E+04  0.75799669274E+03  0.12292437831E+04  0.20539680932E+04  0.12699999809E+01 0. -1.
</event>
<event>
 5   0  0.1558258E-07  0.3704398E+04  0.7818609E-02  0.8066988E-01
       -2   -1    0    0    0  501  0.00000000000E+00  0.00000000000E+00  0.13249776363E+04  0.13249776363E+04  0.25500000920E-02 0. -1.
        2   -1    0    0  501    0  0.00000000000E+00  0.00000000000E+00 -0.25892073179E+04  0.25892073179E+04  0.25500000920E-02 0.  1.
    10030    2    1    2    0    0  0.00000000000E+00  0.00000000000E+00 -0.12642296816E+04  0.39141849541E+04  0.37043983543E+04 0.  0.
        1    1    3    3  502    0  0.80448198262E+03 -0.14333706291E+04 -0.15342204616E+04  0.22484605946E+04  0.50400001928E-02 0.  1.
       -1    1    3    3    0  502 -0.80448198262E+03  0.14333706291E+04  0.26999077998E+03  0.16657243595E+04  0.50400001928E-02 0. -1.
</event>
<event>
 5   0  0.5177000E-08  0.3700783E+04  0.7818609E-02  0.8067788E-01
       -1   -1    0    0    0  501  0.00000000000E+00  0.00000000000E+00  0.13226759326E+04  0.13226759326E+04  0.50400001928E-02 0. -1.
        1   -1    0    0  501    0  0.00000000000E+00  0.00000000000E+00 -0.25886532154E+04  0.25886532154E+04  0.50400001928E-02 0.  1.
    10030    2    1    2    0    0  0.00000000000E+00  0.00000000000E+00 -0.12659772828E+04  0.39113291480E+04  0.37007833257E+04 0.  0.
        3    1    3    3  502    0  0.13822194286E+04  0.12113126619E+04 -0.86001239405E+03  0.20291451998E+04  0.10100000352E+00 0.  1.
       -3    1    3    3    0  502 -0.13822194286E+04 -0.12113126619E+04 -0.40596488871E+03  0.18821839482E+04  0.10100000352E+00 0. -1.
</event>
<event>
 5   0  0.1587026E-07  0.3691442E+04  0.7818609E-02  0.8069861E-01
       -2   -1    0    0    0  501  0.00000000000E+00  0.00000000000E+00  0.23480776555E+04  0.23480776555E+04  0.25500000920E-02 0.  1.
        2   -1    0    0  501    0  0.00000000000E+00  0.00000000000E+00 -0.14508406010E+04  0.14508406010E+04  0.25500000920E-02 0. -1.
    10030    2    1    2    0    0  0.00000000000E+00  0.00000000000E+00  0.89723705441E+03  0.37989182565E+04  0.36914422097E+04 0.  0.
        3    1    3    3  502    0  0.92255046464E+03  0.91480993614E+03  0.17977837952E+04  0.22181080144E+04  0.10100000352E+00 0.  1.
       -3    1    3    3    0  502 -0.92255046464E+03 -0.91480993614E+03 -0.90054674077E+03  0.15808102421E+04  0.10100000352E+00 0. -1.
</event>
<event>
 5   0  0.5177000E-08  0.3937827E+04  0.7818609E-02  0.8017208E-01
        1   -1    0    0  501    0  0.00000000000E+00  0.00000000000E+00  0.27483754204E+04  0.27483754204E+04  0.50400001928E-02 0. -1.
       -1   -1    0    0    0  501  0.00000000000E+00  0.00000000000E+00 -0.14105130612E+04  0.14105130612E+04  0.50400001928E-02 0.  1.
    10030    2    1    2    0    0  0.00000000000E+00  0.00000000000E+00  0.13378623592E+04  0.41588884816E+04  0.39378265211E+04 0.  0.
        3    1    3    3  502    0 -0.25239912933E+03 -0.13105042126E+04  0.21977773249E+04  0.25712549060E+04  0.10100000352E+00 0. -1.
       -3    1    3    3    0  502  0.25239912933E+03  0.13105042126E+04 -0.85991496572E+03  0.15876335755E+04  0.10100000352E+00 0.  1.
</event>
<event>
 5   0  0.5181371E-08  0.3691625E+04  0.7818609E-02  0.8069820E-01
        1   -1    0    0  501    0  0.00000000000E+00  0.00000000000E+00  0.27048258222E+04  0.27048258222E+04  0.50400001928E-02 0. -1.
       -1   -1    0    0    0  501  0.00000000000E+00  0.00000000000E+00 -0.12596090911E+04  0.12596090911E+04  0.50400001928E-02 0.  1.
    10030    2    1    2    0    0  0.00000000000E+00  0.00000000000E+00  0.14452167311E+04  0.39644349133E+04  0.36916246805E+04 0.  0.
        5    1    3    3  502    0  0.11653993792E+04  0.13638997866E+03 -0.80755492921E+03  0.14244033814E+04  0.46999998093E+01 0.  1.
       -5    1    3    3    0  502 -0.11653993792E+04 -0.13638997866E+03  0.22527716603E+04  0.25400315319E+04  0.46999998093E+01 0. -1.
</event>
<event>
 5   0  0.5177000E-08  0.3715476E+04  0.7818609E-02  0.8064541E-01
        1   -1    0    0  501    0  0.00000000000E+00  0.00000000000E+00  0.24633984824E+04  0.24633984824E+04  0.50400001928E-02 0. -1.
       -1   -1    0    0    0  501  0.00000000000E+00  0.00000000000E+00 -0.14009872091E+04  0.14009872091E+04  0.50400001928E-02 0.  1.
    10030    2    1    2    0    0  0.00000000000E+00  0.00000000000E+00  0.10624112733E+04  0.38643856914E+04  0.37154756167E+04 0.  0.
        1    1    3    3  502    0  0.55396830854E+03 -0.12078841465E+04 -0.81902466872E+03  0.15609825131E+04  0.50400001928E-02 0.  1.
       -1    1    3    3    0  502 -0.55396830854E+03  0.12078841465E+04  0.18814359420E+04  0.23034031784E+04  0.50400001928E-02 0. -1.
</event>
<event>
 5   0  0.5177000E-08  0.3701743E+04  0.7818609E-02  0.8067576E-01
       -1   -1    0    0    0  501  0.00000000000E+00  0.00000000000E+00  0.18696052375E+04  0.18696052375E+04  0.50400001928E-02 0.  1.
        1   -1    0    0  501    0  0.00000000000E+00  0.00000000000E+00 -0.18323254997E+04  0.18323254998E+04  0.50400001928E-02 0. -1.
    10030    2    1    2    0    0  0.00000000000E+00  0.00000000000E+00  0.37279737767E+02  0.37019307373E+04  0.37017430225E+04 0.  0.
        1    1    3    3  502    0 -0.97696144819E+03 -0.15512019346E+04  0.27369052034E+03  0.18535338179E+04  0.50400001928E-02 0. -1.
       -1    1    3    3    0  502  0.97696144819E+03  0.15512019346E+04 -0.23641078257E+03  0.18483969193E+04  0.50400001928E-02 0.  1.
</event>
<event>
 5   0  0.1587026E-07  0.3686573E+04  0.7818609E-02  0.8070944E-01
        2   -1    0    0  501    0  0.00000000000E+00  0.00000000000E+00  0.23384683728E+04  0.23384683728E+04  0.25500000920E-02 0.  1.
       -2   -1    0    0    0  501  0.00000000000E+00  0.00000000000E+00 -0.14529620922E+04  0.14529620922E+04  0.25500000920E-02 0. -1.
    10030    2    1    2    0    0  0.00000000000E+00  0.00000000000E+00  0.88550628053E+03  0.37914304650E+04  0.36865734223E+04 0.  0.
        3    1    3    3  502    0 -0.10101277485E+04  0.14459151181E+04  0.99340467565E+03  0.20243224686E+04  0.10100000352E+00 0. -1.
       -3    1    3    3    0  502  0.10101277485E+04 -0.14459151181E+04 -0.10789839513E+03  0.17671079964E+04  0.10100000352E+00 0.  1.
</event>
<event>
 5   0  0.5177000E-08  0.3696378E+04  0.7818609E-02  0.8068765E-01
        1   -1    0    0  501    0  0.00000000000E+00  0.00000000000E+00  0.15411378750E+04  0.15411378750E+04  0.50400001928E-02 0. -1.
       -1   -1    0    0    0  501  0.00000000000E+00  0.00000000000E+00 -0.22164163890E+04  0.22164163890E+04  0.50400001928E-02 0.  1.
    10030    2    1    2    0    0  0.00000000000E+00  0.00000000000E+00 -0.67527851401E+03  0.37575542640E+04  0.36963783594E+04 0.  0.
        1    1    3    3  502    0 -0.62820139411E+03  0.17114296742E+04 -0.64626685716E+03  0.19342412910E+04  0.50400001928E-02 0.  1.
       -1    1    3    3    0  502  0.62820139411E+03 -0.17114296742E+04 -0.29011656850E+02  0.18233129730E+04  0.50400001928E-02 0. -1.
</event>
<event>
 5   0  0.5177000E-08  0.3685337E+04  0.7818609E-02  0.8071219E-01
       -1   -1    0    0    0  501  0.00000000000E+00  0.00000000000E+00  0.24784002576E+04  0.24784002576E+04  0.50400001928E-02 0.  1.
        1   -1    0    0  501    0  0.00000000000E+00  0.00000000000E+00 -0.13700078253E+04  0.13700078253E+04  0.50400001928E-02 0. -1.
    10030    2    1    2    0    0  0.00000000000E+00  0.00000000000E+00  0.11083924323E+04  0.38484080829E+04  0.36853372964E+04 0.  0.
        2    1    3    3  502    0 -0.36778260787E+03 -0.16124325226E+04 -0.29429993825E+03  0.16798259256E+04  0.25500000920E-02 0.  1.
       -2    1    3    3    0  502  0.36778260787E+03  0.16124325226E+04  0.14026923705E+04  0.21685821573E+04  0.25500000920E-02 0. -1.
</event>
<event>
 5   0  0.5181371E-08  0.3704080E+04  0.7818609E-02  0.8067058E-01
       -1   -1    0    0    0  501  0.00000000000E+00  0.00000000000E+00  0.26298876594E+04  0.26298876594E+04  0.50400001928E-02 0. -1.
        1   -1    0    0  501    0  0.00000000000E+00  0.00000000000E+00 -0.13042577457E+04  0.13042577457E+04  0.50400001928E-02 0.  1.
    10030    2    1    2    0    0  0.00000000000E+00  0.00000000000E+00  0.13256299136E+04  0.39341454051E+04  0.37040795618E+04 0.  0.
        5    1    3    3  502    0 -0.14404898611E+04 -0.11526556934E+04  0.49023222663E+03  0.19089200909E+04  0.46999998093E+01 0.  1.
       -5    1    3    3    0  502  0.14404898611E+04  0.11526556934E+04  0.83539768702E+03  0.20252253141E+04  0.46999998093E+01 0. -1.
</event>
<event>
 5   0  0.1558258E-07  0.3680710E+04  0.7818609E-02  0.8072250E-01
       -2   -1    0    0    0  501  0.00000000000E+00  0.00000000000E+00  0.15582110684E+04  0.15582110684E+04  0.25500000920E-02 0. -1.
        2   -1    0    0  501    0  0.00000000000E+00  0.00000000000E+00 -0.21735867836E+04  0.21735867836E+04  0.25500000920E-02 0.  1.
    10030    2    1    2    0    0  0.00000000000E+00  0.00000000000E+00 -0.61537571521E+03  0.37317978521E+04  0.36807102491E+04 0.  0.
        1    1    3    3  502    0  0.14821936586E+04 -0.91686094092E+03  0.29159570574E+03  0.17670767052E+04  0.50400001928E-02 0. -1.
       -1    1    3    3    0  502 -0.14821936586E+04  0.91686094092E+03 -0.90697142095E+03  0.19647211469E+04  0.50400001928E-02 0.  1.
</event>
<event>
 5   0  0.1587026E-07  0.3695355E+04  0.7818609E-02  0.8068992E-01
       -2   -1    0    0    0  501  0.00000000000E+00  0.00000000000E+00  0.13016613149E+04  0.13016613149E+04  0.25500000920E-02 0.  1.
        2   -1    0    0  501    0  0.00000000000E+00  0.00000000000E+00 -0.26227347399E+04  0.26227347399E+04  0.25500000920E-02 0. -1.
    10030    2    1    2    0    0  0.00000000000E+00  0.00000000000E+00 -0.13210734251E+04  0.39243960548E+04  0.36953551116E+04 0.  0.
        3    1    3    3  502    0 -0.33360902995E+02  0.11937651109E+04 -0.21577880837E+04  0.24662192754E+04  0.10100000352E+00 0. -1.
       -3    1    3    3    0  502  0.33360902995E+02 -0.11937651109E+04  0.83671465864E+03  0.14581767794E+04  0.10100000352E+00 0.  1.
</event>
<event>
 5   0  0.5177000E-08  0.3689432E+04  0.7818609E-02  0.8070308E-01
        1   -1    0    0  501    0  0.00000000000E+00  0.00000000000E+00  0.18918783549E+04  0.18918783549E+04  0.50400001928E-02 0.  1.
       -1   -1    0    0    0  501  0.00000000000E+00  0.00000000000E+00 -0.17987297388E+04  0.17987297388E+04  0.50400001928E-02 0. -1.
    10030    2    1    2    0    0  0.00000000000E+00  0.00000000000E+00  0.93148616129E+02  0.36906080937E+04  0.36894324003E+04 0.  0.
        1    1    3    3  502    0  0.15734082999E+04 -0.39196231898E+02  0.10090804058E+04  0.18695970925E+04  0.50400001928E-02 0.  1.
       -1    1    3    3    0  502 -0.15734082999E+04  0.39196231898E+02 -0.91593178970E+03  0.18210110011E+04  0.50400001928E-02 0. -1.
</event>
<event>
 5   0  0.5177000E-08  0.3696526E+04  0.7818609E-02  0.8068732E-01
       -1   -1    0    0    0  501  0.00000000000E+00  0.00000000000E+00  0.19224258544E+04  0.19224258544E+04  0.50400001928E-02 0.  1.
        1   -1    0    0  501    0  0.00000000000E+00  0.00000000000E+00 -0.17769611342E+04  0.17769611342E+04  0.50400001928E-02 0. -1.
    10030    2    1    2    0    0  0.00000000000E+00  0.00000000000E+00  0.14546472019E+03  0.36993869886E+04  0.36965259510E+04 0.  0.
        2    1    3    3  502    0 -0.71502768395E+03  0.15219303192E+03  0.17715881876E+04  0.19164947207E+04  0.25500000920E-02 0.  1.
       -2    1    3    3    0  502  0.71502768395E+03 -0.15219303192E+03 -0.16261234674E+04  0.17828922680E+04  0.25500000920E-02 0. -1.
</event>
<event>
 5   0  0.5177000E-08  0.3701219E+04  0.7818609E-02  0.8067692E-01
        1   -1    0    0  501    0  0.00000000000E+00  0.00000000000E+00  0.24661636205E+04  0.24661636205E+04  0.50400001928E-02 0.  1.
       -1   -1    0    0    0  501  0.00000000000E+00  0.00000000000E+00 -0.13886974093E+04  0.13886974093E+04  0.50400001928E-02 0. -1.
    10030    2    1    2    0    0  0.00000000000E+00  0.00000000000E+00  0.10774662112E+04  0.38548610298E+04  0.37012187348E+04 0.  0.
        4    1    3    3  502    0  0.24614941309E+03 -0.17753190593E+04  0.58726195737E+02  0.17932645301E+04  0.12699999809E+01 0. -1.
       -4    1    3    3    0  502 -0.24614941309E+03  0.17753190593E+04  0.10187400155E+04  0.20615964998E+04  0.12699999809E+01 0.  1.
</event>
<event>
 5   0  0.5177000E-08  0.3800288E+04  0.7818609E-02  0.8046093E-01
       -1   -1    0    0    0  501  0.00000000000E+00  0.00000000000E+00  0.18925587554E+04  0.18925587554E+04  0.50400001928E-02 0.  1.
        1   -1    0    0  501    0  0.00000000000E+00  0.00000000000E+00 -0.19077600051E+04  0.19077600051E+04  0.50400001928E-02 0. -1.
    10030    2    1    2    0    0  0.00000000000E+00  0.00000000000E+00 -0.15201249744E+02  0.38003187605E+04  0.38002883579E+04 0.  0.
        3    1    3    3  502    0 -0.52957914900E+03  0.13990722057E+04 -0.11792288689E+04  0.19048458854E+04  0.10100000352E+00 0. -1.
       -3    1    3    3    0  502  0.52957914900E+03 -0.13990722057E+04  0.11640276191E+04  0.18954728751E+04  0.10100000352E+00 0.  1.
</event>
<event>
 5   0  0.5177000E-08  0.3693987E+04  0.7818609E-02  0.8069296E-01
        1   -1    0    0  501    0  0.00000000000E+00  0.00000000000E+00  0.15688279522E+04  0.15688279523E+04  0.50400001928E-02 0.  1.
       -1   -1    0    0    0  501  0.00000000000E+00  0.00000000000E+00 -0.21744795093E+04  0.21744795093E+04  0.50400001928E-02 0. -1.
    10030    2    1    2    0    0  0.00000000000E+00  0.00000000000E+00 -0.60565155709E+03  0.37433074616E+04  0.36939865922E+04 0.  0.
        1    1    3    3  502    0  0.23934859054E+03  0.86150854634E+03 -0.19405411200E+04  0.21366292523E+04  0.50400001928E-02 0. -1.
       -1    1    3    3    0  502 -0.23934859054E+03 -0.86150854634E+03  0.13348895629E+04  0.16066782093E+04  0.50400001928E-02 0.  1.
</event>
<event>
 5   0  0.1666189E-07  0.3700864E+04  0.7818609E-02  0.8067770E-01
       -2   -1    0    0    0  501  0.00000000000E+00  0.00000000000E+00  0.17221527663E+04  0.17221527663E+04  0.25500000920E-02 0.  1.
        2   -1    0    0  501    0  0.00000000000E+00  0.00000000000E+00 -0.19882668514E+04  0.19882668514E+04  0.25500000920E-02 0. -1.
    10030    2    1    2    0    0  0.00000000000E+00  0.00000000000E+00 -0.26611408505E+03  0.37104196177E+04  0.37008643630E+04 0.  0.
        4    1    3    3  502    0 -0.16856724813E+04 -0.65597960512E+03  0.25820263257E+03  0.18271483708E+04  0.12699999809E+01 0. -1.
       -4    1    3    3    0  502  0.16856724813E+04  0.65597960512E+03 -0.52431671762E+03  0.18832712470E+04  0.12699999809E+01 0.  1.
</event>
<event>
 5   0  0.1666189E-07  0.3696838E+04  0.7818609E-02  0.8068663E-01
        2   -1    0    0  501    0  0.00000000000E+00  0.00000000000E+00  0.10643699362E+04  0.10643699362E+04  0.25500000920E-02 0.  1.
       -2   -1    0    0    0  501  0.00000000000E+00  0.00000000000E+00 -0.32100232418E+04  0.32100232418E+04  0.25500000920E-02 0. -1.
    10030    2    1    2    0    0  0.00000000000E+00  0.00000000000E+00 -0.21456533056E+04  0.42743931781E+04  0.36968376936E+04 0.  0.
        4    1    3    3  502    0 -0.15077583996E+03  0.13687021198E+04 -0.24985903306E+04  0.28528992445E+04  0.12699999809E+01 0. -1.
       -4    1    3    3    0  502  0.15077583996E+03 -0.13687021198E+04  0.35293702499E+03  0.14214939335E+04  0.12699999809E+01 0.  1.
</event>
<event>
 5   0  0.5177000E-08  0.3713864E+04  0.7818609E-02  0.8064896E-01
       -1   -1    0    0    0  501  0.00000000000E+00  0.00000000000E+00  0.17233626000E+04  0.17233626000E+04  0.50400001928E-02 0.  1.
        1   -1    0    0  501    0  0.00000000000E+00  0.00000000000E+00 -0.20008541736E+04  0.20008541736E+04  0.50400001928E-02 0. -1.
    10030    2    1    2    0    0  0.00000000000E+00  0.00000000000E+00 -0.27749157359E+03  0.37242167736E+04  0.37138644299E+04 0.  0.
        1    1    3    3  502    0  0.13062126223E+04 -0.12549748783E+04 -0.54859509303E+03  0.18926462786E+04  0.50400001928E-02 0. -1.
       -1    1    3    3    0  502 -0.13062126223E+04  0.12549748783E+04  0.27110351944E+03  0.18315704950E+04  0.50400001928E-02 0.  1.
</event>
<event>
 5   0  0.5177000E-08  0.3707230E+04  0.7818609E-02  0.8066361E-01
       -1   -1    0    0    0  501  0.00000000000E+00  0.00000000000E+00  0.18567911762E+04  0.18567911762E+04  0.50400001928E-02 0.  1.
        1   -1    0    0  501    0  0.00000000000E+00  0.00000000000E+00 -0.18504445585E+04  0.18504445585E+04  0.50400001928E-02 0. -1.
    10030    2    1    2    0    0  0.00000000000E+00  0.00000000000E+00  0.63466177288E+01  0.37072357347E+04  0.37072303021E+04 0.  0.
        4    1    3    3  502    0 -0.11349298278E+04  0.12919169016E+04  0.69510822187E+03  0.18548024282E+04  0.12699999809E+01 0. -1.
       -4    1    3    3    0  502  0.11349298278E+04 -0.12919169016E+04 -0.68876160414E+03  0.18524333065E+04  0.12699999809E+01 0.  1.
</event>
<event>
 5   0  0.1666189E-07  0.3695239E+04  0.7818609E-02  0.8069018E-01
       -2   -1    0    0    0  501  0.00000000000E+00  0.00000000000E+00  0.16067157492E+04  0.16067157492E+04  0.25500000920E-02 0.  1.
        2   -1    0    0  501    0  0.00000000000E+00  0.00000000000E+00 -0.21246436856E+04  0.21246436856E+04  0.25500000920E-02 0. -1.
    10030    2    1    2    0    0  0.00000000000E+00  0.00000000000E+00 -0.51792793644E+03  0.37313594348E+04  0.36952393542E+04 0.  0.
        4    1    3    3  502    0 -0.11307139699E+04  0.96814273120E+03 -0.13641403839E+04  0.20190827198E+04  0.12699999809E+01 0. -1.
       -4    1    3    3    0  502  0.11307139699E+04 -0.96814273120E+03  0.84621244747E+03  0.17122767150E+04  0.12699999809E+01 0.  1.
</event>
<event>
 5   0  0.1666189E-07  0.3685796E+04  0.7818609E-02  0.8071117E-01
        2   -1    0    0  501    0  0.00000000000E+00  0.00000000000E+00  0.25959156009E+04  0.25959156009E+04  0.25500000920E-02 0. -1.
       -2   -1    0    0    0  501  0.00000000000E+00  0.00000000000E+00 -0.13083138341E+04  0.13083138341E+04  0.25500000920E-02 0.  1.
    10030    2    1    2    0    0  0.00000000000E+00  0.00000000000E+00  0.12876017668E+04  0.39042294351E+04  0.36857955955E+04 0.  0.
        4    1    3    3  502    0 -0.16372528043E+04 -0.71771945732E+03  0.11181721312E+04  0.21085607633E+04  0.12699999809E+01 0.  1.
       -4    1    3    3    0  502  0.16372528043E+04  0.71771945732E+03  0.16942963560E+03  0.17956686718E+04  0.12699999809E+01 0. -1.
</event>
<event>
 5   0  0.1686284E-07  0.3718355E+04  0.7818609E-02  0.8063906E-01
        2   -1    0    0  501    0  0.00000000000E+00  0.00000000000E+00  0.19542787541E+04  0.19542787541E+04  0.25500000920E-02 0.  1.
       -2   -1    0    0    0  501  0.00000000000E+00  0.00000000000E+00 -0.17687043504E+04  0.17687043504E+04  0.25500000920E-02 0. -1.
    10030    2    1    2    0    0  0.00000000000E+00  0.00000000000E+00  0.18557440373E+03  0.37229831045E+04  0.37183551924E+04 0.  0.
        5    1    3    3  502    0 -0.32718580700E+03 -0.60229507898E+03  0.18231480166E+04  0.19477424611E+04  0.46999998093E+01 0.  1.
       -5    1    3    3    0  502  0.32718580700E+03  0.60229507898E+03 -0.16375736128E+04  0.17752406434E+04  0.46999998093E+01 0. -1.
</event>
<event>
 5   0  0.1558258E-07  0.3698214E+04  0.7818609E-02  0.8068358E-01
       -2   -1    0    0    0  501  0.00000000000E+00  0.00000000000E+00  0.18450709902E+04  0.18450709902E+04  0.25500000920E-02 0.  1.
        2   -1    0    0  501    0  0.00000000000E+00  0.00000000000E+00 -0.18531519837E+04  0.18531519837E+04  0.25500000920E-02 0. -1.
    10030    2    1    2    0    0  0.00000000000E+00  0.00000000000E+00 -0.80809935708E+01  0.36982229739E+04  0.36982141450E+04 0.  0.
        1    1    3    3  502    0  0.88331323020E+03 -0.83735758613E+03  0.13880069982E+04  0.18460697215E+04  0.50400001928E-02 0.  1.
       -1    1    3    3    0  502 -0.88331323020E+03  0.83735758613E+03 -0.13960879917E+04  0.18521532524E+04  0.50400001928E-02 0. -1.
</event>
<event>
 5   0  0.5177000E-08  0.3696442E+04  0.7818609E-02  0.8068751E-01
       -3   -1    0    0    0  501  0.00000000000E+00  0.00000000000E+00  0.15270344440E+04  0.15270344474E+04  0.10100000352E+00 0.  1.
        3   -1    0    0  501    0  0.00000000000E+00  0.00000000000E+00 -0.22369641988E+04  0.22369642010E+04  0.10100000352E+00 0. -1.
    10030    2    1    2    0    0  0.00000000000E+00  0.00000000000E+00 -0.70992975475E+03  0.37639986484E+04  0.36964422853E+04 0.  0.
        2    1    3    3  502    0  0.73336817106E+03  0.14529804960E+04  0.53679161363E+03  0.17138046658E+04  0.25500000920E-02 0.  1.
       -2    1    3    3    0  502 -0.73336817106E+03 -0.14529804960E+04 -0.12467213684E+04  0.20501939826E+04  0.25500000920E-02 0. -1.
</event>
<event>
 5   0  0.1686284E-07  0.3696373E+04  0.7818609E-02  0.8068766E-01
        2   -1    0    0  501    0  0.00000000000E+00  0.00000000000E+00  0.15027554281E+04  0.15027554281E+04  0.25500000920E-02 0.  1.
       -2   -1    0    0    0  501  0.00000000000E+00  0.00000000000E+00 -0.22730202513E+04  0.22730202513E+04  0.25500000920E-02 0. -1.
    10030    2    1    2    0    0  0.00000000000E+00  0.00000000000E+00 -0.77026482323E+03  0.37757756794E+04  0.36963730985E+04 0.  0.
        5    1    3    3  502    0 -0.93603018577E+03  0.11312895419E+03  0.12386117489E+04  0.15566411993E+04  0.46999998093E+01 0.  1.
       -5    1    3    3    0  502  0.93603018577E+03 -0.11312895419E+03 -0.20088765721E+04  0.22191344801E+04  0.46999998093E+01 0. -1.
</event>
<event>
 5   0  0.5177000E-08  0.3476826E+04  0.7818609E-02  0.8119304E-01
       -1   -1    0    0    0  501  0.00000000000E+00  0.00000000000E+00  0.16542800904E+04  0.16542800904E+04  0.50400001928E-02 0. -1.
        1   -1    0    0  501    0  0.00000000000E+00  0.00000000000E+00 -0.18268242721E+04  0.18268242721E+04  0.50400001928E-02 0.  1.
    10030    2    1    2    0    0  0.00000000000E+00  0.00000000000E+00 -0.17254418174E+03  0.34811043626E+04  0.34768255763E+04 0.  0.
        2    1    3    3  502    0 -0.46329588921E+03 -0.14200313103E+04 -0.97671860170E+03  0.17846879924E+04  0.25500000920E-02 0.  1.
       -2    1    3    3    0  502  0.46329588921E+03  0.14200313103E+04  0.80417441997E+03  0.16964163702E+04  0.25500000920E-02 0. -1.
</event>
<event>
 5   0  0.1686284E-07  0.3683476E+04  0.7818609E-02  0.8071634E-01
       -2   -1    0    0    0  501  0.00000000000E+00  0.00000000000E+00  0.28053556999E+04  0.28053556999E+04  0.25500000920E-02 0. -1.
        2   -1    0    0  501    0  0.00000000000E+00  0.00000000000E+00 -0.12091153502E+04  0.12091153502E+04  0.25500000920E-02 0.  1.
    10030    2    1    2    0    0  0.00000000000E+00  0.00000000000E+00  0.15962403497E+04  0.40144710502E+04  0.36834758800E+04 0.  0.
        5    1    3    3  502    0 -0.14860422577E+04 -0.74017562024E+02  0.19810954071E+04  0.24776120142E+04  0.46999998093E+01 0. -1.
       -5    1    3    3    0  502  0.14860422577E+04  0.74017562024E+02 -0.38485505739E+03  0.15368590359E+04  0.46999998093E+01 0.  1.
</event>
<event>
 5   0  0.5177000E-08  0.3673334E+04  0.7818609E-02  0.8073897E-01
        1   -1    0    0  501    0  0.00000000000E+00  0.00000000000E+00  0.20473354518E+04  0.20473354518E+04  0.50400001928E-02 0.  1.
       -1   -1    0    0    0  501  0.00000000000E+00  0.00000000000E+00 -0.16476762604E+04  0.16476762604E+04  0.50400001928E-02 0. -1.
    10030    2    1    2    0    0  0.00000000000E+00  0.00000000000E+00  0.39965919139E+03  0.36950117122E+04  0.36733341917E+04 0.  0.
        3    1    3    3  502    0  0.13048905212E+04 -0.76327262546E+03  0.12490679176E+04  0.19609933825E+04  0.10100000352E+00 0. -1.
       -3    1    3    3    0  502 -0.13048905212E+04  0.76327262546E+03 -0.84940872622E+03  0.17340183297E+04  0.10100000352E+00 0.  1.
</event>
<event>
 5   0  0.5177000E-08  0.3695269E+04  0.7818609E-02  0.8069011E-01
        1   -1    0    0  501    0  0.00000000000E+00  0.00000000000E+00  0.11733339954E+04  0.11733339954E+04  0.50400001928E-02 0.  1.
       -1   -1    0    0    0  501  0.00000000000E+00  0.00000000000E+00 -0.29094465924E+04  0.29094465924E+04  0.50400001928E-02 0. -1.
    10030    2    1    2    0    0  0.00000000000E+00  0.00000000000E+00 -0.17361125970E+04  0.40827805878E+04  0.36952686477E+04 0.  0.
        4    1    3    3  502    0 -0.10512766432E+03 -0.18107303870E+04 -0.47906365711E+03  0.18759797335E+04  0.12699999809E+01 0.  1.
       -4    1    3    3    0  502  0.10512766432E+03  0.18107303870E+04 -0.12570489399E+04  0.22068008542E+04  0.12699999809E+01 0. -1.
</event>
<event>
 5   0  0.5177000E-08  0.3665143E+04  0.7818609E-02  0.8075731E-01
        1   -1    0    0  501    0  0.00000000000E+00  0.00000000000E+00  0.14956970881E+04  0.14956970881E+04  0.50400001928E-02 0.  1.
       -1   -1    0    0    0  501  0.00000000000E+00  0.00000000000E+00 -0.22453193218E+04  0.22453193218E+04  0.50400001928E-02 0. -1.
    10030    2    1    2    0    0  0.00000000000E+00  0.00000000000E+00 -0.74962223363E+03  0.37410164099E+04  0.36651426011E+04 0.  0.
        3    1    3    3  502    0  0.11564781808E+04  0.27064882672E+03 -0.17992748808E+04  0.21559412508E+04  0.10100000352E+00 0. -1.
       -3    1    3    3    0  502 -0.11564781808E+04 -0.27064882672E+03  0.10496526471E+04  0.15850751591E+04  0.10100000352E+00 0.  1.
</event>
<event>
 5   0  0.5177000E-08  0.3694454E+04  0.7818609E-02  0.8069192E-01
       -1   -1    0    0    0  501  0.00000000000E+00  0.00000000000E+00  0.13060770235E+04  0.13060770235E+04  0.50400001928E-02 0.  1.
        1   -1    0    0  501    0  0.00000000000E+00  0.00000000000E+00 -0.26125935192E+04  0.26125935192E+04  0.50400001928E-02 0. -1.
    10030    2    1    2    0    0  0.00000000000E+00  0.00000000000E+00 -0.13065164957E+04  0.39186705427E+04  0.36944544210E+04 0.  0.
        3    1    3    3  502    0 -0.84149501178E+03  0.13722042166E+04 -0.16144505614E+04  0.22798045733E+04  0.10100000352E+00 0. -1.
       -3    1    3    3    0  502  0.84149501178E+03 -0.13722042166E+04  0.30793406575E+03  0.16388659695E+04  0.10100000352E+00 0.  1.
</event>
<event>
 5   0  0.1658770E-07  0.3689430E+04  0.7818609E-02  0.8070308E-01
       -2   -1    0    0    0  501  0.00000000000E+00  0.00000000000E+00  0.19811893841E+04  0.19811893841E+04  0.25500000920E-02 0. -1.
        2   -1    0    0  501    0  0.00000000000E+00  0.00000000000E+00 -0.17176419009E+04  0.17176419009E+04  0.25500000920E-02 0.  1.
    10030    2    1    2    0    0  0.00000000000E+00  0.00000000000E+00  0.26354748316E+03  0.36988312850E+04  0.36894302539E+04 0.  0.
        2    1    3    3  502    0  0.14113047246E+04  0.10087347647E+04 -0.49723794905E+03  0.18045975810E+04  0.25500000920E-02 0.  1.
       -2    1    3    3    0  502 -0.14113047246E+04 -0.10087347647E+04  0.76078543221E+03  0.18942337040E+04  0.25500000920E-02 0. -1.
</event>
<event>
 5   0  0.5181371E-08  0.3700401E+04  0.7818609E-02  0.8067873E-01
       -1   -1    0    0    0  501  0.00000000000E+00  0.00000000000E+00  0.20576123425E+04  0.20576123425E+04  0.50400001928E-02 0.  1.
        1   -1    0    0  501    0  0.00000000000E+00  0.00000000000E+00 -0.16636957827E+04  0.16636957827E+04  0.50400001928E-02 0. -1.
    10030    2    1    2    0    0  0.00000000000E+00  0.00000000000E+00  0.39391655978E+03  0.37213081252E+04  0.37004005062E+04 0.  0.
        5    1    3    3  502    0  0.18336848137E+04 -0.14006811368E+02  0.44456620252E+03  0.18868644321E+04  0.46999998093E+01 0.  1.
       -5    1    3    3    0  502 -0.18336848137E+04  0.14006811368E+02 -0.50649642740E+02  0.18344436931E+04  0.46999998093E+01 0. -1.
</event>
<event>
 5   0  0.5177000E-08  0.3685639E+04  0.7818609E-02  0.8071152E-01
       -1   -1    0    0    0  501  0.00000000000E+00  0.00000000000E+00  0.14740795783E+04  0.14740795783E+04  0.50400001928E-02 0.  1.
        1   -1    0    0  501    0  0.00000000000E+00  0.00000000000E+00 -0.23037995148E+04  0.23037995148E+04  0.50400001928E-02 0. -1.
    10030    2    1    2    0    0  0.00000000000E+00  0.00000000000E+00 -0.82971993648E+03  0.37778790932E+04  0.36856390585E+04 0.  0.
        2    1    3    3  502    0  0.11747127176E+04  0.47844665198E+03  0.95542985554E+03  0.15879884686E+04  0.25500000920E-02 0.  1.
       -2    1    3    3    0  502 -0.11747127176E+04 -0.47844665198E+03 -0.17851497920E+04  0.21898906246E+04  0.25500000920E-02 0. -1.
</event>
<event>
 5   0  0.5177000E-08  0.3702697E+04  0.7818609E-02  0.8067364E-01
       -1   -1    0    0    0  501  0.00000000000E+00  0.00000000000E+00  0.16516045873E+04  0.16516045873E+04  0.50400001928E-02 0. -1.
        1   -1    0    0  501    0  0.00000000000E+00  0.00000000000E+00 -0.20752490379E+04  0.20752490379E+04  0.50400001928E-02 0.  1.
    10030    2    1    2    0    0  0.00000000000E+00  0.00000000000E+00 -0.42364445063E+03  0.37268536252E+04  0.37026967636E+04 0.  0.
        3    1    3    3  502    0 -0.13246757046E+03  0.16057099026E+04  0.70606976409E+03  0.17590868286E+04  0.10100000352E+00 0. -1.
       -3    1    3    3    0  502  0.13246757046E+03 -0.16057099026E+04 -0.11297142147E+04  0.19677667966E+04  0.10100000352E+00 0.  1.
</event>
<event>
 5   0  0.1558258E-07  0.3681737E+04  0.7818609E-02  0.8072021E-01
        2   -1    0    0  501    0  0.00000000000E+00  0.00000000000E+00  0.19843343891E+04  0.19843343891E+04  0.25500000920E-02 0.  1.
       -2   -1    0    0    0  501  0.00000000000E+00  0.00000000000E+00 -0.17077751328E+04  0.17077751328E+04  0.25500000920E-02 0. -1.
    10030    2    1    2    0    0  0.00000000000E+00  0.00000000000E+00  0.27655925626E+03  0.36921095219E+04  0.36817370492E+04 0.  0.
        1    1    3    3  502    0 -0.38287458862E+03  0.17099100858E+04 -0.42758970873E+03  0.18036680435E+04  0.50400001928E-02 0. -1.
       -1    1    3    3    0  502  0.38287458862E+03 -0.17099100858E+04  0.70414896498E+03  0.18884414783E+04  0.50400001928E-02 0.  1.
</event>
<event>
 5   0  0.1658770E-07  0.3688667E+04  0.7818609E-02  0.8070478E-01
        2   -1    0    0  501    0  0.00000000000E+00  0.00000000000E+00  0.20423783390E+04  0.20423783390E+04  0.25500000920E-02 0.  1.
       -2   -1    0    0    0  501  0.00000000000E+00  0.00000000000E+00 -0.16654926301E+04  0.16654926301E+04  0.25500000920E-02 0. -1.
    10030    2    1    2    0    0  0.00000000000E+00  0.00000000000E+00  0.37688570897E+03  0.37078709691E+04  0.36886670066E+04 0.  0.
        2    1    3    3  502    0 -0.13953727972E+04 -0.35858901607E+03 -0.96903572259E+03  0.17362838354E+04  0.25500000920E-02 0. -1.
       -2    1    3    3    0  502  0.13953727972E+04  0.35858901607E+03  0.13459214316E+04  0.19715871336E+04  0.25500000920E-02 0.  1.
</event>
<event>
 5   0  0.5177000E-08  0.3691899E+04  0.7818609E-02  0.8069760E-01
       -1   -1    0    0    0  501  0.00000000000E+00  0.00000000000E+00  0.13422078598E+04  0.13422078598E+04  0.50400001928E-02 0.  1.
        1   -1    0    0  501    0  0.00000000000E+00  0.00000000000E+00 -0.25387493513E+04  0.25387493513E+04  0.50400001928E-02 0. -1.
    10030    2    1    2    0    0  0.00000000000E+00  0.00000000000E+00 -0.11965414915E+04  0.38809572111E+04  0.36918988791E+04 0.  0.
        3    1    3    3  502    0 -0.18152735671E+04 -0.29649233517E+03 -0.76248659570E+03  0.19911081455E+04  0.10100000352E+00 0.  1.
       -3    1    3    3    0  502  0.18152735671E+04  0.29649233517E+03 -0.43405489578E+03  0.18898490656E+04  0.10100000352E+00 0. -1.
</event>
<event>
 5   0  0.1558258E-07  0.3689308E+04  0.7818609E-02  0.8070335E-01
       -2   -1    0    0    0  501  0.00000000000E+00  0.00000000000E+00  0.14388167230E+04  0.14388167230E+04  0.25500000920E-02 0.  1.
        2   -1    0    0  501    0  0.00000000000E+00  0.00000000000E+00 -0.23649631542E+04  0.23649631542E+04  0.25500000920E-02 0. -1.
    10030    2    1    2    0    0  0.00000000000E+00  0.00000000000E+00 -0.92614643117E+03  0.38037798772E+04  0.36893080845E+04 0.  0.
        1    1    3    3  502    0 -0.12367899896E+04 -0.39624008704E+03  0.88757063018E+03  0.15730344270E+04  0.50400001928E-02 0.  1.
       -1    1    3    3    0  502  0.12367899896E+04  0.39624008704E+03 -0.18137170613E+04  0.22307454502E+04  0.50400001928E-02 0. -1.
</event>
<event>
 5   0  0.5177000E-08  0.3698667E+04  0.7818609E-02  0.8068257E-01
        1   -1    0    0  501    0  0.00000000000E+00  0.00000000000E+00  0.13323628389E+04  0.13323628389E+04  0.50400001928E-02 0.  1.
       -1   -1    0    0    0  501  0.00000000000E+00  0.00000000000E+00 -0.25668943657E+04  0.25668943657E+04  0.50400001928E-02 0. -1.
    10030    2    1    2    0    0  0.00000000000E+00  0.00000000000E+00 -0.12345315269E+04  0.38992572046E+04  0.36986671460E+04 0.  0.
        1    1    3    3  502    0  0.15724784991E+04 -0.79587022880E+03 -0.12079530422E+04  0.21366442388E+04  0.50400001928E-02 0. -1.
       -1    1    3    3    0  502 -0.15724784991E+04  0.79587022880E+03 -0.26578484621E+02  0.17626129657E+04  0.50400001928E-02 0.  1.
</event>
<event>
 5   0  0.5177000E-08  0.3700093E+04  0.7818609E-02  0.8067941E-01
        1   -1    0    0  501    0  0.00000000000E+00  0.00000000000E+00  0.20615344439E+04  0.20615344440E+04  0.50400001928E-02 0.  1.
       -1   -1    0    0    0  501  0.00000000000E+00  0.00000000000E+00 -0.16602541699E+04  0.16602541699E+04  0.50400001928E-02 0. -1.
    10030    2    1    2    0    0  0.00000000000E+00  0.00000000000E+00  0.40128027406E+03  0.37217886138E+04  0.37000925161E+04 0.  0.
        3    1    3    3  502    0  0.72641084763E+03  0.37335264926E+01 -0.15108020779E+04  0.16763679750E+04  0.10100000352E+00 0. -1.
       -3    1    3    3    0  502 -0.72641084763E+03 -0.37335264926E+01  0.19120823520E+04  0.20454206388E+04  0.10100000352E+00 0.  1.
</event>
<event>
 5   0  0.1666189E-07  0.3718929E+04  0.7818609E-02  0.8063780E-01
        2   -1    0    0  501    0  0.00000000000E+00  0.00000000000E+00  0.28379373758E+04  0.28379373758E+04  0.25500000920E-02 0. -1.
       -2   -1    0    0    0  501  0.00000000000E+00  0.00000000000E+00 -0.12183523160E+04  0.12183523160E+04  0.25500000920E-02 0.  1.
    10030    2    1    2    0    0  0.00000000000E+00  0.00000000000E+00  0.16195850599E+04  0.40562896918E+04  0.37189286492E+04 0.  0.
        4    1    3    3  502    0 -0.12209790619E+04 -0.11610293848E+02 -0.71980830194E+03  0.14174097054E+04  0.12699999809E+01 0.  1.
       -4    1    3    3    0  502  0.12209790619E+04  0.11610293848E+02  0.23393933618E+04  0.26388799864E+04  0.12699999809E+01 0. -1.
</event>
<event>
 5   0  0.1686284E-07  0.3701892E+04  0.7818609E-02  0.8067543E-01
       -2   -1    0    0    0  501  0.00000000000E+00  0.00000000000E+00  0.15417854935E+04  0.15417854935E+04  0.25500000920E-02 0. -1.
        2   -1    0    0  501    0  0.00000000000E+00  0.00000000000E+00 -0.22221001022E+04  0.22221001022E+04  0.25500000920E-02 0.  1.
    10030    2    1    2    0    0  0.00000000000E+00  0.00000000000E+00 -0.68031460871E+03  0.37638855957E+04  0.37018923284E+04 0.  0.
        5    1    3    3  502    0  0.15134167949E+04  0.89543330891E+03 -0.92754146639E+03  0.19881112815E+04  0.46999998093E+01 0.  1.
       -5    1    3    3    0  502 -0.15134167949E+04 -0.89543330891E+03  0.24722685768E+03  0.17757743142E+04  0.46999998093E+01 0. -1.
</event>
<event>
 5   0  0.1558258E-07  0.3686089E+04  0.7818609E-02  0.8071052E-01
       -2   -1    0    0    0  501  0.00000000000E+00  0.00000000000E+00  0.14756474395E+04  0.14756474395E+04  0.25500000920E-02 0.  1.
        2   -1    0    0  501    0  0.00000000000E+00  0.00000000000E+00 -0.23019136033E+04  0.23019136033E+04  0.25500000920E-02 0. -1.
    10030    2    1    2    0    0  0.00000000000E+00  0.00000000000E+00 -0.82626616381E+03  0.37775610428E+04  0.36860889379E+04 0.  0.
        1    1    3    3  502    0  0.10826525507E+03  0.18247356988E+04 -0.17185229673E+03  0.18360051601E+04  0.50400001928E-02 0.  1.
       -1    1    3    3    0  502 -0.10826525507E+03 -0.18247356988E+04 -0.65441386708E+03  0.19415558827E+04  0.50400001928E-02 0. -1.
</event>
<event>
 5   0  0.1686284E-07  0.3695765E+04  0.7818609E-02  0.8068901E-01
        2   -1    0    0  501    0  0.00000000000E+00  0.00000000000E+00  0.24963472896E+04  0.24963472896E+04  0.25500000920E-02 0. -1.
       -2   -1    0    0    0  501  0.00000000000E+00  0.00000000000E+00 -0.13678661007E+04  0.13678661007E+04  0.25500000920E-02 0.  1.
    10030    2    1    2    0    0  0.00000000000E+00  0.00000000000E+00  0.11284811889E+04  0.38642133902E+04  0.36957645125E+04 0.  0.
        5    1    3    3  502    0  0.13200744788E+04  0.77902295763E+03 -0.51487248177E+03  0.16169691279E+04  0.46999998093E+01 0.  1.
       -5    1    3    3    0  502 -0.13200744788E+04 -0.77902295763E+03  0.16433536706E+04  0.22472442624E+04  0.46999998093E+01 0. -1.
</event>
<event>
 5   0  0.1666189E-07  0.3698035E+04  0.7818609E-02  0.8068397E-01
        2   -1    0    0  501    0  0.00000000000E+00  0.00000000000E+00  0.25461371346E+04  0.25461371346E+04  0.25500000920E-02 0. -1.
       -2   -1    0    0    0  501  0.00000000000E+00  0.00000000000E+00 -0.13427656567E+04  0.13427656567E+04  0.25500000920E-02 0.  1.
    10030    2    1    2    0    0  0.00000000000E+00  0.00000000000E+00  0.12033714779E+04  0.38889027913E+04  0.36980348844E+04 0.  0.
        4    1    3    3  502    0  0.18340581734E+04 -0.21185339353E+03  0.70795929237E+03  0.19773363943E+04  0.12699999809E+01 0.  1.
       -4    1    3    3    0  502 -0.18340581734E+04  0.21185339353E+03  0.49541218555E+03  0.19115663970E+04  0.12699999809E+01 0. -1.
</event>
<event>
 5   0  0.5177000E-08  0.3697017E+04  0.7818609E-02  0.8068623E-01
       -1   -1    0    0    0  501  0.00000000000E+00  0.00000000000E+00  0.15255163152E+04  0.15255163152E+04  0.50400001928E-02 0.  1.
        1   -1    0    0  501    0  0.00000000000E+00  0.00000000000E+00 -0.22398867785E+04  0.22398867785E+04  0.50400001928E-02 0. -1.
    10030    2    1    2    0    0  0.00000000000E+00  0.00000000000E+00 -0.71437046329E+03  0.37654030936E+04  0.36970170812E+04 0.  0.
        3    1    3    3  502    0 -0.51006630933E+03  0.40162671269E+02 -0.21663314982E+04  0.22259319061E+04  0.10100000352E+00 0. -1.
       -3    1    3    3    0  502  0.51006630933E+03 -0.40162671269E+02  0.14519610349E+04  0.15394711875E+04  0.10100000352E+00 0.  1.
</event>
<event>
 5   0  0.5177000E-08  0.3720636E+04  0.7818609E-02  0.8063404E-01
       -1   -1    0    0    0  501  0.00000000000E+00  0.00000000000E+00  0.11728870783E+04  0.11728870783E+04  0.50400001928E-02 0. -1.
        1   -1    0    0  501    0  0.00000000000E+00  0.00000000000E+00 -0.29506527673E+04  0.29506527673E+04  0.50400001928E-02 0.  1.
    10030    2    1    2    0    0  0.00000000000E+00  0.00000000000E+00 -0.17777656890E+04  0.41235398456E+04  0.37206357001E+04 0.  0.
        3    1    3    3  502    0 -0.56251289063E+03 -0.17635213572E+04 -0.10943028499E+04  0.21503318504E+04  0.10100000352E+00 0.  1.
       -3    1    3    3    0  502  0.56251289063E+03  0.17635213572E+04 -0.68346283905E+03  0.19732079951E+04  0.10100000352E+00 0. -1.
</event>
<event>
 5   0  0.1587026E-07  0.3686719E+04  0.7818609E-02  0.8070911E-01
        2   -1    0    0  501    0  0.00000000000E+00  0.00000000000E+00  0.20385297898E+04  0.20385297898E+04  0.25500000920E-02 0. -1.
       -2   -1    0    0    0  501  0.00000000000E+00  0.00000000000E+00 -0.16668748279E+04  0.16668748279E+04  0.25500000920E-02 0.  1.
    10030    2    1    2    0    0  0.00000000000E+00  0.00000000000E+00  0.37165496186E+03  0.37054046176E+04  0.36867188623E+04 0.  0.
        3    1    3    3  502    0 -0.90712556205E+03  0.59796025927E+03  0.16825159739E+04  0.20028213274E+04  0.10100000352E+00 0. -1.
       -3    1    3    3    0  502  0.90712556205E+03 -0.59796025927E+03 -0.13108610120E+04  0.17025832902E+04  0.10100000352E+00 0.  1.
</event>
<event>
 5   0  0.1666189E-07  0.3714293E+04  0.7818609E-02  0.8064802E-01
        2   -1    0    0  501    0  0.00000000000E+00  0.00000000000E+00  0.11615162059E+04  0.11615162059E+04  0.25500000920E-02 0. -1.
       -2   -1    0    0    0  501  0.00000000000E+00  0.00000000000E+00 -0.29693889850E+04  0.29693889850E+04  0.25500000920E-02 0.  1.
    10030    2    1    2    0    0  0.00000000000E+00  0.00000000000E+00 -0.18078727791E+04  0.41309051908E+04  0.37142931643E+04 0.  0.
        4    1    3    3  502    0 -0.15209341550E+04  0.10656671324E+04 -0.89255781143E+03  0.20604728099E+04  0.12699999809E+01 0. -1.
       -4    1    3    3    0  502  0.15209341550E+04 -0.10656671324E+04 -0.91531496769E+03  0.20704323809E+04  0.12699999809E+01 0.  1.
</event>
<event>
 5   0  0.5177000E-08  0.3707935E+04  0.7818609E-02  0.8066206E-01
        1   -1    0    0  501    0  0.00000000000E+00  0.00000000000E+00  0.29414968716E+04  0.29414968716E+04  0.50400001928E-02 0. -1.
       -1   -1    0    0    0  501  0.00000000000E+00  0.00000000000E+00 -0.11685194357E+04  0.11685194357E+04  0.50400001928E-02 0.  1.
    10030    2    1    2    0    0  0.00000000000E+00  0.00000000000E+00  0.17729774359E+04  0.41100163073E+04  0.37079354171E+04 0.  0.
        2    1    3    3  502    0 -0.58894716504E+03 -0.14014487575E+04  0.20628327519E+04  0.25624590427E+04  0.25500000920E-02 0. -1.
       -2    1    3    3    0  502  0.58894716504E+03  0.14014487575E+04 -0.28985531597E+03  0.15475572646E+04  0.25500000920E-02 0.  1.
</event>
<event>
 5   0  0.5177000E-08  0.3685453E+04  0.7818609E-02  0.8071193E-01
        1   -1    0    0  501    0  0.00000000000E+00  0.00000000000E+00  0.13938441975E+04  0.13938441976E+04  0.50400001928E-02 0.  1.
       -1   -1    0    0    0  501  0.00000000000E+00  0.00000000000E+00 -0.24361693132E+04  0.24361693132E+04  0.50400001928E-02 0. -1.
    10030    2    1    2    0    0  0.00000000000E+00  0.00000000000E+00 -0.10423251156E+04  0.38300135107E+04  0.36854527328E+04 0.  0.
        1    1    3    3  502    0 -0.96705214975E+03  0.85881215221E+03  0.84291330418E+03  0.15437781614E+04  0.50400001928E-02 0.  1.
       -1    1    3    3    0  502  0.96705214975E+03 -0.85881215221E+03 -0.18852384198E+04  0.22862353494E+04  0.50400001928E-02 0. -1.
</event>
<event>
 5   0  0.5177000E-08  0.3716411E+04  0.7818609E-02  0.8064335E-01
        1   -1    0    0  501    0  0.00000000000E+00  0.00000000000E+00  0.26409900736E+04  0.26409900736E+04  0.50400001928E-02 0. -1.
       -1   -1    0    0    0  501  0.00000000000E+00  0.00000000000E+00 -0.13074368758E+04  0.13074368758E+04  0.50400001928E-02 0.  1.
    10030    2    1    2    0    0  0.00000000000E+00  0.00000000000E+00  0.13335531978E+04  0.39484269494E+04  0.37164110703E+04 0.  0.
        2    1    3    3  502    0 -0.12068505537E+04 -0.52172756116E+03  0.20618569059E+04  0.24453919537E+04  0.25500000920E-02 0. -1.
       -2    1    3    3    0  502  0.12068505537E+04  0.52172756116E+03 -0.72830370806E+03  0.15030349957E+04  0.25500000920E-02 0.  1.
</event>
<event>
 5   0  0.1666189E-07  0.3698380E+04  0.7818609E-02  0.8068321E-01
       -2   -1    0    0    0  501  0.00000000000E+00  0.00000000000E+00  0.16740905831E+04  0.16740905831E+04  0.25500000920E-02 0. -1.
        2   -1    0    0  501    0  0.00000000000E+00  0.00000000000E+00 -0.20426038977E+04  0.20426038977E+04  0.25500000920E-02 0.  1.
    10030    2    1    2    0    0  0.00000000000E+00  0.00000000000E+00 -0.36851331452E+03  0.37166944808E+04  0.36983801590E+04 0.  0.
        4    1    3    3  502    0 -0.67986791844E+03 -0.17136541534E+04 -0.32874412707E+03  0.18726732919E+04  0.12699999809E+01 0.  1.
       -4    1    3    3    0  502  0.67986791844E+03  0.17136541534E+04 -0.39769187447E+02  0.18440211889E+04  0.12699999809E+01 0. -1.
</event>
<event>
 5   0  0.1666189E-07  0.3697239E+04  0.7818609E-02  0.8068574E-01
        2   -1    0    0  501    0  0.00000000000E+00  0.00000000000E+00  0.18697987257E+04  0.18697987257E+04  0.25500000920E-02 0.  1.
       -2   -1    0    0    0  501  0.00000000000E+00  0.00000000000E+00 -0.18276798535E+04  0.18276798535E+04  0.25500000920E-02 0. -1.
    10030    2    1    2    0    0  0.00000000000E+00  0.00000000000E+00  0.42118872223E+02  0.36974785792E+04  0.36972386783E+04 0.  0.
        4    1    3    3  502    0 -0.29504174676E+03  0.16511696696E+04 -0.75615309665E+03  0.18398858738E+04  0.12699999809E+01 0. -1.
       -4    1    3    3    0  502  0.29504174676E+03 -0.16511696696E+04  0.79827196888E+03  0.18575927054E+04  0.12699999809E+01 0.  1.
</event>
<event>
 5   0  0.1686284E-07  0.3696767E+04  0.7818609E-02  0.8068679E-01
        2   -1    0    0  501    0  0.00000000000E+00  0.00000000000E+00  0.18069423352E+04  0.18069423352E+04  0.25500000920E-02 0.  1.
       -2   -1    0    0    0  501  0.00000000000E+00  0.00000000000E+00 -0.18907747684E+04  0.18907747684E+04  0.25500000920E-02 0. -1.
    10030    2    1    2    0    0  0.00000000000E+00  0.00000000000E+00 -0.83832433145E+02  0.36977171036E+04  0.36967666820E+04 0.  0.
        5    1    3    3  502    0  0.48137794794E+03  0.16751899137E+04  0.57347598560E+03  0.18349067474E+04  0.46999998093E+01 0.  1.
       -5    1    3    3    0  502 -0.48137794794E+03 -0.16751899137E+04 -0.65730841875E+03  0.18628103562E+04  0.46999998093E+01 0. -1.
</event>
<event>
 5   0  0.5177000E-08  0.3654505E+04  0.7818609E-02  0.8078120E-01
       -1   -1    0    0    0  501  0.00000000000E+00  0.00000000000E+00  0.22361618134E+04  0.22361618134E+04  0.50400001928E-02 0. -1.
        1   -1    0    0  501    0  0.00000000000E+00  0.00000000000E+00 -0.14931168870E+04  0.14931168870E+04  0.50400001928E-02 0.  1.
    10030    2    1    2    0    0  0.00000000000E+00  0.00000000000E+00  0.74304492635E+03  0.37292787004E+04  0.36545045988E+04 0.  0.
        3    1    3    3  502    0  0.63189311308E+03  0.50373967188E+03 -0.13008532088E+04  0.15314247106E+04  0.10100000352E+00 0.  1.
       -3    1    3    3    0  502 -0.63189311308E+03 -0.50373967188E+03  0.20438981351E+04  0.21978539898E+04  0.10100000352E+00 0. -1.
</event>
<event>
 5   0  0.5177000E-08  0.3703893E+04  0.7818609E-02  0.8067100E-01
        1   -1    0    0  501    0  0.00000000000E+00  0.00000000000E+00  0.18686208210E+04  0.18686208210E+04  0.50400001928E-02 0.  1.
       -1   -1    0    0    0  501  0.00000000000E+00  0.00000000000E+00 -0.18354212119E+04  0.18354212119E+04  0.50400001928E-02 0. -1.
    10030    2    1    2    0    0  0.00000000000E+00  0.00000000000E+00  0.33199609082E+02  0.37040420329E+04  0.37038932446E+04 0.  0.
        2    1    3    3  502    0  0.77236435680E+03  0.17604190091E+02  0.16997745681E+04  0.18671074392E+04  0.25500000920E-02 0.  1.
       -2    1    3    3    0  502 -0.77236435680E+03 -0.17604190091E+02 -0.16665749590E+04  0.18369345936E+04  0.25500000920E-02 0. -1.
</event>
<event>
 5   0  0.1558258E-07  0.3708260E+04  0.7818609E-02  0.8066134E-01
       -2   -1    0    0    0  501  0.00000000000E+00  0.00000000000E+00  0.21574528230E+04  0.21574528230E+04  0.25500000920E-02 0.  1.
        2   -1    0    0  501    0  0.00000000000E+00  0.00000000000E+00 -0.15934524606E+04  0.15934524606E+04  0.25500000920E-02 0. -1.
    10030    2    1    2    0    0  0.00000000000E+00  0.00000000000E+00  0.56400036236E+03  0.37509052836E+04  0.37082602440E+04 0.  0.
        1    1    3    3  502    0 -0.78300145017E+03 -0.12266255293E+04  0.14441679393E+04  0.20502005992E+04  0.50400001928E-02 0.  1.
       -1    1    3    3    0  502  0.78300145017E+03  0.12266255293E+04 -0.88016757692E+03  0.17007046844E+04  0.50400001928E-02 0. -1.
</event>
<event>
 5   0  0.5177000E-08  0.3700969E+04  0.7818609E-02  0.8067747E-01
       -1   -1    0    0    0  501  0.00000000000E+00  0.00000000000E+00  0.13871879592E+04  0.13871879592E+04  0.50400001928E-02 0. -1.
        1   -1    0    0  501    0  0.00000000000E+00  0.00000000000E+00 -0.24685135636E+04  0.24685135636E+04  0.50400001928E-02 0.  1.
    10030    2    1    2    0    0  0.00000000000E+00  0.00000000000E+00 -0.10813256044E+04  0.38557015229E+04  0.37009686801E+04 0.  0.
        4    1    3    3  502    0  0.12204222733E+03 -0.53875889571E+03  0.12992832897E+04  0.14118406896E+04  0.12699999809E+01 0. -1.
       -4    1    3    3    0  502 -0.12204222733E+03  0.53875889571E+03 -0.23806088941E+04  0.24438608333E+04  0.12699999809E+01 0.  1.
</event>
<event>
 5   0  0.1558258E-07  0.3705054E+04  0.7818609E-02  0.8066843E-01
        2   -1    0    0  501    0  0.00000000000E+00  0.00000000000E+00  0.24528718705E+04  0.24528718705E+04  0.25500000920E-02 0.  1.
       -2   -1    0    0    0  501  0.00000000000E+00  0.00000000000E+00 -0.13991179476E+04  0.13991179476E+04  0.25500000920E-02 0. -1.
    10030    2    1    2    0    0  0.00000000000E+00  0.00000000000E+00  0.10537539228E+04  0.38519898181E+04  0.37050544165E+04 0.  0.
        1    1    3    3  502    0  0.57088773486E+03 -0.11078728118E+04 -0.89808514650E+03  0.15361809474E+04  0.50400001928E-02 0. -1.
       -1    1    3    3    0  502 -0.57088773486E+03  0.11078728118E+04  0.19518390693E+04  0.23158088707E+04  0.50400001928E-02 0.  1.
</event>
<event>
 5   0  0.1658770E-07  0.3699310E+04  0.7818609E-02  0.8068115E-01
        2   -1    0    0  501    0  0.00000000000E+00  0.00000000000E+00  0.17849331687E+04  0.17849331687E+04  0.25500000920E-02 0.  1.
       -2   -1    0    0    0  501  0.00000000000E+00  0.00000000000E+00 -0.19167231986E+04  0.19167231986E+04  0.25500000920E-02 0. -1.
    10030    2    1    2    0    0  0.00000000000E+00  0.00000000000E+00 -0.13179002996E+03  0.37016563673E+04  0.36993095639E+04 0.  0.
        2    1    3    3  502    0 -0.16099881490E+04 -0.70728040841E+03  0.50798027604E+03  0.18303965081E+04  0.25500000920E-02 0.  1.
       -2    1    3    3    0  502  0.16099881490E+04  0.70728040841E+03 -0.63977030599E+03  0.18712598592E+04  0.25500000920E-02 0. -1.
</event>
<event>
 5   0  0.5177000E-08  0.3626632E+04  0.7818609E-02  0.8084419E-01
       -1   -1    0    0    0  501  0.00000000000E+00  0.00000000000E+00  0.12675396923E+04  0.12675396923E+04  0.50400001928E-02 0. -1.
        1   -1    0    0  501    0  0.00000000000E+00  0.00000000000E+00 -0.25940915865E+04  0.25940915865E+04  0.50400001928E-02 0.  1.
    10030    2    1    2    0    0  0.00000000000E+00  0.00000000000E+00 -0.13265518941E+04  0.38616312788E+04  0.36266315233E+04 0.  0.
        4    1    3    3  502    0 -0.11463444633E+03  0.14777127533E+04  0.44908745568E+03  0.15486953197E+04  0.12699999809E+01 0. -1.
       -4    1    3    3    0  502  0.11463444633E+03 -0.14777127533E+04 -0.17756393498E+04  0.23129359591E+04  0.12699999809E+01 0.  1.
</event>
<event>
 5   0  0.1666189E-07  0.3696474E+04  0.7818609E-02  0.8068744E-01
        2   -1    0    0  501    0  0.00000000000E+00  0.00000000000E+00  0.19015612973E+04  0.19015612973E+04  0.25500000920E-02 0. -1.
       -2   -1    0    0    0  501  0.00000000000E+00  0.00000000000E+00 -0.17964077334E+04  0.17964077334E+04  0.25500000920E-02 0.  1.
    10030    2    1    2    0    0  0.00000000000E+00  0.00000000000E+00  0.10515356395E+03  0.36979690307E+04  0.36964736817E+04 0.  0.
        4    1    3    3  502    0  0.33856210502E+03 -0.10854962070E+04  0.15102357039E+04  0.18904337620E+04  0.12699999809E+01 0.  1.
       -4    1    3    3    0  502 -0.33856210502E+03  0.10854962070E+04 -0.14050821399E+04  0.18075352686E+04  0.12699999809E+01 0. -1.
</event>
<event>
 5   0  0.5177000E-08  0.3692668E+04  0.7818609E-02  0.8069589E-01
        1   -1    0    0  501    0  0.00000000000E+00  0.00000000000E+00  0.12130612693E+04  0.12130612693E+04  0.50400001928E-02 0. -1.
       -1   -1    0    0    0  501  0.00000000000E+00  0.00000000000E+00 -0.28102041238E+04  0.28102041238E+04  0.50400001928E-02 0.  1.
    10030    2    1    2    0    0  0.00000000000E+00  0.00000000000E+00 -0.15971428545E+04  0.40232653931E+04  0.36926682935E+04 0.  0.
        3    1    3    3  502    0 -0.15850062650E+04 -0.94687570383E+03 -0.81105652265E+03  0.20165889893E+04  0.10100000352E+00 0. -1.
       -3    1    3    3    0  502  0.15850062650E+04  0.94687570383E+03 -0.78608633187E+03  0.20066764039E+04  0.10100000352E+00 0.  1.
</event>
<event>
 5   0  0.1686284E-07  0.3704425E+04  0.7818609E-02  0.8066982E-01
       -2   -1    0    0    0  501  0.00000000000E+00  0.00000000000E+00  0.15761609703E+04  0.15761609703E+04  0.25500000920E-02 0. -1.
        2   -1    0    0  501    0  0.00000000000E+00  0.00000000000E+00 -0.21766124848E+04  0.21766124848E+04  0.25500000920E-02 0.  1.
    10030    2    1    2    0    0  0.00000000000E+00  0.00000000000E+00 -0.60045151451E+03  0.37527734550E+04  0.37044252703E+04 0.  0.
        5    1    3    3  502    0 -0.14636661333E+04  0.10847487337E+04 -0.63875959430E+03  0.19305528416E+04  0.46999998093E+01 0. -1.
       -5    1    3    3    0  502  0.14636661333E+04 -0.10847487337E+04  0.38308079794E+02  0.18222206134E+04  0.46999998093E+01 0.  1.
</event>
<event>
 5   0  0.1686284E-07  0.3695750E+04  0.7818609E-02  0.8068904E-01
       -2   -1    0    0    0  501  0.00000000000E+00  0.00000000000E+00  0.24511590758E+04  0.24511590758E+04  0.25500000920E-02 0.  1.
        2   -1    0    0  501    0  0.00000000000E+00  0.00000000000E+00 -0.13930726494E+04  0.13930726494E+04  0.25500000920E-02 0. -1.
    10030    2    1    2    0    0  0.00000000000E+00  0.00000000000E+00  0.10580864264E+04  0.38442317252E+04  0.36957503530E+04 0.  0.
        5    1    3    3  502    0 -0.13928798219E+04 -0.38237189062E+03 -0.66977880252E+03  0.15921520641E+04  0.46999998093E+01 0. -1.
       -5    1    3    3    0  502  0.13928798219E+04  0.38237189062E+03  0.17278652289E+04  0.22520796612E+04  0.46999998093E+01 0.  1.
</event>
<event>
 5   0  0.1558258E-07  0.3634576E+04  0.7818609E-02  0.8082617E-01
       -2   -1    0    0    0  501  0.00000000000E+00  0.00000000000E+00  0.23260187043E+04  0.23260187043E+04  0.25500000920E-02 0.  1.
        2   -1    0    0  501    0  0.00000000000E+00  0.00000000000E+00 -0.14198230430E+04  0.14198230430E+04  0.25500000920E-02 0. -1.
    10030    2    1    2    0    0  0.00000000000E+00  0.00000000000E+00  0.90619566128E+03  0.37458417472E+04  0.36345756037E+04 0.  0.
        1    1    3    3  502    0 -0.45380041283E+03  0.17504352892E+04  0.63911263815E+03  0.19179216566E+04  0.50400001928E-02 0.  1.
       -1    1    3    3    0  502  0.45380041283E+03 -0.17504352892E+04  0.26708302313E+03  0.18279200907E+04  0.50400001928E-02 0. -1.
</event>
<event>
 5   0  0.5177000E-08  0.3678201E+04  0.7818609E-02  0.8072810E-01
        1   -1    0    0  501    0  0.00000000000E+00  0.00000000000E+00  0.27739243703E+04  0.27739243703E+04  0.50400001928E-02 0.  1.
       -1   -1    0    0    0  501  0.00000000000E+00  0.00000000000E+00 -0.12193161064E+04  0.12193161064E+04  0.50400001928E-02 0. -1.
    10030    2    1    2    0    0  0.00000000000E+00  0.00000000000E+00  0.15546082639E+04  0.39932404767E+04  0.36782010074E+04 0.  0.
        4    1    3    3  502    0 -0.46077205759E+03 -0.15716999333E+04  0.16854541043E+04  0.23501720618E+04  0.12699999809E+01 0.  1.
       -4    1    3    3    0  502  0.46077205759E+03  0.15716999333E+04 -0.13084584038E+03  0.16430684150E+04  0.12699999809E+01 0. -1.
</event>
<event>
 5   0  0.5177000E-08  0.3699758E+04  0.7818609E-02  0.8068016E-01
       -1   -1    0    0    0  501  0.00000000000E+00  0.00000000000E+00  0.14121117500E+04  0.14121117500E+04  0.50400001928E-02 0. -1.
        1   -1    0    0  501    0  0.00000000000E+00  0.00000000000E+00 -0.24233576509E+04  0.24233576509E+04  0.50400001928E-02 0.  1.
    10030    2    1    2    0    0  0.00000000000E+00  0.00000000000E+00 -0.10112459009E+04  0.38354694010E+04  0.36997577291E+04 0.  0.
        3    1    3    3  502    0 -0.97411649425E+03 -0.65283690005E+03  0.97757513020E+03  0.15266800935E+04  0.10100000352E+00 0. -1.
       -3    1    3    3    0  502  0.97411649425E+03  0.65283690005E+03 -0.19888210311E+04  0.23087893075E+04  0.10100000352E+00 0.  1.
</event>
<event>
 5   0  0.5177000E-08  0.3700211E+04  0.7818609E-02  0.8067915E-01
       -1   -1    0    0    0  501  0.00000000000E+00  0.00000000000E+00  0.22200613238E+04  0.22200613238E+04  0.50400001928E-02 0. -1.
        1   -1    0    0  501    0  0.00000000000E+00  0.00000000000E+00 -0.15417995528E+04  0.15417995528E+04  0.50400001928E-02 0.  1.
    10030    2    1    2    0    0  0.00000000000E+00  0.00000000000E+00  0.67826177093E+03  0.37618608766E+04  0.37002105649E+04 0.  0.
        3    1    3    3  502    0 -0.11882372208E+04 -0.10416000214E+04 -0.63921810710E+03  0.17045345688E+04  0.10100000352E+00 0.  1.
       -3    1    3    3    0  502  0.11882372208E+04  0.10416000214E+04  0.13174798780E+04  0.20573263078E+04  0.10100000352E+00 0. -1.
</event>
<event>
 5   0  0.1666189E-07  0.3699966E+04  0.7818609E-02  0.8067969E-01
        2   -1    0    0  501    0  0.00000000000E+00  0.00000000000E+00  0.25796485340E+04  0.25796485340E+04  0.25500000920E-02 0.  1.
       -2   -1    0    0    0  501  0.00000000000E+00  0.00000000000E+00 -0.13267064432E+04  0.13267064432E+04  0.25500000920E-02 0. -1.
    10030    2    1    2    0    0  0.00000000000E+00  0.00000000000E+00  0.12529420908E+04  0.39063549772E+04  0.36999655843E+04 0.  0.
        4    1    3    3  502    0  0.83340645050E+03  0.16252789758E+04  0.93669236195E+03  0.20526792869E+04  0.12699999809E+01 0.  1.
       -4    1    3    3    0  502 -0.83340645050E+03 -0.16252789758E+04  0.31624972883E+03  0.18536756903E+04  0.12699999809E+01 0. -1.
</event>
<event>
 5   0  0.5181371E-08  0.3686781E+04  0.7818609E-02  0.8070898E-01
       -1   -1    0    0    0  501  0.00000000000E+00  0.00000000000E+00  0.11156401714E+04  0.11156401714E+04  0.50400001928E-02 0. -1.
        1   -1    0    0  501    0  0.00000000000E+00  0.00000000000E+00 -0.30458643051E+04  0.30458643051E+04  0.50400001928E-02 0.  1.
    10030    2    1    2    0    0  0.00000000000E+00  0.00000000000E+00 -0.19302241337E+04  0.41615044765E+04  0.36867810217E+04 0.  0.
        5    1    3    3  502    0  0.11618067579E+04  0.49328880477E+03 -0.24815831408E+04  0.27841346524E+04  0.46999998093E+01 0.  1.
       -5    1    3    3    0  502 -0.11618067579E+04 -0.49328880477E+03  0.55135900719E+03  0.13773698241E+04  0.46999998093E+01 0. -1.
</event>
<event>
 5   0  0.5177000E-08  0.3679980E+04  0.7818609E-02  0.8072413E-01
       -1   -1    0    0    0  501  0.00000000000E+00  0.00000000000E+00  0.13581559939E+04  0.13581559939E+04  0.50400001928E-02 0. -1.
        1   -1    0    0  501    0  0.00000000000E+00  0.00000000000E+00 -0.24927652451E+04  0.24927652451E+04  0.50400001928E-02 0.  1.
    10030    2    1    2    0    0  0.00000000000E+00  0.00000000000E+00 -0.11346092512E+04  0.38509212389E+04  0.36799804667E+04 0.  0.
        4    1    3    3  502    0  0.32388231148E+02  0.38042587505E+03  0.13162469928E+04  0.13705037770E+04  0.12699999809E+01 0. -1.
       -4    1    3    3    0  502 -0.32388231148E+02 -0.38042587505E+03 -0.24508562440E+04  0.24804174619E+04  0.12699999809E+01 0.  1.
</event>
<event>
 5   0  0.5177000E-08  0.3706424E+04  0.7818609E-02  0.8066540E-01
        1   -1    0    0  501    0  0.00000000000E+00  0.00000000000E+00  0.23002194374E+04  0.23002194374E+04  0.50400001928E-02 0.  1.
       -1   -1    0    0    0  501  0.00000000000E+00  0.00000000000E+00 -0.14930728908E+04  0.14930728908E+04  0.50400001928E-02 0. -1.
    10030    2    1    2    0    0  0.00000000000E+00  0.00000000000E+00  0.80714654667E+03  0.37932923282E+04  0.37064243065E+04 0.  0.
        2    1    3    3  502    0  0.41230582783E+03 -0.13124303824E+04  0.16744191911E+04  0.21670600434E+04  0.25500000920E-02 0.  1.
       -2    1    3    3    0  502 -0.41230582783E+03  0.13124303824E+04 -0.86727264448E+03  0.16262322848E+04  0.25500000920E-02 0. -1.
</event>
<event>
 5   0  0.1587026E-07  0.3709074E+04  0.7818609E-02  0.8065954E-01
       -2   -1    0    0    0  501  0.00000000000E+00  0.00000000000E+00  0.17708808588E+04  0.17708808588E+04  0.25500000920E-02 0. -1.
        2   -1    0    0  501    0  0.00000000000E+00  0.00000000000E+00 -0.19421448113E+04  0.19421448114E+04  0.25500000920E-02 0.  1.
    10030    2    1    2    0    0  0.00000000000E+00  0.00000000000E+00 -0.17126395257E+03  0.37130256701E+04  0.37090737773E+04 0.  0.
        3    1    3    3  502    0  0.13963735825E+04  0.81406557006E+03 -0.99585601653E+03  0.18984970767E+04  0.10100000352E+00 0.  1.
       -3    1    3    3    0  502 -0.13963735825E+04 -0.81406557006E+03  0.82459206397E+03  0.18145285935E+04  0.10100000352E+00 0. -1.
</event>
<event>
 5   0  0.1666189E-07  0.3693279E+04  0.7818609E-02  0.8069453E-01
        2   -1    0    0  501    0  0.00000000000E+00  0.00000000000E+00  0.27901387472E+04  0.27901387472E+04  0.25500000920E-02 0. -1.
       -2   -1    0    0    0  501  0.00000000000E+00  0.00000000000E+00 -0.12221892663E+04  0.12221892663E+04  0.25500000920E-02 0.  1.
    10030    2    1    2    0    0  0.00000000000E+00  0.00000000000E+00  0.15679494809E+04  0.40123280136E+04  0.36932791004E+04 0.  0.
        4    1    3    3  502    0  0.18150685747E+04 -0.27155176218E+03  0.56169859190E+03  0.19193022720E+04  0.12699999809E+01 0. -1.
       -4    1    3    3    0  502 -0.18150685747E+04  0.27155176218E+03  0.10062508890E+04  0.20930257416E+04  0.12699999809E+01 0.  1.
</event>
<event>
 5   0  0.1558258E-07  0.3703766E+04  0.7818609E-02  0.8067128E-01
        2   -1    0    0  501    0  0.00000000000E+00  0.00000000000E+00  0.21211811352E+04  0.21211811352E+04  0.25500000920E-02 0.  1.
       -2   -1    0    0    0  501  0.00000000000E+00  0.00000000000E+00 -0.16167741518E+04  0.16167741519E+04  0.25500000920E-02 0. -1.
    10030    2    1    2    0    0  0.00000000000E+00  0.00000000000E+00  0.50440698337E+03  0.37379552871E+04  0.37037661000E+04 0.  0.
        1    1    3    3  502    0 -0.84061518241E+03  0.14114311223E+04  0.11149035865E+04  0.19853920784E+04  0.50400001928E-02 0.  1.
       -1    1    3    3    0  502  0.84061518241E+03 -0.14114311223E+04 -0.61049660313E+03  0.17525632086E+04  0.50400001928E-02 0. -1.
</event>
<event>
 5   0  0.1587026E-07  0.3685707E+04  0.7818609E-02  0.8071137E-01
        2   -1    0    0  501    0  0.00000000000E+00  0.00000000000E+00  0.14932570119E+04  0.14932570119E+04  0.25500000920E-02 0.  1.
       -2   -1    0    0    0  501  0.00000000000E+00  0.00000000000E+00 -0.22742962449E+04  0.22742962449E+04  0.25500000920E-02 0. -1.
    10030    2    1    2    0    0  0.00000000000E+00  0.00000000000E+00 -0.78103923300E+03  0.37675532567E+04  0.36857068873E+04 0.  0.
        3    1    3    3  502    0 -0.16515827143E+04 -0.76869055067E+03 -0.10595273366E+03  0.18247839918E+04  0.10100000352E+00 0. -1.
       -3    1    3    3    0  502  0.16515827143E+04  0.76869055067E+03 -0.67508649934E+03  0.19427692649E+04  0.10100000352E+00 0.  1.
</event>
<event>
 5   0  0.5181371E-08  0.3721847E+04  0.7818609E-02  0.8063137E-01
        1   -1    0    0  501    0  0.00000000000E+00  0.00000000000E+00  0.26044677206E+04  0.26044677206E+04  0.50400001928E-02 0. -1.
       -1   -1    0    0    0  501  0.00000000000E+00  0.00000000000E+00 -0.13296522047E+04  0.13296522047E+04  0.50400001928E-02 0.  1.
    10030    2    1    2    0    0  0.00000000000E+00  0.00000000000E+00  0.12748155159E+04  0.39341199253E+04  0.37218469859E+04 0.  0.
        5    1    3    3  502    0 -0.47337293450E+03 -0.74268924140E+03  0.23702171190E+04  0.25285609595E+04  0.46999998093E+01 0. -1.
       -5    1    3    3    0  502  0.47337293450E+03  0.74268924140E+03 -0.10954016031E+04  0.14055589658E+04  0.46999998093E+01 0.  1.
</event>
<event>
 5   0  0.5177000E-08  0.3701754E+04  0.7818609E-02  0.8067573E-01
       -1   -1    0    0    0  501  0.00000000000E+00  0.00000000000E+00  0.22652066194E+04  0.22652066194E+04  0.50400001928E-02 0. -1.
        1   -1    0    0  501    0  0.00000000000E+00  0.00000000000E+00 -0.15123325573E+04  0.15123325573E+04  0.50400001928E-02 0.  1.
    10030    2    1    2    0    0  0.00000000000E+00  0.00000000000E+00  0.75287406217E+03  0.37775391767E+04  0.37017540272E+04 0.  0.
        4    1    3    3  502    0 -0.46520836919E+03 -0.13737898861E+04 -0.79689660550E+03  0.16549209319E+04  0.12699999809E+01 0.  1.
       -4    1    3    3    0  502  0.46520836919E+03  0.13737898861E+04  0.15497706677E+04  0.21226182448E+04  0.12699999809E+01 0. -1.
</event>
<event>
 5   0  0.5181371E-08  0.3691434E+04  0.7818609E-02  0.8069863E-01
       -1   -1    0    0    0  501  0.00000000000E+00  0.00000000000E+00  0.14719819447E+04  0.14719819447E+04  0.50400001928E-02 0.  1.
        1   -1    0    0  501    0  0.00000000000E+00  0.00000000000E+00 -0.23143436128E+04  0.23143436128E+04  0.50400001928E-02 0. -1.
    10030    2    1    2    0    0  0.00000000000E+00  0.00000000000E+00 -0.84236166801E+03  0.37863255575E+04  0.36914344160E+04 0.  0.
        5    1    3    3  502    0  0.90979255153E+03 -0.87061521920E+02 -0.20659433557E+04  0.22590808384E+04  0.46999998093E+01 0. -1.
       -5    1    3    3    0  502 -0.90979255153E+03  0.87061521920E+02  0.12235816877E+04  0.15272447191E+04  0.46999998093E+01 0.  1.
</event>
<event>
 5   0  0.5177000E-08  0.3675835E+04  0.7818609E-02  0.8073338E-01
       -1   -1    0    0    0  501  0.00000000000E+00  0.00000000000E+00  0.14182284335E+04  0.14182284335E+04  0.50400001928E-02 0.  1.
        1   -1    0    0  501    0  0.00000000000E+00  0.00000000000E+00 -0.23818025652E+04  0.23818025653E+04  0.50400001928E-02 0. -1.
    10030    2    1    2    0    0  0.00000000000E+00  0.00000000000E+00 -0.96357413178E+03  0.38000309987E+04  0.36758346649E+04 0.  0.
        1    1    3    3  502    0  0.14451614417E+04  0.48166742348E+03 -0.15448526753E+04  0.21695771219E+04  0.50400001928E-02 0. -1.
       -1    1    3    3    0  502 -0.14451614417E+04 -0.48166742348E+03  0.58127854353E+03  0.16304538769E+04  0.50400001928E-02 0.  1.
</event>
<event>
 5   0  0.1666189E-07  0.3596841E+04  0.7818609E-02  0.8091216E-01
       -2   -1    0    0    0  501  0.00000000000E+00  0.00000000000E+00  0.99813615056E+03  0.99813615057E+03  0.25500000920E-02 0. -1.
        2   -1    0    0  501    0  0.00000000000E+00  0.00000000000E+00 -0.32403564181E+04  0.32403564181E+04  0.25500000920E-02 0.  1.
    10030    2    1    2    0    0  0.00000000000E+00  0.00000000000E+00 -0.22422202676E+04  0.42384925687E+04  0.35968413263E+04 0.  0.
        4    1    3    3  502    0  0.14677537796E+04 -0.10383176195E+04 -0.10696016601E+04  0.20919976006E+04  0.12699999809E+01 0. -1.
       -4    1    3    3    0  502 -0.14677537796E+04  0.10383176195E+04 -0.11726186075E+04  0.21464949681E+04  0.12699999809E+01 0.  1.
</event>
<event>
 5   0  0.1558258E-07  0.3713589E+04  0.7818609E-02  0.8064957E-01
        2   -1    0    0  501    0  0.00000000000E+00  0.00000000000E+00  0.22749476768E+04  0.22749476768E+04  0.25500000920E-02 0.  1.
       -2   -1    0    0    0  501  0.00000000000E+00  0.00000000000E+00 -0.15155009768E+04  0.15155009768E+04  0.25500000920E-02 0. -1.
    10030    2    1    2    0    0  0.00000000000E+00  0.00000000000E+00  0.75944670003E+03  0.37904486536E+04  0.37135887906E+04 0.  0.
        1    1    3    3  502    0  0.10025611836E+04 -0.54503013225E+03  0.18747912912E+04  0.21947731449E+04  0.50400001928E-02 0.  1.
       -1    1    3    3    0  502 -0.10025611836E+04  0.54503013225E+03 -0.11153445912E+04  0.15956755087E+04  0.50400001928E-02 0. -1.
</event>
<event>
 5   0  0.1658770E-07  0.3698637E+04  0.7818609E-02  0.8068264E-01
        2   -1    0    0  501    0  0.00000000000E+00  0.00000000000E+00  0.20167795163E+04  0.20167795163E+04  0.25500000920E-02 0.  1.
       -2   -1    0    0    0  501  0.00000000000E+00  0.00000000000E+00 -0.16957621424E+04  0.16957621424E+04  0.25500000920E-02 0. -1.
    10030    2    1    2    0    0  0.00000000000E+00  0.00000000000E+00  0.32101737385E+03  0.37125416587E+04  0.36986366966E+04 0.  0.
        2    1    3    3  502    0  0.10634418582E+04  0.33485792974E+03  0.16415012732E+04  0.19843298235E+04  0.25500000920E-02 0.  1.
       -2    1    3    3    0  502 -0.10634418582E+04 -0.33485792974E+03 -0.13204838993E+04  0.17282118351E+04  0.25500000920E-02 0. -1.
</event>
<event>
 5   0  0.5177000E-08  0.3678002E+04  0.7818609E-02  0.8072854E-01
        1   -1    0    0  501    0  0.00000000000E+00  0.00000000000E+00  0.27872947906E+04  0.27872947907E+04  0.50400001928E-02 0.  1.
       -1   -1    0    0    0  501  0.00000000000E+00  0.00000000000E+00 -0.12133361249E+04  0.12133361249E+04  0.50400001928E-02 0. -1.
    10030    2    1    2    0    0  0.00000000000E+00  0.00000000000E+00  0.15739586658E+04  0.40006309155E+04  0.36780024253E+04 0.  0.
        3    1    3    3  502    0  0.10479769969E+04  0.80886953332E+03 -0.60147083401E+03  0.14540608248E+04  0.10100000352E+00 0. -1.
       -3    1    3    3    0  502 -0.10479769969E+04 -0.80886953332E+03  0.21754294998E+04  0.25465700907E+04  0.10100000352E+00 0.  1.
</event>
<event>
 5   0  0.1587026E-07  0.3728904E+04  0.7818609E-02  0.8061586E-01
       -2   -1    0    0    0  501  0.00000000000E+00  0.00000000000E+00  0.19396861374E+04  0.19396861374E+04  0.25500000920E-02 0. -1.
        2   -1    0    0  501    0  0.00000000000E+00  0.00000000000E+00 -0.17921362539E+04  0.17921362539E+04  0.25500000920E-02 0.  1.
    10030    2    1    2    0    0  0.00000000000E+00  0.00000000000E+00  0.14754988358E+03  0.37318223913E+04  0.37289043152E+04 0.  0.
        3    1    3    3  502    0  0.11945595732E+04  0.66303877571E+03 -0.11959136098E+04  0.18157098789E+04  0.10100000352E+00 0.  1.
       -3    1    3    3    0  502 -0.11945595732E+04 -0.66303877571E+03  0.13434634933E+04  0.19161125124E+04  0.10100000352E+00 0. -1.
</event>
<event>
 5   0  0.1686284E-07  0.3699311E+04  0.7818609E-02  0.8068114E-01
        2   -1    0    0  501    0  0.00000000000E+00  0.00000000000E+00  0.23060726353E+04  0.23060726353E+04  0.25500000920E-02 0.  1.
       -2   -1    0    0    0  501  0.00000000000E+00  0.00000000000E+00 -0.14835725404E+04  0.14835725404E+04  0.25500000920E-02 0. -1.
    10030    2    1    2    0    0  0.00000000000E+00  0.00000000000E+00  0.82250009498E+03  0.37896451757E+04  0.36993113077E+04 0.  0.
        5    1    3    3  502    0 -0.30290405987E+03  0.14002959615E+04  0.16096996950E+04  0.21549326782E+04  0.46999998093E+01 0.  1.
       -5    1    3    3    0  502  0.30290405987E+03 -0.14002959615E+04 -0.78719960003E+03  0.16347124975E+04  0.46999998093E+01 0. -1.
</event>
<event>
 5   0  0.1558258E-07  0.3694324E+04  0.7818609E-02  0.8069221E-01
        2   -1    0    0  501    0  0.00000000000E+00  0.00000000000E+00  0.26094458363E+04  0.26094458363E+04  0.25500000920E-02 0.  1.
       -2   -1    0    0    0  501  0.00000000000E+00  0.00000000000E+00 -0.13075603278E+04  0.13075603278E+04  0.25500000920E-02 0. -1.
    10030    2    1    2    0    0  0.00000000000E+00  0.00000000000E+00  0.13018855086E+04  0.39170061641E+04  0.36943242159E+04 0.  0.
        1    1    3    3  502    0 -0.14736616804E+04  0.18353309880E+02 -0.52972780935E+03  0.15660865699E+04  0.50400001928E-02 0. -1.
       -1    1    3    3    0  502  0.14736616804E+04 -0.18353309880E+02  0.18316133179E+04  0.23509195943E+04  0.50400001928E-02 0.  1.
</event>
<event>
 5   0  0.5177000E-08  0.3658808E+04  0.7818609E-02  0.8077152E-01
       -1   -1    0    0    0  501  0.00000000000E+00  0.00000000000E+00  0.10993440004E+04  0.10993440004E+04  0.50400001928E-02 0. -1.
        1   -1    0    0  501    0  0.00000000000E+00  0.00000000000E+00 -0.30442872230E+04  0.30442872230E+04  0.50400001928E-02 0.  1.
    10030    2    1    2    0    0  0.00000000000E+00  0.00000000000E+00 -0.19449432227E+04  0.41436312234E+04  0.36588079447E+04 0.  0.
        3    1    3    3  502    0 -0.13327639006E+04 -0.91446499748E+03 -0.20677196619E+01  0.16163261218E+04  0.10100000352E+00 0. -1.
       -3    1    3    3    0  502  0.13327639006E+04  0.91446499748E+03 -0.19428755030E+04  0.25273051016E+04  0.10100000352E+00 0.  1.
</event>
<event>
 5   0  0.5177000E-08  0.3692299E+04  0.7818609E-02  0.8069671E-01
       -1   -1    0    0    0  501  0.00000000000E+00  0.00000000000E+00  0.28919155727E+04  0.28919155727E+04  0.50400001928E-02 0.  1.
        1   -1    0    0  501    0  0.00000000000E+00  0.00000000000E+00 -0.11785503872E+04  0.11785503872E+04  0.50400001928E-02 0. -1.
    10030    2    1    2    0    0  0.00000000000E+00  0.00000000000E+00  0.17133651855E+04  0.40704659599E+04  0.36922991308E+04 0.  0.
        4    1    3    3  502    0 -0.49185727739E+03  0.43584062347E+03 -0.10452357803E+04  0.12346659790E+04  0.12699999809E+01 0. -1.
       -4    1    3    3    0  502  0.49185727739E+03 -0.43584062347E+03  0.27586009658E+04  0.28357999809E+04  0.12699999809E+01 0.  1.
</event>
<event>
 5   0  0.5177000E-08  0.3703124E+04  0.7818609E-02  0.8067270E-01
        1   -1    0    0  501    0  0.00000000000E+00  0.00000000000E+00  0.15570498121E+04  0.15570498121E+04  0.50400001928E-02 0.  1.
       -1   -1    0    0    0  501  0.00000000000E+00  0.00000000000E+00 -0.22017810110E+04  0.22017810111E+04  0.50400001928E-02 0. -1.
    10030    2    1    2    0    0  0.00000000000E+00  0.00000000000E+00 -0.64473119897E+03  0.37588308231E+04  0.37031244697E+04 0.  0.
        3    1    3    3  502    0  0.17276557127E+04  0.35219452168E+03  0.25133352495E+03  0.17810120139E+04  0.10100000352E+00 0.  1.
       -3    1    3    3    0  502 -0.17276557127E+04 -0.35219452168E+03 -0.89606472392E+03  0.19778188093E+04  0.10100000352E+00 0. -1.
</event>
<event>
 5   0  0.1666189E-07  0.3650800E+04  0.7818609E-02  0.8078953E-01
        2   -1    0    0  501    0  0.00000000000E+00  0.00000000000E+00  0.23340500227E+04  0.23340500227E+04  0.25500000920E-02 0. -1.
       -2   -1    0    0    0  501  0.00000000000E+00  0.00000000000E+00 -0.14275983864E+04  0.14275983864E+04  0.25500000920E-02 0.  1.
    10030    2    1    2    0    0  0.00000000000E+00  0.00000000000E+00  0.90645163637E+03  0.37616484091E+04  0.36508004855E+04 0.  0.
        4    1    3    3  502    0 -0.70990003001E+03  0.15838454571E+04  0.10356860417E+04  0.20211807625E+04  0.12699999809E+01 0. -1.
       -4    1    3    3    0  502  0.70990003001E+03 -0.15838454571E+04 -0.12923440536E+03  0.17404676467E+04  0.12699999809E+01 0.  1.
</event>
<event>
 5   0  0.1686284E-07  0.3705118E+04  0.7818609E-02  0.8066829E-01
       -2   -1    0    0    0  501  0.00000000000E+00  0.00000000000E+00  0.27445271723E+04  0.27445271723E+04  0.25500000920E-02 0.  1.
        2   -1    0    0  501    0  0.00000000000E+00  0.00000000000E+00 -0.12504794666E+04  0.12504794666E+04  0.25500000920E-02 0. -1.
    10030    2    1    2    0    0  0.00000000000E+00  0.00000000000E+00  0.14940477057E+04  0.39950066390E+04  0.37051180141E+04 0.  0.
        5    1    3    3  502    0  0.13496972518E+04  0.83433863223E+03 -0.28389383747E+03  0.16119619802E+04  0.46999998093E+01 0. -1.
       -5    1    3    3    0  502 -0.13496972518E+04 -0.83433863223E+03  0.17779415432E+04  0.23830446587E+04  0.46999998093E+01 0.  1.
</event>
<event>
 5   0  0.1658770E-07  0.3724733E+04  0.7818609E-02  0.8062503E-01
        2   -1    0    0  501    0  0.00000000000E+00  0.00000000000E+00  0.18881294811E+04  0.18881294811E+04  0.25500000920E-02 0.  1.
       -2   -1    0    0    0  501  0.00000000000E+00  0.00000000000E+00 -0.18369547041E+04  0.18369547041E+04  0.25500000920E-02 0. -1.
    10030    2    1    2    0    0  0.00000000000E+00  0.00000000000E+00  0.51174777025E+02  0.37250841853E+04  0.37247326521E+04 0.  0.
        2    1    3    3  502    0 -0.23039834225E+03  0.10939739805E+04  0.15152063499E+04  0.18830063062E+04  0.25500000920E-02 0.  1.
       -2    1    3    3    0  502  0.23039834225E+03 -0.10939739805E+04 -0.14640315729E+04  0.18420778791E+04  0.25500000920E-02 0. -1.
</event>
<event>
 5   0  0.1587026E-07  0.3714279E+04  0.7818609E-02  0.8064805E-01
       -2   -1    0    0    0  501  0.00000000000E+00  0.00000000000E+00  0.20379597747E+04  0.20379597748E+04  0.25500000920E-02 0. -1.
        2   -1    0    0  501    0  0.00000000000E+00  0.00000000000E+00 -0.16923630541E+04  0.16923630541E+04  0.25500000920E-02 0.  1.
    10030    2    1    2    0    0  0.00000000000E+00  0.00000000000E+00  0.34559672067E+03  0.37303228288E+04  0.37142793802E+04 0.  0.
        3    1    3    3  502    0  0.18368869404E+03  0.82670143863E+03  0.18327505774E+04  0.20189481157E+04  0.10100000352E+00 0. -1.
       -3    1    3    3    0  502 -0.18368869404E+03 -0.82670143863E+03 -0.14871538567E+04  0.17113747131E+04  0.10100000352E+00 0.  1.
</event>
<event>
 5   0  0.1658770E-07  0.3700787E+04  0.7818609E-02  0.8067787E-01
        2   -1    0    0  501    0  0.00000000000E+00  0.00000000000E+00  0.27610094385E+04  0.27610094385E+04  0.25500000920E-02 0. -1.
       -2   -1    0    0    0  501  0.00000000000E+00  0.00000000000E+00 -0.12401102591E+04  0.12401102591E+04  0.25500000920E-02 0.  1.
    10030    2    1    2    0    0  0.00000000000E+00  0.00000000000E+00  0.15208991794E+04  0.40011196976E+04  0.37007870137E+04 0.  0.
        2    1    3    3  502    0 -0.13397318896E+04 -0.11893494175E+04  0.25969615679E+03  0.18102142599E+04  0.25500000920E-02 0.  1.
       -2    1    3    3    0  502  0.13397318896E+04  0.11893494175E+04  0.12612030227E+04  0.21909054378E+04  0.25500000920E-02 0. -1.
</event>
<event>
 5   0  0.1587026E-07  0.3664566E+04  0.7818609E-02  0.8075860E-01
        2   -1    0    0  501    0  0.00000000000E+00  0.00000000000E+00  0.18366626156E+04  0.18366626157E+04  0.25500000920E-02 0. -1.
       -2   -1    0    0    0  501  0.00000000000E+00  0.00000000000E+00 -0.18279139405E+04  0.18279139405E+04  0.25500000920E-02 0.  1.
    10030    2    1    2    0    0  0.00000000000E+00  0.00000000000E+00  0.87486751861E+01  0.36645765561E+04  0.36645661130E+04 0.  0.
        3    1    3    3  502    0  0.13153575193E+03 -0.11318080696E+04  0.14392895837E+04  0.18357139419E+04  0.10100000352E+00 0. -1.
       -3    1    3    3    0  502 -0.13153575193E+03  0.11318080696E+04 -0.14305409085E+04  0.18288626142E+04  0.10100000352E+00 0.  1.
</event>
<event>
 5   0  0.1587026E-07  0.3702114E+04  0.7818609E-02  0.8067493E-01
        2   -1    0    0  501    0  0.00000000000E+00  0.00000000000E+00  0.24978088978E+04  0.24978088978E+04  0.25500000920E-02 0.  1.
       -2   -1    0    0    0  501  0.00000000000E+00  0.00000000000E+00 -0.13717672862E+04  0.13717672862E+04  0.25500000920E-02 0. -1.
    10030    2    1    2    0    0  0.00000000000E+00  0.00000000000E+00  0.11260416116E+04  0.38695761841E+04  0.37021142788E+04 0.  0.
        3    1    3    3  502    0 -0.53305697193E+03 -0.44901809454E+03  0.23554207429E+04  0.24563741309E+04  0.10100000352E+00 0.  1.
       -3    1    3    3    0  502  0.53305697193E+03  0.44901809454E+03 -0.12293791313E+04  0.14132020532E+04  0.10100000352E+00 0. -1.
</event>
<event>
 5   0  0.1666189E-07  0.3680356E+04  0.7818609E-02  0.8072329E-01
       -2   -1    0    0    0  501  0.00000000000E+00  0.00000000000E+00  0.19466078637E+04  0.19466078637E+04  0.25500000920E-02 0. -1.
        2   -1    0    0  501    0  0.00000000000E+00  0.00000000000E+00 -0.17395670482E+04  0.17395670482E+04  0.25500000920E-02 0.  1.
    10030    2    1    2    0    0  0.00000000000E+00  0.00000000000E+00  0.20704081544E+03  0.36861749119E+04  0.36803559042E+04 0.  0.
        4    1    3    3  502    0 -0.12102234951E+03 -0.10555568310E+04  0.16083628117E+04  0.19276097062E+04  0.12699999809E+01 0. -1.
       -4    1    3    3    0  502  0.12102234951E+03  0.10555568310E+04 -0.14013219962E+04  0.17585652057E+04  0.12699999809E+01 0.  1.
</event>
<event>
 5   0  0.5181371E-08  0.3707336E+04  0.7818609E-02  0.8066338E-01
       -1   -1    0    0    0  501  0.00000000000E+00  0.00000000000E+00  0.13714364569E+04  0.13714364569E+04  0.50400001928E-02 0. -1.
        1   -1    0    0  501    0  0.00000000000E+00  0.00000000000E+00 -0.25054642481E+04  0.25054642481E+04  0.50400001928E-02 0.  1.
    10030    2    1    2    0    0  0.00000000000E+00  0.00000000000E+00 -0.11340277911E+04  0.38769007050E+04  0.37073359769E+04 0.  0.
        5    1    3    3  502    0  0.17270694933E+04 -0.28265773854E+03  0.71998099995E+02  0.17515336845E+04  0.46999998093E+01 0.  1.
       -5    1    3    3    0  502 -0.17270694933E+04  0.28265773854E+03 -0.12060258911E+04  0.21253670205E+04  0.46999998093E+01 0. -1.
</event>
<event>
 5   0  0.5177000E-08  0.3682786E+04  0.7818609E-02  0.8071787E-01
        1   -1    0    0  501    0  0.00000000000E+00  0.00000000000E+00  0.21395041044E+04  0.21395041044E+04  0.50400001928E-02 0.  1.
       -1   -1    0    0    0  501  0.00000000000E+00  0.00000000000E+00 -0.15848193277E+04  0.15848193277E+04  0.50400001928E-02 0. -1.
    10030    2    1    2    0    0  0.00000000000E+00  0.00000000000E+00  0.55468477664E+03  0.37243234321E+04  0.36827856068E+04 0.  0.
        2    1    3    3  502    0  0.54559122405E+03  0.14241183155E+04 -0.76625859531E+03  0.17067322564E+04  0.25500000920E-02 0. -1.
       -2    1    3    3    0  502 -0.54559122405E+03 -0.14241183155E+04  0.13209433719E+04  0.20175911757E+04  0.25500000920E-02 0.  1.
</event>
<event>
 5   0  0.5177000E-08  0.3689261E+04  0.7818609E-02  0.8070346E-01
       -1   -1    0    0    0  501  0.00000000000E+00  0.00000000000E+00  0.13880745229E+04  0.13880745229E+04  0.50400001928E-02 0.  1.
        1   -1    0    0  501    0  0.00000000000E+00  0.00000000000E+00 -0.24513542540E+04  0.24513542540E+04  0.50400001928E-02 0. -1.
    10030    2    1    2    0    0  0.00000000000E+00  0.00000000000E+00 -0.10632797311E+04  0.38394287770E+04  0.36892613823E+04 0.  0.
        2    1    3    3  502    0 -0.71302090929E+03  0.51667522371E+02 -0.23013243775E+04  0.24098054362E+04  0.25500000920E-02 0. -1.
       -2    1    3    3    0  502  0.71302090929E+03 -0.51667522371E+02  0.12380446464E+04  0.14296233408E+04  0.25500000920E-02 0.  1.
</event>
<event>
 5   0  0.5177000E-08  0.3471182E+04  0.7818609E-02  0.8120654E-01
        1   -1    0    0  501    0  0.00000000000E+00  0.00000000000E+00  0.19335089446E+04  0.19335089446E+04  0.50400001928E-02 0.  1.
       -1   -1    0    0    0  501  0.00000000000E+00  0.00000000000E+00 -0.15579320990E+04  0.15579320990E+04  0.50400001928E-02 0. -1.
    10030    2    1    2    0    0  0.00000000000E+00  0.00000000000E+00  0.37557684560E+03  0.34914410437E+04  0.34711817288E+04 0.  0.
        3    1    3    3  502    0  0.15939690711E+04 -0.58229442501E+03  0.55387895114E+03  0.17851011455E+04  0.10100000352E+00 0. -1.
       -3    1    3    3    0  502 -0.15939690711E+04  0.58229442501E+03 -0.17830210554E+03  0.17063398982E+04  0.10100000352E+00 0.  1.
</event>
<event>
 5   0  0.1558258E-07  0.3670489E+04  0.7818609E-02  0.8074533E-01
       -2   -1    0    0    0  501  0.00000000000E+00  0.00000000000E+00  0.22743150976E+04  0.22743150976E+04  0.25500000920E-02 0.  1.
        2   -1    0    0  501    0  0.00000000000E+00  0.00000000000E+00 -0.14809394088E+04  0.14809394088E+04  0.25500000920E-02 0. -1.
    10030    2    1    2    0    0  0.00000000000E+00  0.00000000000E+00  0.79337568883E+03  0.37552545065E+04  0.36704892623E+04 0.  0.
        1    1    3    3  502    0  0.10829195301E+04 -0.11373727355E+04 -0.57486955706E+03  0.16723655269E+04  0.50400001928E-02 0. -1.
       -1    1    3    3    0  502 -0.10829195301E+04  0.11373727355E+04  0.13682452459E+04  0.20828889795E+04  0.50400001928E-02 0.  1.
</event>
<event>
 5   0  0.5177000E-08  0.3658345E+04  0.7818609E-02  0.8077256E-01
       -1   -1    0    0    0  501  0.00000000000E+00  0.00000000000E+00  0.17492910696E+04  0.17492910696E+04  0.50400001928E-02 0. -1.
        1   -1    0    0  501    0  0.00000000000E+00  0.00000000000E+00 -0.19127012052E+04  0.19127012052E+04  0.50400001928E-02 0.  1.
    10030    2    1    2    0    0  0.00000000000E+00  0.00000000000E+00 -0.16341013554E+03  0.36619922748E+04  0.36583445092E+04 0.  0.
        3    1    3    3  502    0 -0.98319164486E+03  0.41377180398E+03 -0.15691201519E+04  0.18973694889E+04  0.10100000352E+00 0.  1.
       -3    1    3    3    0  502  0.98319164486E+03 -0.41377180398E+03  0.14057100163E+04  0.17646227859E+04  0.10100000352E+00 0. -1.
</event>
<event>
 5   0  0.1587026E-07  0.3723714E+04  0.7818609E-02  0.8062727E-01
       -2   -1    0    0    0  501  0.00000000000E+00  0.00000000000E+00  0.12006522103E+04  0.12006522103E+04  0.25500000920E-02 0.  1.
        2   -1    0    0  501    0  0.00000000000E+00  0.00000000000E+00 -0.28871910342E+04  0.28871910342E+04  0.25500000920E-02 0. -1.
    10030    2    1    2    0    0  0.00000000000E+00  0.00000000000E+00 -0.16865388239E+04  0.40878432445E+04  0.37237144341E+04 0.  0.
        3    1    3    3  502    0  0.12131566558E+04  0.80151594725E+03 -0.21198847970E+04  0.25706202458E+04  0.10100000352E+00 0. -1.
       -3    1    3    3    0  502 -0.12131566558E+04 -0.80151594725E+03  0.43334597308E+03  0.15172229987E+04  0.10100000352E+00 0.  1.
</event>
<event>
 5   0  0.5177000E-08  0.3698295E+04  0.7818609E-02  0.8068340E-01
        1   -1    0    0  501    0  0.00000000000E+00  0.00000000000E+00  0.13074679738E+04  0.13074679738E+04  0.50400001928E-02 0.  1.
       -1   -1    0    0    0  501  0.00000000000E+00  0.00000000000E+00 -0.26152434506E+04  0.26152434506E+04  0.50400001928E-02 0. -1.
    10030    2    1    2    0    0  0.00000000000E+00  0.00000000000E+00 -0.13077754769E+04  0.39227114244E+04  0.36982953129E+04 0.  0.
        1    1    3    3  502    0  0.56820146256E+03  0.15921407086E+04  0.14097366298E+03  0.16963603720E+04  0.50400001928E-02 0.  1.
       -1    1    3    3    0  502 -0.56820146256E+03 -0.15921407086E+04 -0.14487491398E+04  0.22263510524E+04  0.50400001928E-02 0. -1.
</event>
<event>
 5   0  0.1666189E-07  0.3703576E+04  0.7818609E-02  0.8067170E-01
       -2   -1    0    0    0  501  0.00000000000E+00  0.00000000000E+00  0.17762351467E+04  0.17762351467E+04  0.25500000920E-02 0.  1.
        2   -1    0    0  501    0  0.00000000000E+00  0.00000000000E+00 -0.19305542523E+04  0.19305542523E+04  0.25500000920E-02 0. -1.
    10030    2    1    2    0    0  0.00000000000E+00  0.00000000000E+00 -0.15431910556E+03  0.37067893990E+04  0.37035757400E+04 0.  0.
        4    1    3    3  502    0 -0.93322001526E+03  0.27142420407E+02  0.15234405420E+04  0.17867593587E+04  0.12699999809E+01 0.  1.
       -4    1    3    3    0  502  0.93322001526E+03 -0.27142420407E+02 -0.16777596476E+04  0.19200300403E+04  0.12699999809E+01 0. -1.
</event>
<event>
 5   0  0.1666189E-07  0.3690753E+04  0.7818609E-02  0.8070014E-01
        2   -1    0    0  501    0  0.00000000000E+00  0.00000000000E+00  0.27462050693E+04  0.27462050693E+04  0.25500000920E-02 0. -1.
       -2   -1    0    0    0  501  0.00000000000E+00  0.00000000000E+00 -0.12400437336E+04  0.12400437336E+04  0.25500000920E-02 0.  1.
    10030    2    1    2    0    0  0.00000000000E+00  0.00000000000E+00  0.15061613357E+04  0.39862488030E+04  0.36907529787E+04 0.  0.
        4    1    3    3  502    0  0.11704409455E+02  0.12774674618E+04 -0.68521104755E+03  0.14496813104E+04  0.12699999809E+01 0.  1.
       -4    1    3    3    0  502 -0.11704409455E+02 -0.12774674618E+04  0.21913723832E+04  0.25365674925E+04  0.12699999809E+01 0. -1.
</event>
<event>
 5   0  0.5181371E-08  0.3782543E+04  0.7818609E-02  0.8049911E-01
        1   -1    0    0  501    0  0.00000000000E+00  0.00000000000E+00  0.29965291880E+04  0.29965291880E+04  0.50400001928E-02 0. -1.
       -1   -1    0    0    0  501  0.00000000000E+00  0.00000000000E+00 -0.11936838919E+04  0.11936838919E+04  0.50400001928E-02 0.  1.
    10030    2    1    2    0    0  0.00000000000E+00  0.00000000000E+00  0.18028452960E+04  0.41902130799E+04  0.37825433895E+04 0.  0.
        5    1    3    3  502    0  0.14463768633E+03  0.10413905263E+03 -0.11843537731E+04  0.11976981892E+04  0.46999998093E+01 0.  1.
       -5    1    3    3    0  502 -0.14463768633E+03 -0.10413905263E+03  0.29871990691E+04  0.29925148907E+04  0.46999998093E+01 0. -1.
</event>
<event>
 5   0  0.5177000E-08  0.3695309E+04  0.7818609E-02  0.8069002E-01
       -1   -1    0    0    0  501  0.00000000000E+00  0.00000000000E+00  0.16585646289E+04  0.16585646289E+04  0.50400001928E-02 0. -1.
        1   -1    0    0  501    0  0.00000000000E+00  0.00000000000E+00 -0.20583020881E+04  0.20583020881E+04  0.50400001928E-02 0.  1.
    10030    2    1    2    0    0  0.00000000000E+00  0.00000000000E+00 -0.39973745919E+03  0.37168667170E+04  0.36953089391E+04 0.  0.
        3    1    3    3  502    0 -0.13806540665E+03 -0.77507332000E+02 -0.20514658078E+04  0.20575668674E+04  0.10100000352E+00 0.  1.
       -3    1    3    3    0  502  0.13806540665E+03  0.77507332000E+02  0.16517283486E+04  0.16592998496E+04  0.10100000352E+00 0. -1.
</event>
<event>
 5   0  0.5177000E-08  0.3704895E+04  0.7818609E-02  0.8066878E-01
        1   -1    0    0  501    0  0.00000000000E+00  0.00000000000E+00  0.16997743996E+04  0.16997743997E+04  0.50400001928E-02 0.  1.
       -1   -1    0    0    0  501  0.00000000000E+00  0.00000000000E+00 -0.20188332724E+04  0.20188332724E+04  0.50400001928E-02 0. -1.
    10030    2    1    2    0    0  0.00000000000E+00  0.00000000000E+00 -0.31905887275E+03  0.37186076721E+04  0.37048946617E+04 0.  0.
        2    1    3    3  502    0  0.21384184022E+03  0.12394206604E+04  0.12055299002E+04  0.17421808880E+04  0.25500000920E-02 0.  1.
       -2    1    3    3    0  502 -0.21384184022E+03 -0.12394206604E+04 -0.15245887730E+04  0.19764267841E+04  0.25500000920E-02 0. -1.
</event>
<event>
 5   0  0.1666189E-07  0.3719691E+04  0.7818609E-02  0.8063612E-01
        2   -1    0    0  501    0  0.00000000000E+00  0.00000000000E+00  0.30534418952E+04  0.30534418952E+04  0.25500000920E-02 0. -1.
       -2   -1    0    0    0  501  0.00000000000E+00  0.00000000000E+00 -0.11328282378E+04  0.11328282378E+04  0.25500000920E-02 0.  1.
    10030    2    1    2    0    0  0.00000000000E+00  0.00000000000E+00  0.19206136575E+04  0.41862701330E+04  0.37196909556E+04 0.  0.
        4    1    3    3  502    0 -0.15580878866E+04 -0.84933746314E+03  0.33367945524E+03  0.18056454747E+04  0.12699999809E+01 0.  1.
       -4    1    3    3    0  502  0.15580878866E+04  0.84933746314E+03  0.15869342022E+04  0.23806246583E+04  0.12699999809E+01 0. -1.
</event>
<event>
 5   0  0.5177000E-08  0.3718760E+04  0.7818609E-02  0.8063817E-01
       -1   -1    0    0    0  501  0.00000000000E+00  0.00000000000E+00  0.13832484745E+04  0.13832484745E+04  0.50400001928E-02 0.  1.
        1   -1    0    0  501    0  0.00000000000E+00  0.00000000000E+00 -0.24994019752E+04  0.24994019752E+04  0.50400001928E-02 0. -1.
    10030    2    1    2    0    0  0.00000000000E+00  0.00000000000E+00 -0.11161535007E+04  0.38826504497E+04  0.37187599919E+04 0.  0.
        3    1    3    3  502    0 -0.12735964603E+04  0.82906342997E+03  0.56054212135E+03  0.16197535599E+04  0.10100000352E+00 0.  1.
       -3    1    3    3    0  502  0.12735964603E+04 -0.82906342997E+03 -0.16766956221E+04  0.22628968898E+04  0.10100000352E+00 0. -1.
</event>
<event>
 5   0  0.1658770E-07  0.3681877E+04  0.7818609E-02  0.8071990E-01
        2   -1    0    0  501    0  0.00000000000E+00  0.00000000000E+00  0.22087395506E+04  0.22087395506E+04  0.25500000920E-02 0.  1.
       -2   -1    0    0    0  501  0.00000000000E+00  0.00000000000E+00 -0.15343840820E+04  0.15343840820E+04  0.25500000920E-02 0. -1.
    10030    2    1    2    0    0  0.00000000000E+00  0.00000000000E+00  0.67435546857E+03  0.37431236325E+04  0.36818771341E+04 0.  0.
        2    1    3    3  502    0 -0.16999873045E+04  0.29399794220E+02 -0.38042055817E+03  0.17422803978E+04  0.25500000920E-02 0. -1.
       -2    1    3    3    0  502  0.16999873045E+04 -0.29399794220E+02  0.10547760267E+04  0.20008432348E+04  0.25500000920E-02 0.  1.
</event>
<event>
 5   0  0.1666189E-07  0.3705559E+04  0.7818609E-02  0.8066731E-01
        2   -1    0    0  501    0  0.00000000000E+00  0.00000000000E+00  0.22112466743E+04  0.22112466743E+04  0.25500000920E-02 0. -1.
       -2   -1    0    0    0  501  0.00000000000E+00  0.00000000000E+00 -0.15524233585E+04  0.15524233585E+04  0.25500000920E-02 0.  1.
    10030    2    1    2    0    0  0.00000000000E+00  0.00000000000E+00  0.65882331580E+03  0.37636700328E+04  0.37055585213E+04 0.  0.
        4    1    3    3  502    0 -0.12299613483E+04 -0.13646160868E+04  0.85209466163E+02  0.18390878850E+04  0.12699999809E+01 0.  1.
       -4    1    3    3    0  502  0.12299613483E+04  0.13646160868E+04  0.57361384964E+03  0.19245821479E+04  0.12699999809E+01 0. -1.
</event>
<event>
 5   0  0.5181371E-08  0.3701084E+04  0.7818609E-02  0.8067722E-01
        1   -1    0    0  501    0  0.00000000000E+00  0.00000000000E+00  0.27395333591E+04  0.27395333591E+04  0.50400001928E-02 0. -1.
       -1   -1    0    0    0  501  0.00000000000E+00  0.00000000000E+00 -0.12500327090E+04  0.12500327090E+04  0.50400001928E-02 0.  1.
    10030    2    1    2    0    0  0.00000000000E+00  0.00000000000E+00  0.14895006501E+04  0.39895660681E+04  0.37010843310E+04 0.  0.
        5    1    3    3  502    0 -0.16803390533E+04  0.35353121826E+02  0.15795108600E+04  0.23064400760E+04  0.46999998093E+01 0. -1.
       -5    1    3    3    0  502  0.16803390533E+04 -0.35353121826E+02 -0.90010209975E+02  0.16831259921E+04  0.46999998093E+01 0.  1.
</event>
<event>
 5   0  0.5177000E-08  0.3706520E+04  0.7818609E-02  0.8066518E-01
       -1   -1    0    0    0  501  0.00000000000E+00  0.00000000000E+00  0.15105977879E+04  0.15105977879E+04  0.50400001928E-02 0. -1.
        1   -1    0    0  501    0  0.00000000000E+00  0.00000000000E+00 -0.22736511673E+04  0.22736511673E+04  0.50400001928E-02 0.  1.
    10030    2    1    2    0    0  0.00000000000E+00  0.00000000000E+00 -0.76305337938E+03  0.37842489551E+04  0.37065198900E+04 0.  0.
        2    1    3    3  502    0 -0.11022552783E+04 -0.41237254466E+03 -0.18431757507E+04  0.21868503978E+04  0.25500000920E-02 0.  1.
       -2    1    3    3    0  502  0.11022552783E+04  0.41237254466E+03  0.10801223714E+04  0.15973985574E+04  0.25500000920E-02 0. -1.
</event>
<event>
 5   0  0.1658770E-07  0.3691918E+04  0.7818609E-02  0.8069755E-01
        2   -1    0    0  501    0  0.00000000000E+00  0.00000000000E+00  0.17740814071E+04  0.17740814071E+04  0.25500000920E-02 0.  1.
       -2   -1    0    0    0  501  0.00000000000E+00  0.00000000000E+00 -0.19207487936E+04  0.19207487936E+04  0.25500000920E-02 0. -1.
    10030    2    1    2    0    0  0.00000000000E+00  0.00000000000E+00 -0.14666738650E+03  0.36948302007E+04  0.36919180502E+04 0.  0.
        2    1    3    3  502    0 -0.13651940135E+04 -0.12422961816E+04 -0.95939673200E+02  0.18483124514E+04  0.25500000920E-02 0. -1.
       -2    1    3    3    0  502  0.13651940135E+04  0.12422961816E+04 -0.50727713298E+02  0.18465177492E+04  0.25500000920E-02 0.  1.
</event>
<event>
 5   0  0.1587026E-07  0.3702452E+04  0.7818609E-02  0.8067419E-01
       -2   -1    0    0    0  501  0.00000000000E+00  0.00000000000E+00  0.27817341333E+04  0.27817341333E+04  0.25500000920E-02 0.  1.
        2   -1    0    0  501    0  0.00000000000E+00  0.00000000000E+00 -0.12319787938E+04  0.12319787938E+04  0.25500000920E-02 0. -1.
    10030    2    1    2    0    0  0.00000000000E+00  0.00000000000E+00  0.15497553394E+04  0.40137129271E+04  0.37024518699E+04 0.  0.
        3    1    3    3  502    0  0.17847292079E+04  0.40710853743E+03  0.47593843171E+03  0.18914314970E+04  0.10100000352E+00 0. -1.
       -3    1    3    3    0  502 -0.17847292079E+04 -0.40710853743E+03  0.10738169077E+04  0.21222814301E+04  0.10100000352E+00 0.  1.
</event>
<event>
 5   0  0.1686284E-07  0.3818318E+04  0.7818609E-02  0.8042235E-01
        2   -1    0    0  501    0  0.00000000000E+00  0.00000000000E+00  0.20818642097E+04  0.20818642097E+04  0.25500000920E-02 0.  1.
       -2   -1    0    0    0  501  0.00000000000E+00  0.00000000000E+00 -0.17507812472E+04  0.17507812472E+04  0.25500000920E-02 0. -1.
    10030    2    1    2    0    0  0.00000000000E+00  0.00000000000E+00  0.33108296251E+03  0.38326454569E+04  0.38183183825E+04 0.  0.
        5    1    3    3  502    0  0.86958752545E+02 -0.83439614126E+03  0.18869363981E+04  0.20650253766E+04  0.46999998093E+01 0.  1.
       -5    1    3    3    0  502 -0.86958752545E+02  0.83439614126E+03 -0.15558534356E+04  0.17676200803E+04  0.46999998093E+01 0. -1.
</event>
<event>
 5   0  0.5177000E-08  0.3693485E+04  0.7818609E-02  0.8069407E-01
       -1   -1    0    0    0  501  0.00000000000E+00  0.00000000000E+00  0.25867376916E+04  0.25867376916E+04  0.50400001928E-02 0.  1.
        1   -1    0    0  501    0  0.00000000000E+00  0.00000000000E+00 -0.13184400299E+04  0.13184400299E+04  0.50400001928E-02 0. -1.
    10030    2    1    2    0    0  0.00000000000E+00  0.00000000000E+00  0.12682976618E+04  0.39051777215E+04  0.36934853564E+04 0.  0.
        2    1    3    3  502    0 -0.59685447648E+03  0.91427212257E+02  0.24794178836E+04  0.25518830778E+04  0.25500000920E-02 0.  1.
       -2    1    3    3    0  502  0.59685447648E+03 -0.91427212257E+02 -0.12111202218E+04  0.13532946438E+04  0.25500000920E-02 0. -1.
</event>
<event>
 5   0  0.1658770E-07  0.3716689E+04  0.7818609E-02  0.8064273E-01
       -2   -1    0    0    0  501  0.00000000000E+00  0.00000000000E+00  0.16013330276E+04  0.16013330276E+04  0.25500000920E-02 0. -1.
        2   -1    0    0  501    0  0.00000000000E+00  0.00000000000E+00 -0.21566056102E+04  0.21566056102E+04  0.25500000920E-02 0.  1.
    10030    2    1    2    0    0  0.00000000000E+00  0.00000000000E+00 -0.55527258258E+03  0.37579386378E+04  0.37166887366E+04 0.  0.
        2    1    3    3  502    0 -0.17471071119E+04 -0.60347927917E+03 -0.83480906930E+02  0.18502809416E+04  0.25500000920E-02 0.  1.
       -2    1    3    3    0  502  0.17471071119E+04  0.60347927917E+03 -0.47179167565E+03  0.19076576963E+04  0.25500000920E-02 0. -1.
</event>
<event>
 5   0  0.5177000E-08  0.3677167E+04  0.7818609E-02  0.8073041E-01
        1   -1    0    0  501    0  0.00000000000E+00  0.00000000000E+00  0.26316965976E+04  0.26316965976E+04  0.50400001928E-02 0.  1.
       -1   -1    0    0    0  501  0.00000000000E+00  0.00000000000E+00 -0.12844902048E+04  0.12844902048E+04  0.50400001928E-02 0. -1.
    10030    2    1    2    0    0  0.00000000000E+00  0.00000000000E+00  0.13472063928E+04  0.39161868024E+04  0.36771665731E+04 0.  0.
        2    1    3    3  502    0  0.13828654463E+04  0.11913242491E+04  0.90891349956E+03  0.20390424368E+04  0.25500000920E-02 0.  1.
       -2    1    3    3    0  502 -0.13828654463E+04 -0.11913242491E+04  0.43829289326E+03  0.18771443657E+04  0.25500000920E-02 0. -1.
</event>
<event>
 5   0  0.1686284E-07  0.3743267E+04  0.7818609E-02  0.8058440E-01
       -2   -1    0    0    0  501  0.00000000000E+00  0.00000000000E+00  0.21152114574E+04  0.21152114574E+04  0.25500000920E-02 0.  1.
        2   -1    0    0  501    0  0.00000000000E+00  0.00000000000E+00 -0.16561045984E+04  0.16561045984E+04  0.25500000920E-02 0. -1.
    10030    2    1    2    0    0  0.00000000000E+00  0.00000000000E+00  0.45910685907E+03  0.37713160558E+04  0.37432667130E+04 0.  0.
        5    1    3    3  502    0  0.48915441323E+03 -0.40895137367E+03 -0.15433130205E+04  0.16698354516E+04  0.46999998093E+01 0. -1.
       -5    1    3    3    0  502 -0.48915441323E+03  0.40895137367E+03  0.20024198796E+04  0.21014806043E+04  0.46999998093E+01 0.  1.
</event>
<event>
 5   0  0.5177000E-08  0.3712544E+04  0.7818609E-02  0.8065188E-01
        1   -1    0    0  501    0  0.00000000000E+00  0.00000000000E+00  0.10158961759E+04  0.10158961759E+04  0.50400001928E-02 0.  1.
       -1   -1    0    0    0  501  0.00000000000E+00  0.00000000000E+00 -0.33918283037E+04  0.33918283037E+04  0.50400001928E-02 0. -1.
    10030    2    1    2    0    0  0.00000000000E+00  0.00000000000E+00 -0.23759321278E+04  0.44077244796E+04  0.37125438195E+04 0.  0.
        1    1    3    3  502    0 -0.17890246939E+04  0.69681968762E+02 -0.17699380615E+04  0.25175674119E+04  0.50400001928E-02 0. -1.
       -1    1    3    3    0  502  0.17890246939E+04 -0.69681968762E+02 -0.60599406632E+03  0.18901570677E+04  0.50400001928E-02 0.  1.
</event>
<event>
 5   0  0.5177000E-08  0.3723310E+04  0.7818609E-02  0.8062816E-01
       -1   -1    0    0    0  501  0.00000000000E+00  0.00000000000E+00  0.20955606444E+04  0.20955606444E+04  0.50400001928E-02 0. -1.
        1   -1    0    0  501    0  0.00000000000E+00  0.00000000000E+00 -0.16538577886E+04  0.16538577886E+04  0.50400001928E-02 0.  1.
    10030    2    1    2    0    0  0.00000000000E+00  0.00000000000E+00  0.44170285577E+03  0.37494184330E+04  0.37233099754E+04 0.  0.
        2    1    3    3  502    0  0.18320595674E+04  0.25157419265E+03  0.48069239115E+01  0.18492579429E+04  0.25500000920E-02 0.  1.
       -2    1    3    3    0  502 -0.18320595674E+04 -0.25157419265E+03  0.43689593186E+03  0.19001604901E+04  0.25500000920E-02 0. -1.
</event>
<event>
 5   0  0.5177000E-08  0.3703066E+04  0.7818609E-02  0.8067283E-01
        1   -1    0    0  501    0  0.00000000000E+00  0.00000000000E+00  0.10161149215E+04  0.10161149215E+04  0.50400001928E-02 0.  1.
       -1   -1    0    0    0  501  0.00000000000E+00  0.00000000000E+00 -0.33738062845E+04  0.33738062845E+04  0.50400001928E-02 0. -1.
    10030    2    1    2    0    0  0.00000000000E+00  0.00000000000E+00 -0.23576913630E+04  0.43899212059E+04  0.37030662472E+04 0.  0.
        1    1    3    3  502    0  0.80667753132E+03 -0.83750303965E+03 -0.28869428451E+04  0.31123269385E+04  0.50400001928E-02 0. -1.
       -1    1    3    3    0  502 -0.80667753132E+03  0.83750303965E+03  0.52925148210E+03  0.12775942675E+04  0.50400001928E-02 0.  1.
</event>
<event>
 5   0  0.1686284E-07  0.3701928E+04  0.7818609E-02  0.8067535E-01
       -2   -1    0    0    0  501  0.00000000000E+00  0.00000000000E+00  0.17103665677E+04  0.17103665677E+04  0.25500000920E-02 0.  1.
        2   -1    0    0  501    0  0.00000000000E+00  0.00000000000E+00 -0.20031195001E+04  0.20031195001E+04  0.25500000920E-02 0. -1.
    10030    2    1    2    0    0  0.00000000000E+00  0.00000000000E+00 -0.29275293240E+03  0.37134860678E+04  0.37019284834E+04 0.  0.
        5    1    3    3  502    0  0.12322739225E+04  0.39531078091E+03 -0.14738662395E+04  0.19613957825E+04  0.46999998093E+01 0. -1.
       -5    1    3    3    0  502 -0.12322739225E+04 -0.39531078091E+03  0.11811133071E+04  0.17520902853E+04  0.46999998093E+01 0.  1.
</event>
<event>
 5   0  0.5181371E-08  0.3592384E+04  0.7818609E-02  0.8092238E-01
        1   -1    0    0  501    0  0.00000000000E+00  0.00000000000E+00  0.15838626348E+04  0.15838626348E+04  0.50400001928E-02 0.  1.
       -1   -1    0    0    0  501  0.00000000000E+00  0.00000000000E+00 -0.20369862716E+04  0.20369862716E+04  0.50400001928E-02 0. -1.
    10030    2    1    2    0    0  0.00000000000E+00  0.00000000000E+00 -0.45312363679E+03  0.36208489064E+04  0.35923844133E+04 0.  0.
        5    1    3    3  502    0 -0.58694631025E+03  0.14931682821E+04  0.58744293382E+03  0.17085575145E+04  0.46999998093E+01 0.  1.
       -5    1    3    3    0  502  0.58694631025E+03 -0.14931682821E+04 -0.10405665706E+04  0.19122913919E+04  0.46999998093E+01 0. -1.
</event>
<event>
 5   0  0.5177000E-08  0.3713305E+04  0.7818609E-02  0.8065020E-01
       -1   -1    0    0    0  501  0.00000000000E+00  0.00000000000E+00  0.14214998235E+04  0.14214998235E+04  0.50400001928E-02 0. -1.
        1   -1    0    0  501    0  0.00000000000E+00  0.00000000000E+00 -0.24250157088E+04  0.24250157088E+04  0.50400001928E-02 0.  1.
    10030    2    1    2    0    0  0.00000000000E+00  0.00000000000E+00 -0.10035158853E+04  0.38465155324E+04  0.37133054828E+04 0.  0.
        3    1    3    3  502    0  0.15699509603E+04  0.68890605523E+03 -0.12399383108E+04  0.21158413446E+04  0.10100000352E+00 0.  1.
       -3    1    3    3    0  502 -0.15699509603E+04 -0.68890605523E+03  0.23642242547E+03  0.17306741878E+04  0.10100000352E+00 0. -1.
</event>
<event>
 5   0  0.1558258E-07  0.3691734E+04  0.7818609E-02  0.8069796E-01
        2   -1    0    0  501    0  0.00000000000E+00  0.00000000000E+00  0.19573862920E+04  0.19573862920E+04  0.25500000920E-02 0. -1.
       -2   -1    0    0    0  501  0.00000000000E+00  0.00000000000E+00 -0.17407014257E+04  0.17407014257E+04  0.25500000920E-02 0.  1.
    10030    2    1    2    0    0  0.00000000000E+00  0.00000000000E+00  0.21668486638E+03  0.36980877177E+04  0.36917340690E+04 0.  0.
        1    1    3    3  502    0 -0.15596909930E+04  0.67552260170E+03  0.82948302921E+03  0.18912981983E+04  0.50400001928E-02 0.  1.
       -1    1    3    3    0  502  0.15596909930E+04 -0.67552260170E+03 -0.61279816283E+03  0.18067895194E+04  0.50400001928E-02 0. -1.
</event>
<event>
 5   0  0.5177000E-08  0.3702910E+04  0.7818609E-02  0.8067317E-01
       -1   -1    0    0    0  501  0.00000000000E+00  0.00000000000E+00  0.19253449318E+04  0.19253449318E+04  0.50400001928E-02 0. -1.
        1   -1    0    0  501    0  0.00000000000E+00  0.00000000000E+00 -0.17804003361E+04  0.17804003361E+04  0.50400001928E-02 0.  1.
    10030    2    1    2    0    0  0.00000000000E+00  0.00000000000E+00  0.14494459568E+03  0.37057452679E+04  0.37029095391E+04 0.  0.
        3    1    3    3  502    0  0.19932961175E+03  0.35624948546E+03  0.18797452880E+04  0.19235613710E+04  0.10100000352E+00 0. -1.
       -3    1    3    3    0  502 -0.19932961175E+03 -0.35624948546E+03 -0.17348006923E+04  0.17821838969E+04  0.10100000352E+00 0.  1.
</event>
<event>
 5   0  0.1587026E-07  0.3678845E+04  0.7818609E-02  0.8072666E-01
        2   -1    0    0  501    0  0.00000000000E+00  0.00000000000E+00  0.13877306545E+04  0.13877306545E+04  0.25500000920E-02 0. -1.
       -2   -1    0    0    0  501  0.00000000000E+00  0.00000000000E+00 -0.24381348301E+04  0.24381348301E+04  0.25500000920E-02 0.  1.
    10030    2    1    2    0    0  0.00000000000E+00  0.00000000000E+00 -0.10504041756E+04  0.38258654846E+04  0.36788446249E+04 0.  0.
        3    1    3    3  502    0  0.19189459099E+03 -0.18032289787E+04 -0.20463645223E+03  0.18249203740E+04  0.10100000352E+00 0. -1.
       -3    1    3    3    0  502 -0.19189459099E+03  0.18032289787E+04 -0.84576772335E+03  0.20009451106E+04  0.10100000352E+00 0.  1.
</event>
<event>
 5   0  0.5177000E-08  0.3698147E+04  0.7818609E-02  0.8068373E-01
        1   -1    0    0  501    0  0.00000000000E+00  0.00000000000E+00  0.11905185066E+04  0.11905185066E+04  0.50400001928E-02 0.  1.
       -1   -1    0    0    0  501  0.00000000000E+00  0.00000000000E+00 -0.28719186862E+04  0.28719186862E+04  0.50400001928E-02 0. -1.
    10030    2    1    2    0    0  0.00000000000E+00  0.00000000000E+00 -0.16814001796E+04  0.40624371929E+04  0.36981467497E+04 0.  0.
        1    1    3    3  502    0  0.13476255228E+04  0.21446989138E+03 -0.22114054155E+04  0.25985391657E+04  0.50400001928E-02 0. -1.
       -1    1    3    3    0  502 -0.13476255228E+04 -0.21446989138E+03  0.53000523588E+03  0.14638980272E+04  0.50400001928E-02 0.  1.
</event>
<event>
 5   0  0.5177000E-08  0.3815128E+04  0.7818609E-02  0.8042916E-01
       -1   -1    0    0    0  501  0.00000000000E+00  0.00000000000E+00  0.13189128695E+04  0.13189128695E+04  0.50400001928E-02 0. -1.
        1   -1    0    0  501    0  0.00000000000E+00  0.00000000000E+00 -0.27589392351E+04  0.27589392351E+04  0.50400001928E-02 0.  1.
    10030    2    1    2    0    0  0.00000000000E+00  0.00000000000E+00 -0.14400263657E+04  0.40778521046E+04  0.38151280258E+04 0.  0.
        1    1    3    3  502    0  0.14406703430E+04  0.11962397318E+04 -0.11087622259E+04  0.21762063796E+04  0.50400001928E-02 0.  1.
       -1    1    3    3    0  502 -0.14406703430E+04 -0.11962397318E+04 -0.33126413980E+03  0.19016457250E+04  0.50400001928E-02 0. -1.
</event>
<event>
 5   0  0.1558258E-07  0.3728361E+04  0.7818609E-02  0.8061706E-01
       -2   -1    0    0    0  501  0.00000000000E+00  0.00000000000E+00  0.14613737755E+04  0.14613737755E+04  0.25500000920E-02 0.  1.
        2   -1    0    0  501    0  0.00000000000E+00  0.00000000000E+00 -0.23780147207E+04  0.23780147207E+04  0.25500000920E-02 0. -1.
    10030    2    1    2    0    0  0.00000000000E+00  0.00000000000E+00 -0.91664094516E+03  0.38393884962E+04  0.37283606857E+04 0.  0.
        1    1    3    3  502    0 -0.18128559604E+04  0.26408068020E+03 -0.10310929911E+03  0.18348887886E+04  0.50400001928E-02 0.  1.
       -1    1    3    3    0  502  0.18128559604E+04 -0.26408068020E+03 -0.81353164604E+03  0.20044997077E+04  0.50400001928E-02 0. -1.
</event>
<event>
 5   0  0.5177000E-08  0.3697875E+04  0.7818609E-02  0.8068433E-01
       -1   -1    0    0    0  501  0.00000000000E+00  0.00000000000E+00  0.15521288820E+04  0.15521288820E+04  0.50400001928E-02 0. -1.
        1   -1    0    0  501    0  0.00000000000E+00  0.00000000000E+00 -0.22025036704E+04  0.22025036704E+04  0.50400001928E-02 0.  1.
    10030    2    1    2    0    0  0.00000000000E+00  0.00000000000E+00 -0.65037478837E+03  0.37546325524E+04  0.36978748273E+04 0.  0.
        3    1    3    3  502    0  0.49659109577E+03 -0.17441350793E+04  0.40844993924E+02  0.18139124055E+04  0.10100000352E+00 0. -1.
       -3    1    3    3    0  502 -0.49659109577E+03  0.17441350793E+04 -0.69121978229E+03  0.19407201469E+04  0.10100000352E+00 0.  1.
</event>
<event>
 5   0  0.5177000E-08  0.3695981E+04  0.7818609E-02  0.8068853E-01
       -1   -1    0    0    0  501  0.00000000000E+00  0.00000000000E+00  0.19145052542E+04  0.19145052542E+04  0.50400001928E-02 0.  1.
        1   -1    0    0  501    0  0.00000000000E+00  0.00000000000E+00 -0.17837867711E+04  0.17837867711E+04  0.50400001928E-02 0. -1.
    10030    2    1    2    0    0  0.00000000000E+00  0.00000000000E+00  0.13071848315E+03  0.36982920253E+04  0.36959811394E+04 0.  0.
        1    1    3    3  502    0  0.16001500975E+04  0.35622116498E+03  0.91894318575E+03  0.18793164799E+04  0.50400001928E-02 0.  1.
       -1    1    3    3    0  502 -0.16001500975E+04 -0.35622116498E+03 -0.78822470260E+03  0.18189755454E+04  0.50400001928E-02 0. -1.
</event>
<event>
 5   0  0.1587026E-07  0.3699799E+04  0.7818609E-02  0.8068006E-01
        2   -1    0    0  501    0  0.00000000000E+00  0.00000000000E+00  0.25301114149E+04  0.25301114149E+04  0.25500000920E-02 0.  1.
       -2   -1    0    0    0  501  0.00000000000E+00  0.00000000000E+00 -0.13525605882E+04  0.13525605882E+04  0.25500000920E-02 0. -1.
    10030    2    1    2    0    0  0.00000000000E+00  0.00000000000E+00  0.11775508267E+04  0.38826720031E+04  0.36997994451E+04 0.  0.
        3    1    3    3  502    0  0.89789389804E+03 -0.21857919545E+03 -0.10929758216E+04  0.14312883964E+04  0.10100000352E+00 0. -1.
       -3    1    3    3    0  502 -0.89789389804E+03  0.21857919545E+03  0.22705266483E+04  0.24513836068E+04  0.10100000352E+00 0.  1.
</event>
<event>
 5   0  0.1686284E-07  0.3708508E+04  0.7818609E-02  0.8066079E-01
        2   -1    0    0  501    0  0.00000000000E+00  0.00000000000E+00  0.20540131925E+04  0.20540131925E+04  0.25500000920E-02 0.  1.
       -2   -1    0    0    0  501  0.00000000000E+00  0.00000000000E+00 -0.16739216874E+04  0.16739216874E+04  0.25500000920E-02 0. -1.
    10030    2    1    2    0    0  0.00000000000E+00  0.00000000000E+00  0.38009150507E+03  0.37279348798E+04  0.37085076400E+04 0.  0.
        5    1    3    3  502    0 -0.39134123264E+03 -0.92563035756E+03 -0.13764164408E+04  0.17042546252E+04  0.46999998093E+01 0. -1.
       -5    1    3    3    0  502  0.39134123264E+03  0.92563035756E+03  0.17565079458E+04  0.20236802546E+04  0.46999998093E+01 0.  1.
</event>
<event>
 5   0  0.1658770E-07  0.3708604E+04  0.7818609E-02  0.8066058E-01
        2   -1    0    0  501    0  0.00000000000E+00  0.00000000000E+00  0.21160855640E+04  0.21160855640E+04  0.25500000920E-02 0. -1.
       -2   -1    0    0    0  501  0.00000000000E+00  0.00000000000E+00 -0.16249040685E+04  0.16249040685E+04  0.25500000920E-02 0.  1.
    10030    2    1    2    0    0  0.00000000000E+00  0.00000000000E+00  0.49118149546E+03  0.37409896325E+04  0.37086040729E+04 0.  0.
        2    1    3    3  502    0  0.17516509207E+04 -0.54094899651E+03  0.52646304195E+03  0.19073725644E+04  0.25500000920E-02 0. -1.
       -2    1    3    3    0  502 -0.17516509207E+04  0.54094899651E+03 -0.35281546486E+02  0.18336170681E+04  0.25500000920E-02 0.  1.
</event>
<event>
 5   0  0.1658770E-07  0.3710970E+04  0.7818609E-02  0.8065535E-01
        2   -1    0    0  501    0  0.00000000000E+00  0.00000000000E+00  0.27709724057E+04  0.27709724057E+04  0.25500000920E-02 0. -1.
       -2   -1    0    0    0  501  0.00000000000E+00  0.00000000000E+00 -0.12424606182E+04  0.12424606183E+04  0.25500000920E-02 0.  1.
    10030    2    1    2    0    0  0.00000000000E+00  0.00000000000E+00  0.15285117874E+04  0.40134330240E+04  0.37109697322E+04 0.  0.
        2    1    3    3  502    0 -0.89964082467E+03 -0.15472856781E+04  0.12933955074E+04  0.22082387828E+04  0.25500000920E-02 0. -1.
       -2    1    3    3    0  502  0.89964082467E+03  0.15472856781E+04  0.23511628002E+03  0.18051942412E+04  0.25500000920E-02 0.  1.
</event>
<event>
 5   0  0.1587026E-07  0.3697301E+04  0.7818609E-02  0.8068560E-01
       -2   -1    0    0    0  501  0.00000000000E+00  0.00000000000E+00  0.13896841929E+04  0.13896841929E+04  0.25500000920E-02 0.  1.
        2   -1    0    0  501    0  0.00000000000E+00  0.00000000000E+00 -0.24591983477E+04  0.24591983477E+04  0.25500000920E-02 0. -1.
    10030    2    1    2    0    0  0.00000000000E+00  0.00000000000E+00 -0.10695141548E+04  0.38488825406E+04  0.36973012163E+04 0.  0.
        3    1    3    3  502    0  0.18412027850E+03 -0.17441077683E+04 -0.11432707324E+04  0.20935329380E+04  0.10100000352E+00 0.  1.
       -3    1    3    3    0  502 -0.18412027850E+03  0.17441077683E+04  0.73756577647E+02  0.17553496026E+04  0.10100000352E+00 0. -1.
</event>
<event>
 5   0  0.5177000E-08  0.3702004E+04  0.7818609E-02  0.8067518E-01
       -1   -1    0    0    0  501  0.00000000000E+00  0.00000000000E+00  0.13778940737E+04  0.13778940737E+04  0.50400001928E-02 0. -1.
        1   -1    0    0  501    0  0.00000000000E+00  0.00000000000E+00 -0.24865547474E+04  0.24865547474E+04  0.50400001928E-02 0.  1.
    10030    2    1    2    0    0  0.00000000000E+00  0.00000000000E+00 -0.11086606738E+04  0.38644488211E+04  0.37020043492E+04 0.  0.
        2    1    3    3  502    0 -0.36808224734E+03  0.47998327068E+03  0.12718157425E+04  0.14083265828E+04  0.25500000920E-02 0. -1.
       -2    1    3    3    0  502  0.36808224734E+03 -0.47998327068E+03 -0.23804764163E+04  0.24561222383E+04  0.25500000920E-02 0.  1.
</event>
<event>
 5   0  0.1558258E-07  0.3617298E+04  0.7818609E-02  0.8086541E-01
       -2   -1    0    0    0  501  0.00000000000E+00  0.00000000000E+00  0.94392190673E+03  0.94392190674E+03  0.25500000920E-02 0.  1.
        2   -1    0    0  501    0  0.00000000000E+00  0.00000000000E+00 -0.34655522150E+04  0.34655522150E+04  0.25500000920E-02 0. -1.
    10030    2    1    2    0    0  0.00000000000E+00  0.00000000000E+00 -0.25216303083E+04  0.44094741217E+04  0.36172976956E+04 0.  0.
        1    1    3    3  502    0 -0.53073567245E+03  0.14192372219E+04 -0.24646606990E+04  0.28931759379E+04  0.50400001928E-02 0. -1.
       -1    1    3    3    0  502  0.53073567245E+03 -0.14192372219E+04 -0.56969609235E+02  0.15162981839E+04  0.50400001928E-02 0.  1.
</event>
<event>
 5   0  0.5177000E-08  0.3701493E+04  0.7818609E-02  0.8067631E-01
        1   -1    0    0  501    0  0.00000000000E+00  0.00000000000E+00  0.20289542389E+04  0.20289542389E+04  0.50400001928E-02 0.  1.
       -1   -1    0    0    0  501  0.00000000000E+00  0.00000000000E+00 -0.16881911803E+04  0.16881911803E+04  0.50400001928E-02 0. -1.
    10030    2    1    2    0    0  0.00000000000E+00  0.00000000000E+00  0.34076305857E+03  0.37171454192E+04  0.37014930238E+04 0.  0.
        3    1    3    3  502    0  0.83717385069E+03  0.65467578602E+03  0.16919792541E+04  0.19980626235E+04  0.10100000352E+00 0.  1.
       -3    1    3    3    0  502 -0.83717385069E+03 -0.65467578602E+03 -0.13512161955E+04  0.17190827957E+04  0.10100000352E+00 0. -1.
</event>
<event>
 5   0  0.5177000E-08  0.3697608E+04  0.7818609E-02  0.8068492E-01
        1   -1    0    0  501    0  0.00000000000E+00  0.00000000000E+00  0.20909505675E+04  0.20909505676E+04  0.50400001928E-02 0.  1.
       -1   -1    0    0    0  501  0.00000000000E+00  0.00000000000E+00 -0.16347000384E+04  0.16347000384E+04  0.50400001928E-02 0. -1.
    10030    2    1    2    0    0  0.00000000000E+00  0.00000000000E+00  0.45625052920E+03  0.37256506059E+04  0.36976084017E+04 0.  0.
        3    1    3    3  502    0  0.58564896657E+03 -0.15756425550E+04 -0.54741512091E+03  0.17678510961E+04  0.10100000352E+00 0. -1.
       -3    1    3    3    0  502 -0.58564896657E+03  0.15756425550E+04  0.10036656501E+04  0.19577995098E+04  0.10100000352E+00 0.  1.
</event>
<event>
 5   0  0.5177000E-08  0.3696166E+04  0.7818609E-02  0.8068812E-01
        1   -1    0    0  501    0  0.00000000000E+00  0.00000000000E+00  0.12908980029E+04  0.12908980029E+04  0.50400001928E-02 0.  1.
       -1   -1    0    0    0  501  0.00000000000E+00  0.00000000000E+00 -0.26457638125E+04  0.26457638125E+04  0.50400001928E-02 0. -1.
    10030    2    1    2    0    0  0.00000000000E+00  0.00000000000E+00 -0.13548658096E+04  0.39366618154E+04  0.36961662417E+04 0.  0.
        4    1    3    3  502    0  0.92530368883E+03  0.92791832547E+03 -0.20653700090E+04  0.24460119015E+04  0.12699999809E+01 0. -1.
       -4    1    3    3    0  502 -0.92530368883E+03 -0.92791832547E+03  0.71050419942E+03  0.14906499138E+04  0.12699999809E+01 0.  1.
</event>
<event>
 5   0  0.1666189E-07  0.3700914E+04  0.7818609E-02  0.8067759E-01
       -2   -1    0    0    0  501  0.00000000000E+00  0.00000000000E+00  0.16461843991E+04  0.16461843991E+04  0.25500000920E-02 0.  1.
        2   -1    0    0  501    0  0.00000000000E+00  0.00000000000E+00 -0.20800770635E+04  0.20800770635E+04  0.25500000920E-02 0. -1.
    10030    2    1    2    0    0  0.00000000000E+00  0.00000000000E+00 -0.43389266445E+03  0.37262614626E+04  0.37009136228E+04 0.  0.
        4    1    3    3  502    0  0.16427776915E+04 -0.80661123811E+03  0.58512127522E+02  0.18310558471E+04  0.12699999809E+01 0.  1.
       -4    1    3    3    0  502 -0.16427776915E+04  0.80661123811E+03 -0.49240479197E+03  0.18952056156E+04  0.12699999809E+01 0. -1.
</event>
<event>
 5   0  0.5177000E-08  0.3707807E+04  0.7818609E-02  0.8066234E-01
       -1   -1    0    0    0  501  0.00000000000E+00  0.00000000000E+00  0.18015094501E+04  0.18015094501E+04  0.50400001928E-02 0.  1.
        1   -1    0    0  501    0  0.00000000000E+00  0.00000000000E+00 -0.19078208883E+04  0.19078208883E+04  0.50400001928E-02 0. -1.
    10030    2    1    2    0    0  0.00000000000E+00  0.00000000000E+00 -0.10631143815E+03  0.37093303384E+04  0.37078065534E+04 0.  0.
        3    1    3    3  502    0  0.10779941352E+04 -0.25708188102E+03 -0.15399679989E+04  0.18972780231E+04  0.10100000352E+00 0. -1.
       -3    1    3    3    0  502 -0.10779941352E+04  0.25708188102E+03  0.14336565608E+04  0.18120523153E+04  0.10100000352E+00 0.  1.
</event>
<event>
 5   0  0.1686284E-07  0.3765437E+04  0.7818609E-02  0.8053613E-01
        2   -1    0    0  501    0  0.00000000000E+00  0.00000000000E+00  0.14862784993E+04  0.14862784993E+04  0.25500000920E-02 0. -1.
       -2   -1    0    0    0  501  0.00000000000E+00  0.00000000000E+00 -0.23849027497E+04  0.23849027497E+04  0.25500000920E-02 0.  1.
    10030    2    1    2    0    0  0.00000000000E+00  0.00000000000E+00 -0.89862425046E+03  0.38711812490E+04  0.37654373875E+04 0.  0.
        5    1    3    3  502    0  0.15423284857E+03  0.18381997333E+04 -0.83650719842E+03  0.20254709117E+04  0.46999998093E+01 0.  1.
       -5    1    3    3    0  502 -0.15423284857E+03 -0.18381997333E+04 -0.62117052039E+02  0.18457103373E+04  0.46999998093E+01 0. -1.
</event>
<event>
 5   0  0.5177000E-08  0.3682990E+04  0.7818609E-02  0.8071742E-01
        1   -1    0    0  501    0  0.00000000000E+00  0.00000000000E+00  0.22979206598E+04  0.22979206598E+04  0.50400001928E-02 0.  1.
       -1   -1    0    0    0  501  0.00000000000E+00  0.00000000000E+00 -0.14757271208E+04  0.14757271208E+04  0.50400001928E-02 0. -1.
    10030    2    1    2    0    0  0.00000000000E+00  0.00000000000E+00  0.82219353898E+03  0.37736477805E+04  0.36829900022E+04 0.  0.
        3    1    3    3  502    0  0.16801827460E+04  0.19646916048E+03  0.11566687098E+04  0.20492673582E+04  0.10100000352E+00 0.  1.
       -3    1    3    3    0  502 -0.16801827460E+04 -0.19646916048E+03 -0.33447517086E+03  0.17243804223E+04  0.10100000352E+00 0. -1.
</event>
<event>
 5   0  0.1558258E-07  0.3712276E+04  0.7818609E-02  0.8065247E-01
       -2   -1    0    0    0  501  0.00000000000E+00  0.00000000000E+00  0.14172695399E+04  0.14172695399E+04  0.25500000920E-02 0. -1.
        2   -1    0    0  501    0  0.00000000000E+00  0.00000000000E+00 -0.24309048857E+04  0.24309048857E+04  0.25500000920E-02 0.  1.
    10030    2    1    2    0    0  0.00000000000E+00  0.00000000000E+00 -0.10136353459E+04  0.38481744256E+04  0.37122755549E+04 0.  0.
        1    1    3    3  502    0  0.85374356056E+02 -0.19897841330E+03 -0.24177690420E+04  0.24274448151E+04  0.50400001928E-02 0.  1.
       -1    1    3    3    0  502 -0.85374356056E+02  0.19897841330E+03  0.14041336961E+04  0.14207296105E+04  0.50400001928E-02 0. -1.
</event>
<event>
 5   0  0.5177000E-08  0.3703902E+04  0.7818609E-02  0.8067098E-01
        1   -1    0    0  501    0  0.00000000000E+00  0.00000000000E+00  0.10280239257E+04  0.10280239257E+04  0.50400001928E-02 0.  1.
       -1   -1    0    0    0  501  0.00000000000E+00  0.00000000000E+00 -0.33362279761E+04  0.33362279761E+04  0.50400001928E-02 0. -1.
    10030    2    1    2    0    0  0.00000000000E+00  0.00000000000E+00 -0.23082040505E+04  0.43642519018E+04  0.37039018242E+04 0.  0.
        3    1    3    3  502    0  0.14072545757E+04 -0.74584977604E+03 -0.40597877178E+02  0.15932060529E+04  0.10100000352E+00 0.  1.
       -3    1    3    3    0  502 -0.14072545757E+04  0.74584977604E+03 -0.22676061733E+04  0.27710458489E+04  0.10100000352E+00 0. -1.
</event>
<event>
 5   0  0.1686284E-07  0.3699743E+04  0.7818609E-02  0.8068019E-01
       -2   -1    0    0    0  501  0.00000000000E+00  0.00000000000E+00  0.22977654812E+04  0.22977654812E+04  0.25500000920E-02 0.  1.
        2   -1    0    0  501    0  0.00000000000E+00  0.00000000000E+00 -0.14892833281E+04  0.14892833281E+04  0.25500000920E-02 0. -1.
    10030    2    1    2    0    0  0.00000000000E+00  0.00000000000E+00  0.80848215318E+03  0.37870488093E+04  0.36997425981E+04 0.  0.
        5    1    3    3  502    0 -0.53178593801E+03 -0.98290398365E+03  0.19131734246E+04  0.22156604359E+04  0.46999998093E+01 0.  1.
       -5    1    3    3    0  502  0.53178593801E+03  0.98290398365E+03 -0.11046912714E+04  0.15713883734E+04  0.46999998093E+01 0. -1.
</event>
<event>
 5   0  0.1587026E-07  0.3695621E+04  0.7818609E-02  0.8068933E-01
        2   -1    0    0  501    0  0.00000000000E+00  0.00000000000E+00  0.19027680591E+04  0.19027680591E+04  0.25500000920E-02 0. -1.
       -2   -1    0    0    0  501  0.00000000000E+00  0.00000000000E+00 -0.17944401679E+04  0.17944401679E+04  0.25500000920E-02 0.  1.
    10030    2    1    2    0    0  0.00000000000E+00  0.00000000000E+00  0.10832789120E+03  0.36972082270E+04  0.36956208872E+04 0.  0.
        3    1    3    3  502    0  0.17003714478E+04 -0.62342032790E+03 -0.31271888894E+03  0.18378544772E+04  0.10100000352E+00 0. -1.
       -3    1    3    3    0  502 -0.17003714478E+04  0.62342032790E+03  0.42104678014E+03  0.18593537498E+04  0.10100000352E+00 0.  1.
</event>
<event>
 5   0  0.1587026E-07  0.3701873E+04  0.7818609E-02  0.8067547E-01
        2   -1    0    0  501    0  0.00000000000E+00  0.00000000000E+00  0.20290024576E+04  0.20290024576E+04  0.25500000920E-02 0. -1.
       -2   -1    0    0    0  501  0.00000000000E+00  0.00000000000E+00 -0.16884979613E+04  0.16884979613E+04  0.25500000920E-02 0.  1.
    10030    2    1    2    0    0  0.00000000000E+00  0.00000000000E+00  0.34050449631E+03  0.37175004189E+04  0.37018733167E+04 0.  0.
        3    1    3    3  502    0 -0.17450264794E+04  0.13219682752E+03  0.77560128175E+03  0.19141971616E+04  0.10100000352E+00 0. -1.
       -3    1    3    3    0  502  0.17450264794E+04 -0.13219682752E+03 -0.43509678544E+03  0.18033032573E+04  0.10100000352E+00 0.  1.
</event>
<event>
 5   0  0.5177000E-08  0.3692952E+04  0.7818609E-02  0.8069526E-01
        1   -1    0    0  501    0  0.00000000000E+00  0.00000000000E+00  0.19394176278E+04  0.19394176278E+04  0.50400001928E-02 0. -1.
       -1   -1    0    0    0  501  0.00000000000E+00  0.00000000000E+00 -0.17579879572E+04  0.17579879572E+04  0.50400001928E-02 0.  1.
    10030    2    1    2    0    0  0.00000000000E+00  0.00000000000E+00  0.18142967059E+03  0.36974055850E+04  0.36929515749E+04 0.  0.
        1    1    3    3  502    0 -0.15985670411E+04  0.34152959230E+03  0.95047853823E+03  0.18908909273E+04  0.50400001928E-02 0. -1.
       -1    1    3    3    0  502  0.15985670411E+04 -0.34152959230E+03 -0.76904886763E+03  0.18065146576E+04  0.50400001928E-02 0.  1.
</event>
<event>
 5   0  0.5177000E-08  0.3712611E+04  0.7818609E-02  0.8065173E-01
        1   -1    0    0  501    0  0.00000000000E+00  0.00000000000E+00  0.23922809025E+04  0.23922809025E+04  0.50400001928E-02 0.  1.
       -1   -1    0    0    0  501  0.00000000000E+00  0.00000000000E+00 -0.14404119948E+04  0.14404119948E+04  0.50400001928E-02 0. -1.
    10030    2    1    2    0    0  0.00000000000E+00  0.00000000000E+00  0.95186890766E+03  0.38326928973E+04  0.37126109987E+04 0.  0.
        4    1    3    3  502    0  0.96952455585E+02  0.13764473952E+04 -0.80594511798E+03  0.15979850927E+04  0.12699999809E+01 0. -1.
       -4    1    3    3    0  502 -0.96952455585E+02 -0.13764473952E+04  0.17578140256E+04  0.22347078046E+04  0.12699999809E+01 0.  1.
</event>
<event>
 5   0  0.5177000E-08  0.3705213E+04  0.7818609E-02  0.8066808E-01
       -1   -1    0    0    0  501  0.00000000000E+00  0.00000000000E+00  0.20631215313E+04  0.20631215313E+04  0.50400001928E-02 0.  1.
        1   -1    0    0  501    0  0.00000000000E+00  0.00000000000E+00 -0.16635714011E+04  0.16635714011E+04  0.50400001928E-02 0. -1.
    10030    2    1    2    0    0  0.00000000000E+00  0.00000000000E+00  0.39955013022E+03  0.37266929324E+04  0.37052125318E+04 0.  0.
        1    1    3    3  502    0  0.82789340745E+03 -0.10172654763E+04 -0.11162112872E+04  0.17222555505E+04  0.50400001928E-02 0. -1.
       -1    1    3    3    0  502 -0.82789340745E+03  0.10172654763E+04  0.15157614175E+04  0.20044373819E+04  0.50400001928E-02 0.  1.
</event>
<event>
 5   0  0.5177000E-08  0.3703682E+04  0.7818609E-02  0.8067146E-01
        3   -1    0    0  501    0  0.00000000000E+00  0.00000000000E+00  0.24893401581E+04  0.24893401601E+04  0.10100000352E+00 0.  1.
       -3   -1    0    0    0  501  0.00000000000E+00  0.00000000000E+00 -0.13776003875E+04  0.13776003912E+04  0.10100000352E+00 0. -1.
    10030    2    1    2    0    0  0.00000000000E+00  0.00000000000E+00  0.11117397706E+04  0.38669405513E+04  0.37036824796E+04 0.  0.
        5    1    3    3  502    0 -0.14787789989E+02 -0.13840030480E+04  0.18403898340E+04  0.23027678881E+04  0.46999998093E+01 0.  1.
       -5    1    3    3    0  502  0.14787789989E+02  0.13840030480E+04 -0.72865006339E+03  0.15641726632E+04  0.46999998093E+01 0. -1.
</event>
<event>
 5   0  0.5181371E-08  0.3705537E+04  0.7818609E-02  0.8066736E-01
       -1   -1    0    0    0  501  0.00000000000E+00  0.00000000000E+00  0.12944424220E+04  0.12944424220E+04  0.50400001928E-02 0. -1.
        1   -1    0    0  501    0  0.00000000000E+00  0.00000000000E+00 -0.26519154076E+04  0.26519154077E+04  0.50400001928E-02 0.  1.
    10030    2    1    2    0    0  0.00000000000E+00  0.00000000000E+00 -0.13574729857E+04  0.39463578297E+04  0.37055373717E+04 0.  0.
        5    1    3    3  502    0 -0.95286516582E+03 -0.31137270504E+03  0.98067437185E+03  0.14023727391E+04  0.46999998093E+01 0. -1.
       -5    1    3    3    0  502  0.95286516582E+03  0.31137270504E+03 -0.23381473575E+04  0.25439850906E+04  0.46999998093E+01 0.  1.
</event>
<event>
 5   0  0.5177000E-08  0.3695981E+04  0.7818609E-02  0.8068853E-01
       -1   -1    0    0    0  501  0.00000000000E+00  0.00000000000E+00  0.16020532071E+04  0.16020532071E+04  0.50400001928E-02 0.  1.
        1   -1    0    0  501    0  0.00000000000E+00  0.00000000000E+00 -0.21316821307E+04  0.21316821307E+04  0.50400001928E-02 0. -1.
    10030    2    1    2    0    0  0.00000000000E+00  0.00000000000E+00 -0.52962892363E+03  0.37337353378E+04  0.36959806244E+04 0.  0.
        4    1    3    3  502    0 -0.97231080382E+03 -0.20656365693E+03  0.13089857656E+04  0.16436247111E+04  0.12699999809E+01 0.  1.
       -4    1    3    3    0  502  0.97231080382E+03  0.20656365693E+03 -0.18386146892E+04  0.20901106267E+04  0.12699999809E+01 0. -1.
</event>
<event>
 5   0  0.5177000E-08  0.3649415E+04  0.7818609E-02  0.8079265E-01
        1   -1    0    0  501    0  0.00000000000E+00  0.00000000000E+00  0.15563649722E+04  0.15563649722E+04  0.50400001928E-02 0. -1.
       -1   -1    0    0    0  501  0.00000000000E+00  0.00000000000E+00 -0.21393166176E+04  0.21393166176E+04  0.50400001928E-02 0.  1.
    10030    2    1    2    0    0  0.00000000000E+00  0.00000000000E+00 -0.58295164537E+03  0.36956815898E+04  0.36494149931E+04 0.  0.
        2    1    3    3  502    0  0.13474468881E+04 -0.43773491582E+03  0.87302989839E+03  0.16641532911E+04  0.25500000920E-02 0. -1.
       -2    1    3    3    0  502 -0.13474468881E+04  0.43773491582E+03 -0.14559815438E+04  0.20315282987E+04  0.25500000920E-02 0.  1.
</event>
<event>
 5   0  0.1658770E-07  0.3703026E+04  0.7818609E-02  0.8067291E-01
       -2   -1    0    0    0  501  0.00000000000E+00  0.00000000000E+00  0.19796433481E+04  0.19796433481E+04  0.25500000920E-02 0.  1.
        2   -1    0    0  501    0  0.00000000000E+00  0.00000000000E+00 -0.17316761134E+04  0.17316761134E+04  0.25500000920E-02 0. -1.
    10030    2    1    2    0    0  0.00000000000E+00  0.00000000000E+00  0.24796723469E+03  0.37113194615E+04  0.37030263833E+04 0.  0.
        2    1    3    3  502    0 -0.15926149151E+04  0.48301558471E+03 -0.68923652029E+03  0.18013254297E+04  0.25500000920E-02 0.  1.
       -2    1    3    3    0  502  0.15926149151E+04 -0.48301558471E+03  0.93720375498E+03  0.19099940317E+04  0.25500000920E-02 0. -1.
</event>
<event>
 5   0  0.5181371E-08  0.3695736E+04  0.7818609E-02  0.8068907E-01
       -1   -1    0    0    0  501  0.00000000000E+00  0.00000000000E+00  0.15058627836E+04  0.15058627836E+04  0.50400001928E-02 0. -1.
        1   -1    0    0  501    0  0.00000000000E+00  0.00000000000E+00 -0.22675481864E+04  0.22675481864E+04  0.50400001928E-02 0.  1.
    10030    2    1    2    0    0  0.00000000000E+00  0.00000000000E+00 -0.76168540276E+03  0.37734109700E+04  0.36957361507E+04 0.  0.
        5    1    3    3  502    0 -0.86795205285E+03 -0.74119767035E+03 -0.18646165936E+04  0.21862140526E+04  0.46999998093E+01 0.  1.
       -5    1    3    3    0  502  0.86795205285E+03  0.74119767035E+03  0.11029311909E+04  0.15871969173E+04  0.46999998093E+01 0. -1.
</event>
<event>
 5   0  0.5177000E-08  0.3680184E+04  0.7818609E-02  0.8072367E-01
        1   -1    0    0  501    0  0.00000000000E+00  0.00000000000E+00  0.28743235499E+04  0.28743235499E+04  0.50400001928E-02 0.  1.
       -1   -1    0    0    0  501  0.00000000000E+00  0.00000000000E+00 -0.11779950636E+04  0.11779950636E+04  0.50400001928E-02 0. -1.
    10030    2    1    2    0    0  0.00000000000E+00  0.00000000000E+00  0.16963284863E+04  0.40523186135E+04  0.36801842089E+04 0.  0.
        3    1    3    3  502    0 -0.14422193398E+03  0.72948266912E+03  0.27015117374E+04  0.28019833348E+04  0.10100000352E+00 0.  1.
       -3    1    3    3    0  502  0.14422193398E+03 -0.72948266912E+03 -0.10051832511E+04  0.12503352787E+04  0.10100000352E+00 0. -1.
</event>
<event>
 5   0  0.1658770E-07  0.3657741E+04  0.7818609E-02  0.8077392E-01
       -2   -1    0    0    0  501  0.00000000000E+00  0.00000000000E+00  0.97748095436E+03  0.97748095437E+03  0.25500000920E-02 0.  1.
        2   -1    0    0  501    0  0.00000000000E+00  0.00000000000E+00 -0.34218226850E+04  0.34218226850E+04  0.25500000920E-02 0. -1.
    10030    2    1    2    0    0  0.00000000000E+00  0.00000000000E+00 -0.24443417306E+04  0.43993036394E+04  0.36577405615E+04 0.  0.
        2    1    3    3  502    0 -0.48648611070E+03 -0.48689889876E+03  0.81576116608E+03  0.10673357268E+04  0.25500000920E-02 0.  1.
       -2    1    3    3    0  502  0.48648611070E+03  0.48689889876E+03 -0.32601028967E+04  0.33319679126E+04  0.25500000920E-02 0. -1.
</event>
<event>
 5   0  0.5177000E-08  0.3698202E+04  0.7818609E-02  0.8068360E-01
        1   -1    0    0  501    0  0.00000000000E+00  0.00000000000E+00  0.11745195072E+04  0.11745195072E+04  0.50400001928E-02 0.  1.
       -1   -1    0    0    0  501  0.00000000000E+00  0.00000000000E+00 -0.29111264525E+04  0.29111264525E+04  0.50400001928E-02 0. -1.
    10030    2    1    2    0    0  0.00000000000E+00  0.00000000000E+00 -0.17366069453E+04  0.40856459596E+04  0.36982021612E+04 0.  0.
        2    1    3    3  502    0 -0.17109575364E+02  0.18063968208E+04 -0.43221825828E+03  0.18574646254E+04  0.25500000920E-02 0.  1.
       -2    1    3    3    0  502  0.17109575364E+02 -0.18063968208E+04 -0.13043886870E+04  0.22281813343E+04  0.25500000920E-02 0. -1.
</event>
<event>
 5   0  0.5181371E-08  0.3704341E+04  0.7818609E-02  0.8067001E-01
        1   -1    0    0  501    0  0.00000000000E+00  0.00000000000E+00  0.15947872924E+04  0.15947872924E+04  0.50400001928E-02 0.  1.
       -1   -1    0    0    0  501  0.00000000000E+00  0.00000000000E+00 -0.21510927448E+04  0.21510927448E+04  0.50400001928E-02 0. -1.
    10030    2    1    2    0    0  0.00000000000E+00  0.00000000000E+00 -0.55630545244E+03  0.37458800372E+04  0.37043408991E+04 0.  0.
        5    1    3    3  502    0  0.35757889078E+03  0.38860301281E+03 -0.20733455535E+04  0.21395464096E+04  0.46999998093E+01 0. -1.
       -5    1    3    3    0  502 -0.35757889078E+03 -0.38860301281E+03  0.15170401011E+04  0.16063336275E+04  0.46999998093E+01 0.  1.
</event>
<event>
 5   0  0.1558258E-07  0.3665039E+04  0.7818609E-02  0.8075754E-01
        2   -1    0    0  501    0  0.00000000000E+00  0.00000000000E+00  0.16690101983E+04  0.16690101983E+04  0.25500000920E-02 0.  1.
       -2   -1    0    0    0  501  0.00000000000E+00  0.00000000000E+00 -0.20120477972E+04  0.20120477972E+04  0.25500000920E-02 0. -1.
    10030    2    1    2    0    0  0.00000000000E+00  0.00000000000E+00 -0.34303759888E+03  0.36810579955E+04  0.36650393138E+04 0.  0.
        1    1    3    3  502    0 -0.13922839133E+03  0.68771186803E+03 -0.18717840094E+04  0.19989766223E+04  0.50400001928E-02 0. -1.
       -1    1    3    3    0  502  0.13922839133E+03 -0.68771186803E+03  0.15287464106E+04  0.16820813732E+04  0.50400001928E-02 0.  1.
</event>
<event>
 5   0  0.1658770E-07  0.3699913E+04  0.7818609E-02  0.8067981E-01
        2   -1    0    0  501    0  0.00000000000E+00  0.00000000000E+00  0.19908161081E+04  0.19908161081E+04  0.25500000920E-02 0.  1.
       -2   -1    0    0    0  501  0.00000000000E+00  0.00000000000E+00 -0.17190634278E+04  0.17190634278E+04  0.25500000920E-02 0. -1.
    10030    2    1    2    0    0  0.00000000000E+00  0.00000000000E+00  0.27175268038E+03  0.37098795359E+04  0.36999130600E+04 0.  0.
        2    1    3    3  502    0  0.10332372193E+03  0.13728842128E+04 -0.11031108144E+04  0.17641826215E+04  0.25500000920E-02 0.  1.
       -2    1    3    3    0  502 -0.10332372193E+03 -0.13728842128E+04  0.13748634948E+04  0.19456969144E+04  0.25500000920E-02 0. -1.
</event>
<event>
 5   0  0.1666189E-07  0.3705439E+04  0.7818609E-02  0.8066758E-01
        2   -1    0    0  501    0  0.00000000000E+00  0.00000000000E+00  0.27704309454E+04  0.27704309454E+04  0.25500000920E-02 0. -1.
       -2   -1    0    0    0  501  0.00000000000E+00  0.00000000000E+00 -0.12390020038E+04  0.12390020038E+04  0.25500000920E-02 0.  1.
    10030    2    1    2    0    0  0.00000000000E+00  0.00000000000E+00  0.15314289416E+04  0.40094329493E+04  0.37054389715E+04 0.  0.
        4    1    3    3  502    0 -0.14443038264E+04  0.77902023902E+02  0.20184931933E+04  0.24832234399E+04  0.12699999809E+01 0. -1.
       -4    1    3    3    0  502  0.14443038264E+04 -0.77902023902E+02 -0.48706425176E+03  0.15262095093E+04  0.12699999809E+01 0.  1.
</event>
<event>
 5   0  0.1686284E-07  0.3675123E+04  0.7818609E-02  0.8073497E-01
        2   -1    0    0  501    0  0.00000000000E+00  0.00000000000E+00  0.22568507331E+04  0.22568507331E+04  0.25500000920E-02 0. -1.
       -2   -1    0    0    0  501  0.00000000000E+00  0.00000000000E+00 -0.14961701817E+04  0.14961701817E+04  0.25500000920E-02 0.  1.
    10030    2    1    2    0    0  0.00000000000E+00  0.00000000000E+00  0.76068055137E+03  0.37530209148E+04  0.36751232749E+04 0.  0.
        5    1    3    3  502    0 -0.11127627961E+04 -0.11509682059E+04  0.13014804149E+04  0.20632116256E+04  0.46999998093E+01 0. -1.
       -5    1    3    3    0  502  0.11127627961E+04  0.11509682059E+04 -0.54079986355E+03  0.16898092892E+04  0.46999998093E+01 0.  1.
</event>
<event>
 5   0  0.1666189E-07  0.3670905E+04  0.7818609E-02  0.8074440E-01
        2   -1    0    0  501    0  0.00000000000E+00  0.00000000000E+00  0.24608026404E+04  0.24608026404E+04  0.25500000920E-02 0.  1.
       -2   -1    0    0    0  501  0.00000000000E+00  0.00000000000E+00 -0.13690189139E+04  0.13690189139E+04  0.25500000920E-02 0. -1.
    10030    2    1    2    0    0  0.00000000000E+00  0.00000000000E+00  0.10917837265E+04  0.38298215542E+04  0.36709047157E+04 0.  0.
        4    1    3    3  502    0  0.10519148411E+04 -0.13007601206E+04  0.13338231417E+04  0.21395297405E+04  0.12699999809E+01 0. -1.
       -4    1    3    3    0  502 -0.10519148411E+04  0.13007601206E+04 -0.24203941523E+03  0.16902918137E+04  0.12699999809E+01 0.  1.
</event>
<event>
 5   0  0.1558258E-07  0.3708498E+04  0.7818609E-02  0.8066081E-01
       -2   -1    0    0    0  501  0.00000000000E+00  0.00000000000E+00  0.13445463596E+04  0.13445463596E+04  0.25500000920E-02 0. -1.
        2   -1    0    0  501    0  0.00000000000E+00  0.00000000000E+00 -0.25571747600E+04  0.25571747600E+04  0.25500000920E-02 0.  1.
    10030    2    1    2    0    0  0.00000000000E+00  0.00000000000E+00 -0.12126284004E+04  0.39017211196E+04  0.37084983561E+04 0.  0.
        1    1    3    3  502    0  0.13079893869E+04 -0.24145030669E+03  0.75293795807E+03  0.15284142291E+04  0.50400001928E-02 0. -1.
       -1    1    3    3    0  502 -0.13079893869E+04  0.24145030669E+03 -0.19655663584E+04  0.23733068905E+04  0.50400001928E-02 0.  1.
</event>
<event>
 5   0  0.5177000E-08  0.3686849E+04  0.7818609E-02  0.8070882E-01
       -1   -1    0    0    0  501  0.00000000000E+00  0.00000000000E+00  0.19056692154E+04  0.19056692154E+04  0.50400001928E-02 0.  1.
        1   -1    0    0  501    0  0.00000000000E+00  0.00000000000E+00 -0.17832131870E+04  0.17832131870E+04  0.50400001928E-02 0. -1.
    10030    2    1    2    0    0  0.00000000000E+00  0.00000000000E+00  0.12245602833E+03  0.36888824024E+04  0.36868493189E+04 0.  0.
        4    1    3    3  502    0 -0.16977717995E+04 -0.63183050005E+03  0.40284563814E+03  0.18557815295E+04  0.12699999809E+01 0. -1.
       -4    1    3    3    0  502  0.16977717995E+04  0.63183050005E+03 -0.28038960981E+03  0.18331008729E+04  0.12699999809E+01 0.  1.
</event>
<event>
 5   0  0.1658770E-07  0.3691627E+04  0.7818609E-02  0.8069820E-01
       -2   -1    0    0    0  501  0.00000000000E+00  0.00000000000E+00  0.14559531999E+04  0.14559531999E+04  0.25500000920E-02 0. -1.
        2   -1    0    0  501    0  0.00000000000E+00  0.00000000000E+00 -0.23400663268E+04  0.23400663268E+04  0.25500000920E-02 0.  1.
    10030    2    1    2    0    0  0.00000000000E+00  0.00000000000E+00 -0.88411312685E+03  0.37960195267E+04  0.36916267723E+04 0.  0.
        2    1    3    3  502    0 -0.74941768670E+03 -0.66053062666E+03 -0.20380754183E+04  0.22697310389E+04  0.25500000920E-02 0.  1.
       -2    1    3    3    0  502  0.74941768670E+03  0.66053062666E+03  0.11539622915E+04  0.15262884878E+04  0.25500000920E-02 0. -1.
</event>
<event>
 5   0  0.1587026E-07  0.3711362E+04  0.7818609E-02  0.8065449E-01
        2   -1    0    0  501    0  0.00000000000E+00  0.00000000000E+00  0.16346501528E+04  0.16346501528E+04  0.25500000920E-02 0. -1.
       -2   -1    0    0    0  501  0.00000000000E+00  0.00000000000E+00 -0.21065983742E+04  0.21065983742E+04  0.25500000920E-02 0.  1.
    10030    2    1    2    0    0  0.00000000000E+00  0.00000000000E+00 -0.47194822141E+03  0.37412485270E+04  0.37113616661E+04 0.  0.
        3    1    3    3  502    0  0.85971039021E+03 -0.86543450808E+03  0.11736688848E+04  0.16928016730E+04  0.10100000352E+00 0. -1.
       -3    1    3    3    0  502 -0.85971039021E+03  0.86543450808E+03 -0.16456171063E+04  0.20484468539E+04  0.10100000352E+00 0.  1.
</event>
<event>
 5   0  0.1686284E-07  0.3697811E+04  0.7818609E-02  0.8068447E-01
       -2   -1    0    0    0  501  0.00000000000E+00  0.00000000000E+00  0.19252668890E+04  0.19252668890E+04  0.25500000920E-02 0. -1.
        2   -1    0    0  501    0  0.00000000000E+00  0.00000000000E+00 -0.17755731416E+04  0.17755731416E+04  0.25500000920E-02 0.  1.
    10030    2    1    2    0    0  0.00000000000E+00  0.00000000000E+00  0.14969374740E+03  0.37008400305E+04  0.36978113410E+04 0.  0.
        5    1    3    3  502    0 -0.14965818191E+04 -0.10373345284E+04  0.39543723140E+03  0.18633874420E+04  0.46999998093E+01 0. -1.
       -5    1    3    3    0  502  0.14965818191E+04  0.10373345284E+04 -0.24574348399E+03  0.18374525885E+04  0.46999998093E+01 0.  1.
</event>
<event>
 5   0  0.1558258E-07  0.3699106E+04  0.7818609E-02  0.8068160E-01
        2   -1    0    0  501    0  0.00000000000E+00  0.00000000000E+00  0.24893374253E+04  0.24893374253E+04  0.25500000920E-02 0.  1.
       -2   -1    0    0    0  501  0.00000000000E+00  0.00000000000E+00 -0.13741993424E+04  0.13741993424E+04  0.25500000920E-02 0. -1.
    10030    2    1    2    0    0  0.00000000000E+00  0.00000000000E+00  0.11151380830E+04  0.38635367677E+04  0.36991057583E+04 0.  0.
        1    1    3    3  502    0  0.24303650773E+03 -0.14484242971E+04 -0.61661293268E+03  0.15928625795E+04  0.50400001928E-02 0. -1.
       -1    1    3    3    0  502 -0.24303650773E+03  0.14484242971E+04  0.17317510157E+04  0.22706741881E+04  0.50400001928E-02 0.  1.
</event>
<event>
 5   0  0.5177000E-08  0.3727426E+04  0.7818609E-02  0.8061911E-01
       -1   -1    0    0    0  501  0.00000000000E+00  0.00000000000E+00  0.16230778132E+04  0.16230778132E+04  0.50400001928E-02 0.  1.
        1   -1    0    0  501    0  0.00000000000E+00  0.00000000000E+00 -0.21400249543E+04  0.21400249543E+04  0.50400001928E-02 0. -1.
    10030    2    1    2    0    0  0.00000000000E+00  0.00000000000E+00 -0.51694714107E+03  0.37631027675E+04  0.37274264704E+04 0.  0.
        1    1    3    3  502    0  0.11308408151E+04 -0.65201844411E+03 -0.16014303456E+04  0.20660368226E+04  0.50400001928E-02 0. -1.
       -1    1    3    3    0  502 -0.11308408151E+04  0.65201844411E+03  0.10844832045E+04  0.16970659449E+04  0.50400001928E-02 0.  1.
</event>
<event>
 5   0  0.1658770E-07  0.3708287E+04  0.7818609E-02  0.8066128E-01
       -2   -1    0    0    0  501  0.00000000000E+00  0.00000000000E+00  0.17772589593E+04  0.17772589593E+04  0.25500000920E-02 0.  1.
        2   -1    0    0  501    0  0.00000000000E+00  0.00000000000E+00 -0.19343543726E+04  0.19343543726E+04  0.25500000920E-02 0. -1.
    10030    2    1    2    0    0  0.00000000000E+00  0.00000000000E+00 -0.15709541329E+03  0.37116133318E+04  0.37082872807E+04 0.  0.
        2    1    3    3  502    0  0.86642993322E+03  0.13297184031E+04 -0.10380507331E+04  0.18964179880E+04  0.25500000920E-02 0. -1.
       -2    1    3    3    0  502 -0.86642993322E+03 -0.13297184031E+04  0.88095531978E+03  0.18151953438E+04  0.25500000920E-02 0.  1.
</event>
<event>
 5   0  0.5181371E-08  0.3893281E+04  0.7818609E-02  0.8026428E-01
       -1   -1    0    0    0  501  0.00000000000E+00  0.00000000000E+00  0.30533607718E+04  0.30533607718E+04  0.50400001928E-02 0.  1.
        1   -1    0    0  501    0  0.00000000000E+00  0.00000000000E+00 -0.12410614342E+04  0.12410614342E+04  0.50400001928E-02 0. -1.
    10030    2    1    2    0    0  0.00000000000E+00  0.00000000000E+00  0.18122993376E+04  0.42944222060E+04  0.38932805183E+04 0.  0.
        5    1    3    3  502    0 -0.47350467599E+03  0.16985995917E+04 -0.33949438817E+01  0.17633720159E+04  0.46999998093E+01 0. -1.
       -5    1    3    3    0  502  0.47350467599E+03 -0.16985995917E+04  0.18156942815E+04  0.25310501901E+04  0.46999998093E+01 0.  1.
</event>
<event>
 5   0  0.1686284E-07  0.3706309E+04  0.7818609E-02  0.8066565E-01
        2   -1    0    0  501    0  0.00000000000E+00  0.00000000000E+00  0.23508322552E+04  0.23508322552E+04  0.25500000920E-02 0. -1.
       -2   -1    0    0    0  501  0.00000000000E+00  0.00000000000E+00 -0.14608367666E+04  0.14608367666E+04  0.25500000920E-02 0.  1.
    10030    2    1    2    0    0  0.00000000000E+00  0.00000000000E+00  0.88999548861E+03  0.38116690218E+04  0.37063093182E+04 0.  0.
        5    1    3    3  502    0  0.12788292659E+04 -0.10165921602E+04 -0.45468273257E+03  0.16957660183E+04  0.46999998093E+01 0.  1.
       -5    1    3    3    0  502 -0.12788292659E+04  0.10165921602E+04  0.13446782212E+04  0.21159030035E+04  0.46999998093E+01 0. -1.
</event>
<event>
 5   0  0.5177000E-08  0.3696521E+04  0.7818609E-02  0.8068733E-01
       -1   -1    0    0    0  501  0.00000000000E+00  0.00000000000E+00  0.14130593947E+04  0.14130593947E+04  0.50400001928E-02 0.  1.
        1   -1    0    0  501    0  0.00000000000E+00  0.00000000000E+00 -0.24174972346E+04  0.24174972346E+04  0.50400001928E-02 0. -1.
    10030    2    1    2    0    0  0.00000000000E+00  0.00000000000E+00 -0.10044378400E+04  0.38305566293E+04  0.36965211640E+04 0.  0.
        4    1    3    3  502    0 -0.76046422199E+03  0.10041182905E+02  0.12433973685E+04  0.14575476964E+04  0.12699999809E+01 0.  1.
       -4    1    3    3    0  502  0.76046422199E+03 -0.10041182905E+02 -0.22478352085E+04  0.23730089329E+04  0.12699999809E+01 0. -1.
</event>
<event>
 5   0  0.1666189E-07  0.3698405E+04  0.7818609E-02  0.8068315E-01
        2   -1    0    0  501    0  0.00000000000E+00  0.00000000000E+00  0.23157323647E+04  0.23157323647E+04  0.25500000920E-02 0. -1.
       -2   -1    0    0    0  501  0.00000000000E+00  0.00000000000E+00 -0.14766599485E+04  0.14766599485E+04  0.25500000920E-02 0.  1.
    10030    2    1    2    0    0  0.00000000000E+00  0.00000000000E+00  0.83907241620E+03  0.37923923132E+04  0.36984046476E+04 0.  0.
        4    1    3    3  502    0  0.69307411591E+03 -0.50311943429E+03 -0.12610362039E+04  0.15243670214E+04  0.12699999809E+01 0.  1.
       -4    1    3    3    0  502 -0.69307411591E+03  0.50311943429E+03  0.21001086201E+04  0.22680252919E+04  0.12699999809E+01 0. -1.
</event>
<event>
 5   0  0.5177000E-08  0.3699742E+04  0.7818609E-02  0.8068019E-01
       -1   -1    0    0    0  501  0.00000000000E+00  0.00000000000E+00  0.17101357671E+04  0.17101357671E+04  0.50400001928E-02 0.  1.
        1   -1    0    0  501    0  0.00000000000E+00  0.00000000000E+00 -0.20010239193E+04  0.20010239193E+04  0.50400001928E-02 0. -1.
    10030    2    1    2    0    0  0.00000000000E+00  0.00000000000E+00 -0.29088815220E+03  0.37111596864E+04  0.36997419236E+04 0.  0.
        1    1    3    3  502    0  0.10505405077E+03 -0.52420234553E+02  0.17063947694E+04  0.17104289940E+04  0.50400001928E-02 0.  1.
       -1    1    3    3    0  502 -0.10505405077E+03  0.52420234553E+02 -0.19972829216E+04  0.20007306924E+04  0.50400001928E-02 0. -1.
</event>
<event>
 5   0  0.1558258E-07  0.3756051E+04  0.7818609E-02  0.8055653E-01
        2   -1    0    0  501    0  0.00000000000E+00  0.00000000000E+00  0.26082937923E+04  0.26082937923E+04  0.25500000920E-02 0. -1.
       -2   -1    0    0    0  501  0.00000000000E+00  0.00000000000E+00 -0.13522171948E+04  0.13522171948E+04  0.25500000920E-02 0.  1.
    10030    2    1    2    0    0  0.00000000000E+00  0.00000000000E+00  0.12560765976E+04  0.39605109871E+04  0.37560509661E+04 0.  0.
        1    1    3    3  502    0 -0.29011193677E+03  0.95677490656E+03 -0.10482798255E+04  0.14486109727E+04  0.50400001928E-02 0.  1.
       -1    1    3    3    0  502  0.29011193677E+03 -0.95677490656E+03  0.23043564231E+04  0.25119000144E+04  0.50400001928E-02 0. -1.
</event>
<event>
 5   0  0.5177000E-08  0.3709854E+04  0.7818609E-02  0.8065782E-01
        1   -1    0    0  501    0  0.00000000000E+00  0.00000000000E+00  0.12753007334E+04  0.12753007334E+04  0.50400001928E-02 0. -1.
       -1   -1    0    0    0  501  0.00000000000E+00  0.00000000000E+00 -0.26979947078E+04  0.26979947078E+04  0.50400001928E-02 0.  1.
    10030    2    1    2    0    0  0.00000000000E+00  0.00000000000E+00 -0.14226939744E+04  0.39732954412E+04  0.37098542449E+04 0.  0.
        4    1    3    3  502    0  0.16594570535E+03  0.12464638173E+03  0.12628257100E+04  0.12797675900E+04  0.12699999809E+01 0. -1.
       -4    1    3    3    0  502 -0.16594570535E+03 -0.12464638173E+03 -0.26855196844E+04  0.26935278513E+04  0.12699999809E+01 0.  1.
</event>
<event>
 5   0  0.1587026E-07  0.3701355E+04  0.7818609E-02  0.8067662E-01
       -2   -1    0    0    0  501  0.00000000000E+00  0.00000000000E+00  0.17481840470E+04  0.17481840470E+04  0.25500000920E-02 0. -1.
        2   -1    0    0  501    0  0.00000000000E+00  0.00000000000E+00 -0.19591797084E+04  0.19591797084E+04  0.25500000920E-02 0.  1.
    10030    2    1    2    0    0  0.00000000000E+00  0.00000000000E+00 -0.21099566148E+03  0.37073637554E+04  0.37013547311E+04 0.  0.
        3    1    3    3  502    0 -0.13956000322E+04 -0.90542936396E+03 -0.91768101525E+03  0.18999053237E+04  0.10100000352E+00 0.  1.
       -3    1    3    3    0  502  0.13956000322E+04  0.90542936396E+03  0.70668535378E+03  0.18074584317E+04  0.10100000352E+00 0. -1.
</event>
<event>
 5   0  0.5177000E-08  0.3693648E+04  0.7818609E-02  0.8069371E-01
       -1   -1    0    0    0  501  0.00000000000E+00  0.00000000000E+00  0.19975848129E+04  0.19975848129E+04  0.50400001928E-02 0. -1.
        1   -1    0    0  501    0  0.00000000000E+00  0.00000000000E+00 -0.17074408776E+04  0.17074408776E+04  0.50400001928E-02 0.  1.
    10030    2    1    2    0    0  0.00000000000E+00  0.00000000000E+00  0.29014393528E+03  0.37050256905E+04  0.36936475013E+04 0.  0.
        3    1    3    3  502    0 -0.96199252295E+03 -0.87597600517E+03 -0.11696885278E+04  0.17495527537E+04  0.10100000352E+00 0.  1.
       -3    1    3    3    0  502  0.96199252295E+03  0.87597600517E+03  0.14598324631E+04  0.19554729367E+04  0.10100000352E+00 0. -1.
</event>
<event>
 5   0  0.1558258E-07  0.3565485E+04  0.7818609E-02  0.8098444E-01
       -2   -1    0    0    0  501  0.00000000000E+00  0.00000000000E+00  0.18963203255E+04  0.18963203255E+04  0.25500000920E-02 0.  1.
        2   -1    0    0  501    0  0.00000000000E+00  0.00000000000E+00 -0.16759671599E+04  0.16759671599E+04  0.25500000920E-02 0. -1.
    10030    2    1    2    0    0  0.00000000000E+00  0.00000000000E+00  0.22035316557E+03  0.35722874855E+04  0.35654848704E+04 0.  0.
        1    1    3    3  502    0 -0.86515193218E+03 -0.89722861828E+03  0.13872313428E+04  0.18649176544E+04  0.50400001928E-02 0.  1.
       -1    1    3    3    0  502  0.86515193218E+03  0.89722861828E+03 -0.11668781773E+04  0.17073698310E+04  0.50400001928E-02 0. -1.
</event>
<event>
 5   0  0.5177000E-08  0.3704831E+04  0.7818609E-02  0.8066892E-01
       -1   -1    0    0    0  501  0.00000000000E+00  0.00000000000E+00  0.19910153581E+04  0.19910153581E+04  0.50400001928E-02 0.  1.
        1   -1    0    0  501    0  0.00000000000E+00  0.00000000000E+00 -0.17234637537E+04  0.17234637537E+04  0.50400001928E-02 0. -1.
    10030    2    1    2    0    0  0.00000000000E+00  0.00000000000E+00  0.26755160440E+03  0.37144791118E+04  0.37048307938E+04 0.  0.
        4    1    3    3  502    0 -0.11289250775E+04 -0.12180938704E+04  0.95641041212E+03  0.19164934117E+04  0.12699999809E+01 0.  1.
       -4    1    3    3    0  502  0.11289250775E+04  0.12180938704E+04 -0.68885880772E+03  0.17979857001E+04  0.12699999809E+01 0. -1.
</event>
<event>
 5   0  0.1587026E-07  0.3695479E+04  0.7818609E-02  0.8068964E-01
        2   -1    0    0  501    0  0.00000000000E+00  0.00000000000E+00  0.13490314051E+04  0.13490314051E+04  0.25500000920E-02 0.  1.
       -2   -1    0    0    0  501  0.00000000000E+00  0.00000000000E+00 -0.25308093076E+04  0.25308093076E+04  0.25500000920E-02 0. -1.
    10030    2    1    2    0    0  0.00000000000E+00  0.00000000000E+00 -0.11817779025E+04  0.38798407127E+04  0.36954789872E+04 0.  0.
        3    1    3    3  502    0 -0.17965389405E+04 -0.43179098971E+03 -0.57822038709E+03  0.19360615822E+04  0.10100000352E+00 0. -1.
       -3    1    3    3    0  502  0.17965389405E+04  0.43179098971E+03 -0.60355751537E+03  0.19437791305E+04  0.10100000352E+00 0.  1.
</event>
<event>
 5   0  0.5177000E-08  0.3692473E+04  0.7818609E-02  0.8069632E-01
        1   -1    0    0  501    0  0.00000000000E+00  0.00000000000E+00  0.29410877641E+04  0.29410877641E+04  0.50400001928E-02 0.  1.
       -1   -1    0    0    0  501  0.00000000000E+00  0.00000000000E+00 -0.11589551058E+04  0.11589551058E+04  0.50400001928E-02 0. -1.
    10030    2    1    2    0    0  0.00000000000E+00  0.00000000000E+00  0.17821326583E+04  0.41000428699E+04  0.36924727112E+04 0.  0.
        4    1    3    3  502    0 -0.54709600468E+02  0.11008254683E+04 -0.75356047516E+03  0.13351647294E+04  0.12699999809E+01 0. -1.
       -4    1    3    3    0  502  0.54709600468E+02 -0.11008254683E+04  0.25356931334E+04  0.27648781405E+04  0.12699999809E+01 0.  1.
</event>
<event>
 5   0  0.5177000E-08  0.3692683E+04  0.7818609E-02  0.8069585E-01
        3   -1    0    0  501    0  0.00000000000E+00  0.00000000000E+00  0.18286890125E+04  0.18286890153E+04  0.10100000352E+00 0. -1.
       -3   -1    0    0    0  501  0.00000000000E+00  0.00000000000E+00 -0.18641638828E+04  0.18641638856E+04  0.10100000352E+00 0.  1.
    10030    2    1    2    0    0  0.00000000000E+00  0.00000000000E+00 -0.35474870327E+02  0.36928529009E+04  0.36926825048E+04 0.  0.
        5    1    3    3  502    0  0.45020676162E+03  0.14671555577E+04 -0.10442946037E+04  0.18562879270E+04  0.46999998093E+01 0.  1.
       -5    1    3    3    0  502 -0.45020676162E+03 -0.14671555577E+04  0.10088197334E+04  0.18365649738E+04  0.46999998093E+01 0. -1.
</event>
<event>
 5   0  0.5177000E-08  0.3609508E+04  0.7818609E-02  0.8088317E-01
       -1   -1    0    0    0  501  0.00000000000E+00  0.00000000000E+00  0.18006267731E+04  0.18006267731E+04  0.50400001928E-02 0.  1.
        1   -1    0    0  501    0  0.00000000000E+00  0.00000000000E+00 -0.18088906714E+04  0.18088906714E+04  0.50400001928E-02 0. -1.
    10030    2    1    2    0    0  0.00000000000E+00  0.00000000000E+00 -0.82638983133E+01  0.36095174445E+04  0.36095079845E+04 0.  0.
        4    1    3    3  502    0  0.81866468451E+03 -0.13469004664E+04 -0.88321481115E+03  0.18067713601E+04  0.12699999809E+01 0. -1.
       -4    1    3    3    0  502 -0.81866468451E+03  0.13469004664E+04  0.87495091284E+03  0.18027460844E+04  0.12699999809E+01 0.  1.
</event>
<event>
 5   0  0.5181371E-08  0.3702143E+04  0.7818609E-02  0.8067487E-01
        1   -1    0    0  501    0  0.00000000000E+00  0.00000000000E+00  0.18351075252E+04  0.18351075252E+04  0.50400001928E-02 0.  1.
       -1   -1    0    0    0  501  0.00000000000E+00  0.00000000000E+00 -0.18671744255E+04  0.18671744255E+04  0.50400001928E-02 0. -1.
    10030    2    1    2    0    0  0.00000000000E+00  0.00000000000E+00 -0.32066900330E+02  0.37022819508E+04  0.37021430762E+04 0.  0.
        5    1    3    3  502    0 -0.37640682843E+03  0.15403535026E+04 -0.97109426729E+03  0.18594131277E+04  0.46999998093E+01 0. -1.
       -5    1    3    3    0  502  0.37640682843E+03 -0.15403535026E+04  0.93902736696E+03  0.18428688231E+04  0.46999998093E+01 0.  1.
</event>
<event>
 5   0  0.1658770E-07  0.3700490E+04  0.7818609E-02  0.8067853E-01
        2   -1    0    0  501    0  0.00000000000E+00  0.00000000000E+00  0.14437717761E+04  0.14437717761E+04  0.25500000920E-02 0. -1.
       -2   -1    0    0    0  501  0.00000000000E+00  0.00000000000E+00 -0.23711543988E+04  0.23711543988E+04  0.25500000920E-02 0.  1.
    10030    2    1    2    0    0  0.00000000000E+00  0.00000000000E+00 -0.92738262275E+03  0.38149261749E+04  0.37004895880E+04 0.  0.
        2    1    3    3  502    0  0.13854941274E+04  0.45509619163E+03 -0.16376331634E+04  0.21928403723E+04  0.25500000920E-02 0.  1.
       -2    1    3    3    0  502 -0.13854941274E+04 -0.45509619163E+03  0.71025054062E+03  0.16220858026E+04  0.25500000920E-02 0. -1.
</event>
<event>
 5   0  0.1666189E-07  0.3708115E+04  0.7818609E-02  0.8066166E-01
        2   -1    0    0  501    0  0.00000000000E+00  0.00000000000E+00  0.22546538649E+04  0.22546538649E+04  0.25500000920E-02 0. -1.
       -2   -1    0    0    0  501  0.00000000000E+00  0.00000000000E+00 -0.15246374340E+04  0.15246374340E+04  0.25500000920E-02 0.  1.
    10030    2    1    2    0    0  0.00000000000E+00  0.00000000000E+00  0.73001643083E+03  0.37792912989E+04  0.37081152534E+04 0.  0.
        4    1    3    3  502    0 -0.14993898649E+04  0.83784009501E+03 -0.34651966383E+03  0.17522053196E+04  0.12699999809E+01 0.  1.
       -4    1    3    3    0  502  0.14993898649E+04 -0.83784009501E+03  0.10765360947E+04  0.20270859793E+04  0.12699999809E+01 0. -1.
</event>
<event>
 5   0  0.1587026E-07  0.3701269E+04  0.7818609E-02  0.8067681E-01
       -2   -1    0    0    0  501  0.00000000000E+00  0.00000000000E+00  0.15736241116E+04  0.15736241116E+04  0.25500000920E-02 0.  1.
        2   -1    0    0  501    0  0.00000000000E+00  0.00000000000E+00 -0.21764076466E+04  0.21764076466E+04  0.25500000920E-02 0. -1.
    10030    2    1    2    0    0  0.00000000000E+00  0.00000000000E+00 -0.60278353498E+03  0.37500317582E+04  0.37012687281E+04 0.  0.
        3    1    3    3  502    0 -0.27650654899E+03  0.10115111137E+04 -0.18463542378E+04  0.21233545598E+04  0.10100000352E+00 0.  1.
       -3    1    3    3    0  502  0.27650654899E+03 -0.10115111137E+04  0.12435707029E+04  0.16266771985E+04  0.10100000352E+00 0. -1.
</event>
<event>
 5   0  0.1686284E-07  0.3719615E+04  0.7818609E-02  0.8063629E-01
       -2   -1    0    0    0  501  0.00000000000E+00  0.00000000000E+00  0.25716799444E+04  0.25716799444E+04  0.25500000920E-02 0. -1.
        2   -1    0    0  501    0  0.00000000000E+00  0.00000000000E+00 -0.13449903968E+04  0.13449903968E+04  0.25500000920E-02 0.  1.
    10030    2    1    2    0    0  0.00000000000E+00  0.00000000000E+00  0.12266895476E+04  0.39166703412E+04  0.37196154795E+04 0.  0.
        5    1    3    3  502    0 -0.58042855670E+03 -0.13611259059E+04  0.17996635479E+04  0.23298866961E+04  0.46999998093E+01 0. -1.
       -5    1    3    3    0  502  0.58042855670E+03  0.13611259059E+04 -0.57297400023E+03  0.15867836450E+04  0.46999998093E+01 0.  1.
</event>
<event>
 5   0  0.5177000E-08  0.3685937E+04  0.7818609E-02  0.8071086E-01
       -1   -1    0    0    0  501  0.00000000000E+00  0.00000000000E+00  0.27108001719E+04  0.27108001719E+04  0.50400001928E-02 0.  1.
        1   -1    0    0  501    0  0.00000000000E+00  0.00000000000E+00 -0.12529631743E+04  0.12529631743E+04  0.50400001928E-02 0. -1.
    10030    2    1    2    0    0  0.00000000000E+00  0.00000000000E+00  0.14578369976E+04  0.39637633463E+04  0.36859369438E+04 0.  0.
        4    1    3    3  502    0 -0.11393876649E+03 -0.89800249197E+02  0.27046499361E+04  0.27085381698E+04  0.12699999809E+01 0.  1.
       -4    1    3    3    0  502  0.11393876649E+03  0.89800249197E+02 -0.12468129385E+04  0.12552251765E+04  0.12699999809E+01 0. -1.
</event>
<event>
 5   0  0.5177000E-08  0.3645144E+04  0.7818609E-02  0.8080229E-01
        1   -1    0    0  501    0  0.00000000000E+00  0.00000000000E+00  0.16165500285E+04  0.16165500285E+04  0.50400001928E-02 0. -1.
       -1   -1    0    0    0  501  0.00000000000E+00  0.00000000000E+00 -0.20548503466E+04  0.20548503466E+04  0.50400001928E-02 0.  1.
    10030    2    1    2    0    0  0.00000000000E+00  0.00000000000E+00 -0.43830031817E+03  0.36714003751E+04  0.36451438306E+04 0.  0.
        1    1    3    3  502    0 -0.45157650565E+03 -0.13495189467E+04 -0.13660559184E+04  0.19726204653E+04  0.50400001928E-02 0.  1.
       -1    1    3    3    0  502  0.45157650565E+03  0.13495189467E+04  0.92775560024E+03  0.16987799098E+04  0.50400001928E-02 0. -1.
</event>
<event>
 5   0  0.1587026E-07  0.3701368E+04  0.7818609E-02  0.8067659E-01
        2   -1    0    0  501    0  0.00000000000E+00  0.00000000000E+00  0.26494796925E+04  0.26494796925E+04  0.25500000920E-02 0.  1.
       -2   -1    0    0    0  501  0.00000000000E+00  0.00000000000E+00 -0.12927183195E+04  0.12927183195E+04  0.25500000920E-02 0. -1.
    10030    2    1    2    0    0  0.00000000000E+00  0.00000000000E+00  0.13567613731E+04  0.39421980120E+04  0.37013678204E+04 0.  0.
        3    1    3    3  502    0 -0.45857885250E+03 -0.34326078801E+03 -0.11959247686E+04  0.13260311441E+04  0.10100000352E+00 0. -1.
       -3    1    3    3    0  502  0.45857885250E+03  0.34326078801E+03  0.25526861417E+04  0.26161668679E+04  0.10100000352E+00 0.  1.
</event>
<event>
 5   0  0.1558258E-07  0.3696368E+04  0.7818609E-02  0.8068767E-01
       -2   -1    0    0    0  501  0.00000000000E+00  0.00000000000E+00  0.14720157898E+04  0.14720157898E+04  0.25500000920E-02 0.  1.
        2   -1    0    0  501    0  0.00000000000E+00  0.00000000000E+00 -0.23204810910E+04  0.23204810910E+04  0.25500000920E-02 0. -1.
    10030    2    1    2    0    0  0.00000000000E+00  0.00000000000E+00 -0.84846530125E+03  0.37924968808E+04  0.36963683831E+04 0.  0.
        1    1    3    3  502    0  0.11544956182E+04 -0.49121558841E+03  0.96812691304E+03  0.15847468588E+04  0.50400001928E-02 0. -1.
       -1    1    3    3    0  502 -0.11544956182E+04  0.49121558841E+03 -0.18165922143E+04  0.22077500220E+04  0.50400001928E-02 0.  1.
</event>
<event>
 5   0  0.1587026E-07  0.3706132E+04  0.7818609E-02  0.8066604E-01
        2   -1    0    0  501    0  0.00000000000E+00  0.00000000000E+00  0.12417101884E+04  0.12417101884E+04  0.25500000920E-02 0. -1.
       -2   -1    0    0    0  501  0.00000000000E+00  0.00000000000E+00 -0.27654232548E+04  0.27654232548E+04  0.25500000920E-02 0.  1.
    10030    2    1    2    0    0  0.00000000000E+00  0.00000000000E+00 -0.15237130664E+04  0.40071334432E+04  0.37061323402E+04 0.  0.
        3    1    3    3  502    0  0.48832331833E+03 -0.59938537678E+03 -0.25827145443E+04  0.26959482414E+04  0.10100000352E+00 0.  1.
       -3    1    3    3    0  502 -0.48832331833E+03  0.59938537678E+03  0.10590014778E+04  0.13111852018E+04  0.10100000352E+00 0. -1.
</event>
<event>
 5   0  0.5177000E-08  0.3691419E+04  0.7818609E-02  0.8069866E-01
        1   -1    0    0  501    0  0.00000000000E+00  0.00000000000E+00  0.26188071814E+04  0.26188071814E+04  0.50400001928E-02 0. -1.
       -1   -1    0    0    0  501  0.00000000000E+00  0.00000000000E+00 -0.13008379376E+04  0.13008379377E+04  0.50400001928E-02 0.  1.
    10030    2    1    2    0    0  0.00000000000E+00  0.00000000000E+00  0.13179692438E+04  0.39196451191E+04  0.36914190946E+04 0.  0.
        3    1    3    3  502    0  0.51213883628E+03  0.53486681598E+02  0.25409936328E+04  0.25926426026E+04  0.10100000352E+00 0. -1.
       -3    1    3    3    0  502 -0.51213883628E+03 -0.53486681598E+02 -0.12230243889E+04  0.13270025165E+04  0.10100000352E+00 0.  1.
</event>
<event>
 5   0  0.1658770E-07  0.3682989E+04  0.7818609E-02  0.8071742E-01
        2   -1    0    0  501    0  0.00000000000E+00  0.00000000000E+00  0.14270376085E+04  0.14270376085E+04  0.25500000920E-02 0.  1.
       -2   -1    0    0    0  501  0.00000000000E+00  0.00000000000E+00 -0.23763227162E+04  0.23763227162E+04  0.25500000920E-02 0. -1.
    10030    2    1    2    0    0  0.00000000000E+00  0.00000000000E+00 -0.94928510770E+03  0.38033603247E+04  0.36829889416E+04 0.  0.
        2    1    3    3  502    0 -0.11258748037E+04  0.12138120563E+04 -0.13073259159E+04  0.21095105669E+04  0.25500000920E-02 0. -1.
       -2    1    3    3    0  502  0.11258748037E+04 -0.12138120563E+04  0.35804080825E+03  0.16938497578E+04  0.25500000920E-02 0.  1.
</event>
<event>
 5   0  0.5177000E-08  0.3699669E+04  0.7818609E-02  0.8068035E-01
        1   -1    0    0  501    0  0.00000000000E+00  0.00000000000E+00  0.21844137097E+04  0.21844137097E+04  0.50400001928E-02 0.  1.
       -1   -1    0    0    0  501  0.00000000000E+00  0.00000000000E+00 -0.15665013651E+04  0.15665013651E+04  0.50400001928E-02 0. -1.
    10030    2    1    2    0    0  0.00000000000E+00  0.00000000000E+00  0.61791234461E+03  0.37509150749E+04  0.36996686653E+04 0.  0.
        1    1    3    3  502    0 -0.14682988157E+04 -0.47203417510E+03 -0.72654791193E+03  0.17048722952E+04  0.50400001928E-02 0. -1.
       -1    1    3    3    0  502  0.14682988157E+04  0.47203417510E+03  0.13444602565E+04  0.20460427796E+04  0.50400001928E-02 0.  1.
</event>
<event>
 5   0  0.1587026E-07  0.3699907E+04  0.7818609E-02  0.8067983E-01
        2   -1    0    0  501    0  0.00000000000E+00  0.00000000000E+00  0.12809350303E+04  0.12809350303E+04  0.25500000920E-02 0. -1.
       -2   -1    0    0    0  501  0.00000000000E+00  0.00000000000E+00 -0.26717414810E+04  0.26717414810E+04  0.25500000920E-02 0.  1.
    10030    2    1    2    0    0  0.00000000000E+00  0.00000000000E+00 -0.13908064507E+04  0.39526765114E+04  0.36999066231E+04 0.  0.
        3    1    3    3  502    0 -0.39409550682E+03  0.30740742481E+03  0.12074376167E+04  0.13067961592E+04  0.10100000352E+00 0. -1.
       -3    1    3    3    0  502  0.39409550682E+03 -0.30740742481E+03 -0.25982440675E+04  0.26458803521E+04  0.10100000352E+00 0.  1.
</event>
<event>
 5   0  0.1658770E-07  0.3478363E+04  0.7818609E-02  0.8118937E-01
        2   -1    0    0  501    0  0.00000000000E+00  0.00000000000E+00  0.17921142104E+04  0.17921142104E+04  0.25500000920E-02 0.  1.
       -2   -1    0    0    0  501  0.00000000000E+00  0.00000000000E+00 -0.16878119876E+04  0.16878119876E+04  0.25500000920E-02 0. -1.
    10030    2    1    2    0    0  0.00000000000E+00  0.00000000000E+00  0.10430222289E+03  0.34799261980E+04  0.34783627456E+04 0.  0.
        2    1    3    3  502    0 -0.10261820210E+04  0.11243746537E+04  0.89364982625E+03  0.17651849519E+04  0.25500000920E-02 0.  1.
       -2    1    3    3    0  502  0.10261820210E+04 -0.11243746537E+04 -0.78934760336E+03  0.17147412461E+04  0.25500000920E-02 0. -1.
</event>
<event>
 5   0  0.5177000E-08  0.3693739E+04  0.7818609E-02  0.8069351E-01
        1   -1    0    0  501    0  0.00000000000E+00  0.00000000000E+00  0.16743952071E+04  0.16743952071E+04  0.50400001928E-02 0.  1.
       -1   -1    0    0    0  501  0.00000000000E+00  0.00000000000E+00 -0.20371100337E+04  0.20371100337E+04  0.50400001928E-02 0. -1.
    10030    2    1    2    0    0  0.00000000000E+00  0.00000000000E+00 -0.36271482657E+03  0.37115052409E+04  0.36937391770E+04 0.  0.
        1    1    3    3  502    0  0.12085119460E+04  0.11482047301E+04 -0.98019828139E+03  0.19338210612E+04  0.50400001928E-02 0. -1.
       -1    1    3    3    0  502 -0.12085119460E+04 -0.11482047301E+04  0.61748345482E+03  0.17776841797E+04  0.50400001928E-02 0.  1.
</event>
<event>
 5   0  0.1686284E-07  0.3696395E+04  0.7818609E-02  0.8068761E-01
       -2   -1    0    0    0  501  0.00000000000E+00  0.00000000000E+00  0.17014602114E+04  0.17014602115E+04  0.25500000920E-02 0. -1.
        2   -1    0    0  501    0  0.00000000000E+00  0.00000000000E+00 -0.20075900190E+04  0.20075900190E+04  0.25500000920E-02 0.  1.
    10030    2    1    2    0    0  0.00000000000E+00  0.00000000000E+00 -0.30612980752E+03  0.37090502304E+04  0.36963952917E+04 0.  0.
        5    1    3    3  502    0  0.80182872427E+03  0.16513203607E+04 -0.36833191685E+03  0.18722923724E+04  0.46999998093E+01 0.  1.
       -5    1    3    3    0  502 -0.80182872427E+03 -0.16513203607E+04  0.62202109322E+02  0.18367578580E+04  0.46999998093E+01 0. -1.
</event>
<event>
 5   0  0.1658770E-07  0.3701800E+04  0.7818609E-02  0.8067563E-01
       -2   -1    0    0    0  501  0.00000000000E+00  0.00000000000E+00  0.16155923911E+04  0.16155923911E+04  0.25500000920E-02 0. -1.
        2   -1    0    0  501    0  0.00000000000E+00  0.00000000000E+00 -0.21204790912E+04  0.21204790912E+04  0.25500000920E-02 0.  1.
    10030    2    1    2    0    0  0.00000000000E+00  0.00000000000E+00 -0.50488670015E+03  0.37360714823E+04  0.37017995004E+04 0.  0.
        2    1    3    3  502    0 -0.14955201728E+04 -0.25495525465E+03 -0.13225650620E+04  0.20126502708E+04  0.25500000920E-02 0.  1.
       -2    1    3    3    0  502  0.14955201728E+04  0.25495525465E+03  0.81767836189E+03  0.17234212116E+04  0.25500000920E-02 0. -1.
</event>
<event>
 5   0  0.1686284E-07  0.3696611E+04  0.7818609E-02  0.8068713E-01
       -2   -1    0    0    0  501  0.00000000000E+00  0.00000000000E+00  0.14108321444E+04  0.14108321444E+04  0.25500000920E-02 0.  1.
        2   -1    0    0  501    0  0.00000000000E+00  0.00000000000E+00 -0.24214318747E+04  0.24214318747E+04  0.25500000920E-02 0. -1.
    10030    2    1    2    0    0  0.00000000000E+00  0.00000000000E+00 -0.10105997303E+04  0.38322640191E+04  0.36966113804E+04 0.  0.
        5    1    3    3  502    0  0.11857439821E+04  0.71928603319E+03  0.76135940411E+03  0.15821034798E+04  0.46999998093E+01 0.  1.
       -5    1    3    3    0  502 -0.11857439821E+04 -0.71928603319E+03 -0.17719591344E+04  0.22501605393E+04  0.46999998093E+01 0. -1.
</event>
<event>
 5   0  0.5177000E-08  0.3702739E+04  0.7818609E-02  0.8067355E-01
       -1   -1    0    0    0  501  0.00000000000E+00  0.00000000000E+00  0.13706454045E+04  0.13706454045E+04  0.50400001928E-02 0. -1.
        1   -1    0    0  501    0  0.00000000000E+00  0.00000000000E+00 -0.25006971352E+04  0.25006971352E+04  0.50400001928E-02 0.  1.
    10030    2    1    2    0    0  0.00000000000E+00  0.00000000000E+00 -0.11300517306E+04  0.38713425397E+04  0.37027390059E+04 0.  0.
        1    1    3    3  502    0 -0.18330961751E+04 -0.23441577295E+03 -0.68134223555E+03  0.19696242239E+04  0.50400001928E-02 0. -1.
       -1    1    3    3    0  502  0.18330961751E+04  0.23441577295E+03 -0.44870949510E+03  0.19017183158E+04  0.50400001928E-02 0.  1.
</event>
<event>
 5   0  0.1666189E-07  0.3653600E+04  0.7818609E-02  0.8078323E-01
        2   -1    0    0  501    0  0.00000000000E+00  0.00000000000E+00  0.12287445825E+04  0.12287445825E+04  0.25500000920E-02 0. -1.
       -2   -1    0    0    0  501  0.00000000000E+00  0.00000000000E+00 -0.27159414576E+04  0.27159414576E+04  0.25500000920E-02 0.  1.
    10030    2    1    2    0    0  0.00000000000E+00  0.00000000000E+00 -0.14871968751E+04  0.39446860401E+04  0.36536000615E+04 0.  0.
        4    1    3    3  502    0  0.79635866248E+03  0.73327639991E+02  0.10297041350E+04  0.13037853660E+04  0.12699999809E+01 0. -1.
       -4    1    3    3    0  502 -0.79635866248E+03 -0.73327639991E+02 -0.25169010102E+04  0.26409006740E+04  0.12699999809E+01 0.  1.
</event>
<event>
 5   0  0.1587026E-07  0.3707422E+04  0.7818609E-02  0.8066319E-01
        2   -1    0    0  501    0  0.00000000000E+00  0.00000000000E+00  0.15415233004E+04  0.15415233004E+04  0.25500000920E-02 0. -1.
       -2   -1    0    0    0  501  0.00000000000E+00  0.00000000000E+00 -0.22291230612E+04  0.22291230612E+04  0.25500000920E-02 0.  1.
    10030    2    1    2    0    0  0.00000000000E+00  0.00000000000E+00 -0.68759976084E+03  0.37706463616E+04  0.37074223597E+04 0.  0.
        3    1    3    3  502    0 -0.58102476670E+03  0.70379136621E+03  0.12972002104E+04  0.15860770671E+04  0.10100000352E+00 0. -1.
       -3    1    3    3    0  502  0.58102476670E+03 -0.70379136621E+03 -0.19847999712E+04  0.21845692945E+04  0.10100000352E+00 0.  1.
</event>
<event>
 5   0  0.1686284E-07  0.3685645E+04  0.7818609E-02  0.8071150E-01
        2   -1    0    0  501    0  0.00000000000E+00  0.00000000000E+00  0.22481632248E+04  0.22481632248E+04  0.25500000920E-02 0.  1.
       -2   -1    0    0    0  501  0.00000000000E+00  0.00000000000E+00 -0.15105644627E+04  0.15105644627E+04  0.25500000920E-02 0. -1.
    10030    2    1    2    0    0  0.00000000000E+00  0.00000000000E+00  0.73759876214E+03  0.37587276875E+04  0.36856453837E+04 0.  0.
        5    1    3    3  502    0 -0.88323855272E+03  0.99302134853E+03  0.16707385552E+04  0.21348515521E+04  0.46999998093E+01 0.  1.
       -5    1    3    3    0  502  0.88323855272E+03 -0.99302134853E+03 -0.93313979305E+03  0.16238761354E+04  0.46999998093E+01 0. -1.
</event>
<event>
 5   0  0.1587026E-07  0.3708924E+04  0.7818609E-02  0.8065987E-01
       -2   -1    0    0    0  501  0.00000000000E+00  0.00000000000E+00  0.12870785809E+04  0.12870785809E+04  0.25500000920E-02 0. -1.
        2   -1    0    0  501    0  0.00000000000E+00  0.00000000000E+00 -0.26719655855E+04  0.26719655855E+04  0.25500000920E-02 0.  1.
    10030    2    1    2    0    0  0.00000000000E+00  0.00000000000E+00 -0.13848870046E+04  0.39590441663E+04  0.37089241965E+04 0.  0.
        3    1    3    3  502    0 -0.11477086846E+04  0.52711086927E+03 -0.21419387353E+04  0.24865604053E+04  0.10100000352E+00 0.  1.
       -3    1    3    3    0  502  0.11477086846E+04 -0.52711086927E+03  0.75705173072E+03  0.14724837610E+04  0.10100000352E+00 0. -1.
</event>
<event>
 5   0  0.5177000E-08  0.3673512E+04  0.7818609E-02  0.8073857E-01
       -1   -1    0    0    0  501  0.00000000000E+00  0.00000000000E+00  0.11762373057E+04  0.11762373057E+04  0.50400001928E-02 0. -1.
        1   -1    0    0  501    0  0.00000000000E+00  0.00000000000E+00 -0.28681900862E+04  0.28681900862E+04  0.50400001928E-02 0.  1.
    10030    2    1    2    0    0  0.00000000000E+00  0.00000000000E+00 -0.16919527805E+04  0.40444273919E+04  0.36735117690E+04 0.  0.
        3    1    3    3  502    0  0.13448153743E+04  0.56352573241E+03 -0.20757077531E+04  0.25366616504E+04  0.10100000352E+00 0. -1.
       -3    1    3    3    0  502 -0.13448153743E+04 -0.56352573241E+03  0.38375497265E+03  0.15077657415E+04  0.10100000352E+00 0.  1.
</event>
<event>
 5   0  0.5177000E-08  0.3679760E+04  0.7818609E-02  0.8072462E-01
        1   -1    0    0  501    0  0.00000000000E+00  0.00000000000E+00  0.12564738079E+04  0.12564738079E+04  0.50400001928E-02 0.  1.
       -1   -1    0    0    0  501  0.00000000000E+00  0.00000000000E+00 -0.26941730153E+04  0.26941730153E+04  0.50400001928E-02 0. -1.
    10030    2    1    2    0    0  0.00000000000E+00  0.00000000000E+00 -0.14376992074E+04  0.39506468233E+04  0.36797596812E+04 0.  0.
        3    1    3    3  502    0  0.67430672822E+03 -0.37597001656E+03 -0.25118564394E+04  0.26278252985E+04  0.10100000352E+00 0. -1.
       -3    1    3    3    0  502 -0.67430672822E+03  0.37597001656E+03  0.10741572320E+04  0.13228215248E+04  0.10100000352E+00 0.  1.
</event>
<event>
 5   0  0.1666189E-07  0.3698177E+04  0.7818609E-02  0.8068366E-01
        2   -1    0    0  501    0  0.00000000000E+00  0.00000000000E+00  0.20573698498E+04  0.20573698498E+04  0.25500000920E-02 0.  1.
       -2   -1    0    0    0  501  0.00000000000E+00  0.00000000000E+00 -0.16618927322E+04  0.16618927322E+04  0.25500000920E-02 0. -1.
    10030    2    1    2    0    0  0.00000000000E+00  0.00000000000E+00  0.39547711767E+03  0.37192625820E+04  0.36981768486E+04 0.  0.
        4    1    3    3  502    0  0.10240216997E+04  0.97657844520E+03  0.13948194936E+04  0.19869194583E+04  0.12699999809E+01 0.  1.
       -4    1    3    3    0  502 -0.10240216997E+04 -0.97657844520E+03 -0.99934237594E+03  0.17323431237E+04  0.12699999809E+01 0. -1.
</event>
<event>
 5   0  0.5181371E-08  0.3651802E+04  0.7818609E-02  0.8078728E-01
        1   -1    0    0  501    0  0.00000000000E+00  0.00000000000E+00  0.30986899643E+04  0.30986899643E+04  0.50400001928E-02 0.  1.
       -1   -1    0    0    0  501  0.00000000000E+00  0.00000000000E+00 -0.10759109456E+04  0.10759109456E+04  0.50400001928E-02 0. -1.
    10030    2    1    2    0    0  0.00000000000E+00  0.00000000000E+00  0.20227790187E+04  0.41746009098E+04  0.36518019933E+04 0.  0.
        5    1    3    3  502    0 -0.11252815892E+04  0.28611541506E+03  0.26223036648E+04  0.28678597048E+04  0.46999998093E+01 0.  1.
       -5    1    3    3    0  502  0.11252815892E+04 -0.28611541506E+03 -0.59952464614E+03  0.13067412051E+04  0.46999998093E+01 0. -1.
</event>
<event>
 5   0  0.5181371E-08  0.3714205E+04  0.7818609E-02  0.8064821E-01
        1   -1    0    0  501    0  0.00000000000E+00  0.00000000000E+00  0.12586018349E+04  0.12586018349E+04  0.50400001928E-02 0. -1.
       -1   -1    0    0    0  501  0.00000000000E+00  0.00000000000E+00 -0.27402065373E+04  0.27402065373E+04  0.50400001928E-02 0.  1.
    10030    2    1    2    0    0  0.00000000000E+00  0.00000000000E+00 -0.14816047024E+04  0.39988083722E+04  0.37142046125E+04 0.  0.
        5    1    3    3  502    0  0.65319814309E+03 -0.50129693792E+03 -0.25329365498E+04  0.26634106122E+04  0.46999998093E+01 0.  1.
       -5    1    3    3    0  502 -0.65319814309E+03  0.50129693792E+03  0.10513318474E+04  0.13353977600E+04  0.46999998093E+01 0. -1.
</event>
<event>
 5   0  0.5177000E-08  0.3702194E+04  0.7818609E-02  0.8067476E-01
        1   -1    0    0  501    0  0.00000000000E+00  0.00000000000E+00  0.25548477464E+04  0.25548477464E+04  0.50400001928E-02 0.  1.
       -1   -1    0    0    0  501  0.00000000000E+00  0.00000000000E+00 -0.13411993774E+04  0.13411993774E+04  0.50400001928E-02 0. -1.
    10030    2    1    2    0    0  0.00000000000E+00  0.00000000000E+00  0.12136483690E+04  0.38960471238E+04  0.37021940559E+04 0.  0.
        3    1    3    3  502    0  0.95139529091E+03 -0.15348738995E+04  0.17861602251E+03  0.18146334563E+04  0.10100000352E+00 0. -1.
       -3    1    3    3    0  502 -0.95139529091E+03  0.15348738995E+04  0.10350323465E+04  0.20814136675E+04  0.10100000352E+00 0.  1.
</event>
<event>
 5   0  0.1558258E-07  0.3699445E+04  0.7818609E-02  0.8068085E-01
        2   -1    0    0  501    0  0.00000000000E+00  0.00000000000E+00  0.11935765271E+04  0.11935765271E+04  0.25500000920E-02 0.  1.
       -2   -1    0    0    0  501  0.00000000000E+00  0.00000000000E+00 -0.28665729269E+04  0.28665729269E+04  0.25500000920E-02 0. -1.
    10030    2    1    2    0    0  0.00000000000E+00  0.00000000000E+00 -0.16729963998E+04  0.40601494540E+04  0.36994454497E+04 0.  0.
        1    1    3    3  502    0  0.79196129351E+03 -0.15613905979E+04 -0.18136121737E+03  0.17601236266E+04  0.50400001928E-02 0.  1.
       -1    1    3    3    0  502 -0.79196129351E+03  0.15613905979E+04 -0.14916351824E+04  0.23000258275E+04  0.50400001928E-02 0. -1.
</event>
<event>
 5   0  0.5177000E-08  0.3703970E+04  0.7818609E-02  0.8067083E-01
        1   -1    0    0  501    0  0.00000000000E+00  0.00000000000E+00  0.12570701920E+04  0.12570701921E+04  0.50400001928E-02 0.  1.
       -1   -1    0    0    0  501  0.00000000000E+00  0.00000000000E+00 -0.27284463576E+04  0.27284463576E+04  0.50400001928E-02 0. -1.
    10030    2    1    2    0    0  0.00000000000E+00  0.00000000000E+00 -0.14713761655E+04  0.39855165497E+04  0.37039700791E+04 0.  0.
        2    1    3    3  502    0  0.12663486696E+04 -0.29080552670E+03  0.68433879356E+03  0.14685116247E+04  0.25500000920E-02 0.  1.
       -2    1    3    3    0  502 -0.12663486696E+04  0.29080552670E+03 -0.21557149591E+04  0.25170049250E+04  0.25500000920E-02 0. -1.
</event>
<event>
 5   0  0.5177000E-08  0.3694054E+04  0.7818609E-02  0.8069281E-01
        1   -1    0    0  501    0  0.00000000000E+00  0.00000000000E+00  0.15352350262E+04  0.15352350262E+04  0.50400001928E-02 0. -1.
       -1   -1    0    0    0  501  0.00000000000E+00  0.00000000000E+00 -0.22221410972E+04  0.22221410973E+04  0.50400001928E-02 0.  1.
    10030    2    1    2    0    0  0.00000000000E+00  0.00000000000E+00 -0.68690607106E+03  0.37573761234E+04  0.36940540579E+04 0.  0.
        3    1    3    3  502    0 -0.73739186031E+02  0.10336138865E+04 -0.18986202281E+04  0.21629965129E+04  0.10100000352E+00 0.  1.
       -3    1    3    3    0  502  0.73739186031E+02 -0.10336138865E+04  0.12117141571E+04  0.15943796106E+04  0.10100000352E+00 0. -1.
</event>
<event>
 5   0  0.5177000E-08  0.3696284E+04  0.7818609E-02  0.8068786E-01
        1   -1    0    0  501    0  0.00000000000E+00  0.00000000000E+00  0.24358643009E+04  0.24358643009E+04  0.50400001928E-02 0. -1.
       -1   -1    0    0    0  501  0.00000000000E+00  0.00000000000E+00 -0.14022244487E+04  0.14022244487E+04  0.50400001928E-02 0.  1.
    10030    2    1    2    0    0  0.00000000000E+00  0.00000000000E+00  0.10336398522E+04  0.38380887496E+04  0.36962837967E+04 0.  0.
        2    1    3    3  502    0 -0.35824599998E+03  0.14988991084E+04  0.15760479802E+04  0.22043062331E+04  0.25500000920E-02 0. -1.
       -2    1    3    3    0  502  0.35824599998E+03 -0.14988991084E+04 -0.54240812792E+03  0.16337825164E+04  0.25500000920E-02 0.  1.
</event>
<event>
 5   0  0.5177000E-08  0.3788618E+04  0.7818609E-02  0.8048602E-01
       -1   -1    0    0    0  501  0.00000000000E+00  0.00000000000E+00  0.18569357950E+04  0.18569357950E+04  0.50400001928E-02 0. -1.
        1   -1    0    0  501    0  0.00000000000E+00  0.00000000000E+00 -0.19324339284E+04  0.19324339285E+04  0.50400001928E-02 0.  1.
    10030    2    1    2    0    0  0.00000000000E+00  0.00000000000E+00 -0.75498133432E+02  0.37893697235E+04  0.37886175491E+04 0.  0.
        3    1    3    3  502    0 -0.69213870537E+03 -0.13464494094E+02  0.17258844341E+04  0.18595468185E+04  0.10100000352E+00 0. -1.
       -3    1    3    3    0  502  0.69213870537E+03  0.13464494094E+02 -0.18013825675E+04  0.19298229050E+04  0.10100000352E+00 0.  1.
</event>
<event>
 5   0  0.1686284E-07  0.3700356E+04  0.7818609E-02  0.8067883E-01
       -2   -1    0    0    0  501  0.00000000000E+00  0.00000000000E+00  0.14914898309E+04  0.14914898309E+04  0.25500000920E-02 0.  1.
        2   -1    0    0  501    0  0.00000000000E+00  0.00000000000E+00 -0.22951265786E+04  0.22951265786E+04  0.25500000920E-02 0. -1.
    10030    2    1    2    0    0  0.00000000000E+00  0.00000000000E+00 -0.80363674768E+03  0.37866164095E+04  0.37003556329E+04 0.  0.
        5    1    3    3  502    0  0.81637197126E+03 -0.39893326635E+02  0.12967187690E+04  0.15328262552E+04  0.46999998093E+01 0.  1.
       -5    1    3    3    0  502 -0.81637197126E+03  0.39893326635E+02 -0.21003555166E+04  0.22537901542E+04  0.46999998093E+01 0. -1.
</event>
<event>
 5   0  0.1558258E-07  0.3663605E+04  0.7818609E-02  0.8076076E-01
        2   -1    0    0  501    0  0.00000000000E+00  0.00000000000E+00  0.11979384320E+04  0.11979384320E+04  0.25500000920E-02 0.  1.
       -2   -1    0    0    0  501  0.00000000000E+00  0.00000000000E+00 -0.28010617308E+04  0.28010617308E+04  0.25500000920E-02 0. -1.
    10030    2    1    2    0    0  0.00000000000E+00  0.00000000000E+00 -0.16031232988E+04  0.39990001627E+04  0.36636045079E+04 0.  0.
        1    1    3    3  502    0  0.15320271642E+04  0.49417650562E+03  0.15264226873E+03  0.16169778331E+04  0.50400001928E-02 0. -1.
       -1    1    3    3    0  502 -0.15320271642E+04 -0.49417650562E+03 -0.17557655675E+04  0.23820223296E+04  0.50400001928E-02 0.  1.
</event>
<event>
 5   0  0.5177000E-08  0.3707454E+04  0.7818609E-02  0.8066312E-01
       -1   -1    0    0    0  501  0.00000000000E+00  0.00000000000E+00  0.14278446512E+04  0.14278446512E+04  0.50400001928E-02 0. -1.
        1   -1    0    0  501    0  0.00000000000E+00  0.00000000000E+00 -0.24066364959E+04  0.24066364959E+04  0.50400001928E-02 0.  1.
    10030    2    1    2    0    0  0.00000000000E+00  0.00000000000E+00 -0.97879184476E+03  0.38344811471E+04  0.37074535995E+04 0.  0.
        1    1    3    3  502    0  0.11187361742E+04 -0.27323129604E+03 -0.19917767836E+04  0.23007391692E+04  0.50400001928E-02 0.  1.
       -1    1    3    3    0  502 -0.11187361742E+04  0.27323129604E+03  0.10129849389E+04  0.15337419780E+04  0.50400001928E-02 0. -1.
</event>
<event>
 5   0  0.1658770E-07  0.3685909E+04  0.7818609E-02  0.8071092E-01
       -2   -1    0    0    0  501  0.00000000000E+00  0.00000000000E+00  0.22835385052E+04  0.22835385052E+04  0.25500000920E-02 0.  1.
        2   -1    0    0  501    0  0.00000000000E+00  0.00000000000E+00 -0.14873765270E+04  0.14873765270E+04  0.25500000920E-02 0. -1.
    10030    2    1    2    0    0  0.00000000000E+00  0.00000000000E+00  0.79616197817E+03  0.37709150322E+04  0.36859091531E+04 0.  0.
        2    1    3    3  502    0  0.38650870186E+03 -0.23274850195E+02 -0.14452920293E+04  0.14962619240E+04  0.25500000920E-02 0. -1.
       -2    1    3    3    0  502 -0.38650870186E+03  0.23274850195E+02  0.22414540074E+04  0.22746531082E+04  0.25500000920E-02 0.  1.
</event>
<event>
 5   0  0.1686284E-07  0.3458342E+04  0.7818609E-02  0.8123734E-01
       -2   -1    0    0    0  501  0.00000000000E+00  0.00000000000E+00  0.13733950774E+04  0.13733950774E+04  0.25500000920E-02 0. -1.
        2   -1    0    0  501    0  0.00000000000E+00  0.00000000000E+00 -0.21771096504E+04  0.21771096504E+04  0.25500000920E-02 0.  1.
    10030    2    1    2    0    0  0.00000000000E+00  0.00000000000E+00 -0.80371457302E+03  0.35505047277E+04  0.34583416122E+04 0.  0.
        5    1    3    3  502    0 -0.13192605652E+04  0.75407672063E+03  0.44531797011E+03  0.15834804464E+04  0.46999998093E+01 0. -1.
       -5    1    3    3    0  502  0.13192605652E+04 -0.75407672063E+03 -0.12490325431E+04  0.19670242813E+04  0.46999998093E+01 0.  1.
</event>
<event>
 5   0  0.5177000E-08  0.3690278E+04  0.7818609E-02  0.8070120E-01
       -1   -1    0    0    0  501  0.00000000000E+00  0.00000000000E+00  0.11224648648E+04  0.11224648649E+04  0.50400001928E-02 0. -1.
        1   -1    0    0  501    0  0.00000000000E+00  0.00000000000E+00 -0.30330901529E+04  0.30330901529E+04  0.50400001928E-02 0.  1.
    10030    2    1    2    0    0  0.00000000000E+00  0.00000000000E+00 -0.19106252881E+04  0.41555550178E+04  0.36902775660E+04 0.  0.
        2    1    3    3  502    0 -0.85299851154E+03  0.14153936270E+04 -0.31107634532E+02  0.16528500431E+04  0.25500000920E-02 0. -1.
       -2    1    3    3    0  502  0.85299851154E+03 -0.14153936270E+04 -0.18795176536E+04  0.25027049747E+04  0.25500000920E-02 0.  1.
</event>
<event>
 5   0  0.1658770E-07  0.3699399E+04  0.7818609E-02  0.8068095E-01
        2   -1    0    0  501    0  0.00000000000E+00  0.00000000000E+00  0.25128322844E+04  0.25128322844E+04  0.25500000920E-02 0.  1.
       -2   -1    0    0    0  501  0.00000000000E+00  0.00000000000E+00 -0.13615667470E+04  0.13615667470E+04  0.25500000920E-02 0. -1.
    10030    2    1    2    0    0  0.00000000000E+00  0.00000000000E+00  0.11512655374E+04  0.38743990314E+04  0.36993993455E+04 0.  0.
        2    1    3    3  502    0  0.74634600074E+03 -0.10763884778E+04 -0.79219087185E+03  0.15307550050E+04  0.25500000920E-02 0. -1.
       -2    1    3    3    0  502 -0.74634600074E+03  0.10763884778E+04  0.19434564093E+04  0.23436440264E+04  0.25500000920E-02 0.  1.
</event>
<event>
 5   0  0.1587026E-07  0.3725586E+04  0.7818609E-02  0.8062315E-01
        2   -1    0    0  501    0  0.00000000000E+00  0.00000000000E+00  0.20660363948E+04  0.20660363948E+04  0.25500000920E-02 0. -1.
       -2   -1    0    0    0  501  0.00000000000E+00  0.00000000000E+00 -0.16795434402E+04  0.16795434402E+04  0.25500000920E-02 0.  1.
    10030    2    1    2    0    0  0.00000000000E+00  0.00000000000E+00  0.38649295458E+03  0.37455798350E+04  0.37255860608E+04 0.  0.
        3    1    3    3  502    0 -0.43617833553E+03  0.13336380707E+04 -0.10385454269E+04  0.17456857271E+04  0.10100000352E+00 0.  1.
       -3    1    3    3    0  502  0.43617833553E+03 -0.13336380707E+04  0.14250383815E+04  0.19998941079E+04  0.10100000352E+00 0. -1.
</event>
<event>
 5   0  0.5177000E-08  0.3730218E+04  0.7818609E-02  0.8061298E-01
       -3   -1    0    0    0  501  0.00000000000E+00  0.00000000000E+00  0.19540835679E+04  0.19540835705E+04  0.10100000352E+00 0.  1.
        3   -1    0    0  501    0  0.00000000000E+00  0.00000000000E+00 -0.17801857549E+04  0.17801857578E+04  0.10100000352E+00 0. -1.
    10030    2    1    2    0    0  0.00000000000E+00  0.00000000000E+00  0.17389781300E+03  0.37342693283E+04  0.37302180857E+04 0.  0.
        3    1    3    3  502    0  0.44633208995E+03  0.18084532646E+04  0.18147702092E+03  0.18715366585E+04  0.10100000352E+00 0.  1.
       -3    1    3    3    0  502 -0.44633208995E+03 -0.18084532646E+04 -0.75792079190E+01  0.18627326698E+04  0.10100000352E+00 0. -1.
</event>
<event>
 5   0  0.5181371E-08  0.3708851E+04  0.7818609E-02  0.8066003E-01
        1   -1    0    0  501    0  0.00000000000E+00  0.00000000000E+00  0.17888508184E+04  0.17888508184E+04  0.50400001928E-02 0. -1.
       -1   -1    0    0    0  501  0.00000000000E+00  0.00000000000E+00 -0.19224040957E+04  0.19224040957E+04  0.50400001928E-02 0.  1.
    10030    2    1    2    0    0  0.00000000000E+00  0.00000000000E+00 -0.13355327732E+03  0.37112549142E+04  0.37088511105E+04 0.  0.
        5    1    3    3  502    0  0.88734021911E+03  0.83376570048E+03 -0.14663733188E+04  0.19059933651E+04  0.46999998093E+01 0.  1.
       -5    1    3    3    0  502 -0.88734021911E+03 -0.83376570048E+03  0.13328200415E+04  0.18052615491E+04  0.46999998093E+01 0. -1.
</event>
<event>
 5   0  0.1558258E-07  0.3698335E+04  0.7818609E-02  0.8068331E-01
       -2   -1    0    0    0  501  0.00000000000E+00  0.00000000000E+00  0.18049899261E+04  0.18049899261E+04  0.25500000920E-02 0. -1.
        2   -1    0    0  501    0  0.00000000000E+00  0.00000000000E+00 -0.18944258695E+04  0.18944258695E+04  0.25500000920E-02 0.  1.
    10030    2    1    2    0    0  0.00000000000E+00  0.00000000000E+00 -0.89435943465E+02  0.36994157956E+04  0.36983345496E+04 0.  0.
        1    1    3    3  502    0  0.40416499212E+03  0.17869731679E+04 -0.29538486345E+03  0.18557679438E+04  0.50400001928E-02 0. -1.
       -1    1    3    3    0  502 -0.40416499212E+03 -0.17869731679E+04  0.20594891998E+03  0.18436478518E+04  0.50400001928E-02 0.  1.
</event>
<event>
 5   0  0.5177000E-08  0.3703284E+04  0.7818609E-02  0.8067234E-01
        1   -1    0    0  501    0  0.00000000000E+00  0.00000000000E+00  0.23033252154E+04  0.23033252154E+04  0.50400001928E-02 0. -1.
       -1   -1    0    0    0  501  0.00000000000E+00  0.00000000000E+00 -0.14885341571E+04  0.14885341571E+04  0.50400001928E-02 0.  1.
    10030    2    1    2    0    0  0.00000000000E+00  0.00000000000E+00  0.81479105824E+03  0.37918593725E+04  0.37032840874E+04 0.  0.
        4    1    3    3  502    0 -0.41165870383E+03  0.17887773669E+04  0.65692351132E+03  0.19495480167E+04  0.12699999809E+01 0. -1.
       -4    1    3    3    0  502  0.41165870383E+03 -0.17887773669E+04  0.15786754693E+03  0.18423113559E+04  0.12699999809E+01 0.  1.
</event>
<event>
 5   0  0.5177000E-08  0.3692544E+04  0.7818609E-02  0.8069616E-01
       -1   -1    0    0    0  501  0.00000000000E+00  0.00000000000E+00  0.17116266544E+04  0.17116266544E+04  0.50400001928E-02 0.  1.
        1   -1    0    0  501    0  0.00000000000E+00  0.00000000000E+00 -0.19915094043E+04  0.19915094043E+04  0.50400001928E-02 0. -1.
    10030    2    1    2    0    0  0.00000000000E+00  0.00000000000E+00 -0.27988274988E+03  0.37031360587E+04  0.36925441522E+04 0.  0.
        2    1    3    3  502    0 -0.40428010887E+03 -0.54313542407E+03  0.15826241179E+04  0.17213766566E+04  0.25500000920E-02 0.  1.
       -2    1    3    3    0  502  0.40428010887E+03  0.54313542407E+03 -0.18625068678E+04  0.19817594021E+04  0.25500000920E-02 0. -1.
</event>
<event>
 5   0  0.1666189E-07  0.3704008E+04  0.7818609E-02  0.8067074E-01
        2   -1    0    0  501    0  0.00000000000E+00  0.00000000000E+00  0.19202369131E+04  0.19202369131E+04  0.25500000920E-02 0. -1.
       -2   -1    0    0    0  501  0.00000000000E+00  0.00000000000E+00 -0.17861961221E+04  0.17861961221E+04  0.25500000920E-02 0.  1.
    10030    2    1    2    0    0  0.00000000000E+00  0.00000000000E+00  0.13404079100E+03  0.37064330352E+04  0.37040084923E+04 0.  0.
        4    1    3    3  502    0 -0.29991958173E+03  0.11000938594E+04  0.15273453380E+04  0.19060282394E+04  0.12699999809E+01 0. -1.
       -4    1    3    3    0  502  0.29991958173E+03 -0.11000938594E+04 -0.13933045470E+04  0.18004047958E+04  0.12699999809E+01 0.  1.
</event>
<event>
 5   0  0.1658770E-07  0.3697628E+04  0.7818609E-02  0.8068488E-01
       -2   -1    0    0    0  501  0.00000000000E+00  0.00000000000E+00  0.18529554596E+04  0.18529554596E+04  0.25500000920E-02 0.  1.
        2   -1    0    0  501    0  0.00000000000E+00  0.00000000000E+00 -0.18446814333E+04  0.18446814333E+04  0.25500000920E-02 0. -1.
    10030    2    1    2    0    0  0.00000000000E+00  0.00000000000E+00  0.82740263306E+01  0.36976368929E+04  0.36976276357E+04 0.  0.
        2    1    3    3  502    0  0.32494464616E+03 -0.18143735129E+04  0.14756772333E+03  0.18491393945E+04  0.25500000920E-02 0. -1.
       -2    1    3    3    0  502 -0.32494464616E+03  0.18143735129E+04 -0.13929369700E+03  0.18484974984E+04  0.25500000920E-02 0.  1.
</event>
<event>
 5   0  0.1587026E-07  0.3723870E+04  0.7818609E-02  0.8062692E-01
       -2   -1    0    0    0  501  0.00000000000E+00  0.00000000000E+00  0.20638211546E+04  0.20638211546E+04  0.25500000920E-02 0.  1.
        2   -1    0    0  501    0  0.00000000000E+00  0.00000000000E+00 -0.16797978804E+04  0.16797978804E+04  0.25500000920E-02 0. -1.
    10030    2    1    2    0    0  0.00000000000E+00  0.00000000000E+00  0.38402327416E+03  0.37436190350E+04  0.37238702453E+04 0.  0.
        3    1    3    3  502    0 -0.13688081683E+04 -0.10998374574E+04  0.81458920505E+03  0.19356739956E+04  0.10100000352E+00 0.  1.
       -3    1    3    3    0  502  0.13688081683E+04  0.10998374574E+04 -0.43056593089E+03  0.18079450393E+04  0.10100000352E+00 0. -1.
</event>
<event>
 5   0  0.5177000E-08  0.3673928E+04  0.7818609E-02  0.8073764E-01
        1   -1    0    0  501    0  0.00000000000E+00  0.00000000000E+00  0.12579786476E+04  0.12579786476E+04  0.50400001928E-02 0. -1.
       -1   -1    0    0    0  501  0.00000000000E+00  0.00000000000E+00 -0.26824279883E+04  0.26824279884E+04  0.50400001928E-02 0.  1.
    10030    2    1    2    0    0  0.00000000000E+00  0.00000000000E+00 -0.14244493407E+04  0.39404066360E+04  0.36739282155E+04 0.  0.
        2    1    3    3  502    0 -0.16082735522E+04  0.45346411565E+03  0.10618395875E+03  0.16743501891E+04  0.25500000920E-02 0. -1.
       -2    1    3    3    0  502  0.16082735522E+04 -0.45346411565E+03 -0.15306332995E+04  0.22660564468E+04  0.25500000920E-02 0.  1.
</event>
<event>
 5   0  0.1666189E-07  0.3706543E+04  0.7818609E-02  0.8066513E-01
       -2   -1    0    0    0  501  0.00000000000E+00  0.00000000000E+00  0.17462484308E+04  0.17462484308E+04  0.25500000920E-02 0.  1.
        2   -1    0    0  501    0  0.00000000000E+00  0.00000000000E+00 -0.19668541992E+04  0.19668541992E+04  0.25500000920E-02 0. -1.
    10030    2    1    2    0    0  0.00000000000E+00  0.00000000000E+00 -0.22060576841E+03  0.37131026300E+04  0.37065434350E+04 0.  0.
        4    1    3    3  502    0 -0.57455061390E+03 -0.16145085188E+04  0.59654357795E+03  0.18145555981E+04  0.12699999809E+01 0.  1.
       -4    1    3    3    0  502  0.57455061390E+03  0.16145085188E+04 -0.81714934635E+03  0.18985470319E+04  0.12699999809E+01 0. -1.
</event>
<event>
 5   0  0.1587026E-07  0.3689097E+04  0.7818609E-02  0.8070382E-01
        2   -1    0    0  501    0  0.00000000000E+00  0.00000000000E+00  0.17964538004E+04  0.17964538004E+04  0.25500000920E-02 0. -1.
       -2   -1    0    0    0  501  0.00000000000E+00  0.00000000000E+00 -0.18939310312E+04  0.18939310312E+04  0.25500000920E-02 0.  1.
    10030    2    1    2    0    0  0.00000000000E+00  0.00000000000E+00 -0.97477230817E+02  0.36903848316E+04  0.36890972331E+04 0.  0.
        3    1    3    3  502    0  0.98809058485E+03 -0.69514416973E+03  0.13455954895E+04  0.18083626993E+04  0.10100000352E+00 0. -1.
       -3    1    3    3    0  502 -0.98809058485E+03  0.69514416973E+03 -0.14430727203E+04  0.18820221324E+04  0.10100000352E+00 0.  1.
</event>
<event>
 5   0  0.5177000E-08  0.3697804E+04  0.7818609E-02  0.8068449E-01
       -1   -1    0    0    0  501  0.00000000000E+00  0.00000000000E+00  0.15842888221E+04  0.15842888221E+04  0.50400001928E-02 0. -1.
        1   -1    0    0  501    0  0.00000000000E+00  0.00000000000E+00 -0.21577118173E+04  0.21577118173E+04  0.50400001928E-02 0.  1.
    10030    2    1    2    0    0  0.00000000000E+00  0.00000000000E+00 -0.57342299524E+03  0.37420006394E+04  0.36978040583E+04 0.  0.
        3    1    3    3  502    0 -0.10647766044E+04 -0.87207462688E+02  0.12403253661E+04  0.16369976734E+04  0.10100000352E+00 0. -1.
       -3    1    3    3    0  502  0.10647766044E+04  0.87207462688E+02 -0.18137483613E+04  0.21050029660E+04  0.10100000352E+00 0.  1.
</event>
<event>
 5   0  0.1587026E-07  0.3714427E+04  0.7818609E-02  0.8064772E-01
        2   -1    0    0  501    0  0.00000000000E+00  0.00000000000E+00  0.10616755677E+04  0.10616755677E+04  0.25500000920E-02 0. -1.
       -2   -1    0    0    0  501  0.00000000000E+00  0.00000000000E+00 -0.32488665297E+04  0.32488665297E+04  0.25500000920E-02 0.  1.
    10030    2    1    2    0    0  0.00000000000E+00  0.00000000000E+00 -0.21871909619E+04  0.43105420974E+04  0.37144271254E+04 0.  0.
        3    1    3    3  502    0 -0.76372358979E+03 -0.15532082333E+04 -0.31208508280E+03  0.17587287019E+04  0.10100000352E+00 0. -1.
       -3    1    3    3    0  502  0.76372358979E+03  0.15532082333E+04 -0.18751058791E+04  0.25518133956E+04  0.10100000352E+00 0.  1.
</event>
<event>
 5   0  0.5177000E-08  0.3700356E+04  0.7818609E-02  0.8067883E-01
        1   -1    0    0  501    0  0.00000000000E+00  0.00000000000E+00  0.23095152130E+04  0.23095152130E+04  0.50400001928E-02 0. -1.
       -1   -1    0    0    0  501  0.00000000000E+00  0.00000000000E+00 -0.14821976677E+04  0.14821976677E+04  0.50400001928E-02 0.  1.
    10030    2    1    2    0    0  0.00000000000E+00  0.00000000000E+00  0.82731754529E+03  0.37917128807E+04  0.37003556922E+04 0.  0.
        2    1    3    3  502    0 -0.95363142273E+03 -0.10358570739E+04 -0.81628590265E+03  0.16274936076E+04  0.25500000920E-02 0.  1.
       -2    1    3    3    0  502  0.95363142273E+03  0.10358570739E+04  0.16436034479E+04  0.21642192731E+04  0.25500000920E-02 0. -1.
</event>
<event>
 5   0  0.5177000E-08  0.3702918E+04  0.7818609E-02  0.8067315E-01
        1   -1    0    0  501    0  0.00000000000E+00  0.00000000000E+00  0.14672281377E+04  0.14672281377E+04  0.50400001928E-02 0.  1.
       -1   -1    0    0    0  501  0.00000000000E+00  0.00000000000E+00 -0.23363107328E+04  0.23363107328E+04  0.50400001928E-02 0. -1.
    10030    2    1    2    0    0  0.00000000000E+00  0.00000000000E+00 -0.86908259506E+03  0.38035388705E+04  0.37029182252E+04 0.  0.
        1    1    3    3  502    0 -0.76506858403E+03  0.85176634368E+01  0.12972432047E+04  0.15060685313E+04  0.50400001928E-02 0.  1.
       -1    1    3    3    0  502  0.76506858403E+03 -0.85176634368E+01 -0.21663257997E+04  0.22974703392E+04  0.50400001928E-02 0. -1.
</event>
<event>
 5   0  0.1666189E-07  0.3694173E+04  0.7818609E-02  0.8069254E-01
       -2   -1    0    0    0  501  0.00000000000E+00  0.00000000000E+00  0.24088870068E+04  0.24088870068E+04  0.25500000920E-02 0. -1.
        2   -1    0    0  501    0  0.00000000000E+00  0.00000000000E+00 -0.14163093213E+04  0.14163093213E+04  0.25500000920E-02 0.  1.
    10030    2    1    2    0    0  0.00000000000E+00  0.00000000000E+00  0.99257768556E+03  0.38251963281E+04  0.36941733158E+04 0.  0.
        4    1    3    3  502    0 -0.40460035814E+03 -0.17906380421E+04  0.70758881712E+03  0.19674271510E+04  0.12699999809E+01 0. -1.
       -4    1    3    3    0  502  0.40460035814E+03  0.17906380421E+04  0.28498886845E+03  0.18577691771E+04  0.12699999809E+01 0.  1.
</event>
<event>
 5   0  0.1666189E-07  0.3666117E+04  0.7818609E-02  0.8075512E-01
        2   -1    0    0  501    0  0.00000000000E+00  0.00000000000E+00  0.33221227984E+04  0.33221227984E+04  0.25500000920E-02 0.  1.
       -2   -1    0    0    0  501  0.00000000000E+00  0.00000000000E+00 -0.10114325962E+04  0.10114325962E+04  0.25500000920E-02 0. -1.
    10030    2    1    2    0    0  0.00000000000E+00  0.00000000000E+00  0.23106902022E+04  0.43335553946E+04  0.36661169031E+04 0.  0.
        4    1    3    3  502    0 -0.11889867125E+04 -0.12444434842E+04  0.19008586178E+04  0.25642921218E+04  0.12699999809E+01 0.  1.
       -4    1    3    3    0  502  0.11889867125E+04  0.12444434842E+04  0.40983158434E+03  0.17692632728E+04  0.12699999809E+01 0. -1.
</event>
<event>
 5   0  0.1666189E-07  0.3709853E+04  0.7818609E-02  0.8065782E-01
        2   -1    0    0  501    0  0.00000000000E+00  0.00000000000E+00  0.19921109709E+04  0.19921109709E+04  0.25500000920E-02 0.  1.
       -2   -1    0    0    0  501  0.00000000000E+00  0.00000000000E+00 -0.17271893684E+04  0.17271893684E+04  0.25500000920E-02 0. -1.
    10030    2    1    2    0    0  0.00000000000E+00  0.00000000000E+00  0.26492160247E+03  0.37193003393E+04  0.37098533069E+04 0.  0.
        4    1    3    3  502    0  0.13717530121E+03  0.17707006526E+04  0.66913078392E+03  0.18978765722E+04  0.12699999809E+01 0.  1.
       -4    1    3    3    0  502 -0.13717530121E+03 -0.17707006526E+04 -0.40420918145E+03  0.18214237671E+04  0.12699999809E+01 0. -1.
</event>
<event>
 5   0  0.5177000E-08  0.3731328E+04  0.7818609E-02  0.8061054E-01
       -1   -1    0    0    0  501  0.00000000000E+00  0.00000000000E+00  0.25262459459E+04  0.25262459459E+04  0.50400001928E-02 0.  1.
        1   -1    0    0  501    0  0.00000000000E+00  0.00000000000E+00 -0.13778161197E+04  0.13778161197E+04  0.50400001928E-02 0. -1.
    10030    2    1    2    0    0  0.00000000000E+00  0.00000000000E+00  0.11484298263E+04  0.39040620656E+04  0.37313281210E+04 0.  0.
        1    1    3    3  502    0  0.52106788160E+03  0.17758805077E+04  0.32785998947E+03  0.18795625788E+04  0.50400001928E-02 0.  1.
       -1    1    3    3    0  502 -0.52106788160E+03 -0.17758805077E+04  0.82056983678E+03  0.20244994868E+04  0.50400001928E-02 0. -1.
</event>
<event>
 5   0  0.1587026E-07  0.3708630E+04  0.7818609E-02  0.8066052E-01
        2   -1    0    0  501    0  0.00000000000E+00  0.00000000000E+00  0.16973826097E+04  0.16973826097E+04  0.25500000920E-02 0. -1.
       -2   -1    0    0    0  501  0.00000000000E+00  0.00000000000E+00 -0.20257564543E+04  0.20257564543E+04  0.25500000920E-02 0.  1.
    10030    2    1    2    0    0  0.00000000000E+00  0.00000000000E+00 -0.32837384457E+03  0.37231390640E+04  0.37086298155E+04 0.  0.
        3    1    3    3  502    0  0.11091526866E+04 -0.14190306292E+04 -0.60706605686E+03  0.19006306365E+04  0.10100000352E+00 0. -1.
       -3    1    3    3    0  502 -0.11091526866E+04  0.14190306292E+04  0.27869221229E+03  0.18225084275E+04  0.10100000352E+00 0.  1.
</event>
<event>
 5   0  0.1558258E-07  0.3747360E+04  0.7818609E-02  0.8057547E-01
       -2   -1    0    0    0  501  0.00000000000E+00  0.00000000000E+00  0.13410959972E+04  0.13410959972E+04  0.25500000920E-02 0.  1.
        2   -1    0    0  501    0  0.00000000000E+00  0.00000000000E+00 -0.26177664415E+04  0.26177664415E+04  0.25500000920E-02 0. -1.
    10030    2    1    2    0    0  0.00000000000E+00  0.00000000000E+00 -0.12766704443E+04  0.39588624387E+04  0.37473596552E+04 0.  0.
        1    1    3    3  502    0  0.17219297785E+04  0.55799861223E+03 -0.11496693126E+04  0.21443283661E+04  0.50400001928E-02 0. -1.
       -1    1    3    3    0  502 -0.17219297785E+04 -0.55799861223E+03 -0.12700113169E+03  0.18145340727E+04  0.50400001928E-02 0.  1.
</event>
<event>
 5   0  0.5177000E-08  0.3717487E+04  0.7818609E-02  0.8064097E-01
       -1   -1    0    0    0  501  0.00000000000E+00  0.00000000000E+00  0.16851845300E+04  0.16851845300E+04  0.50400001928E-02 0. -1.
        1   -1    0    0  501    0  0.00000000000E+00  0.00000000000E+00 -0.20501779389E+04  0.20501779389E+04  0.50400001928E-02 0.  1.
    10030    2    1    2    0    0  0.00000000000E+00  0.00000000000E+00 -0.36499340883E+03  0.37353624689E+04  0.37174874022E+04 0.  0.
        2    1    3    3  502    0  0.48310516529E+03  0.33872579828E+03  0.15885909671E+04  0.16946229752E+04  0.25500000920E-02 0. -1.
       -2    1    3    3    0  502 -0.48310516529E+03 -0.33872579828E+03 -0.19535843760E+04  0.20407394937E+04  0.25500000920E-02 0.  1.
</event>
<event>
 5   0  0.5177000E-08  0.3707271E+04  0.7818609E-02  0.8066352E-01
       -1   -1    0    0    0  501  0.00000000000E+00  0.00000000000E+00  0.14175119733E+04  0.14175119733E+04  0.50400001928E-02 0. -1.
        1   -1    0    0  501    0  0.00000000000E+00  0.00000000000E+00 -0.24239398227E+04  0.24239398227E+04  0.50400001928E-02 0.  1.
    10030    2    1    2    0    0  0.00000000000E+00  0.00000000000E+00 -0.10064278495E+04  0.38414517960E+04  0.37072705438E+04 0.  0.
        1    1    3    3  502    0  0.16511917153E+04 -0.74570814133E+03 -0.90911775591E+03  0.20270692655E+04  0.50400001928E-02 0. -1.
       -1    1    3    3    0  502 -0.16511917153E+04  0.74570814133E+03 -0.97310093570E+02  0.18143825306E+04  0.50400001928E-02 0.  1.
</event>
<event>
 5   0  0.5177000E-08  0.3678534E+04  0.7818609E-02  0.8072736E-01
        1   -1    0    0  501    0  0.00000000000E+00  0.00000000000E+00  0.12637710396E+04  0.12637710396E+04  0.50400001928E-02 0. -1.
       -1   -1    0    0    0  501  0.00000000000E+00  0.00000000000E+00 -0.26768323582E+04  0.26768323582E+04  0.50400001928E-02 0.  1.
    10030    2    1    2    0    0  0.00000000000E+00  0.00000000000E+00 -0.14130613186E+04  0.39406033978E+04  0.36785340625E+04 0.  0.
        2    1    3    3  502    0 -0.10561775058E+04 -0.13335277460E+04 -0.14557086641E+04  0.22389495055E+04  0.25500000920E-02 0. -1.
       -2    1    3    3    0  502  0.10561775058E+04  0.13335277460E+04  0.42647345566E+02  0.17016538923E+04  0.25500000920E-02 0.  1.
</event>
<event>
 5   0  0.1587026E-07  0.3678177E+04  0.7818609E-02  0.8072815E-01
        2   -1    0    0  501    0  0.00000000000E+00  0.00000000000E+00  0.25279610823E+04  0.25279610823E+04  0.25500000920E-02 0. -1.
       -2   -1    0    0    0  501  0.00000000000E+00  0.00000000000E+00 -0.13379347362E+04  0.13379347362E+04  0.25500000920E-02 0.  1.
    10030    2    1    2    0    0  0.00000000000E+00  0.00000000000E+00  0.11900263461E+04  0.38658958186E+04  0.36781772355E+04 0.  0.
        3    1    3    3  502    0  0.76247121829E+03 -0.66040433263E+03  0.22112692641E+04  0.24304748528E+04  0.10100000352E+00 0. -1.
       -3    1    3    3    0  502 -0.76247121829E+03  0.66040433263E+03 -0.10212429180E+04  0.14354209658E+04  0.10100000352E+00 0.  1.
</event>
<event>
 5   0  0.5177000E-08  0.3697735E+04  0.7818609E-02  0.8068464E-01
        1   -1    0    0  501    0  0.00000000000E+00  0.00000000000E+00  0.24504320819E+04  0.24504320819E+04  0.50400001928E-02 0. -1.
       -1   -1    0    0    0  501  0.00000000000E+00  0.00000000000E+00 -0.13949831593E+04  0.13949831593E+04  0.50400001928E-02 0.  1.
    10030    2    1    2    0    0  0.00000000000E+00  0.00000000000E+00  0.10554489226E+04  0.38454152411E+04  0.36977352459E+04 0.  0.
        2    1    3    3  502    0  0.13227333841E+04  0.10671276483E+04  0.12847581990E+04  0.21304902377E+04  0.25500000920E-02 0. -1.
       -2    1    3    3    0  502 -0.13227333841E+04 -0.10671276483E+04 -0.22930927639E+03  0.17149250034E+04  0.25500000920E-02 0.  1.
</event>
<event>
 5   0  0.1666189E-07  0.3464226E+04  0.7818609E-02  0.8122321E-01
        2   -1    0    0  501    0  0.00000000000E+00  0.00000000000E+00  0.19302116037E+04  0.19302116037E+04  0.25500000920E-02 0. -1.
       -2   -1    0    0    0  501  0.00000000000E+00  0.00000000000E+00 -0.15543454419E+04  0.15543454419E+04  0.25500000920E-02 0.  1.
    10030    2    1    2    0    0  0.00000000000E+00  0.00000000000E+00  0.37586616173E+03  0.34845570456E+04  0.34642260943E+04 0.  0.
        4    1    3    3  502    0  0.10932902958E+03  0.14852053857E+04 -0.70180672415E+03  0.16463056112E+04  0.12699999809E+01 0.  1.
       -4    1    3    3    0  502 -0.10932902958E+03 -0.14852053857E+04  0.10776728859E+04  0.18382514344E+04  0.12699999809E+01 0. -1.
</event>
<event>
 5   0  0.5177000E-08  0.3702319E+04  0.7818609E-02  0.8067448E-01
        1   -1    0    0  501    0  0.00000000000E+00  0.00000000000E+00  0.33247790907E+04  0.33247790907E+04  0.50400001928E-02 0.  1.
       -1   -1    0    0    0  501  0.00000000000E+00  0.00000000000E+00 -0.10306821838E+04  0.10306821838E+04  0.50400001928E-02 0. -1.
    10030    2    1    2    0    0  0.00000000000E+00  0.00000000000E+00  0.22940969069E+04  0.43554612744E+04  0.37023185026E+04 0.  0.
        3    1    3    3  502    0  0.40073258254E+03  0.91697358307E+02  0.32704019049E+04  0.32961376849E+04  0.10100000352E+00 0.  1.
       -3    1    3    3    0  502 -0.40073258254E+03 -0.91697358307E+02 -0.97630499793E+03  0.10593235896E+04  0.10100000352E+00 0. -1.
</event>
<event>
 5   0  0.5177000E-08  0.3696255E+04  0.7818609E-02  0.8068792E-01
       -1   -1    0    0    0  501  0.00000000000E+00  0.00000000000E+00  0.16010634676E+04  0.16010634676E+04  0.50400001928E-02 0.  1.
        1   -1    0    0  501    0  0.00000000000E+00  0.00000000000E+00 -0.21333160604E+04  0.21333160604E+04  0.50400001928E-02 0. -1.
    10030    2    1    2    0    0  0.00000000000E+00  0.00000000000E+00 -0.53225259277E+03  0.37343795280E+04  0.36962545417E+04 0.  0.
        1    1    3    3  502    0  0.17915076907E+04  0.45355596679E+03 -0.28533790666E+03  0.18699279510E+04  0.50400001928E-02 0. -1.
       -1    1    3    3    0  502 -0.17915076907E+04 -0.45355596679E+03 -0.24691468611E+03  0.18644515770E+04  0.50400001928E-02 0.  1.
</event>
<event>
 5   0  0.1666189E-07  0.3699605E+04  0.7818609E-02  0.8068049E-01
        2   -1    0    0  501    0  0.00000000000E+00  0.00000000000E+00  0.14201769923E+04  0.14201769923E+04  0.25500000920E-02 0.  1.
       -2   -1    0    0    0  501  0.00000000000E+00  0.00000000000E+00 -0.24093966782E+04  0.24093966782E+04  0.25500000920E-02 0. -1.
    10030    2    1    2    0    0  0.00000000000E+00  0.00000000000E+00 -0.98921968595E+03  0.38295736705E+04  0.36996052371E+04 0.  0.
        4    1    3    3  502    0  0.41346448612E+02  0.94676941969E+03 -0.21390297436E+04  0.23395580181E+04  0.12699999809E+01 0. -1.
       -4    1    3    3    0  502 -0.41346448612E+02 -0.94676941969E+03  0.11498100577E+04  0.14900156524E+04  0.12699999809E+01 0.  1.
</event>
<event>
 5   0  0.1686284E-07  0.3694836E+04  0.7818609E-02  0.8069107E-01
       -2   -1    0    0    0  501  0.00000000000E+00  0.00000000000E+00  0.20784553164E+04  0.20784553164E+04  0.25500000920E-02 0. -1.
        2   -1    0    0  501    0  0.00000000000E+00  0.00000000000E+00 -0.16420625072E+04  0.16420625072E+04  0.25500000920E-02 0.  1.
    10030    2    1    2    0    0  0.00000000000E+00  0.00000000000E+00  0.43639280920E+03  0.37205178236E+04  0.36948361523E+04 0.  0.
        5    1    3    3  502    0  0.94526986800E+03  0.98160333060E+03 -0.10378111156E+04  0.17129373087E+04  0.46999998093E+01 0.  1.
       -5    1    3    3    0  502 -0.94526986800E+03 -0.98160333060E+03  0.14742039248E+04  0.20075805149E+04  0.46999998093E+01 0. -1.
</event>
<event>
 5   0  0.5177000E-08  0.3699235E+04  0.7818609E-02  0.8068131E-01
        1   -1    0    0  501    0  0.00000000000E+00  0.00000000000E+00  0.13511873818E+04  0.13511873818E+04  0.50400001928E-02 0. -1.
       -1   -1    0    0    0  501  0.00000000000E+00  0.00000000000E+00 -0.25319093840E+04  0.25319093840E+04  0.50400001928E-02 0.  1.
    10030    2    1    2    0    0  0.00000000000E+00  0.00000000000E+00 -0.11807220023E+04  0.38830967658E+04  0.36992345216E+04 0.  0.
        2    1    3    3  502    0  0.29682913664E+03  0.27469204621E+02 -0.25065277792E+04  0.25241916729E+04  0.25500000920E-02 0.  1.
       -2    1    3    3    0  502 -0.29682913664E+03 -0.27469204621E+02  0.13258057769E+04  0.13589050929E+04  0.25500000920E-02 0. -1.
</event>
<event>
 5   0  0.5177000E-08  0.3701352E+04  0.7818609E-02  0.8067662E-01
       -1   -1    0    0    0  501  0.00000000000E+00  0.00000000000E+00  0.25995417386E+04  0.25995417386E+04  0.50400001928E-02 0.  1.
        1   -1    0    0  501    0  0.00000000000E+00  0.00000000000E+00 -0.13175404877E+04  0.13175404877E+04  0.50400001928E-02 0. -1.
    10030    2    1    2    0    0  0.00000000000E+00  0.00000000000E+00  0.12820012510E+04  0.39170822263E+04  0.37013519098E+04 0.  0.
        2    1    3    3  502    0  0.12842323219E+04  0.13316086644E+04  0.69462126990E+03  0.19760903320E+04  0.25500000920E-02 0. -1.
       -2    1    3    3    0  502 -0.12842323219E+04 -0.13316086644E+04  0.58737998107E+03  0.19409918943E+04  0.25500000920E-02 0.  1.
</event>
<event>
 5   0  0.5177000E-08  0.3670186E+04  0.7818609E-02  0.8074601E-01
        1   -1    0    0  501    0  0.00000000000E+00  0.00000000000E+00  0.19023053103E+04  0.19023053103E+04  0.50400001928E-02 0. -1.
       -1   -1    0    0    0  501  0.00000000000E+00  0.00000000000E+00 -0.17702553457E+04  0.17702553457E+04  0.50400001928E-02 0.  1.
    10030    2    1    2    0    0  0.00000000000E+00  0.00000000000E+00  0.13204996459E+03  0.36725606560E+04  0.36701859052E+04 0.  0.
        1    1    3    3  502    0  0.14360210492E+04  0.88768246948E+03 -0.65376619185E+03  0.18103996393E+04  0.50400001928E-02 0.  1.
       -1    1    3    3    0  502 -0.14360210492E+04 -0.88768246948E+03  0.78581615644E+03  0.18621610167E+04  0.50400001928E-02 0. -1.
</event>
<event>
 5   0  0.5181371E-08  0.3702828E+04  0.7818609E-02  0.8067335E-01
       -1   -1    0    0    0  501  0.00000000000E+00  0.00000000000E+00  0.13406839030E+04  0.13406839030E+04  0.50400001928E-02 0. -1.
        1   -1    0    0  501    0  0.00000000000E+00  0.00000000000E+00 -0.25567055467E+04  0.25567055467E+04  0.50400001928E-02 0.  1.
    10030    2    1    2    0    0  0.00000000000E+00  0.00000000000E+00 -0.12160216437E+04  0.38973894498E+04  0.37028280929E+04 0.  0.
        5    1    3    3  502    0 -0.77758414792E+03 -0.40111911717E+02 -0.23759920563E+04  0.25003212622E+04  0.46999998093E+01 0.  1.
       -5    1    3    3    0  502  0.77758414792E+03  0.40111911717E+02  0.11599704126E+04  0.13970681876E+04  0.46999998093E+01 0. -1.
</event>
<event>
 5   0  0.5177000E-08  0.3703697E+04  0.7818609E-02  0.8067143E-01
       -1   -1    0    0    0  501  0.00000000000E+00  0.00000000000E+00  0.20355751185E+04  0.20355751185E+04  0.50400001928E-02 0. -1.
        1   -1    0    0  501    0  0.00000000000E+00  0.00000000000E+00 -0.16847047884E+04  0.16847047884E+04  0.50400001928E-02 0.  1.
    10030    2    1    2    0    0  0.00000000000E+00  0.00000000000E+00  0.35087033006E+03  0.37202799069E+04  0.37036971524E+04 0.  0.
        3    1    3    3  502    0  0.87998599304E+03 -0.14821806047E+04 -0.50443236234E+03  0.17960196857E+04  0.10100000352E+00 0.  1.
       -3    1    3    3    0  502 -0.87998599304E+03  0.14821806047E+04  0.85530269240E+03  0.19242602212E+04  0.10100000352E+00 0. -1.
</event>
<event>
 5   0  0.1558258E-07  0.3701503E+04  0.7818609E-02  0.8067629E-01
       -2   -1    0    0    0  501  0.00000000000E+00  0.00000000000E+00  0.14772821288E+04  0.14772821288E+04  0.25500000920E-02 0. -1.
        2   -1    0    0  501    0  0.00000000000E+00  0.00000000000E+00 -0.23186366879E+04  0.23186366879E+04  0.25500000920E-02 0.  1.
    10030    2    1    2    0    0  0.00000000000E+00  0.00000000000E+00 -0.84135455908E+03  0.37959188166E+04  0.37015026906E+04 0.  0.
        1    1    3    3  502    0  0.46350352413E+03  0.15627138741E+04 -0.13196037136E+04  0.20972038838E+04  0.50400001928E-02 0.  1.
       -1    1    3    3    0  502 -0.46350352413E+03 -0.15627138741E+04  0.47824915457E+03  0.16987149328E+04  0.50400001928E-02 0. -1.
</event>
<event>
 5   0  0.5181371E-08  0.3691494E+04  0.7818609E-02  0.8069849E-01
       -1   -1    0    0    0  501  0.00000000000E+00  0.00000000000E+00  0.22133844930E+04  0.22133844930E+04  0.50400001928E-02 0.  1.
        1   -1    0    0  501    0  0.00000000000E+00  0.00000000000E+00 -0.15391732706E+04  0.15391732706E+04  0.50400001928E-02 0. -1.
    10030    2    1    2    0    0  0.00000000000E+00  0.00000000000E+00  0.67421122244E+03  0.37525577636E+04  0.36914941415E+04 0.  0.
        5    1    3    3  502    0  0.13855778939E+04  0.60284406791E+03  0.14145981480E+04  0.20698688559E+04  0.46999998093E+01 0.  1.
       -5    1    3    3    0  502 -0.13855778939E+04 -0.60284406791E+03 -0.74038692559E+03  0.16826889076E+04  0.46999998093E+01 0. -1.
</event>
<event>
 5   0  0.5177000E-08  0.3741594E+04  0.7818609E-02  0.8058806E-01
        1   -1    0    0  501    0  0.00000000000E+00  0.00000000000E+00  0.19647494467E+04  0.19647494467E+04  0.50400001928E-02 0.  1.
       -1   -1    0    0    0  501  0.00000000000E+00  0.00000000000E+00 -0.17813373540E+04  0.17813373540E+04  0.50400001928E-02 0. -1.
    10030    2    1    2    0    0  0.00000000000E+00  0.00000000000E+00  0.18341209272E+03  0.37460868007E+04  0.37415940884E+04 0.  0.
        1    1    3    3  502    0 -0.65278152424E+03 -0.17487403179E+04 -0.33604787078E+02  0.18669080587E+04  0.50400001928E-02 0. -1.
       -1    1    3    3    0  502  0.65278152424E+03  0.17487403179E+04  0.21701687980E+03  0.18791787419E+04  0.50400001928E-02 0.  1.
</event>
<event>
 5   0  0.5177000E-08  0.3685177E+04  0.7818609E-02  0.8071255E-01
        1   -1    0    0  501    0  0.00000000000E+00  0.00000000000E+00  0.12134863606E+04  0.12134863606E+04  0.50400001928E-02 0. -1.
       -1   -1    0    0    0  501  0.00000000000E+00  0.00000000000E+00 -0.27978329133E+04  0.27978329133E+04  0.50400001928E-02 0.  1.
    10030    2    1    2    0    0  0.00000000000E+00  0.00000000000E+00 -0.15843465527E+04  0.40113192739E+04  0.36851768367E+04 0.  0.
        3    1    3    3  502    0 -0.17057174488E+04  0.32037524492E+03 -0.11851525478E+03  0.17395856370E+04  0.10100000352E+00 0. -1.
       -3    1    3    3    0  502  0.17057174488E+04 -0.32037524492E+03 -0.14658312979E+04  0.22717336369E+04  0.10100000352E+00 0.  1.
</event>
<event>
 5   0  0.5177000E-08  0.3688519E+04  0.7818609E-02  0.8070511E-01
       -1   -1    0    0    0  501  0.00000000000E+00  0.00000000000E+00  0.16397998242E+04  0.16397998242E+04  0.50400001928E-02 0.  1.
        1   -1    0    0  501    0  0.00000000000E+00  0.00000000000E+00 -0.20742129143E+04  0.20742129143E+04  0.50400001928E-02 0. -1.
    10030    2    1    2    0    0  0.00000000000E+00  0.00000000000E+00 -0.43441309008E+03  0.37140127386E+04  0.36885194712E+04 0.  0.
        4    1    3    3  502    0 -0.53200930908E+03 -0.17646968748E+04 -0.28170702601E+03  0.18645507304E+04  0.12699999809E+01 0. -1.
       -4    1    3    3    0  502  0.53200930908E+03  0.17646968748E+04 -0.15270606407E+03  0.18494620082E+04  0.12699999809E+01 0.  1.
</event>
<event>
 5   0  0.5177000E-08  0.3696274E+04  0.7818609E-02  0.8068788E-01
       -1   -1    0    0    0  501  0.00000000000E+00  0.00000000000E+00  0.26979258811E+04  0.26979258811E+04  0.50400001928E-02 0.  1.
        1   -1    0    0  501    0  0.00000000000E+00  0.00000000000E+00 -0.12660137086E+04  0.12660137086E+04  0.50400001928E-02 0. -1.
    10030    2    1    2    0    0  0.00000000000E+00  0.00000000000E+00  0.14319121725E+04  0.39639395897E+04  0.36962744218E+04 0.  0.
        3    1    3    3  502    0 -0.15733535209E+04  0.10111159722E+03 -0.31821347669E+03  0.16083919559E+04  0.10100000352E+00 0. -1.
       -3    1    3    3    0  502  0.15733535209E+04 -0.10111159722E+03  0.17501256492E+04  0.23555476338E+04  0.10100000352E+00 0.  1.
</event>
<event>
 5   0  0.1558258E-07  0.3690664E+04  0.7818609E-02  0.8070034E-01
       -2   -1    0    0    0  501  0.00000000000E+00  0.00000000000E+00  0.13781499166E+04  0.13781499166E+04  0.25500000920E-02 0. -1.
        2   -1    0    0  501    0  0.00000000000E+00  0.00000000000E+00 -0.24708846421E+04  0.24708846421E+04  0.25500000920E-02 0.  1.
    10030    2    1    2    0    0  0.00000000000E+00  0.00000000000E+00 -0.10927347255E+04  0.38490345586E+04  0.36906636061E+04 0.  0.
        1    1    3    3  502    0  0.60334018416E+03 -0.39256227011E+03 -0.23184343627E+04  0.24276042528E+04  0.50400001928E-02 0.  1.
       -1    1    3    3    0  502 -0.60334018416E+03  0.39256227011E+03  0.12256996372E+04  0.14214303059E+04  0.50400001928E-02 0. -1.
</event>
<event>
 5   0  0.1587026E-07  0.3699562E+04  0.7818609E-02  0.8068059E-01
       -2   -1    0    0    0  501  0.00000000000E+00  0.00000000000E+00  0.26501956732E+04  0.26501956732E+04  0.25500000920E-02 0. -1.
        2   -1    0    0  501    0  0.00000000000E+00  0.00000000000E+00 -0.12911085159E+04  0.12911085159E+04  0.25500000920E-02 0.  1.
    10030    2    1    2    0    0  0.00000000000E+00  0.00000000000E+00  0.13590871574E+04  0.39413041891E+04  0.36995622457E+04 0.  0.
        3    1    3    3  502    0  0.15499612698E+03 -0.15528892547E+04  0.17375112907E+04  0.23354730425E+04  0.10100000352E+00 0. -1.
       -3    1    3    3    0  502 -0.15499612698E+03  0.15528892547E+04 -0.37842413333E+03  0.16058311466E+04  0.10100000352E+00 0.  1.
</event>
<event>
 5   0  0.5177000E-08  0.3682867E+04  0.7818609E-02  0.8071769E-01
       -1   -1    0    0    0  501  0.00000000000E+00  0.00000000000E+00  0.10969329009E+04  0.10969329009E+04  0.50400001928E-02 0.  1.
        1   -1    0    0  501    0  0.00000000000E+00  0.00000000000E+00 -0.30912354245E+04  0.30912354245E+04  0.50400001928E-02 0. -1.
    10030    2    1    2    0    0  0.00000000000E+00  0.00000000000E+00 -0.19943025236E+04  0.41881683253E+04  0.36828672751E+04 0.  0.
        3    1    3    3  502    0  0.65611219068E+03 -0.72008404987E+03 -0.27742012664E+04  0.29402715729E+04  0.10100000352E+00 0. -1.
       -3    1    3    3    0  502 -0.65611219068E+03  0.72008404987E+03  0.77989874278E+03  0.12478967525E+04  0.10100000352E+00 0.  1.
</event>
<event>
 5   0  0.1686284E-07  0.3717399E+04  0.7818609E-02  0.8064117E-01
        2   -1    0    0  501    0  0.00000000000E+00  0.00000000000E+00  0.13748498676E+04  0.13748498676E+04  0.25500000920E-02 0. -1.
       -2   -1    0    0    0  501  0.00000000000E+00  0.00000000000E+00 -0.25128292350E+04  0.25128292350E+04  0.25500000920E-02 0.  1.
    10030    2    1    2    0    0  0.00000000000E+00  0.00000000000E+00 -0.11379793673E+04  0.38876791026E+04  0.37173985211E+04 0.  0.
        5    1    3    3  502    0  0.56591721767E+03 -0.11678012769E+03 -0.24165009977E+04  0.24846325799E+04  0.46999998093E+01 0.  1.
       -5    1    3    3    0  502 -0.56591721767E+03  0.11678012769E+03  0.12785216304E+04  0.14030465227E+04  0.46999998093E+01 0. -1.
</event>
<event>
 5   0  0.5177000E-08  0.3701406E+04  0.7818609E-02  0.8067650E-01
        1   -1    0    0  501    0  0.00000000000E+00  0.00000000000E+00  0.18602027222E+04  0.18602027222E+04  0.50400001928E-02 0. -1.
       -1   -1    0    0    0  501  0.00000000000E+00  0.00000000000E+00 -0.18412519092E+04  0.18412519092E+04  0.50400001928E-02 0.  1.
    10030    2    1    2    0    0  0.00000000000E+00  0.00000000000E+00  0.18950812948E+02  0.37014546314E+04  0.37014061186E+04 0.  0.
        4    1    3    3  502    0 -0.42041920599E+03  0.68722526991E+03  0.16756512947E+04  0.18592578505E+04  0.12699999809E+01 0. -1.
       -4    1    3    3    0  502  0.42041920599E+03 -0.68722526991E+03 -0.16567004818E+04  0.18421967809E+04  0.12699999809E+01 0.  1.
</event>
<event>
 5   0  0.5177000E-08  0.3714664E+04  0.7818609E-02  0.8064720E-01
        1   -1    0    0  501    0  0.00000000000E+00  0.00000000000E+00  0.17899486644E+04  0.17899486644E+04  0.50400001928E-02 0.  1.
       -1   -1    0    0    0  501  0.00000000000E+00  0.00000000000E+00 -0.19272518736E+04  0.19272518736E+04  0.50400001928E-02 0. -1.
    10030    2    1    2    0    0  0.00000000000E+00  0.00000000000E+00 -0.13730320921E+03  0.37172005380E+04  0.37146638701E+04 0.  0.
        2    1    3    3  502    0  0.10988465930E+04  0.12625121468E+04 -0.87436052192E+03  0.18883609501E+04  0.25500000920E-02 0. -1.
       -2    1    3    3    0  502 -0.10988465930E+04 -0.12625121468E+04  0.73705731272E+03  0.18288395878E+04  0.25500000920E-02 0.  1.
</event>
<event>
 5   0  0.5177000E-08  0.3682555E+04  0.7818609E-02  0.8071839E-01
       -1   -1    0    0    0  501  0.00000000000E+00  0.00000000000E+00  0.21662084104E+04  0.21662084104E+04  0.50400001928E-02 0.  1.
        1   -1    0    0  501    0  0.00000000000E+00  0.00000000000E+00 -0.15650863539E+04  0.15650863539E+04  0.50400001928E-02 0. -1.
    10030    2    1    2    0    0  0.00000000000E+00  0.00000000000E+00  0.60112205651E+03  0.37312947644E+04  0.36825552123E+04 0.  0.
        1    1    3    3  502    0 -0.17027293252E+04 -0.45421540319E+03 -0.24007801837E+03  0.17785489148E+04  0.50400001928E-02 0. -1.
       -1    1    3    3    0  502  0.17027293252E+04  0.45421540319E+03  0.84120007489E+03  0.19527458496E+04  0.50400001928E-02 0.  1.
</event>
<event>
 5   0  0.5181371E-08  0.3690430E+04  0.7818609E-02  0.8070086E-01
        1   -1    0    0  501    0  0.00000000000E+00  0.00000000000E+00  0.24116090366E+04  0.24116090366E+04  0.50400001928E-02 0. -1.
       -1   -1    0    0    0  501  0.00000000000E+00  0.00000000000E+00 -0.14118454232E+04  0.14118454232E+04  0.50400001928E-02 0.  1.
    10030    2    1    2    0    0  0.00000000000E+00  0.00000000000E+00  0.99976361343E+03  0.38234544599E+04  0.36904304253E+04 0.  0.
        5    1    3    3  502    0 -0.34056942861E+03 -0.50069882678E+03 -0.13059639954E+04  0.14395314856E+04  0.46999998093E+01 0.  1.
       -5    1    3    3    0  502  0.34056942861E+03  0.50069882678E+03  0.23057276088E+04  0.23839229742E+04  0.46999998093E+01 0. -1.
</event>
<event>
 5   0  0.1686284E-07  0.3702847E+04  0.7818609E-02  0.8067331E-01
       -2   -1    0    0    0  501  0.00000000000E+00  0.00000000000E+00  0.26628949761E+04  0.26628949761E+04  0.25500000920E-02 0.  1.
        2   -1    0    0  501    0  0.00000000000E+00  0.00000000000E+00 -0.12872342680E+04  0.12872342680E+04  0.25500000920E-02 0. -1.
    10030    2    1    2    0    0  0.00000000000E+00  0.00000000000E+00  0.13756607081E+04  0.39501292440E+04  0.37028473721E+04 0.  0.
        5    1    3    3  502    0 -0.13126672466E+04  0.94383643050E+03 -0.27453731809E+03  0.16399132101E+04  0.46999998093E+01 0. -1.
       -5    1    3    3    0  502  0.13126672466E+04 -0.94383643050E+03  0.16501980262E+04  0.23102160339E+04  0.46999998093E+01 0.  1.
</event>
<event>
 5   0  0.1666189E-07  0.3698421E+04  0.7818609E-02  0.8068312E-01
       -2   -1    0    0    0  501  0.00000000000E+00  0.00000000000E+00  0.15764172962E+04  0.15764172962E+04  0.25500000920E-02 0.  1.
        2   -1    0    0  501    0  0.00000000000E+00  0.00000000000E+00 -0.21692090118E+04  0.21692090118E+04  0.25500000920E-02 0. -1.
    10030    2    1    2    0    0  0.00000000000E+00  0.00000000000E+00 -0.59279171561E+03  0.37456263079E+04  0.36984205305E+04 0.  0.
        4    1    3    3  502    0  0.14166498681E+04  0.13847118089E+03  0.89913986522E+03  0.16836048310E+04  0.12699999809E+01 0.  1.
       -4    1    3    3    0  502 -0.14166498681E+04 -0.13847118089E+03 -0.14919315808E+04  0.20620214770E+04  0.12699999809E+01 0. -1.
</event>
<event>
 5   0  0.5181371E-08  0.3699312E+04  0.7818609E-02  0.8068114E-01
        1   -1    0    0  501    0  0.00000000000E+00  0.00000000000E+00  0.20699140728E+04  0.20699140728E+04  0.50400001928E-02 0. -1.
       -1   -1    0    0    0  501  0.00000000000E+00  0.00000000000E+00 -0.16528352349E+04  0.16528352349E+04  0.50400001928E-02 0.  1.
    10030    2    1    2    0    0  0.00000000000E+00  0.00000000000E+00  0.41707883794E+03  0.37227493077E+04  0.36993117807E+04 0.  0.
        5    1    3    3  502    0 -0.88866528084E+03 -0.87930748685E+02  0.18386003392E+04  0.20439988002E+04  0.46999998093E+01 0. -1.
       -5    1    3    3    0  502  0.88866528084E+03  0.87930748685E+02 -0.14215215012E+04  0.16787505075E+04  0.46999998093E+01 0.  1.
</event>
<event>
 5   0  0.1558258E-07  0.3702603E+04  0.7818609E-02  0.8067385E-01
       -2   -1    0    0    0  501  0.00000000000E+00  0.00000000000E+00  0.16031576757E+04  0.16031576757E+04  0.25500000920E-02 0.  1.
        2   -1    0    0  501    0  0.00000000000E+00  0.00000000000E+00 -0.21378537344E+04  0.21378537344E+04  0.25500000920E-02 0. -1.
    10030    2    1    2    0    0  0.00000000000E+00  0.00000000000E+00 -0.53469605878E+03  0.37410114101E+04  0.37026026650E+04 0.  0.
        1    1    3    3  502    0  0.39636963971E+03  0.17923358088E+04 -0.51013233947E+03  0.19052064315E+04  0.50400001928E-02 0. -1.
       -1    1    3    3    0  502 -0.39636963971E+03 -0.17923358088E+04 -0.24563719308E+02  0.18358049786E+04  0.50400001928E-02 0.  1.
</event>
<event>
 5   0  0.1666189E-07  0.3697175E+04  0.7818609E-02  0.8068588E-01
       -2   -1    0    0    0  501  0.00000000000E+00  0.00000000000E+00  0.17079974648E+04  0.17079974648E+04  0.25500000920E-02 0.  1.
        2   -1    0    0  501    0  0.00000000000E+00  0.00000000000E+00 -0.20007494811E+04  0.20007494811E+04  0.25500000920E-02 0. -1.
    10030    2    1    2    0    0  0.00000000000E+00  0.00000000000E+00 -0.29275201626E+03  0.37087469458E+04  0.36971746193E+04 0.  0.
        4    1    3    3  502    0 -0.43930315456E+03 -0.12849720435E+04  0.11117958338E+04  0.17550589743E+04  0.12699999809E+01 0.  1.
       -4    1    3    3    0  502  0.43930315456E+03  0.12849720435E+04 -0.14045478501E+04  0.19536879716E+04  0.12699999809E+01 0. -1.
</event>
<event>
 5   0  0.1666189E-07  0.3694879E+04  0.7818609E-02  0.8069098E-01
       -2   -1    0    0    0  501  0.00000000000E+00  0.00000000000E+00  0.18005560935E+04  0.18005560935E+04  0.25500000920E-02 0.  1.
        2   -1    0    0  501    0  0.00000000000E+00  0.00000000000E+00 -0.18955438966E+04  0.18955438966E+04  0.25500000920E-02 0. -1.
    10030    2    1    2    0    0  0.00000000000E+00  0.00000000000E+00 -0.94987803068E+02  0.36960999901E+04  0.36948792205E+04 0.  0.
        4    1    3    3  502    0  0.30971948331E+03 -0.68835001467E+03  0.16392659274E+04  0.18047011649E+04  0.12699999809E+01 0.  1.
       -4    1    3    3    0  502 -0.30971948331E+03  0.68835001467E+03 -0.17342537305E+04  0.18913988251E+04  0.12699999809E+01 0. -1.
</event>
<event>
 5   0  0.5177000E-08  0.3699776E+04  0.7818609E-02  0.8068011E-01
        1   -1    0    0  501    0  0.00000000000E+00  0.00000000000E+00  0.27804999719E+04  0.27804999719E+04  0.50400001928E-02 0.  1.
       -1   -1    0    0    0  501  0.00000000000E+00  0.00000000000E+00 -0.12307448184E+04  0.12307448184E+04  0.50400001928E-02 0. -1.
    10030    2    1    2    0    0  0.00000000000E+00  0.00000000000E+00  0.15497551535E+04  0.40112447903E+04  0.36997761733E+04 0.  0.
        1    1    3    3  502    0  0.14207439078E+04  0.33724892982E+03  0.20061975810E+04  0.24813461722E+04  0.50400001928E-02 0.  1.
       -1    1    3    3    0  502 -0.14207439078E+04 -0.33724892982E+03 -0.45644242751E+03  0.15298986182E+04  0.50400001928E-02 0. -1.
</event>
<event>
 5   0  0.5177000E-08  0.3701804E+04  0.7818609E-02  0.8067562E-01
       -1   -1    0    0    0  501  0.00000000000E+00  0.00000000000E+00  0.19064257505E+04  0.19064257505E+04  0.50400001928E-02 0. -1.
        1   -1    0    0  501    0  0.00000000000E+00  0.00000000000E+00 -0.17969956751E+04  0.17969956751E+04  0.50400001928E-02 0.  1.
    10030    2    1    2    0    0  0.00000000000E+00  0.00000000000E+00  0.10943007538E+03  0.37034214255E+04  0.37018043322E+04 0.  0.
        3    1    3    3  502    0 -0.10786800318E+04 -0.10495359443E+04 -0.10231424963E+04  0.18198617770E+04  0.10100000352E+00 0.  1.
       -3    1    3    3    0  502  0.10786800318E+04  0.10495359443E+04  0.11325725716E+04  0.18835596486E+04  0.10100000352E+00 0. -1.
</event>
<event>
 5   0  0.5177000E-08  0.3675223E+04  0.7818609E-02  0.8073475E-01
       -1   -1    0    0    0  501  0.00000000000E+00  0.00000000000E+00  0.11415089996E+04  0.11415089996E+04  0.50400001928E-02 0. -1.
        1   -1    0    0  501    0  0.00000000000E+00  0.00000000000E+00 -0.29582042271E+04  0.29582042271E+04  0.50400001928E-02 0.  1.
    10030    2    1    2    0    0  0.00000000000E+00  0.00000000000E+00 -0.18166952275E+04  0.40997132266E+04  0.36752233934E+04 0.  0.
        3    1    3    3  502    0  0.68790987116E+03  0.16211435242E+04 -0.14938423406E+04  0.23093053643E+04  0.10100000352E+00 0.  1.
       -3    1    3    3    0  502 -0.68790987116E+03 -0.16211435242E+04 -0.32285288686E+03  0.17904078623E+04  0.10100000352E+00 0. -1.
</event>
<event>
 5   0  0.1666189E-07  0.3688035E+04  0.7818609E-02  0.8070619E-01
        2   -1    0    0  501    0  0.00000000000E+00  0.00000000000E+00  0.23913726258E+04  0.23913726258E+04  0.25500000920E-02 0.  1.
       -2   -1    0    0    0  501  0.00000000000E+00  0.00000000000E+00 -0.14219449799E+04  0.14219449799E+04  0.25500000920E-02 0. -1.
    10030    2    1    2    0    0  0.00000000000E+00  0.00000000000E+00  0.96942764590E+03  0.38133176057E+04  0.36880348698E+04 0.  0.
        4    1    3    3  502    0 -0.26726584041E+03  0.12486633667E+04 -0.89081903798E+03  0.15569686587E+04  0.12699999809E+01 0. -1.
       -4    1    3    3    0  502  0.26726584041E+03 -0.12486633667E+04  0.18602466839E+04  0.22563489470E+04  0.12699999809E+01 0.  1.
</event>
<event>
 5   0  0.5177000E-08  0.3695674E+04  0.7818609E-02  0.8068921E-01
       -1   -1    0    0    0  501  0.00000000000E+00  0.00000000000E+00  0.17829171093E+04  0.17829171093E+04  0.50400001928E-02 0.  1.
        1   -1    0    0  501    0  0.00000000000E+00  0.00000000000E+00 -0.19151211157E+04  0.19151211157E+04  0.50400001928E-02 0. -1.
    10030    2    1    2    0    0  0.00000000000E+00  0.00000000000E+00 -0.13220400637E+03  0.36980382251E+04  0.36956743383E+04 0.  0.
        4    1    3    3  502    0 -0.10079173950E+04  0.15485966085E+04 -0.44836122534E+02  0.18482588622E+04  0.12699999809E+01 0.  1.
       -4    1    3    3    0  502  0.10079173950E+04 -0.15485966085E+04 -0.87367883835E+02  0.18497793628E+04  0.12699999809E+01 0. -1.
</event>
<event>
 5   0  0.1558258E-07  0.3696263E+04  0.7818609E-02  0.8068791E-01
       -2   -1    0    0    0  501  0.00000000000E+00  0.00000000000E+00  0.21621358097E+04  0.21621358097E+04  0.25500000920E-02 0.  1.
        2   -1    0    0  501    0  0.00000000000E+00  0.00000000000E+00 -0.15797294353E+04  0.15797294353E+04  0.25500000920E-02 0. -1.
    10030    2    1    2    0    0  0.00000000000E+00  0.00000000000E+00  0.58240637442E+03  0.37418652450E+04  0.36962627513E+04 0.  0.
        1    1    3    3  502    0 -0.10292642605E+04 -0.12923906298E+04  0.11296307791E+04  0.20014305271E+04  0.50400001928E-02 0.  1.
       -1    1    3    3    0  502  0.10292642605E+04  0.12923906298E+04 -0.54722440465E+03  0.17404347178E+04  0.50400001928E-02 0. -1.
</event>
<event>
 5   0  0.5181371E-08  0.3708288E+04  0.7818609E-02  0.8066128E-01
        1   -1    0    0  501    0  0.00000000000E+00  0.00000000000E+00  0.22030971912E+04  0.22030971912E+04  0.50400001928E-02 0.  1.
       -1   -1    0    0    0  501  0.00000000000E+00  0.00000000000E+00 -0.15604625485E+04  0.15604625485E+04  0.50400001928E-02 0. -1.
    10030    2    1    2    0    0  0.00000000000E+00  0.00000000000E+00  0.64263464269E+03  0.37635597396E+04  0.37082883693E+04 0.  0.
        5    1    3    3  502    0 -0.55982465624E+03 -0.46928607961E+03  0.20508877006E+04  0.21771071449E+04  0.46999998093E+01 0.  1.
       -5    1    3    3    0  502  0.55982465624E+03  0.46928607961E+03 -0.14082530579E+04  0.15864525947E+04  0.46999998093E+01 0. -1.
</event>
<event>
 5   0  0.1587026E-07  0.3691148E+04  0.7818609E-02  0.8069926E-01
        2   -1    0    0  501    0  0.00000000000E+00  0.00000000000E+00  0.13018381565E+04  0.13018381565E+04  0.25500000920E-02 0. -1.
       -2   -1    0    0    0  501  0.00000000000E+00  0.00000000000E+00 -0.26164105527E+04  0.26164105527E+04  0.25500000920E-02 0.  1.
    10030    2    1    2    0    0  0.00000000000E+00  0.00000000000E+00 -0.13145723962E+04  0.39182487093E+04  0.36911478381E+04 0.  0.
        3    1    3    3  502    0 -0.15931636082E+04 -0.36015040070E+03 -0.15693737912E+04  0.22651297315E+04  0.10100000352E+00 0.  1.
       -3    1    3    3    0  502  0.15931636082E+04  0.36015040070E+03  0.25480139502E+03  0.16531189778E+04  0.10100000352E+00 0. -1.
</event>
<event>
 5   0  0.1558258E-07  0.3696540E+04  0.7818609E-02  0.8068729E-01
       -2   -1    0    0    0  501  0.00000000000E+00  0.00000000000E+00  0.15221662487E+04  0.15221662487E+04  0.25500000920E-02 0. -1.
        2   -1    0    0  501    0  0.00000000000E+00  0.00000000000E+00 -0.22442377006E+04  0.22442377006E+04  0.25500000920E-02 0.  1.
    10030    2    1    2    0    0  0.00000000000E+00  0.00000000000E+00 -0.72207145190E+03  0.37664039492E+04  0.36965404809E+04 0.  0.
        1    1    3    3  502    0  0.14319473206E+04  0.13051545522E+03 -0.15442741874E+04  0.21100450656E+04  0.50400001928E-02 0.  1.
       -1    1    3    3    0  502 -0.14319473206E+04 -0.13051545522E+03  0.82220273553E+03  0.16563588836E+04  0.50400001928E-02 0. -1.
</event>
<event>
 5   0  0.5181371E-08  0.3682589E+04  0.7818609E-02  0.8071831E-01
        1   -1    0    0  501    0  0.00000000000E+00  0.00000000000E+00  0.20027576799E+04  0.20027576799E+04  0.50400001928E-02 0.  1.
       -1   -1    0    0    0  501  0.00000000000E+00  0.00000000000E+00 -0.16928488720E+04  0.16928488720E+04  0.50400001928E-02 0. -1.
    10030    2    1    2    0    0  0.00000000000E+00  0.00000000000E+00  0.30990880786E+03  0.36956065519E+04  0.36825893495E+04 0.  0.
        5    1    3    3  502    0  0.12437668192E+04  0.12676505439E+04 -0.33302587032E+03  0.18068818784E+04  0.46999998093E+01 0. -1.
       -5    1    3    3    0  502 -0.12437668192E+04 -0.12676505439E+04  0.64293467818E+03  0.18887246735E+04  0.46999998093E+01 0.  1.
</event>
<event>
 5   0  0.5177000E-08  0.3701803E+04  0.7818609E-02  0.8067562E-01
       -1   -1    0    0    0  501  0.00000000000E+00  0.00000000000E+00  0.15682124916E+04  0.15682124916E+04  0.50400001928E-02 0.  1.
        1   -1    0    0  501    0  0.00000000000E+00  0.00000000000E+00 -0.21845485862E+04  0.21845485862E+04  0.50400001928E-02 0. -1.
    10030    2    1    2    0    0  0.00000000000E+00  0.00000000000E+00 -0.61633609466E+03  0.37527610778E+04  0.37018030101E+04 0.  0.
        2    1    3    3  502    0 -0.98496164590E+03  0.12823034485E+04  0.60500071372E+03  0.17264059319E+04  0.25500000920E-02 0.  1.
       -2    1    3    3    0  502  0.98496164590E+03 -0.12823034485E+04 -0.12213368084E+04  0.20263551459E+04  0.25500000920E-02 0. -1.
</event>
<event>
 5   0  0.1658770E-07  0.3696588E+04  0.7818609E-02  0.8068718E-01
       -2   -1    0    0    0  501  0.00000000000E+00  0.00000000000E+00  0.27629025025E+04  0.27629025025E+04  0.25500000920E-02 0.  1.
        2   -1    0    0  501    0  0.00000000000E+00  0.00000000000E+00 -0.12364498629E+04  0.12364498629E+04  0.25500000920E-02 0. -1.
    10030    2    1    2    0    0  0.00000000000E+00  0.00000000000E+00  0.15264526397E+04  0.39993523654E+04  0.36965878431E+04 0.  0.
        2    1    3    3  502    0  0.17201732256E+04 -0.67079380513E+03  0.67123163105E+03  0.19645641139E+04  0.25500000920E-02 0. -1.
       -2    1    3    3    0  502 -0.17201732256E+04  0.67079380513E+03  0.85522100863E+03  0.20347882515E+04  0.25500000920E-02 0.  1.
</event>
<event>
 5   0  0.1658770E-07  0.3685978E+04  0.7818609E-02  0.8071076E-01
       -2   -1    0    0    0  501  0.00000000000E+00  0.00000000000E+00  0.16379433222E+04  0.16379433222E+04  0.25500000920E-02 0.  1.
        2   -1    0    0  501    0  0.00000000000E+00  0.00000000000E+00 -0.20737032766E+04  0.20737032766E+04  0.25500000920E-02 0. -1.
    10030    2    1    2    0    0  0.00000000000E+00  0.00000000000E+00 -0.43575995440E+03  0.37116465988E+04  0.36859779892E+04 0.  0.
        2    1    3    3  502    0 -0.16392646584E+03 -0.16735821616E+04  0.54159996900E+03  0.17666577666E+04  0.25500000920E-02 0.  1.
       -2    1    3    3    0  502  0.16392646584E+03  0.16735821616E+04 -0.97735992340E+03  0.19449888322E+04  0.25500000920E-02 0. -1.
</event>
<event>
 5   0  0.5177000E-08  0.3699798E+04  0.7818609E-02  0.8068006E-01
        1   -1    0    0  501    0  0.00000000000E+00  0.00000000000E+00  0.23000448816E+04  0.23000448816E+04  0.50400001928E-02 0.  1.
       -1   -1    0    0    0  501  0.00000000000E+00  0.00000000000E+00 -0.14878523537E+04  0.14878523537E+04  0.50400001928E-02 0. -1.
    10030    2    1    2    0    0  0.00000000000E+00  0.00000000000E+00  0.81219252786E+03  0.37878972353E+04  0.36997984760E+04 0.  0.
        3    1    3    3  502    0 -0.64952168848E+02 -0.12311646389E+03  0.22946753981E+04  0.22988935689E+04  0.10100000352E+00 0.  1.
       -3    1    3    3    0  502  0.64952168848E+02  0.12311646389E+03 -0.14824828703E+04  0.14890036665E+04  0.10100000352E+00 0. -1.
</event>
<event>
 5   0  0.5177000E-08  0.3740186E+04  0.7818609E-02  0.8059114E-01
        1   -1    0    0  501    0  0.00000000000E+00  0.00000000000E+00  0.21001040444E+04  0.21001040445E+04  0.50400001928E-02 0. -1.
       -1   -1    0    0    0  501  0.00000000000E+00  0.00000000000E+00 -0.16652732977E+04  0.16652732977E+04  0.50400001928E-02 0.  1.
    10030    2    1    2    0    0  0.00000000000E+00  0.00000000000E+00  0.43483074676E+03  0.37653773421E+04  0.37401856572E+04 0.  0.
        2    1    3    3  502    0  0.44080598442E+02  0.86343680291E+03  0.18868306985E+04  0.20754749569E+04  0.25500000920E-02 0. -1.
       -2    1    3    3    0  502 -0.44080598442E+02 -0.86343680291E+03 -0.14519999518E+04  0.16899023853E+04  0.25500000920E-02 0.  1.
</event>
<event>
 5   0  0.1558258E-07  0.3714446E+04  0.7818609E-02  0.8064768E-01
       -2   -1    0    0    0  501  0.00000000000E+00  0.00000000000E+00  0.20257706075E+04  0.20257706075E+04  0.25500000920E-02 0.  1.
        2   -1    0    0  501    0  0.00000000000E+00  0.00000000000E+00 -0.17026984036E+04  0.17026984036E+04  0.25500000920E-02 0. -1.
    10030    2    1    2    0    0  0.00000000000E+00  0.00000000000E+00  0.32307220392E+03  0.37284690111E+04  0.37144455195E+04 0.  0.
        1    1    3    3  502    0  0.57563501452E+03  0.65462600643E+03  0.18076621022E+04  0.20068714842E+04  0.50400001928E-02 0.  1.
       -1    1    3    3    0  502 -0.57563501452E+03 -0.65462600643E+03 -0.14845898983E+04  0.17215975269E+04  0.50400001928E-02 0. -1.
</event>
<event>
 5   0  0.5177000E-08  0.3748939E+04  0.7818609E-02  0.8057202E-01
        1   -1    0    0  501    0  0.00000000000E+00  0.00000000000E+00  0.27406814739E+04  0.27406814739E+04  0.50400001928E-02 0.  1.
       -1   -1    0    0    0  501  0.00000000000E+00  0.00000000000E+00 -0.12820297647E+04  0.12820297647E+04  0.50400001928E-02 0. -1.
    10030    2    1    2    0    0  0.00000000000E+00  0.00000000000E+00  0.14586517092E+04  0.40227112385E+04  0.37489386365E+04 0.  0.
        4    1    3    3  502    0 -0.88646869449E+03  0.18779934090E+03 -0.10313988979E+04  0.13729095521E+04  0.12699999809E+01 0. -1.
       -4    1    3    3    0  502  0.88646869449E+03 -0.18779934090E+03  0.24900506071E+04  0.26498016865E+04  0.12699999809E+01 0.  1.
</event>
<event>
 5   0  0.1558258E-07  0.3706940E+04  0.7818609E-02  0.8066426E-01
        2   -1    0    0  501    0  0.00000000000E+00  0.00000000000E+00  0.22827436304E+04  0.22827436304E+04  0.25500000920E-02 0.  1.
       -2   -1    0    0    0  501  0.00000000000E+00  0.00000000000E+00 -0.15049222554E+04  0.15049222554E+04  0.25500000920E-02 0. -1.
    10030    2    1    2    0    0  0.00000000000E+00  0.00000000000E+00  0.77782137505E+03  0.37876658858E+04  0.37069403517E+04 0.  0.
        1    1    3    3  502    0 -0.10726131326E+03 -0.16201429288E+04  0.13022349511E+04  0.20813899123E+04  0.50400001928E-02 0. -1.
       -1    1    3    3    0  502  0.10726131326E+03  0.16201429288E+04 -0.52441357607E+03  0.17062759735E+04  0.50400001928E-02 0.  1.
</event>
<event>
 5   0  0.5177000E-08  0.3703060E+04  0.7818609E-02  0.8067284E-01
       -1   -1    0    0    0  501  0.00000000000E+00  0.00000000000E+00  0.17035421283E+04  0.17035421283E+04  0.50400001928E-02 0.  1.
        1   -1    0    0  501    0  0.00000000000E+00  0.00000000000E+00 -0.20123734349E+04  0.20123734349E+04  0.50400001928E-02 0. -1.
    10030    2    1    2    0    0  0.00000000000E+00  0.00000000000E+00 -0.30883130659E+03  0.37159155631E+04  0.37030597749E+04 0.  0.
        1    1    3    3  502    0 -0.13760369501E+04 -0.77959652498E+03  0.81169072893E+03  0.17776642735E+04  0.50400001928E-02 0.  1.
       -1    1    3    3    0  502  0.13760369501E+04  0.77959652498E+03 -0.11205220355E+04  0.19382512897E+04  0.50400001928E-02 0. -1.
</event>
<event>
 5   0  0.1666189E-07  0.3682440E+04  0.7818609E-02  0.8071864E-01
        2   -1    0    0  501    0  0.00000000000E+00  0.00000000000E+00  0.10894269016E+04  0.10894269016E+04  0.25500000920E-02 0.  1.
       -2   -1    0    0    0  501  0.00000000000E+00  0.00000000000E+00 -0.31118120121E+04  0.31118120121E+04  0.25500000920E-02 0. -1.
    10030    2    1    2    0    0  0.00000000000E+00  0.00000000000E+00 -0.20223851105E+04  0.42012389138E+04  0.36824403424E+04 0.  0.
        4    1    3    3  502    0 -0.61478299408E+03 -0.50485332321E+03 -0.29056294097E+04  0.30125601882E+04  0.12699999809E+01 0. -1.
       -4    1    3    3    0  502  0.61478299408E+03  0.50485332321E+03  0.88324429921E+03  0.11886787256E+04  0.12699999809E+01 0.  1.
</event>
<event>
 5   0  0.5177000E-08  0.3701849E+04  0.7818609E-02  0.8067552E-01
       -3   -1    0    0    0  501  0.00000000000E+00  0.00000000000E+00  0.12719714506E+04  0.12719714546E+04  0.10100000352E+00 0.  1.
        3   -1    0    0  501    0  0.00000000000E+00  0.00000000000E+00 -0.26933951210E+04  0.26933951229E+04  0.10100000352E+00 0. -1.
    10030    2    1    2    0    0  0.00000000000E+00  0.00000000000E+00 -0.14214236704E+04  0.39653665775E+04  0.37018491113E+04 0.  0.
        5    1    3    3  502    0 -0.57547914863E+03 -0.81087469444E+02  0.11716958855E+04  0.13079161924E+04  0.46999998093E+01 0.  1.
       -5    1    3    3    0  502  0.57547914863E+03  0.81087469444E+02 -0.25931195559E+04  0.26574503851E+04  0.46999998093E+01 0. -1.
</event>
<event>
 5   0  0.1587026E-07  0.3695306E+04  0.7818609E-02  0.8069003E-01
       -2   -1    0    0    0  501  0.00000000000E+00  0.00000000000E+00  0.12285846496E+04  0.12285846496E+04  0.25500000920E-02 0. -1.
        2   -1    0    0  501    0  0.00000000000E+00  0.00000000000E+00 -0.27786615782E+04  0.27786615782E+04  0.25500000920E-02 0.  1.
    10030    2    1    2    0    0  0.00000000000E+00  0.00000000000E+00 -0.15500769286E+04  0.40072462278E+04  0.36953056499E+04 0.  0.
        3    1    3    3  502    0  0.93944402486E+03 -0.12251662099E+04 -0.18757246725E+04  0.24293888892E+04  0.10100000352E+00 0.  1.
       -3    1    3    3    0  502 -0.93944402486E+03  0.12251662099E+04  0.32564774395E+03  0.15778573386E+04  0.10100000352E+00 0. -1.
</event>
<event>
 5   0  0.1658770E-07  0.3750278E+04  0.7818609E-02  0.8056910E-01
       -2   -1    0    0    0  501  0.00000000000E+00  0.00000000000E+00  0.14433368298E+04  0.14433368298E+04  0.25500000920E-02 0. -1.
        2   -1    0    0  501    0  0.00000000000E+00  0.00000000000E+00 -0.24361227369E+04  0.24361227369E+04  0.25500000920E-02 0.  1.
    10030    2    1    2    0    0  0.00000000000E+00  0.00000000000E+00 -0.99278590714E+03  0.38794595667E+04  0.37502776794E+04 0.  0.
        2    1    3    3  502    0  0.97074997789E+03  0.16003019415E+04 -0.61353611137E+03  0.19697076899E+04  0.25500000920E-02 0. -1.
       -2    1    3    3    0  502 -0.97074997789E+03 -0.16003019415E+04 -0.37924979577E+03  0.19097518769E+04  0.25500000920E-02 0.  1.
</event>
<event>
 5   0  0.1558258E-07  0.3662308E+04  0.7818609E-02  0.8076367E-01
        2   -1    0    0  501    0  0.00000000000E+00  0.00000000000E+00  0.23681041034E+04  0.23681041034E+04  0.25500000920E-02 0. -1.
       -2   -1    0    0    0  501  0.00000000000E+00  0.00000000000E+00 -0.14159533275E+04  0.14159533275E+04  0.25500000920E-02 0.  1.
    10030    2    1    2    0    0  0.00000000000E+00  0.00000000000E+00  0.95215077581E+03  0.37840574309E+04  0.36623079527E+04 0.  0.
        1    1    3    3  502    0 -0.14868793411E+04 -0.95052867618E+03  0.98100293403E+03  0.20190794179E+04  0.50400001928E-02 0. -1.
       -1    1    3    3    0  502  0.14868793411E+04  0.95052867618E+03 -0.28852158219E+02  0.17649780130E+04  0.50400001928E-02 0.  1.
</event>
<event>
 5   0  0.5177000E-08  0.3765790E+04  0.7818609E-02  0.8053536E-01
       -1   -1    0    0    0  501  0.00000000000E+00  0.00000000000E+00  0.16068390132E+04  0.16068390132E+04  0.50400001928E-02 0.  1.
        1   -1    0    0  501    0  0.00000000000E+00  0.00000000000E+00 -0.22063776914E+04  0.22063776914E+04  0.50400001928E-02 0. -1.
    10030    2    1    2    0    0  0.00000000000E+00  0.00000000000E+00 -0.59953867816E+03  0.38132167046E+04  0.37657900910E+04 0.  0.
        4    1    3    3  502    0 -0.17182120924E+04 -0.76614137489E+03 -0.22089912370E+03  0.18942078652E+04  0.12699999809E+01 0. -1.
       -4    1    3    3    0  502  0.17182120924E+04  0.76614137489E+03 -0.37863955446E+03  0.19190088394E+04  0.12699999809E+01 0.  1.
</event>
<event>
 5   0  0.1658770E-07  0.3695668E+04  0.7818609E-02  0.8068922E-01
        2   -1    0    0  501    0  0.00000000000E+00  0.00000000000E+00  0.13763019310E+04  0.13763019310E+04  0.25500000920E-02 0.  1.
       -2   -1    0    0    0  501  0.00000000000E+00  0.00000000000E+00 -0.24809171560E+04  0.24809171560E+04  0.25500000920E-02 0. -1.
    10030    2    1    2    0    0  0.00000000000E+00  0.00000000000E+00 -0.11046152250E+04  0.38572190870E+04  0.36956683143E+04 0.  0.
        2    1    3    3  502    0 -0.14383248773E+04  0.81976606653E+03 -0.14089772499E+04  0.21739392235E+04  0.25500000920E-02 0.  1.
       -2    1    3    3    0  502  0.14383248773E+04 -0.81976606653E+03  0.30436202493E+03  0.16832798635E+04  0.25500000920E-02 0. -1.
</event>
<event>
 5   0  0.5181371E-08  0.3678616E+04  0.7818609E-02  0.8072717E-01
       -1   -1    0    0    0  501  0.00000000000E+00  0.00000000000E+00  0.10677010184E+04  0.10677010184E+04  0.50400001928E-02 0.  1.
        1   -1    0    0  501    0  0.00000000000E+00  0.00000000000E+00 -0.31685409515E+04  0.31685409515E+04  0.50400001928E-02 0. -1.
    10030    2    1    2    0    0  0.00000000000E+00  0.00000000000E+00 -0.21008399331E+04  0.42362419700E+04  0.36786162621E+04 0.  0.
        5    1    3    3  502    0  0.10803851410E+04  0.46570772117E+03 -0.26785669427E+04  0.29255527154E+04  0.46999998093E+01 0. -1.
       -5    1    3    3    0  502 -0.10803851410E+04 -0.46570772117E+03  0.57772700955E+03  0.13106892545E+04  0.46999998093E+01 0.  1.
</event>
<event>
 5   0  0.5177000E-08  0.3710508E+04  0.7818609E-02  0.8065637E-01
        1   -1    0    0  501    0  0.00000000000E+00  0.00000000000E+00  0.22010225854E+04  0.22010225855E+04  0.50400001928E-02 0. -1.
       -1   -1    0    0    0  501  0.00000000000E+00  0.00000000000E+00 -0.15638035910E+04  0.15638035910E+04  0.50400001928E-02 0.  1.
    10030    2    1    2    0    0  0.00000000000E+00  0.00000000000E+00  0.63721899443E+03  0.37648261765E+04  0.37105077944E+04 0.  0.
        4    1    3    3  502    0 -0.52093397372E+03 -0.54035252019E+03 -0.14028752301E+04  0.15910416635E+04  0.12699999809E+01 0.  1.
       -4    1    3    3    0  502  0.52093397372E+03  0.54035252019E+03  0.20400942245E+04  0.21737845130E+04  0.12699999809E+01 0. -1.
</event>
<event>
 5   0  0.5177000E-08  0.3688225E+04  0.7818609E-02  0.8070576E-01
       -1   -1    0    0    0  501  0.00000000000E+00  0.00000000000E+00  0.13948028039E+04  0.13948028039E+04  0.50400001928E-02 0.  1.
        1   -1    0    0  501    0  0.00000000000E+00  0.00000000000E+00 -0.24381588618E+04  0.24381588618E+04  0.50400001928E-02 0. -1.
    10030    2    1    2    0    0  0.00000000000E+00  0.00000000000E+00 -0.10433560579E+04  0.38329616656E+04  0.36882249479E+04 0.  0.
        2    1    3    3  502    0  0.10467877028E+04 -0.60537659456E+03  0.92526220688E+03  0.15226146812E+04  0.25500000920E-02 0.  1.
       -2    1    3    3    0  502 -0.10467877028E+04  0.60537659456E+03 -0.19686182648E+04  0.23103469844E+04  0.25500000920E-02 0. -1.
</event>
<event>
 5   0  0.5181371E-08  0.3701694E+04  0.7818609E-02  0.8067587E-01
        1   -1    0    0  501    0  0.00000000000E+00  0.00000000000E+00  0.12523868604E+04  0.12523868604E+04  0.50400001928E-02 0. -1.
       -1   -1    0    0    0  501  0.00000000000E+00  0.00000000000E+00 -0.27352842016E+04  0.27352842016E+04  0.50400001928E-02 0.  1.
    10030    2    1    2    0    0  0.00000000000E+00  0.00000000000E+00 -0.14828973412E+04  0.39876710620E+04  0.37016936630E+04 0.  0.
        5    1    3    3  502    0  0.14622097847E+03 -0.17388683897E+04 -0.76887419401E+02  0.17467047880E+04  0.46999998093E+01 0. -1.
       -5    1    3    3    0  502 -0.14622097847E+03  0.17388683897E+04 -0.14060099218E+04  0.22409662740E+04  0.46999998093E+01 0.  1.
</event>
<event>
 5   0  0.1558258E-07  0.3681978E+04  0.7818609E-02  0.8071968E-01
        2   -1    0    0  501    0  0.00000000000E+00  0.00000000000E+00  0.26561550685E+04  0.26561550685E+04  0.25500000920E-02 0. -1.
       -2   -1    0    0    0  501  0.00000000000E+00  0.00000000000E+00 -0.12759947857E+04  0.12759947857E+04  0.25500000920E-02 0.  1.
    10030    2    1    2    0    0  0.00000000000E+00  0.00000000000E+00  0.13801602828E+04  0.39321498541E+04  0.36819777388E+04 0.  0.
        1    1    3    3  502    0 -0.45148909743E+03  0.13572389176E+04  0.19278372545E+04  0.24005200196E+04  0.50400001928E-02 0. -1.
       -1    1    3    3    0  502  0.45148909743E+03 -0.13572389176E+04 -0.54767697172E+03  0.15316298345E+04  0.50400001928E-02 0.  1.
</event>
<event>
 5   0  0.1666189E-07  0.3700478E+04  0.7818609E-02  0.8067856E-01
        2   -1    0    0  501    0  0.00000000000E+00  0.00000000000E+00  0.31664566062E+04  0.31664566062E+04  0.25500000920E-02 0.  1.
       -2   -1    0    0    0  501  0.00000000000E+00  0.00000000000E+00 -0.10811404175E+04  0.10811404175E+04  0.25500000920E-02 0. -1.
    10030    2    1    2    0    0  0.00000000000E+00  0.00000000000E+00  0.20853161886E+04  0.42475970237E+04  0.37004779244E+04 0.  0.
        4    1    3    3  502    0 -0.38529523297E+03  0.65584708781E+03  0.29786830970E+04  0.30742710396E+04  0.12699999809E+01 0.  1.
       -4    1    3    3    0  502  0.38529523297E+03 -0.65584708781E+03 -0.89336690842E+03  0.11733259842E+04  0.12699999809E+01 0. -1.
</event>
<event>
 5   0  0.1587026E-07  0.3704488E+04  0.7818609E-02  0.8066968E-01
        2   -1    0    0  501    0  0.00000000000E+00  0.00000000000E+00  0.21948133268E+04  0.21948133268E+04  0.25500000920E-02 0.  1.
       -2   -1    0    0    0  501  0.00000000000E+00  0.00000000000E+00 -0.15631429437E+04  0.15631429438E+04  0.25500000920E-02 0. -1.
    10030    2    1    2    0    0  0.00000000000E+00  0.00000000000E+00  0.63167038310E+03  0.37579562706E+04  0.37044875299E+04 0.  0.
        3    1    3    3  502    0 -0.14882439193E+04  0.10945294516E+04  0.45171730293E+03  0.19018183972E+04  0.10100000352E+00 0. -1.
       -3    1    3    3    0  502  0.14882439193E+04 -0.10945294516E+04  0.17995308017E+03  0.18561378734E+04  0.10100000352E+00 0.  1.
</event>
<event>
 5   0  0.5177000E-08  0.3700597E+04  0.7818609E-02  0.8067830E-01
        1   -1    0    0  501    0  0.00000000000E+00  0.00000000000E+00  0.17680377636E+04  0.17680377636E+04  0.50400001928E-02 0.  1.
       -1   -1    0    0    0  501  0.00000000000E+00  0.00000000000E+00 -0.19363864577E+04  0.19363864577E+04  0.50400001928E-02 0. -1.
    10030    2    1    2    0    0  0.00000000000E+00  0.00000000000E+00 -0.16834869411E+03  0.37044242213E+04  0.37005969152E+04 0.  0.
        2    1    3    3  502    0 -0.95610098381E+03 -0.89058472359E+03 -0.13956186579E+04  0.19118110993E+04  0.25500000920E-02 0. -1.
       -2    1    3    3    0  502  0.95610098381E+03  0.89058472359E+03  0.12272699638E+04  0.17926131220E+04  0.25500000920E-02 0.  1.
</event>
<event>
 5   0  0.5177000E-08  0.3703288E+04  0.7818609E-02  0.8067234E-01
       -1   -1    0    0    0  501  0.00000000000E+00  0.00000000000E+00  0.16511927019E+04  0.16511927019E+04  0.50400001928E-02 0.  1.
        1   -1    0    0  501    0  0.00000000000E+00  0.00000000000E+00 -0.20764299516E+04  0.20764299516E+04  0.50400001928E-02 0. -1.
    10030    2    1    2    0    0  0.00000000000E+00  0.00000000000E+00 -0.42523724977E+03  0.37276226535E+04  0.37032882589E+04 0.  0.
        2    1    3    3  502    0 -0.13516417287E+04  0.10477695196E+04 -0.92709238990E+03  0.19453165882E+04  0.25500000920E-02 0. -1.
       -2    1    3    3    0  502  0.13516417287E+04 -0.10477695196E+04  0.50185514013E+03  0.17823060653E+04  0.25500000920E-02 0.  1.
</event>
<event>
 5   0  0.5177000E-08  0.3707235E+04  0.7818609E-02  0.8066360E-01
        3   -1    0    0  501    0  0.00000000000E+00  0.00000000000E+00  0.13009531757E+04  0.13009531796E+04  0.10100000352E+00 0.  1.
       -3   -1    0    0    0  501  0.00000000000E+00  0.00000000000E+00 -0.26410615893E+04  0.26410615912E+04  0.10100000352E+00 0. -1.
    10030    2    1    2    0    0  0.00000000000E+00  0.00000000000E+00 -0.13401084136E+04  0.39420147708E+04  0.37072348041E+04 0.  0.
        5    1    3    3  502    0  0.90767609635E+03 -0.15032753224E+04 -0.39038909215E+02  0.17564904547E+04  0.46999998093E+01 0. -1.
       -5    1    3    3    0  502 -0.90767609635E+03  0.15032753224E+04 -0.13010695044E+04  0.21855243161E+04  0.46999998093E+01 0.  1.
</event>
<event>
 5   0  0.5177000E-08  0.3712353E+04  0.7818609E-02  0.8065230E-01
        1   -1    0    0  501    0  0.00000000000E+00  0.00000000000E+00  0.25889718490E+04  0.25889718490E+04  0.50400001928E-02 0.  1.
       -1   -1    0    0    0  501  0.00000000000E+00  0.00000000000E+00 -0.13307954257E+04  0.13307954257E+04  0.50400001928E-02 0. -1.
    10030    2    1    2    0    0  0.00000000000E+00  0.00000000000E+00  0.12581764234E+04  0.39197672747E+04  0.37123533743E+04 0.  0.
        4    1    3    3  502    0 -0.82346591258E+03 -0.16573024257E+04  0.47738467267E+03  0.19111894668E+04  0.12699999809E+01 0. -1.
       -4    1    3    3    0  502  0.82346591258E+03  0.16573024257E+04  0.78079175071E+03  0.20085778079E+04  0.12699999809E+01 0.  1.
</event>
<event>
 5   0  0.5177000E-08  0.3694758E+04  0.7818609E-02  0.8069125E-01
       -1   -1    0    0    0  501  0.00000000000E+00  0.00000000000E+00  0.12219204769E+04  0.12219204769E+04  0.50400001928E-02 0.  1.
        1   -1    0    0  501    0  0.00000000000E+00  0.00000000000E+00 -0.27929878407E+04  0.27929878407E+04  0.50400001928E-02 0. -1.
    10030    2    1    2    0    0  0.00000000000E+00  0.00000000000E+00 -0.15710673638E+04  0.40149083176E+04  0.36947579267E+04 0.  0.
        3    1    3    3  502    0 -0.81372526091E+03 -0.14691153268E+04 -0.16218732507E+04  0.23347208602E+04  0.10100000352E+00 0. -1.
       -3    1    3    3    0  502  0.81372526091E+03  0.14691153268E+04  0.50805886908E+02  0.16801874574E+04  0.10100000352E+00 0.  1.
</event>
<event>
 5   0  0.1666189E-07  0.3694044E+04  0.7818609E-02  0.8069283E-01
       -2   -1    0    0    0  501  0.00000000000E+00  0.00000000000E+00  0.22260773257E+04  0.22260773257E+04  0.25500000920E-02 0.  1.
        2   -1    0    0  501    0  0.00000000000E+00  0.00000000000E+00 -0.15325119599E+04  0.15325119599E+04  0.25500000920E-02 0. -1.
    10030    2    1    2    0    0  0.00000000000E+00  0.00000000000E+00  0.69356536575E+03  0.37585892856E+04  0.36940439224E+04 0.  0.
        4    1    3    3  502    0 -0.13933430726E+04 -0.53457207063E+03 -0.76049531153E+03  0.16749707306E+04  0.12699999809E+01 0. -1.
       -4    1    3    3    0  502  0.13933430726E+04  0.53457207063E+03  0.14540606773E+04  0.20836185550E+04  0.12699999809E+01 0.  1.
</event>
<event>
 5   0  0.1686284E-07  0.3703321E+04  0.7818609E-02  0.8067226E-01
        2   -1    0    0  501    0  0.00000000000E+00  0.00000000000E+00  0.32202019481E+04  0.32202019481E+04  0.25500000920E-02 0. -1.
       -2   -1    0    0    0  501  0.00000000000E+00  0.00000000000E+00 -0.10647303653E+04  0.10647303653E+04  0.25500000920E-02 0.  1.
    10030    2    1    2    0    0  0.00000000000E+00  0.00000000000E+00  0.21554715828E+04  0.42849323135E+04  0.37033211023E+04 0.  0.
        5    1    3    3  502    0  0.58035404656E+03  0.15772362454E+04  0.17840121935E+03  0.16900692525E+04  0.46999998093E+01 0.  1.
       -5    1    3    3    0  502 -0.58035404656E+03 -0.15772362454E+04  0.19770703634E+04  0.25948630610E+04  0.46999998093E+01 0. -1.
</event>
<event>
 5   0  0.5181371E-08  0.3704630E+04  0.7818609E-02  0.8066937E-01
       -1   -1    0    0    0  501  0.00000000000E+00  0.00000000000E+00  0.14125281301E+04  0.14125281301E+04  0.50400001928E-02 0. -1.
        1   -1    0    0  501    0  0.00000000000E+00  0.00000000000E+00 -0.24290281816E+04  0.24290281816E+04  0.50400001928E-02 0.  1.
    10030    2    1    2    0    0  0.00000000000E+00  0.00000000000E+00 -0.10165000515E+04  0.38415563116E+04  0.37046298791E+04 0.  0.
        5    1    3    3  502    0 -0.73781718367E+03 -0.16730814334E+04 -0.20156042079E+03  0.18396261502E+04  0.46999998093E+01 0. -1.
       -5    1    3    3    0  502  0.73781718367E+03  0.16730814334E+04 -0.81493963070E+03  0.20019301614E+04  0.46999998093E+01 0.  1.
</event>
<event>
 5   0  0.1558258E-07  0.3689932E+04  0.7818609E-02  0.8070197E-01
        2   -1    0    0  501    0  0.00000000000E+00  0.00000000000E+00  0.14804254185E+04  0.14804254185E+04  0.25500000920E-02 0.  1.
       -2   -1    0    0    0  501  0.00000000000E+00  0.00000000000E+00 -0.22992713749E+04  0.22992713749E+04  0.25500000920E-02 0. -1.
    10030    2    1    2    0    0  0.00000000000E+00  0.00000000000E+00 -0.81884595645E+03  0.37796967934E+04  0.36899321335E+04 0.  0.
        1    1    3    3  502    0  0.14822025385E+04 -0.10729362665E+04 -0.16749268153E+03  0.18374358208E+04  0.50400001928E-02 0. -1.
       -1    1    3    3    0  502 -0.14822025385E+04  0.10729362665E+04 -0.65135327492E+03  0.19422609726E+04  0.50400001928E-02 0.  1.
</event>
<event>
 5   0  0.1658770E-07  0.3690953E+04  0.7818609E-02  0.8069970E-01
        2   -1    0    0  501    0  0.00000000000E+00  0.00000000000E+00  0.15185524068E+04  0.15185524068E+04  0.25500000920E-02 0.  1.
       -2   -1    0    0    0  501  0.00000000000E+00  0.00000000000E+00 -0.22427832316E+04  0.22427832316E+04  0.25500000920E-02 0. -1.
    10030    2    1    2    0    0  0.00000000000E+00  0.00000000000E+00 -0.72423082477E+03  0.37613356384E+04  0.36909531963E+04 0.  0.
        2    1    3    3  502    0  0.12806634136E+04 -0.28717787239E+03 -0.16842425321E+04  0.21352383512E+04  0.25500000920E-02 0. -1.
       -2    1    3    3    0  502 -0.12806634136E+04  0.28717787239E+03  0.96001170736E+03  0.16260972872E+04  0.25500000920E-02 0.  1.
</event>
<event>
 5   0  0.1658770E-07  0.3715430E+04  0.7818609E-02  0.8064551E-01
       -2   -1    0    0    0  501  0.00000000000E+00  0.00000000000E+00  0.12914949807E+04  0.12914949807E+04  0.25500000920E-02 0.  1.
        2   -1    0    0  501    0  0.00000000000E+00  0.00000000000E+00 -0.26721790881E+04  0.26721790881E+04  0.25500000920E-02 0. -1.
    10030    2    1    2    0    0  0.00000000000E+00  0.00000000000E+00 -0.13806841074E+04  0.39636740688E+04  0.37154304621E+04 0.  0.
        2    1    3    3  502    0  0.79917731620E+03  0.20485899579E+03  0.10853362670E+04  0.13633071566E+04  0.25500000920E-02 0.  1.
       -2    1    3    3    0  502 -0.79917731620E+03 -0.20485899579E+03 -0.24660203744E+04  0.26003669121E+04  0.25500000920E-02 0. -1.
</event>
<event>
 5   0  0.5177000E-08  0.3676088E+04  0.7818609E-02  0.8073282E-01
       -1   -1    0    0    0  501  0.00000000000E+00  0.00000000000E+00  0.29656144560E+04  0.29656144560E+04  0.50400001928E-02 0. -1.
        1   -1    0    0  501    0  0.00000000000E+00  0.00000000000E+00 -0.11391923415E+04  0.11391923415E+04  0.50400001928E-02 0.  1.
    10030    2    1    2    0    0  0.00000000000E+00  0.00000000000E+00  0.18264221146E+04  0.41048067975E+04  0.36760877444E+04 0.  0.
        4    1    3    3  502    0  0.96883535960E+02  0.67973189728E+03 -0.99061824814E+03  0.12052999619E+04  0.12699999809E+01 0.  1.
       -4    1    3    3    0  502 -0.96883535960E+02 -0.67973189728E+03  0.28170403627E+04  0.28995068356E+04  0.12699999809E+01 0. -1.
</event>
<event>
 5   0  0.5177000E-08  0.3694824E+04  0.7818609E-02  0.8069110E-01
       -1   -1    0    0    0  501  0.00000000000E+00  0.00000000000E+00  0.15591854571E+04  0.15591854571E+04  0.50400001928E-02 0.  1.
        1   -1    0    0  501    0  0.00000000000E+00  0.00000000000E+00 -0.21889188588E+04  0.21889188588E+04  0.50400001928E-02 0. -1.
    10030    2    1    2    0    0  0.00000000000E+00  0.00000000000E+00 -0.62973340169E+03  0.37481043159E+04  0.36948236502E+04 0.  0.
        1    1    3    3  502    0  0.27535044068E+03  0.40153147440E+03 -0.21226665379E+04  0.21777875519E+04  0.50400001928E-02 0. -1.
       -1    1    3    3    0  502 -0.27535044068E+03 -0.40153147440E+03  0.14929331362E+04  0.15703167640E+04  0.50400001928E-02 0.  1.
</event>
<event>
 5   0  0.1686284E-07  0.3705975E+04  0.7818609E-02  0.8066639E-01
        2   -1    0    0  501    0  0.00000000000E+00  0.00000000000E+00  0.19132459988E+04  0.19132459988E+04  0.25500000920E-02 0. -1.
       -2   -1    0    0    0  501  0.00000000000E+00  0.00000000000E+00 -0.17946270665E+04  0.17946270665E+04  0.25500000920E-02 0.  1.
    10030    2    1    2    0    0  0.00000000000E+00  0.00000000000E+00  0.11861893231E+03  0.37078730652E+04  0.37059752045E+04 0.  0.
        5    1    3    3  502    0 -0.14632701411E+04  0.11061458123E+04  0.32178500350E+03  0.18623334134E+04  0.46999998093E+01 0.  1.
       -5    1    3    3    0  502  0.14632701411E+04 -0.11061458123E+04 -0.20316607120E+03  0.18455396519E+04  0.46999998093E+01 0. -1.
</event>
<event>
 5   0  0.5181371E-08  0.3699232E+04  0.7818609E-02  0.8068132E-01
        1   -1    0    0  501    0  0.00000000000E+00  0.00000000000E+00  0.15797379417E+04  0.15797379417E+04  0.50400001928E-02 0. -1.
       -1   -1    0    0    0  501  0.00000000000E+00  0.00000000000E+00 -0.21655992689E+04  0.21655992689E+04  0.50400001928E-02 0.  1.
    10030    2    1    2    0    0  0.00000000000E+00  0.00000000000E+00 -0.58586132716E+03  0.37453372106E+04  0.36992319915E+04 0.  0.
        5    1    3    3  502    0 -0.14654269117E+04  0.58290300973E+03  0.68544923646E+03  0.17196263252E+04  0.46999998093E+01 0. -1.
       -5    1    3    3    0  502  0.14654269117E+04 -0.58290300973E+03 -0.12713105636E+04  0.20257108855E+04  0.46999998093E+01 0.  1.
</event>
<event>
 5   0  0.1658770E-07  0.3690294E+04  0.7818609E-02  0.8070116E-01
       -2   -1    0    0    0  501  0.00000000000E+00  0.00000000000E+00  0.10452577608E+04  0.10452577608E+04  0.25500000920E-02 0. -1.
        2   -1    0    0  501    0  0.00000000000E+00  0.00000000000E+00 -0.32571564782E+04  0.32571564782E+04  0.25500000920E-02 0.  1.
    10030    2    1    2    0    0  0.00000000000E+00  0.00000000000E+00 -0.22118987174E+04  0.43024142390E+04  0.36902943444E+04 0.  0.
        2    1    3    3  502    0  0.19125133807E+03  0.11478163255E+04 -0.27754324400E+04  0.30094990647E+04  0.25500000920E-02 0.  1.
       -2    1    3    3    0  502 -0.19125133807E+03 -0.11478163255E+04  0.56353372263E+03  0.12929151743E+04  0.25500000920E-02 0. -1.
</event>
<event>
 5   0  0.1666189E-07  0.3732638E+04  0.7818609E-02  0.8060767E-01
       -2   -1    0    0    0  501  0.00000000000E+00  0.00000000000E+00  0.16682768808E+04  0.16682768808E+04  0.25500000920E-02 0. -1.
        2   -1    0    0  501    0  0.00000000000E+00  0.00000000000E+00 -0.20878707237E+04  0.20878707237E+04  0.25500000920E-02 0.  1.
    10030    2    1    2    0    0  0.00000000000E+00  0.00000000000E+00 -0.41959384289E+03  0.37561476045E+04  0.37326379189E+04 0.  0.
        4    1    3    3  502    0 -0.43994743440E+03  0.10388912625E+04  0.12862734081E+04  0.17109499389E+04  0.12699999809E+01 0. -1.
       -4    1    3    3    0  502  0.43994743440E+03 -0.10388912625E+04 -0.17058672510E+04  0.20451976655E+04  0.12699999809E+01 0.  1.
</event>
<event>
 5   0  0.5177000E-08  0.3669995E+04  0.7818609E-02  0.8074644E-01
       -1   -1    0    0    0  501  0.00000000000E+00  0.00000000000E+00  0.16794768302E+04  0.16794768302E+04  0.50400001928E-02 0. -1.
        1   -1    0    0  501    0  0.00000000000E+00  0.00000000000E+00 -0.20049198748E+04  0.20049198748E+04  0.50400001928E-02 0.  1.
    10030    2    1    2    0    0  0.00000000000E+00  0.00000000000E+00 -0.32544304466E+03  0.36843967050E+04  0.36699953548E+04 0.  0.
        4    1    3    3  502    0 -0.27777212023E+03  0.13396523648E+04  0.10649380920E+04  0.17337590842E+04  0.12699999809E+01 0. -1.
       -4    1    3    3    0  502  0.27777212023E+03 -0.13396523648E+04 -0.13903811367E+04  0.19506376208E+04  0.12699999809E+01 0.  1.
</event>
<event>
 5   0  0.1686284E-07  0.3688964E+04  0.7818609E-02  0.8070412E-01
       -2   -1    0    0    0  501  0.00000000000E+00  0.00000000000E+00  0.14941534064E+04  0.14941534064E+04  0.25500000920E-02 0.  1.
        2   -1    0    0  501    0  0.00000000000E+00  0.00000000000E+00 -0.22769512830E+04  0.22769512830E+04  0.25500000920E-02 0. -1.
    10030    2    1    2    0    0  0.00000000000E+00  0.00000000000E+00 -0.78279787656E+03  0.37711046894E+04  0.36889643618E+04 0.  0.
        5    1    3    3  502    0 -0.59917697798E+03  0.15024979604E+04 -0.12974634744E+04  0.20736312906E+04  0.46999998093E+01 0. -1.
       -5    1    3    3    0  502  0.59917697798E+03 -0.15024979604E+04  0.51466559788E+03  0.16974733988E+04  0.46999998093E+01 0.  1.
</event>
<event>
 5   0  0.1587026E-07  0.3702431E+04  0.7818609E-02  0.8067423E-01
       -2   -1    0    0    0  501  0.00000000000E+00  0.00000000000E+00  0.14577639059E+04  0.14577639059E+04  0.25500000920E-02 0.  1.
        2   -1    0    0  501    0  0.00000000000E+00  0.00000000000E+00 -0.23508602943E+04  0.23508602943E+04  0.25500000920E-02 0. -1.
    10030    2    1    2    0    0  0.00000000000E+00  0.00000000000E+00 -0.89309638849E+03  0.38086242002E+04  0.37024312471E+04 0.  0.
        3    1    3    3  502    0 -0.63097667449E+03  0.71544058759E+03 -0.20785619095E+04  0.22870081810E+04  0.10100000352E+00 0. -1.
       -3    1    3    3    0  502  0.63097667449E+03 -0.71544058759E+03  0.11854655210E+04  0.15216160192E+04  0.10100000352E+00 0.  1.
</event>
<event>
 5   0  0.1666189E-07  0.3696454E+04  0.7818609E-02  0.8068748E-01
       -2   -1    0    0    0  501  0.00000000000E+00  0.00000000000E+00  0.14271564291E+04  0.14271564291E+04  0.25500000920E-02 0. -1.
        2   -1    0    0  501    0  0.00000000000E+00  0.00000000000E+00 -0.23935313866E+04  0.23935313866E+04  0.25500000920E-02 0.  1.
    10030    2    1    2    0    0  0.00000000000E+00  0.00000000000E+00 -0.96637495759E+03  0.38206878157E+04  0.36964543588E+04 0.  0.
        4    1    3    3  502    0  0.93534077575E+03 -0.12364742582E+03  0.11594998776E+04  0.14948553883E+04  0.12699999809E+01 0. -1.
       -4    1    3    3    0  502 -0.93534077575E+03  0.12364742582E+03 -0.21258748352E+04  0.23258324274E+04  0.12699999809E+01 0.  1.
</event>
<event>
 5   0  0.5177000E-08  0.3699487E+04  0.7818609E-02  0.8068075E-01
       -1   -1    0    0    0  501  0.00000000000E+00  0.00000000000E+00  0.18525489281E+04  0.18525489281E+04  0.50400001928E-02 0.  1.
        1   -1    0    0  501    0  0.00000000000E+00  0.00000000000E+00 -0.18469426001E+04  0.18469426001E+04  0.50400001928E-02 0. -1.
    10030    2    1    2    0    0  0.00000000000E+00  0.00000000000E+00  0.56063280394E+01  0.36994915282E+04  0.36994872802E+04 0.  0.
        2    1    3    3  502    0  0.12289931814E+04  0.11532876048E+04  0.76507367312E+03  0.18509009333E+04  0.25500000920E-02 0.  1.
       -2    1    3    3    0  502 -0.12289931814E+04 -0.11532876048E+04 -0.75946734509E+03  0.18485905949E+04  0.25500000920E-02 0. -1.
</event>
<event>
 5   0  0.1587026E-07  0.3700302E+04  0.7818609E-02  0.8067895E-01
       -2   -1    0    0    0  501  0.00000000000E+00  0.00000000000E+00  0.17021630060E+04  0.17021630060E+04  0.25500000920E-02 0. -1.
        2   -1    0    0  501    0  0.00000000000E+00  0.00000000000E+00 -0.20110049446E+04  0.20110049446E+04  0.25500000920E-02 0.  1.
    10030    2    1    2    0    0  0.00000000000E+00  0.00000000000E+00 -0.30884193857E+03  0.37131679506E+04  0.37003017291E+04 0.  0.
        3    1    3    3  502    0 -0.15126136256E+04  0.10594108030E+04 -0.26753817147E+03  0.18659924741E+04  0.10100000352E+00 0. -1.
       -3    1    3    3    0  502  0.15126136256E+04 -0.10594108030E+04 -0.41303767094E+02  0.18471754766E+04  0.10100000352E+00 0.  1.
</event>
<event>
 5   0  0.5181371E-08  0.3702260E+04  0.7818609E-02  0.8067461E-01
       -1   -1    0    0    0  501  0.00000000000E+00  0.00000000000E+00  0.17751363831E+04  0.17751363831E+04  0.50400001928E-02 0. -1.
        1   -1    0    0  501    0  0.00000000000E+00  0.00000000000E+00 -0.19303764155E+04  0.19303764155E+04  0.50400001928E-02 0.  1.
    10030    2    1    2    0    0  0.00000000000E+00  0.00000000000E+00 -0.15524003242E+03  0.37055127986E+04  0.37022595307E+04 0.  0.
        5    1    3    3  502    0 -0.17085159193E+04 -0.30854915951E+03  0.56515150734E+03  0.18258279072E+04  0.46999998093E+01 0. -1.
       -5    1    3    3    0  502  0.17085159193E+04  0.30854915951E+03 -0.72039153976E+03  0.18796848914E+04  0.46999998093E+01 0.  1.
</event>
<event>
 5   0  0.1666189E-07  0.3685061E+04  0.7818609E-02  0.8071281E-01
        2   -1    0    0  501    0  0.00000000000E+00  0.00000000000E+00  0.21451078718E+04  0.21451078718E+04  0.25500000920E-02 0. -1.
       -2   -1    0    0    0  501  0.00000000000E+00  0.00000000000E+00 -0.15826327813E+04  0.15826327813E+04  0.25500000920E-02 0.  1.
    10030    2    1    2    0    0  0.00000000000E+00  0.00000000000E+00  0.56247509049E+03  0.37277406530E+04  0.36850606710E+04 0.  0.
        4    1    3    3  502    0 -0.10665071315E+04 -0.14553995883E+04  0.65877720246E+03  0.19208369110E+04  0.12699999809E+01 0. -1.
       -4    1    3    3    0  502  0.10665071315E+04  0.14553995883E+04 -0.96302111972E+02  0.18069037420E+04  0.12699999809E+01 0.  1.
</event>
<event>
 5   0  0.5177000E-08  0.3601034E+04  0.7818609E-02  0.8090255E-01
        1   -1    0    0  501    0  0.00000000000E+00  0.00000000000E+00  0.12655708110E+04  0.12655708110E+04  0.50400001928E-02 0.  1.
       -1   -1    0    0    0  501  0.00000000000E+00  0.00000000000E+00 -0.25615811125E+04  0.25615811125E+04  0.50400001928E-02 0. -1.
    10030    2    1    2    0    0  0.00000000000E+00  0.00000000000E+00 -0.12960103015E+04  0.38271519235E+04  0.36010344547E+04 0.  0.
        1    1    3    3  502    0 -0.46871122059E+03 -0.17219162171E+04 -0.39387414137E+03  0.18275181274E+04  0.50400001928E-02 0. -1.
       -1    1    3    3    0  502  0.46871122059E+03  0.17219162171E+04 -0.90213616014E+03  0.19996337961E+04  0.50400001928E-02 0.  1.
</event>
<event>
 5   0  0.1686284E-07  0.3748369E+04  0.7818609E-02  0.8057326E-01
        2   -1    0    0  501    0  0.00000000000E+00  0.00000000000E+00  0.15628207092E+04  0.15628207092E+04  0.25500000920E-02 0. -1.
       -2   -1    0    0    0  501  0.00000000000E+00  0.00000000000E+00 -0.22475823083E+04  0.22475823083E+04  0.25500000920E-02 0.  1.
    10030    2    1    2    0    0  0.00000000000E+00  0.00000000000E+00 -0.68476159912E+03  0.38104030176E+04  0.37483693400E+04 0.  0.
        5    1    3    3  502    0 -0.55759521257E+03 -0.10210864365E+04  0.11512954710E+04  0.16367752697E+04  0.46999998093E+01 0. -1.
       -5    1    3    3    0  502  0.55759521257E+03  0.10210864365E+04 -0.18360570701E+04  0.21736277479E+04  0.46999998093E+01 0.  1.
</event>
<event>
 5   0  0.5181371E-08  0.3703812E+04  0.7818609E-02  0.8067118E-01
        1   -1    0    0  501    0  0.00000000000E+00  0.00000000000E+00  0.18586484921E+04  0.18586484921E+04  0.50400001928E-02 0. -1.
       -1   -1    0    0    0  501  0.00000000000E+00  0.00000000000E+00 -0.18451880667E+04  0.18451880668E+04  0.50400001928E-02 0.  1.
    10030    2    1    2    0    0  0.00000000000E+00  0.00000000000E+00  0.13460425337E+02  0.37038365588E+04  0.37038120999E+04 0.  0.
        5    1    3    3  502    0 -0.96994163840E+03 -0.80685434641E+03 -0.13489089287E+04  0.18469916367E+04  0.46999998093E+01 0.  1.
       -5    1    3    3    0  502  0.96994163840E+03  0.80685434641E+03  0.13623693540E+04  0.18568449222E+04  0.46999998093E+01 0. -1.
</event>
<event>
 5   0  0.5181371E-08  0.3708222E+04  0.7818609E-02  0.8066142E-01
        1   -1    0    0  501    0  0.00000000000E+00  0.00000000000E+00  0.19493933386E+04  0.19493933386E+04  0.50400001928E-02 0.  1.
       -1   -1    0    0    0  501  0.00000000000E+00  0.00000000000E+00 -0.17634857816E+04  0.17634857816E+04  0.50400001928E-02 0. -1.
    10030    2    1    2    0    0  0.00000000000E+00  0.00000000000E+00  0.18590755698E+03  0.37128791202E+04  0.37082219110E+04 0.  0.
        5    1    3    3  502    0  0.17975464272E+04 -0.11465974549E+03 -0.34735450677E+03  0.18343928855E+04  0.46999998093E+01 0.  1.
       -5    1    3    3    0  502 -0.17975464272E+04  0.11465974549E+03  0.53326206375E+03  0.18784862346E+04  0.46999998093E+01 0. -1.
</event>
<event>
 5   0  0.1686284E-07  0.3677108E+04  0.7818609E-02  0.8073054E-01
        2   -1    0    0  501    0  0.00000000000E+00  0.00000000000E+00  0.27333903666E+04  0.27333903666E+04  0.25500000920E-02 0. -1.
       -2   -1    0    0    0  501  0.00000000000E+00  0.00000000000E+00 -0.12366623789E+04  0.12366623789E+04  0.25500000920E-02 0.  1.
    10030    2    1    2    0    0  0.00000000000E+00  0.00000000000E+00  0.14967279877E+04  0.39700527455E+04  0.36771081209E+04 0.  0.
        5    1    3    3  502    0 -0.33142576398E+03  0.16515953847E+04  0.15436973861E+04  0.22848706882E+04  0.46999998093E+01 0.  1.
       -5    1    3    3    0  502  0.33142576398E+03 -0.16515953847E+04 -0.46969398394E+02  0.16851820573E+04  0.46999998093E+01 0. -1.
</event>
<event>
 5   0  0.5177000E-08  0.3721093E+04  0.7818609E-02  0.8063303E-01
        1   -1    0    0  501    0  0.00000000000E+00  0.00000000000E+00  0.17097545181E+04  0.17097545181E+04  0.50400001928E-02 0. -1.
       -1   -1    0    0    0  501  0.00000000000E+00  0.00000000000E+00 -0.20246375371E+04  0.20246375371E+04  0.50400001928E-02 0.  1.
    10030    2    1    2    0    0  0.00000000000E+00  0.00000000000E+00 -0.31488301892E+03  0.37343920552E+04  0.37210929451E+04 0.  0.
        4    1    3    3  502    0 -0.65650128920E+03  0.14171621078E+04 -0.11721382722E+04  0.19527550089E+04  0.12699999809E+01 0.  1.
       -4    1    3    3    0  502  0.65650128920E+03 -0.14171621078E+04  0.85725525327E+03  0.17816370463E+04  0.12699999809E+01 0. -1.
</event>
<event>
 5   0  0.5177000E-08  0.3699836E+04  0.7818609E-02  0.8067998E-01
        1   -1    0    0  501    0  0.00000000000E+00  0.00000000000E+00  0.26627993425E+04  0.26627993425E+04  0.50400001928E-02 0.  1.
       -1   -1    0    0    0  501  0.00000000000E+00  0.00000000000E+00 -0.12851877846E+04  0.12851877846E+04  0.50400001928E-02 0. -1.
    10030    2    1    2    0    0  0.00000000000E+00  0.00000000000E+00  0.13776115579E+04  0.39479871271E+04  0.36998363141E+04 0.  0.
        4    1    3    3  502    0 -0.11645963788E+04 -0.74608024921E+03  0.19997295010E+04  0.24314275958E+04  0.12699999809E+01 0.  1.
       -4    1    3    3    0  502  0.11645963788E+04  0.74608024921E+03 -0.62211794306E+03  0.15165595313E+04  0.12699999809E+01 0. -1.
</event>
<event>
 5   0  0.5181371E-08  0.3693219E+04  0.7818609E-02  0.8069466E-01
       -1   -1    0    0    0  501  0.00000000000E+00  0.00000000000E+00  0.19066288845E+04  0.19066288846E+04  0.50400001928E-02 0. -1.
        1   -1    0    0  501    0  0.00000000000E+00  0.00000000000E+00 -0.17884790774E+04  0.17884790774E+04  0.50400001928E-02 0.  1.
    10030    2    1    2    0    0  0.00000000000E+00  0.00000000000E+00  0.11814980718E+03  0.36951079619E+04  0.36932185791E+04 0.  0.
        5    1    3    3  502    0  0.33067463579E+03  0.14079299602E+04 -0.10896985745E+04  0.18108223438E+04  0.46999998093E+01 0.  1.
       -5    1    3    3    0  502 -0.33067463579E+03 -0.14079299602E+04  0.12078483817E+04  0.18842856181E+04  0.46999998093E+01 0. -1.
</event>
<event>
 5   0  0.5177000E-08  0.3702077E+04  0.7818609E-02  0.8067502E-01
        1   -1    0    0  501    0  0.00000000000E+00  0.00000000000E+00  0.12398906831E+04  0.12398906831E+04  0.50400001928E-02 0.  1.
       -1   -1    0    0    0  501  0.00000000000E+00  0.00000000000E+00 -0.27634242071E+04  0.27634242071E+04  0.50400001928E-02 0. -1.
    10030    2    1    2    0    0  0.00000000000E+00  0.00000000000E+00 -0.15235335240E+04  0.40033148902E+04  0.37020772157E+04 0.  0.
        4    1    3    3  502    0  0.18414793548E+04 -0.14519904614E+03 -0.63284616230E+03  0.19525943908E+04  0.12699999809E+01 0.  1.
       -4    1    3    3    0  502 -0.18414793548E+04  0.14519904614E+03 -0.89068736168E+03  0.20507204993E+04  0.12699999809E+01 0. -1.
</event>
<event>
 5   0  0.5177000E-08  0.3671011E+04  0.7818609E-02  0.8074417E-01
       -1   -1    0    0    0  501  0.00000000000E+00  0.00000000000E+00  0.16309463247E+04  0.16309463247E+04  0.50400001928E-02 0. -1.
        1   -1    0    0  501    0  0.00000000000E+00  0.00000000000E+00 -0.20657214067E+04  0.20657214067E+04  0.50400001928E-02 0.  1.
    10030    2    1    2    0    0  0.00000000000E+00  0.00000000000E+00 -0.43477508197E+03  0.36966677314E+04  0.36710111611E+04 0.  0.
        4    1    3    3  502    0 -0.27089464748E+03 -0.57630079315E+03  0.15161469929E+04  0.16444481844E+04  0.12699999809E+01 0. -1.
       -4    1    3    3    0  502  0.27089464748E+03  0.57630079315E+03 -0.19509220749E+04  0.20522195470E+04  0.12699999809E+01 0.  1.
</event>
<event>
 5   0  0.5177000E-08  0.3728956E+04  0.7818609E-02  0.8061575E-01
       -1   -1    0    0    0  501  0.00000000000E+00  0.00000000000E+00  0.18034181712E+04  0.18034181712E+04  0.50400001928E-02 0. -1.
        1   -1    0    0  501    0  0.00000000000E+00  0.00000000000E+00 -0.19276056019E+04  0.19276056019E+04  0.50400001928E-02 0.  1.
    10030    2    1    2    0    0  0.00000000000E+00  0.00000000000E+00 -0.12418743067E+03  0.37310237731E+04  0.37289564060E+04 0.  0.
        4    1    3    3  502    0  0.11774253146E+04 -0.12491797018E+04 -0.79016262436E+03  0.18897457196E+04  0.12699999809E+01 0. -1.
       -4    1    3    3    0  502 -0.11774253146E+04  0.12491797018E+04  0.66597519370E+03  0.18412780535E+04  0.12699999809E+01 0.  1.
</event>
<event>
 5   0  0.5177000E-08  0.3588748E+04  0.7818609E-02  0.8093074E-01
        1   -1    0    0  501    0  0.00000000000E+00  0.00000000000E+00  0.17931479367E+04  0.17931479367E+04  0.50400001928E-02 0.  1.
       -1   -1    0    0    0  501  0.00000000000E+00  0.00000000000E+00 -0.17956012959E+04  0.17956012960E+04  0.50400001928E-02 0. -1.
    10030    2    1    2    0    0  0.00000000000E+00  0.00000000000E+00 -0.24533592287E+01  0.35887492327E+04  0.35887483941E+04 0.  0.
        1    1    3    3  502    0  0.37853852487E+03 -0.17341302107E+04 -0.26443722063E+03  0.17945545537E+04  0.50400001928E-02 0. -1.
       -1    1    3    3    0  502 -0.37853852487E+03  0.17341302107E+04  0.26198386140E+03  0.17941946790E+04  0.50400001928E-02 0.  1.
</event>
<event>
 5   0  0.1658770E-07  0.3698853E+04  0.7818609E-02  0.8068216E-01
       -2   -1    0    0    0  501  0.00000000000E+00  0.00000000000E+00  0.15194826597E+04  0.15194826597E+04  0.25500000920E-02 0.  1.
        2   -1    0    0  501    0  0.00000000000E+00  0.00000000000E+00 -0.22510150338E+04  0.22510150338E+04  0.25500000920E-02 0. -1.
    10030    2    1    2    0    0  0.00000000000E+00  0.00000000000E+00 -0.73153237407E+03  0.37704976935E+04  0.36988529631E+04 0.  0.
        2    1    3    3  502    0 -0.11184670890E+04  0.16305049322E+03 -0.18579587974E+04  0.21747563048E+04  0.25500000920E-02 0. -1.
       -2    1    3    3    0  502  0.11184670890E+04 -0.16305049322E+03  0.11264264234E+04  0.15957413887E+04  0.25500000920E-02 0.  1.
</event>
<event>
 5   0  0.5177000E-08  0.3696516E+04  0.7818609E-02  0.8068734E-01
        1   -1    0    0  501    0  0.00000000000E+00  0.00000000000E+00  0.21089917124E+04  0.21089917124E+04  0.50400001928E-02 0.  1.
       -1   -1    0    0    0  501  0.00000000000E+00  0.00000000000E+00 -0.16197582629E+04  0.16197582629E+04  0.50400001928E-02 0. -1.
    10030    2    1    2    0    0  0.00000000000E+00  0.00000000000E+00  0.48923344951E+03  0.37287499753E+04  0.36965155228E+04 0.  0.
        1    1    3    3  502    0 -0.14483732240E+04  0.10219689009E+04  0.77248814635E+03  0.19336347552E+04  0.50400001928E-02 0.  1.
       -1    1    3    3    0  502  0.14483732240E+04 -0.10219689009E+04 -0.28325469684E+03  0.17951152201E+04  0.50400001928E-02 0. -1.
</event>
<event>
 5   0  0.5177000E-08  0.3714586E+04  0.7818609E-02  0.8064737E-01
        1   -1    0    0  501    0  0.00000000000E+00  0.00000000000E+00  0.18261049383E+04  0.18261049383E+04  0.50400001928E-02 0. -1.
       -1   -1    0    0    0  501  0.00000000000E+00  0.00000000000E+00 -0.18890136901E+04  0.18890136901E+04  0.50400001928E-02 0.  1.
    10030    2    1    2    0    0  0.00000000000E+00  0.00000000000E+00 -0.62908751804E+02  0.37151186285E+04  0.37145859679E+04 0.  0.
        1    1    3    3  502    0  0.18456797713E+04 -0.97983108195E+00  0.17594568061E+03  0.18540473729E+04  0.50400001928E-02 0. -1.
       -1    1    3    3    0  502 -0.18456797713E+04  0.97983108195E+00 -0.23885443242E+03  0.18610712556E+04  0.50400001928E-02 0.  1.
</event>
<event>
 5   0  0.1686284E-07  0.3700888E+04  0.7818609E-02  0.8067765E-01
        2   -1    0    0  501    0  0.00000000000E+00  0.00000000000E+00  0.25697969123E+04  0.25697969123E+04  0.25500000920E-02 0. -1.
       -2   -1    0    0    0  501  0.00000000000E+00  0.00000000000E+00 -0.13324565885E+04  0.13324565885E+04  0.25500000920E-02 0.  1.
    10030    2    1    2    0    0  0.00000000000E+00  0.00000000000E+00  0.12373403239E+04  0.39022535008E+04  0.37008879080E+04 0.  0.
        5    1    3    3  502    0  0.32119423281E+03 -0.16437723836E+04  0.14482217878E+04  0.22141639101E+04  0.46999998093E+01 0. -1.
       -5    1    3    3    0  502 -0.32119423281E+03  0.16437723836E+04 -0.21088146395E+03  0.16880895907E+04  0.46999998093E+01 0.  1.
</event>
<event>
 5   0  0.1686284E-07  0.3713453E+04  0.7818609E-02  0.8064987E-01
        2   -1    0    0  501    0  0.00000000000E+00  0.00000000000E+00  0.24315490319E+04  0.24315490319E+04  0.25500000920E-02 0.  1.
       -2   -1    0    0    0  501  0.00000000000E+00  0.00000000000E+00 -0.14177927979E+04  0.14177927979E+04  0.25500000920E-02 0. -1.
    10030    2    1    2    0    0  0.00000000000E+00  0.00000000000E+00  0.10137562339E+04  0.38493418298E+04  0.37134526819E+04 0.  0.
        5    1    3    3  502    0 -0.16850798944E+04 -0.35404603049E+02 -0.30050989270E+03  0.17120385574E+04  0.46999998093E+01 0. -1.
       -5    1    3    3    0  502  0.16850798944E+04  0.35404603049E+02  0.13142661266E+04  0.21373032724E+04  0.46999998093E+01 0.  1.
</event>
<event>
 5   0  0.5177000E-08  0.3742906E+04  0.7818609E-02  0.8058519E-01
       -1   -1    0    0    0  501  0.00000000000E+00  0.00000000000E+00  0.18930337019E+04  0.18930337019E+04  0.50400001928E-02 0.  1.
        1   -1    0    0  501    0  0.00000000000E+00  0.00000000000E+00 -0.18501183581E+04  0.18501183581E+04  0.50400001928E-02 0. -1.
    10030    2    1    2    0    0  0.00000000000E+00  0.00000000000E+00  0.42915343729E+02  0.37431520600E+04  0.37429060391E+04 0.  0.
        3    1    3    3  502    0 -0.12907761547E+04  0.12010523688E+04 -0.60604394430E+03  0.18643817063E+04  0.10100000352E+00 0. -1.
       -3    1    3    3    0  502  0.12907761547E+04 -0.12010523688E+04  0.64895928803E+03  0.18787703537E+04  0.10100000352E+00 0.  1.
</event>
<event>
 5   0  0.5177000E-08  0.3713199E+04  0.7818609E-02  0.8065043E-01
       -1   -1    0    0    0  501  0.00000000000E+00  0.00000000000E+00  0.24834953577E+04  0.24834953577E+04  0.50400001928E-02 0.  1.
        1   -1    0    0  501    0  0.00000000000E+00  0.00000000000E+00 -0.13879479141E+04  0.13879479141E+04  0.50400001928E-02 0. -1.
    10030    2    1    2    0    0  0.00000000000E+00  0.00000000000E+00  0.10955474436E+04  0.38714432718E+04  0.37131992682E+04 0.  0.
        4    1    3    3  502    0 -0.39450120430E+03 -0.15949550145E+04 -0.35362119329E+03  0.16806434065E+04  0.12699999809E+01 0.  1.
       -4    1    3    3    0  502  0.39450120430E+03  0.15949550145E+04  0.14491686369E+04  0.21907998653E+04  0.12699999809E+01 0. -1.
</event>
<event>
 5   0  0.5177000E-08  0.3699380E+04  0.7818609E-02  0.8068099E-01
       -1   -1    0    0    0  501  0.00000000000E+00  0.00000000000E+00  0.27999653145E+04  0.27999653145E+04  0.50400001928E-02 0. -1.
        1   -1    0    0  501    0  0.00000000000E+00  0.00000000000E+00 -0.12219267827E+04  0.12219267827E+04  0.50400001928E-02 0.  1.
    10030    2    1    2    0    0  0.00000000000E+00  0.00000000000E+00  0.15780385318E+04  0.40218920972E+04  0.36993797363E+04 0.  0.
        4    1    3    3  502    0  0.16772237778E+04 -0.75365948230E+03  0.10071845951E+04  0.20965458826E+04  0.12699999809E+01 0.  1.
       -4    1    3    3    0  502 -0.16772237778E+04  0.75365948230E+03  0.57085393671E+03  0.19253462146E+04  0.12699999809E+01 0. -1.
</event>
<event>
 5   0  0.1666189E-07  0.3699972E+04  0.7818609E-02  0.8067968E-01
       -2   -1    0    0    0  501  0.00000000000E+00  0.00000000000E+00  0.25136410545E+04  0.25136410545E+04  0.25500000920E-02 0. -1.
        2   -1    0    0  501    0  0.00000000000E+00  0.00000000000E+00 -0.13615499529E+04  0.13615499529E+04  0.25500000920E-02 0.  1.
    10030    2    1    2    0    0  0.00000000000E+00  0.00000000000E+00  0.11520911017E+04  0.38751910074E+04  0.36999718158E+04 0.  0.
        4    1    3    3  502    0  0.30231695099E+03  0.16784995666E+04 -0.17461780596E+03  0.17144239047E+04  0.12699999809E+01 0.  1.
       -4    1    3    3    0  502 -0.30231695099E+03 -0.16784995666E+04  0.13267089076E+04  0.21607671027E+04  0.12699999809E+01 0. -1.
</event>
<event>
 5   0  0.5177000E-08  0.3692177E+04  0.7818609E-02  0.8069698E-01
       -1   -1    0    0    0  501  0.00000000000E+00  0.00000000000E+00  0.29681199804E+04  0.29681199804E+04  0.50400001928E-02 0. -1.
        1   -1    0    0  501    0  0.00000000000E+00  0.00000000000E+00 -0.11482160367E+04  0.11482160367E+04  0.50400001928E-02 0.  1.
    10030    2    1    2    0    0  0.00000000000E+00  0.00000000000E+00  0.18199039437E+04  0.41163360171E+04  0.36921771140E+04 0.  0.
        3    1    3    3  502    0  0.17758059260E+04 -0.42247471218E+03  0.12174475984E+04  0.21941171879E+04  0.10100000352E+00 0. -1.
       -3    1    3    3    0  502 -0.17758059260E+04  0.42247471218E+03  0.60245634534E+03  0.19222188292E+04  0.10100000352E+00 0.  1.
</event>
<event>
 5   0  0.1658770E-07  0.3706513E+04  0.7818609E-02  0.8066520E-01
       -2   -1    0    0    0  501  0.00000000000E+00  0.00000000000E+00  0.16954278593E+04  0.16954278593E+04  0.25500000920E-02 0. -1.
        2   -1    0    0  501    0  0.00000000000E+00  0.00000000000E+00 -0.20257771379E+04  0.20257771379E+04  0.25500000920E-02 0.  1.
    10030    2    1    2    0    0  0.00000000000E+00  0.00000000000E+00 -0.33034927852E+03  0.37212049972E+04  0.37065126447E+04 0.  0.
        2    1    3    3  502    0  0.30723057408E+03  0.35153289871E+02  0.16693431894E+04  0.16977435211E+04  0.25500000920E-02 0. -1.
       -2    1    3    3    0  502 -0.30723057408E+03 -0.35153289871E+02 -0.19996924679E+04  0.20234614762E+04  0.25500000920E-02 0.  1.
</event>
<event>
 5   0  0.1686284E-07  0.3705224E+04  0.7818609E-02  0.8066805E-01
        2   -1    0    0  501    0  0.00000000000E+00  0.00000000000E+00  0.23681080118E+04  0.23681080118E+04  0.25500000920E-02 0.  1.
       -2   -1    0    0    0  501  0.00000000000E+00  0.00000000000E+00 -0.14493305036E+04  0.14493305036E+04  0.25500000920E-02 0. -1.
    10030    2    1    2    0    0  0.00000000000E+00  0.00000000000E+00  0.91877750819E+03  0.38174385154E+04  0.37052239756E+04 0.  0.
        5    1    3    3  502    0 -0.35476305379E+03 -0.71296716345E+03  0.21827610966E+04  0.23234988907E+04  0.46999998093E+01 0.  1.
       -5    1    3    3    0  502  0.35476305379E+03  0.71296716345E+03 -0.12639835884E+04  0.14939396247E+04  0.46999998093E+01 0. -1.
</event>
<event>
 5   0  0.1587026E-07  0.3706694E+04  0.7818609E-02  0.8066480E-01
       -2   -1    0    0    0  501  0.00000000000E+00  0.00000000000E+00  0.25215942834E+04  0.25215942834E+04  0.25500000920E-02 0. -1.
        2   -1    0    0  501    0  0.00000000000E+00  0.00000000000E+00 -0.13621921420E+04  0.13621921420E+04  0.25500000920E-02 0.  1.
    10030    2    1    2    0    0  0.00000000000E+00  0.00000000000E+00  0.11594021414E+04  0.38837864255E+04  0.37066944402E+04 0.  0.
        3    1    3    3  502    0  0.68549513558E+03 -0.13570974822E+04  0.16901851193E+04  0.22733989762E+04  0.10100000352E+00 0. -1.
       -3    1    3    3    0  502 -0.68549513558E+03  0.13570974822E+04 -0.53078297787E+03  0.16103874493E+04  0.10100000352E+00 0.  1.
</event>
<event>
 5   0  0.5177000E-08  0.3705147E+04  0.7818609E-02  0.8066822E-01
       -1   -1    0    0    0  501  0.00000000000E+00  0.00000000000E+00  0.13693836319E+04  0.13693836319E+04  0.50400001928E-02 0. -1.
        1   -1    0    0  501    0  0.00000000000E+00  0.00000000000E+00 -0.25062582817E+04  0.25062582817E+04  0.50400001928E-02 0.  1.
    10030    2    1    2    0    0  0.00000000000E+00  0.00000000000E+00 -0.11368746497E+04  0.38756419136E+04  0.37051472674E+04 0.  0.
        2    1    3    3  502    0  0.13765113352E+03  0.15436648351E+04  0.49324539795E+03  0.16263886314E+04  0.25500000920E-02 0. -1.
       -2    1    3    3    0  502 -0.13765113352E+03 -0.15436648351E+04 -0.16301200477E+04  0.22492532822E+04  0.25500000920E-02 0.  1.
</event>
<event>
 5   0  0.1587026E-07  0.3693414E+04  0.7818609E-02  0.8069423E-01
       -2   -1    0    0    0  501  0.00000000000E+00  0.00000000000E+00  0.18588796188E+04  0.18588796188E+04  0.25500000920E-02 0.  1.
        2   -1    0    0  501    0  0.00000000000E+00  0.00000000000E+00 -0.18346143301E+04  0.18346143301E+04  0.25500000920E-02 0. -1.
    10030    2    1    2    0    0  0.00000000000E+00  0.00000000000E+00  0.24265288741E+02  0.36934939489E+04  0.36934142398E+04 0.  0.
        3    1    3    3  502    0  0.50755618043E+03  0.17699984042E+04 -0.12865231530E+03  0.18458220541E+04  0.10100000352E+00 0. -1.
       -3    1    3    3    0  502 -0.50755618043E+03 -0.17699984042E+04  0.15291760405E+03  0.18476718948E+04  0.10100000352E+00 0.  1.
</event>
<event>
 5   0  0.5181371E-08  0.3704592E+04  0.7818609E-02  0.8066945E-01
        1   -1    0    0  501    0  0.00000000000E+00  0.00000000000E+00  0.18254339858E+04  0.18254339858E+04  0.50400001928E-02 0.  1.
       -1   -1    0    0    0  501  0.00000000000E+00  0.00000000000E+00 -0.18795536206E+04  0.18795536206E+04  0.50400001928E-02 0. -1.
    10030    2    1    2    0    0  0.00000000000E+00  0.00000000000E+00 -0.54119634856E+02  0.37049876064E+04  0.37045923161E+04 0.  0.
        5    1    3    3  502    0 -0.18427488566E+04 -0.23808453430E+02 -0.21332892206E+03  0.18552146803E+04  0.46999998093E+01 0. -1.
       -5    1    3    3    0  502  0.18427488566E+04  0.23808453430E+02  0.15920928720E+03  0.18497729261E+04  0.46999998093E+01 0.  1.
</event>
<event>
 5   0  0.5177000E-08  0.3704361E+04  0.7818609E-02  0.8066996E-01
        1   -1    0    0  501    0  0.00000000000E+00  0.00000000000E+00  0.29972454421E+04  0.29972454421E+04  0.50400001928E-02 0.  1.
       -1   -1    0    0    0  501  0.00000000000E+00  0.00000000000E+00 -0.11445751818E+04  0.11445751818E+04  0.50400001928E-02 0. -1.
    10030    2    1    2    0    0  0.00000000000E+00  0.00000000000E+00  0.18526702604E+04  0.41418206239E+04  0.37043610767E+04 0.  0.
        3    1    3    3  502    0 -0.17862864642E+04  0.41446653826E+03  0.63483452405E+03  0.19405197053E+04  0.10100000352E+00 0. -1.
       -3    1    3    3    0  502  0.17862864642E+04 -0.41446653826E+03  0.12178357363E+04  0.22013009186E+04  0.10100000352E+00 0.  1.
</event>
<event>
 5   0  0.5177000E-08  0.3673812E+04  0.7818609E-02  0.8073790E-01
       -1   -1    0    0    0  501  0.00000000000E+00  0.00000000000E+00  0.26343412268E+04  0.26343412268E+04  0.50400001928E-02 0. -1.
        1   -1    0    0  501    0  0.00000000000E+00  0.00000000000E+00 -0.12808602489E+04  0.12808602489E+04  0.50400001928E-02 0.  1.
    10030    2    1    2    0    0  0.00000000000E+00  0.00000000000E+00  0.13534809779E+04  0.39152014758E+04  0.36738116226E+04 0.  0.
        1    1    3    3  502    0  0.42669616090E+03  0.34869123624E+03  0.25441801375E+04  0.26031726344E+04  0.50400001928E-02 0. -1.
       -1    1    3    3    0  502 -0.42669616090E+03 -0.34869123624E+03 -0.11906991596E+04  0.13120288414E+04  0.50400001928E-02 0.  1.
</event>
<event>
 5   0  0.1666189E-07  0.3650747E+04  0.7818609E-02  0.8078965E-01
        2   -1    0    0  501    0  0.00000000000E+00  0.00000000000E+00  0.26355952813E+04  0.26355952813E+04  0.25500000920E-02 0.  1.
       -2   -1    0    0    0  501  0.00000000000E+00  0.00000000000E+00 -0.12642261507E+04  0.12642261507E+04  0.25500000920E-02 0. -1.
    10030    2    1    2    0    0  0.00000000000E+00  0.00000000000E+00  0.13713691306E+04  0.38998214321E+04  0.36507470345E+04 0.  0.
        4    1    3    3  502    0  0.12054182561E+04 -0.63823102009E+03 -0.61018133672E+03  0.14942204937E+04  0.12699999809E+01 0. -1.
       -4    1    3    3    0  502 -0.12054182561E+04  0.63823102009E+03  0.19815504673E+04  0.24056009384E+04  0.12699999809E+01 0.  1.
</event>
<event>
 5   0  0.5177000E-08  0.3714154E+04  0.7818609E-02  0.8064832E-01
       -1   -1    0    0    0  501  0.00000000000E+00  0.00000000000E+00  0.16159728105E+04  0.16159728105E+04  0.50400001928E-02 0.  1.
        1   -1    0    0  501    0  0.00000000000E+00  0.00000000000E+00 -0.21341544622E+04  0.21341544622E+04  0.50400001928E-02 0. -1.
    10030    2    1    2    0    0  0.00000000000E+00  0.00000000000E+00 -0.51818165175E+03  0.37501272727E+04  0.37141543233E+04 0.  0.
        4    1    3    3  502    0 -0.17385403982E+04 -0.46622257768E+03  0.20233402082E+03  0.18113052965E+04  0.12699999809E+01 0.  1.
       -4    1    3    3    0  502  0.17385403982E+04  0.46622257768E+03 -0.72051567257E+03  0.19388219762E+04  0.12699999809E+01 0. -1.
</event>
<event>
 5   0  0.1686284E-07  0.3703326E+04  0.7818609E-02  0.8067225E-01
       -2   -1    0    0    0  501  0.00000000000E+00  0.00000000000E+00  0.17641500625E+04  0.17641500625E+04  0.25500000920E-02 0.  1.
        2   -1    0    0  501    0  0.00000000000E+00  0.00000000000E+00 -0.19435174474E+04  0.19435174474E+04  0.25500000920E-02 0. -1.
    10030    2    1    2    0    0  0.00000000000E+00  0.00000000000E+00 -0.17936738489E+03  0.37076675099E+04  0.37033263028E+04 0.  0.
        5    1    3    3  502    0  0.11598705137E+04  0.12577150270E+04 -0.79867174646E+03  0.18881327671E+04  0.46999998093E+01 0. -1.
       -5    1    3    3    0  502 -0.11598705137E+04 -0.12577150270E+04  0.61930436157E+03  0.18195347427E+04  0.46999998093E+01 0.  1.
</event>
<event>
 5   0  0.5177000E-08  0.3708448E+04  0.7818609E-02  0.8066092E-01
       -1   -1    0    0    0  501  0.00000000000E+00  0.00000000000E+00  0.18748025901E+04  0.18748025901E+04  0.50400001928E-02 0. -1.
        1   -1    0    0  501    0  0.00000000000E+00  0.00000000000E+00 -0.18338715408E+04  0.18338715409E+04  0.50400001928E-02 0.  1.
    10030    2    1    2    0    0  0.00000000000E+00  0.00000000000E+00  0.40931049287E+02  0.37086741310E+04  0.37084482549E+04 0.  0.
        3    1    3    3  502    0  0.97127593128E+03  0.29052764821E+03  0.15730947424E+04  0.18714727697E+04  0.10100000352E+00 0. -1.
       -3    1    3    3    0  502 -0.97127593128E+03 -0.29052764821E+03 -0.15321636931E+04  0.18372013613E+04  0.10100000352E+00 0.  1.
</event>
<event>
 5   0  0.1658770E-07  0.3707246E+04  0.7818609E-02  0.8066358E-01
       -2   -1    0    0    0  501  0.00000000000E+00  0.00000000000E+00  0.23825182418E+04  0.23825182418E+04  0.25500000920E-02 0. -1.
        2   -1    0    0  501    0  0.00000000000E+00  0.00000000000E+00 -0.14421374989E+04  0.14421374989E+04  0.25500000920E-02 0.  1.
    10030    2    1    2    0    0  0.00000000000E+00  0.00000000000E+00  0.94038074287E+03  0.38246557406E+04  0.37072463626E+04 0.  0.
        2    1    3    3  502    0 -0.57481826953E+03  0.10300478293E+04  0.19453360766E+04  0.22750268184E+04  0.25500000920E-02 0. -1.
       -2    1    3    3    0  502  0.57481826953E+03 -0.10300478293E+04 -0.10049553337E+04  0.15496289222E+04  0.25500000920E-02 0.  1.
</event>
<event>
 5   0  0.1666189E-07  0.3609045E+04  0.7818609E-02  0.8088423E-01
       -2   -1    0    0    0  501  0.00000000000E+00  0.00000000000E+00  0.25147117398E+04  0.25147117398E+04  0.25500000920E-02 0. -1.
        2   -1    0    0  501    0  0.00000000000E+00  0.00000000000E+00 -0.12949003137E+04  0.12949003137E+04  0.25500000920E-02 0.  1.
    10030    2    1    2    0    0  0.00000000000E+00  0.00000000000E+00  0.12198114260E+04  0.38096120535E+04  0.36090447605E+04 0.  0.
        4    1    3    3  502    0 -0.13017207483E+04 -0.93227857090E+03  0.14884315674E+04  0.21861039280E+04  0.12699999809E+01 0. -1.
       -4    1    3    3    0  502  0.13017207483E+04  0.93227857090E+03 -0.26862014133E+03  0.16235081255E+04  0.12699999809E+01 0.  1.
</event>
<event>
 5   0  0.1658770E-07  0.3693939E+04  0.7818609E-02  0.8069306E-01
       -2   -1    0    0    0  501  0.00000000000E+00  0.00000000000E+00  0.16772396497E+04  0.16772396497E+04  0.25500000920E-02 0. -1.
        2   -1    0    0  501    0  0.00000000000E+00  0.00000000000E+00 -0.20338754787E+04  0.20338754787E+04  0.25500000920E-02 0.  1.
    10030    2    1    2    0    0  0.00000000000E+00  0.00000000000E+00 -0.35663582900E+03  0.37111151285E+04  0.36939391417E+04 0.  0.
        2    1    3    3  502    0  0.87826887802E+03 -0.16132345686E+04 -0.37264585398E+03  0.18742323570E+04  0.25500000920E-02 0.  1.
       -2    1    3    3    0  502 -0.87826887802E+03  0.16132345686E+04  0.16010024975E+02  0.18368827715E+04  0.25500000920E-02 0. -1.
</event>
<event>
 5   0  0.5177000E-08  0.3735070E+04  0.7818609E-02  0.8060234E-01
       -1   -1    0    0    0  501  0.00000000000E+00  0.00000000000E+00  0.20493518726E+04  0.20493518726E+04  0.50400001928E-02 0. -1.
        1   -1    0    0  501    0  0.00000000000E+00  0.00000000000E+00 -0.17018487136E+04  0.17018487136E+04  0.50400001928E-02 0.  1.
    10030    2    1    2    0    0  0.00000000000E+00  0.00000000000E+00  0.34750315902E+03  0.37512005862E+04  0.37350699314E+04 0.  0.
        4    1    3    3  502    0  0.10784820767E+04 -0.99713891240E+02  0.17017091229E+04  0.20171469955E+04  0.12699999809E+01 0. -1.
       -4    1    3    3    0  502 -0.10784820767E+04  0.99713891240E+02 -0.13542059638E+04  0.17340535907E+04  0.12699999809E+01 0.  1.
</event>
<event>
 5   0  0.1686284E-07  0.3713086E+04  0.7818609E-02  0.8065068E-01
       -2   -1    0    0    0  501  0.00000000000E+00  0.00000000000E+00  0.13996293529E+04  0.13996293529E+04  0.25500000920E-02 0.  1.
        2   -1    0    0  501    0  0.00000000000E+00  0.00000000000E+00 -0.24626176605E+04  0.24626176605E+04  0.25500000920E-02 0. -1.
    10030    2    1    2    0    0  0.00000000000E+00  0.00000000000E+00 -0.10629883076E+04  0.38622470134E+04  0.37130860279E+04 0.  0.
        5    1    3    3  502    0 -0.15103075446E+04  0.12131814921E+03  0.58444231424E+03  0.16239894955E+04  0.46999998093E+01 0.  1.
       -5    1    3    3    0  502  0.15103075446E+04 -0.12131814921E+03 -0.16474306219E+04  0.22382575179E+04  0.46999998093E+01 0. -1.
</event>
<event>
 5   0  0.5177000E-08  0.3667829E+04  0.7818609E-02  0.8075129E-01
       -1   -1    0    0    0  501  0.00000000000E+00  0.00000000000E+00  0.15677721568E+04  0.15677721568E+04  0.50400001928E-02 0. -1.
        1   -1    0    0  501    0  0.00000000000E+00  0.00000000000E+00 -0.21452370385E+04  0.21452370386E+04  0.50400001928E-02 0.  1.
    10030    2    1    2    0    0  0.00000000000E+00  0.00000000000E+00 -0.57746488176E+03  0.37130091953E+04  0.36678292756E+04 0.  0.
        2    1    3    3  502    0  0.41558084057E+02 -0.18329444484E+04 -0.33204348339E+03  0.18632405374E+04  0.25500000920E-02 0.  1.
       -2    1    3    3    0  502 -0.41558084057E+02  0.18329444484E+04 -0.24542139837E+03  0.18497686580E+04  0.25500000920E-02 0. -1.
</event>
<event>
 5   0  0.5177000E-08  0.3706295E+04  0.7818609E-02  0.8066568E-01
        1   -1    0    0  501    0  0.00000000000E+00  0.00000000000E+00  0.25889240175E+04  0.25889240175E+04  0.50400001928E-02 0. -1.
       -1   -1    0    0    0  501  0.00000000000E+00  0.00000000000E+00 -0.13264795772E+04  0.13264795772E+04  0.50400001928E-02 0.  1.
    10030    2    1    2    0    0  0.00000000000E+00  0.00000000000E+00  0.12624444403E+04  0.39154035947E+04  0.37062945572E+04 0.  0.
        1    1    3    3  502    0  0.38434680310E+03  0.18127476203E+04  0.65177321599E+03  0.19643280595E+04  0.50400001928E-02 0. -1.
       -1    1    3    3    0  502 -0.38434680310E+03 -0.18127476203E+04  0.61067122427E+03  0.19510755352E+04  0.50400001928E-02 0.  1.
</event>
<event>
 5   0  0.5181371E-08  0.3714822E+04  0.7818609E-02  0.8064685E-01
       -1   -1    0    0    0  501  0.00000000000E+00  0.00000000000E+00  0.15980517744E+04  0.15980517744E+04  0.50400001928E-02 0. -1.
        1   -1    0    0  501    0  0.00000000000E+00  0.00000000000E+00 -0.21588633448E+04  0.21588633448E+04  0.50400001928E-02 0.  1.
    10030    2    1    2    0    0  0.00000000000E+00  0.00000000000E+00 -0.56081157041E+03  0.37569151192E+04  0.37148218794E+04 0.  0.
        5    1    3    3  502    0 -0.75924950998E+03  0.16738429665E+04 -0.55129006529E+03  0.19188936711E+04  0.46999998093E+01 0.  1.
       -5    1    3    3    0  502  0.75924950998E+03 -0.16738429665E+04 -0.95215051202E+01  0.18380214482E+04  0.46999998093E+01 0. -1.
</event>
<event>
 5   0  0.5177000E-08  0.3700223E+04  0.7818609E-02  0.8067912E-01
       -1   -1    0    0    0  501  0.00000000000E+00  0.00000000000E+00  0.23753896094E+04  0.23753896094E+04  0.50400001928E-02 0. -1.
        1   -1    0    0  501    0  0.00000000000E+00  0.00000000000E+00 -0.14409903181E+04  0.14409903181E+04  0.50400001928E-02 0.  1.
    10030    2    1    2    0    0  0.00000000000E+00  0.00000000000E+00  0.93439929135E+03  0.38163799275E+04  0.37002234683E+04 0.  0.
        4    1    3    3  502    0  0.53897010273E+03 -0.10692392860E+04 -0.98744683213E+03  0.15520355285E+04  0.12699999809E+01 0.  1.
       -4    1    3    3    0  502 -0.53897010273E+03  0.10692392860E+04  0.19218461235E+04  0.22643443991E+04  0.12699999809E+01 0. -1.
</event>
<event>
 5   0  0.1558258E-07  0.3684692E+04  0.7818609E-02  0.8071363E-01
        2   -1    0    0  501    0  0.00000000000E+00  0.00000000000E+00  0.32291803892E+04  0.32291803892E+04  0.25500000920E-02 0. -1.
       -2   -1    0    0    0  501  0.00000000000E+00  0.00000000000E+00 -0.10511144661E+04  0.10511144661E+04  0.25500000920E-02 0.  1.
    10030    2    1    2    0    0  0.00000000000E+00  0.00000000000E+00  0.21780659231E+04  0.42802948553E+04  0.36846916944E+04 0.  0.
        1    1    3    3  502    0  0.60261806397E+03  0.57044234997E+03 -0.82174914623E+03  0.11678290393E+04  0.50400001928E-02 0.  1.
       -1    1    3    3    0  502 -0.60261806397E+03 -0.57044234997E+03  0.29998150693E+04  0.31124658160E+04  0.50400001928E-02 0. -1.
</event>
<event>
 5   0  0.5177000E-08  0.3785265E+04  0.7818609E-02  0.8049324E-01
       -1   -1    0    0    0  501  0.00000000000E+00  0.00000000000E+00  0.14909939034E+04  0.14909939034E+04  0.50400001928E-02 0.  1.
        1   -1    0    0  501    0  0.00000000000E+00  0.00000000000E+00 -0.24024634175E+04  0.24024634175E+04  0.50400001928E-02 0. -1.
    10030    2    1    2    0    0  0.00000000000E+00  0.00000000000E+00 -0.91146951410E+03  0.38934573208E+04  0.37852652792E+04 0.  0.
        1    1    3    3  502    0  0.15290549289E+03  0.16539176732E+04  0.47752145935E+03  0.17282507062E+04  0.50400001928E-02 0.  1.
       -1    1    3    3    0  502 -0.15290549289E+03 -0.16539176732E+04 -0.13889909735E+04  0.21652066146E+04  0.50400001928E-02 0. -1.
</event>
<event>
 5   0  0.1587026E-07  0.3749858E+04  0.7818609E-02  0.8057002E-01
        2   -1    0    0  501    0  0.00000000000E+00  0.00000000000E+00  0.28467265596E+04  0.28467265596E+04  0.25500000920E-02 0.  1.
       -2   -1    0    0    0  501  0.00000000000E+00  0.00000000000E+00 -0.12348778605E+04  0.12348778605E+04  0.25500000920E-02 0. -1.
    10030    2    1    2    0    0  0.00000000000E+00  0.00000000000E+00  0.16118486990E+04  0.40816044201E+04  0.37498584525E+04 0.  0.
        3    1    3    3  502    0 -0.13994380469E+03  0.42290975317E+03 -0.11764410554E+04  0.12579548858E+04  0.10100000352E+00 0. -1.
       -3    1    3    3    0  502  0.13994380469E+03 -0.42290975317E+03  0.27882897544E+04  0.28236495343E+04  0.10100000352E+00 0.  1.
</event>
<event>
 5   0  0.1558258E-07  0.3688604E+04  0.7818609E-02  0.8070492E-01
       -2   -1    0    0    0  501  0.00000000000E+00  0.00000000000E+00  0.12190577865E+04  0.12190577865E+04  0.25500000920E-02 0.  1.
        2   -1    0    0  501    0  0.00000000000E+00  0.00000000000E+00 -0.27902290980E+04  0.27902290980E+04  0.25500000920E-02 0. -1.
    10030    2    1    2    0    0  0.00000000000E+00  0.00000000000E+00 -0.15711713116E+04  0.40092868845E+04  0.36886043474E+04 0.  0.
        1    1    3    3  502    0 -0.99868342368E+03 -0.73434302466E+03 -0.22698928096E+04  0.25863181602E+04  0.50400001928E-02 0. -1.
       -1    1    3    3    0  502  0.99868342368E+03  0.73434302466E+03  0.69872149801E+03  0.14229687243E+04  0.50400001928E-02 0.  1.
</event>
<event>
 5   0  0.1558258E-07  0.3704579E+04  0.7818609E-02  0.8066948E-01
        2   -1    0    0  501    0  0.00000000000E+00  0.00000000000E+00  0.23519930327E+04  0.23519930327E+04  0.25500000920E-02 0. -1.
       -2   -1    0    0    0  501  0.00000000000E+00  0.00000000000E+00 -0.14587526708E+04  0.14587526708E+04  0.25500000920E-02 0.  1.
    10030    2    1    2    0    0  0.00000000000E+00  0.00000000000E+00  0.89324036194E+03  0.38107457035E+04  0.37045788523E+04 0.  0.
        1    1    3    3  502    0  0.15049609073E+04 -0.67180056444E+03 -0.42303893616E+03  0.17015243966E+04  0.50400001928E-02 0.  1.
       -1    1    3    3    0  502 -0.15049609073E+04  0.67180056444E+03  0.13162792981E+04  0.21092213069E+04  0.50400001928E-02 0. -1.
</event>
<event>
 5   0  0.1686284E-07  0.3703593E+04  0.7818609E-02  0.8067166E-01
       -2   -1    0    0    0  501  0.00000000000E+00  0.00000000000E+00  0.20104794498E+04  0.20104794498E+04  0.25500000920E-02 0. -1.
        2   -1    0    0  501    0  0.00000000000E+00  0.00000000000E+00 -0.17056376516E+04  0.17056376516E+04  0.25500000920E-02 0.  1.
    10030    2    1    2    0    0  0.00000000000E+00  0.00000000000E+00  0.30484179822E+03  0.37161171014E+04  0.37035925518E+04 0.  0.
        5    1    3    3  502    0  0.15591943182E+04 -0.97568676741E+03 -0.62957665288E+02  0.18403905421E+04  0.46999998093E+01 0.  1.
       -5    1    3    3    0  502 -0.15591943182E+04  0.97568676741E+03  0.36779946351E+03  0.18757265593E+04  0.46999998093E+01 0. -1.
</event>
<event>
 5   0  0.5181371E-08  0.3599945E+04  0.7818609E-02  0.8090504E-01
       -1   -1    0    0    0  501  0.00000000000E+00  0.00000000000E+00  0.27917645755E+04  0.27917645755E+04  0.50400001928E-02 0. -1.
        1   -1    0    0  501    0  0.00000000000E+00  0.00000000000E+00 -0.11605208278E+04  0.11605208278E+04  0.50400001928E-02 0.  1.
    10030    2    1    2    0    0  0.00000000000E+00  0.00000000000E+00  0.16312437476E+04  0.39522854033E+04  0.35999449641E+04 0.  0.
        5    1    3    3  502    0  0.12172274889E+04  0.81130997331E+03  0.19670880644E+04  0.24513922933E+04  0.46999998093E+01 0. -1.
       -5    1    3    3    0  502 -0.12172274889E+04 -0.81130997331E+03 -0.33584431673E+03  0.15008931100E+04  0.46999998093E+01 0.  1.
</event>
<event>
 5   0  0.1587026E-07  0.3707494E+04  0.7818609E-02  0.8066303E-01
       -2   -1    0    0    0  501  0.00000000000E+00  0.00000000000E+00  0.25371907640E+04  0.25371907640E+04  0.25500000920E-02 0.  1.
        2   -1    0    0  501    0  0.00000000000E+00  0.00000000000E+00 -0.13544027833E+04  0.13544027833E+04  0.25500000920E-02 0. -1.
    10030    2    1    2    0    0  0.00000000000E+00  0.00000000000E+00  0.11827879807E+04  0.38915935474E+04  0.37074941579E+04 0.  0.
        3    1    3    3  502    0 -0.18808328625E+01 -0.11062449891E+04  0.21527363065E+04  0.24203419447E+04  0.10100000352E+00 0.  1.
       -3    1    3    3    0  502  0.18808328625E+01  0.11062449891E+04 -0.96994832581E+03  0.14712516027E+04  0.10100000352E+00 0. -1.
</event>
<event>
 5   0  0.5177000E-08  0.3672763E+04  0.7818609E-02  0.8074025E-01
        1   -1    0    0  501    0  0.00000000000E+00  0.00000000000E+00  0.24018759863E+04  0.24018759863E+04  0.50400001928E-02 0.  1.
       -1   -1    0    0    0  501  0.00000000000E+00  0.00000000000E+00 -0.14040264285E+04  0.14040264285E+04  0.50400001928E-02 0. -1.
    10030    2    1    2    0    0  0.00000000000E+00  0.00000000000E+00  0.99784955777E+03  0.38059024148E+04  0.36727631902E+04 0.  0.
        2    1    3    3  502    0 -0.16159414370E+04  0.36139269011E+03 -0.32385150546E+03  0.16872318163E+04  0.25500000920E-02 0.  1.
       -2    1    3    3    0  502  0.16159414370E+04 -0.36139269011E+03  0.13217010632E+04  0.21186705985E+04  0.25500000920E-02 0. -1.
</event>
<event>
 5   0  0.5177000E-08  0.3709751E+04  0.7818609E-02  0.8065804E-01
        1   -1    0    0  501    0  0.00000000000E+00  0.00000000000E+00  0.20727817962E+04  0.20727817962E+04  0.50400001928E-02 0. -1.
       -1   -1    0    0    0  501  0.00000000000E+00  0.00000000000E+00 -0.16598770137E+04  0.16598770137E+04  0.50400001928E-02 0.  1.
    10030    2    1    2    0    0  0.00000000000E+00  0.00000000000E+00  0.41290478252E+03  0.37326588099E+04  0.37097508584E+04 0.  0.
        1    1    3    3  502    0 -0.24784889792E+03 -0.18153701550E+04  0.49731353837E+03  0.18985043143E+04  0.50400001928E-02 0.  1.
       -1    1    3    3    0  502  0.24784889792E+03  0.18153701550E+04 -0.84408755856E+02  0.18341544956E+04  0.50400001928E-02 0. -1.
</event>
<event>
 5   0  0.5177000E-08  0.3681339E+04  0.7818609E-02  0.8072110E-01
       -1   -1    0    0    0  501  0.00000000000E+00  0.00000000000E+00  0.11717613574E+04  0.11717613574E+04  0.50400001928E-02 0. -1.
        1   -1    0    0  501    0  0.00000000000E+00  0.00000000000E+00 -0.28914283054E+04  0.28914283054E+04  0.50400001928E-02 0.  1.
    10030    2    1    2    0    0  0.00000000000E+00  0.00000000000E+00 -0.17196669480E+04  0.40631896628E+04  0.36813388630E+04 0.  0.
        3    1    3    3  502    0 -0.72322345005E+03 -0.13036581508E+04  0.33172416673E+03  0.15272909565E+04  0.10100000352E+00 0. -1.
       -3    1    3    3    0  502  0.72322345005E+03  0.13036581508E+04 -0.20513911147E+04  0.25358987063E+04  0.10100000352E+00 0.  1.
</event>
<event>
 5   0  0.5177000E-08  0.3756370E+04  0.7818609E-02  0.8055583E-01
       -1   -1    0    0    0  501  0.00000000000E+00  0.00000000000E+00  0.16830222550E+04  0.16830222551E+04  0.50400001928E-02 0. -1.
        1   -1    0    0  501    0  0.00000000000E+00  0.00000000000E+00 -0.20959784306E+04  0.20959784306E+04  0.50400001928E-02 0.  1.
    10030    2    1    2    0    0  0.00000000000E+00  0.00000000000E+00 -0.41295617555E+03  0.37790006857E+04  0.37563697075E+04 0.  0.
        3    1    3    3  502    0 -0.26095495243E+03  0.10973262394E+03  0.16614363288E+04  0.16853810907E+04  0.10100000352E+00 0. -1.
       -3    1    3    3    0  502  0.26095495243E+03 -0.10973262394E+03 -0.20743925044E+04  0.20936195950E+04  0.10100000352E+00 0.  1.
</event>
<event>
 5   0  0.1658770E-07  0.3715480E+04  0.7818609E-02  0.8064540E-01
       -2   -1    0    0    0  501  0.00000000000E+00  0.00000000000E+00  0.13446300387E+04  0.13446300387E+04  0.25500000920E-02 0.  1.
        2   -1    0    0  501    0  0.00000000000E+00  0.00000000000E+00 -0.25666517612E+04  0.25666517612E+04  0.25500000920E-02 0. -1.
    10030    2    1    2    0    0  0.00000000000E+00  0.00000000000E+00 -0.12220217226E+04  0.39112817999E+04  0.37154795421E+04 0.  0.
        2    1    3    3  502    0 -0.66786639744E+03 -0.61556940582E+03 -0.23169764540E+04  0.24886444315E+04  0.25500000920E-02 0. -1.
       -2    1    3    3    0  502  0.66786639744E+03  0.61556940582E+03  0.10949547314E+04  0.14226373684E+04  0.25500000920E-02 0.  1.
</event>
<event>
 5   0  0.5181371E-08  0.3709927E+04  0.7818609E-02  0.8065765E-01
        1   -1    0    0  501    0  0.00000000000E+00  0.00000000000E+00  0.16596789458E+04  0.16596789459E+04  0.50400001928E-02 0.  1.
       -1   -1    0    0    0  501  0.00000000000E+00  0.00000000000E+00 -0.20732261537E+04  0.20732261537E+04  0.50400001928E-02 0. -1.
    10030    2    1    2    0    0  0.00000000000E+00  0.00000000000E+00 -0.41354720788E+03  0.37329050996E+04  0.37099271138E+04 0.  0.
        5    1    3    3  502    0 -0.13040031581E+04  0.71318622188E+03  0.90996939298E+03  0.17427349797E+04  0.46999998093E+01 0.  1.
       -5    1    3    3    0  502  0.13040031581E+04 -0.71318622188E+03 -0.13235166009E+04  0.19901701199E+04  0.46999998093E+01 0. -1.
</event>
<event>
 5   0  0.1686284E-07  0.3695428E+04  0.7818609E-02  0.8068976E-01
        2   -1    0    0  501    0  0.00000000000E+00  0.00000000000E+00  0.17713357250E+04  0.17713357250E+04  0.25500000920E-02 0.  1.
       -2   -1    0    0    0  501  0.00000000000E+00  0.00000000000E+00 -0.19273854376E+04  0.19273854376E+04  0.25500000920E-02 0. -1.
    10030    2    1    2    0    0  0.00000000000E+00  0.00000000000E+00 -0.15604971261E+03  0.36987211626E+04  0.36954278137E+04 0.  0.
        5    1    3    3  502    0 -0.38435465169E+03  0.10478738032E+04  0.13957875434E+04  0.17871801705E+04  0.46999998093E+01 0.  1.
       -5    1    3    3    0  502  0.38435465169E+03 -0.10478738032E+04 -0.15518372560E+04  0.19115409921E+04  0.46999998093E+01 0. -1.
</event>
<event>
 5   0  0.5177000E-08  0.3698843E+04  0.7818609E-02  0.8068218E-01
       -1   -1    0    0    0  501  0.00000000000E+00  0.00000000000E+00  0.13983031002E+04  0.13983031002E+04  0.50400001928E-02 0.  1.
        1   -1    0    0  501    0  0.00000000000E+00  0.00000000000E+00 -0.24460791327E+04  0.24460791327E+04  0.50400001928E-02 0. -1.
    10030    2    1    2    0    0  0.00000000000E+00  0.00000000000E+00 -0.10477760325E+04  0.38443822328E+04  0.36988430810E+04 0.  0.
        2    1    3    3  502    0 -0.20903820017E+03 -0.95427081488E+03  0.11082611834E+04  0.14773532441E+04  0.25500000920E-02 0.  1.
       -2    1    3    3    0  502  0.20903820017E+03  0.95427081488E+03 -0.21560372159E+04  0.23670289887E+04  0.25500000920E-02 0. -1.
</event>
<event>
 5   0  0.5177000E-08  0.3724161E+04  0.7818609E-02  0.8062628E-01
        4   -1    0    0  501    0  0.00000000000E+00  0.00000000000E+00  0.19769744017E+04  0.19769748096E+04  0.12699999809E+01 0.  1.
       -4   -1    0    0    0  501  0.00000000000E+00  0.00000000000E+00 -0.17538631815E+04  0.17538636413E+04  0.12699999809E+01 0. -1.
    10030    2    1    2    0    0  0.00000000000E+00  0.00000000000E+00  0.22311122020E+03  0.37308384509E+04  0.37241612384E+04 0.  0.
        5    1    3    3  502    0 -0.76881386181E+03 -0.23199768280E+03  0.17945750498E+04  0.19660669822E+04  0.46999998093E+01 0.  1.
       -5    1    3    3    0  502  0.76881386181E+03  0.23199768280E+03 -0.15714638296E+04  0.17647714687E+04  0.46999998093E+01 0. -1.
</event>
<event>
 5   0  0.5177000E-08  0.3731209E+04  0.7818609E-02  0.8061080E-01
       -1   -1    0    0    0  501  0.00000000000E+00  0.00000000000E+00  0.23116339638E+04  0.23116339638E+04  0.50400001928E-02 0. -1.
        1   -1    0    0  501    0  0.00000000000E+00  0.00000000000E+00 -0.15056367295E+04  0.15056367295E+04  0.50400001928E-02 0.  1.
    10030    2    1    2    0    0  0.00000000000E+00  0.00000000000E+00  0.80599723434E+03  0.38172706933E+04  0.37312094559E+04 0.  0.
        1    1    3    3  502    0  0.91914089693E+03  0.68995267626E+03 -0.11004640007E+04  0.15911868843E+04  0.50400001928E-02 0.  1.
       -1    1    3    3    0  502 -0.91914089693E+03 -0.68995267626E+03  0.19064612350E+04  0.22260838090E+04  0.50400001928E-02 0. -1.
</event>
<event>
 5   0  0.5177000E-08  0.3761275E+04  0.7818609E-02  0.8054517E-01
       -1   -1    0    0    0  501  0.00000000000E+00  0.00000000000E+00  0.18085638839E+04  0.18085638839E+04  0.50400001928E-02 0.  1.
        1   -1    0    0  501    0  0.00000000000E+00  0.00000000000E+00 -0.19555829828E+04  0.19555829828E+04  0.50400001928E-02 0. -1.
    10030    2    1    2    0    0  0.00000000000E+00  0.00000000000E+00 -0.14701909891E+03  0.37641468668E+04  0.37612746535E+04 0.  0.
        2    1    3    3  502    0 -0.73377077513E+03 -0.50048181118E+03 -0.17324530388E+04  0.19468680298E+04  0.25500000920E-02 0. -1.
       -2    1    3    3    0  502  0.73377077513E+03  0.50048181118E+03  0.15854339399E+04  0.18172788370E+04  0.25500000920E-02 0.  1.
</event>
<event>
 5   0  0.1558258E-07  0.3690909E+04  0.7818609E-02  0.8069980E-01
       -2   -1    0    0    0  501  0.00000000000E+00  0.00000000000E+00  0.15782703632E+04  0.15782703632E+04  0.25500000920E-02 0.  1.
        2   -1    0    0  501    0  0.00000000000E+00  0.00000000000E+00 -0.21578696433E+04  0.21578696433E+04  0.25500000920E-02 0. -1.
    10030    2    1    2    0    0  0.00000000000E+00  0.00000000000E+00 -0.57959928015E+03  0.37361400065E+04  0.36909086716E+04 0.  0.
        1    1    3    3  502    0  0.42295392443E+03 -0.12293872714E+04 -0.16155901417E+04  0.20737440998E+04  0.50400001928E-02 0. -1.
       -1    1    3    3    0  502 -0.42295392443E+03  0.12293872714E+04  0.10359908616E+04  0.16623959067E+04  0.50400001928E-02 0.  1.
</event>
<event>
 5   0  0.1558258E-07  0.3790992E+04  0.7818609E-02  0.8048091E-01
        2   -1    0    0  501    0  0.00000000000E+00  0.00000000000E+00  0.20544673897E+04  0.20544673897E+04  0.25500000920E-02 0. -1.
       -2   -1    0    0    0  501  0.00000000000E+00  0.00000000000E+00 -0.17488253257E+04  0.17488253257E+04  0.25500000920E-02 0.  1.
    10030    2    1    2    0    0  0.00000000000E+00  0.00000000000E+00  0.30564206406E+03  0.38032927154E+04  0.37909917446E+04 0.  0.
        1    1    3    3  502    0 -0.17136386583E+04  0.25816758167E+03  0.92322984714E+03  0.19635583266E+04  0.50400001928E-02 0. -1.
       -1    1    3    3    0  502  0.17136386583E+04 -0.25816758167E+03 -0.61758778308E+03  0.18397343888E+04  0.50400001928E-02 0.  1.
</event>
<event>
 5   0  0.5177000E-08  0.3663222E+04  0.7818609E-02  0.8076162E-01
        1   -1    0    0  501    0  0.00000000000E+00  0.00000000000E+00  0.23389400673E+04  0.23389400673E+04  0.50400001928E-02 0. -1.
       -1   -1    0    0    0  501  0.00000000000E+00  0.00000000000E+00 -0.14343241864E+04  0.14343241864E+04  0.50400001928E-02 0.  1.
    10030    2    1    2    0    0  0.00000000000E+00  0.00000000000E+00  0.90461588087E+03  0.37732642536E+04  0.36632217017E+04 0.  0.
        4    1    3    3  502    0 -0.16714837215E+04  0.74701942547E+03  0.50778534227E+03  0.18999324778E+04  0.12699999809E+01 0.  1.
       -4    1    3    3    0  502  0.16714837215E+04 -0.74701942547E+03  0.39683053860E+03  0.18733317759E+04  0.12699999809E+01 0. -1.
</event>
<event>
 5   0  0.1686284E-07  0.3696533E+04  0.7818609E-02  0.8068731E-01
        2   -1    0    0  501    0  0.00000000000E+00  0.00000000000E+00  0.24821033757E+04  0.24821033757E+04  0.25500000920E-02 0. -1.
       -2   -1    0    0    0  501  0.00000000000E+00  0.00000000000E+00 -0.13762877723E+04  0.13762877723E+04  0.25500000920E-02 0.  1.
    10030    2    1    2    0    0  0.00000000000E+00  0.00000000000E+00  0.11058156034E+04  0.38583911480E+04  0.36965327136E+04 0.  0.
        5    1    3    3  502    0 -0.14634564682E+04 -0.26427923882E+03  0.16984691743E+04  0.22575136713E+04  0.46999998093E+01 0. -1.
       -5    1    3    3    0  502  0.14634564682E+04  0.26427923882E+03 -0.59265357090E+03  0.16008774767E+04  0.46999998093E+01 0.  1.
</event>
<event>
 5   0  0.5181371E-08  0.3707771E+04  0.7818609E-02  0.8066242E-01
        1   -1    0    0  501    0  0.00000000000E+00  0.00000000000E+00  0.13705213704E+04  0.13705213704E+04  0.50400001928E-02 0. -1.
       -1   -1    0    0    0  501  0.00000000000E+00  0.00000000000E+00 -0.25077258953E+04  0.25077258953E+04  0.50400001928E-02 0.  1.
    10030    2    1    2    0    0  0.00000000000E+00  0.00000000000E+00 -0.11372045249E+04  0.38782472657E+04  0.37077712608E+04 0.  0.
        5    1    3    3  502    0  0.46804521923E+03  0.11776317889E+04  0.84675206681E+03  0.15241043633E+04  0.46999998093E+01 0. -1.
       -5    1    3    3    0  502 -0.46804521923E+03 -0.11776317889E+04 -0.19839565917E+04  0.23541429025E+04  0.46999998093E+01 0.  1.
</event>
<event>
 5   0  0.5177000E-08  0.3739869E+04  0.7818609E-02  0.8059183E-01
        1   -1    0    0  501    0  0.00000000000E+00  0.00000000000E+00  0.22266740102E+04  0.22266740102E+04  0.50400001928E-02 0. -1.
       -1   -1    0    0    0  501  0.00000000000E+00  0.00000000000E+00 -0.15703492366E+04  0.15703492366E+04  0.50400001928E-02 0.  1.
    10030    2    1    2    0    0  0.00000000000E+00  0.00000000000E+00  0.65632477360E+03  0.37970232468E+04  0.37398694266E+04 0.  0.
        2    1    3    3  502    0  0.62801154841E+03 -0.10899541899E+04  0.17328733118E+04  0.21413193493E+04  0.25500000920E-02 0. -1.
       -2    1    3    3    0  502 -0.62801154841E+03  0.10899541899E+04 -0.10765485382E+04  0.16557038975E+04  0.25500000920E-02 0.  1.
</event>
<event>
 5   0  0.1686284E-07  0.3688256E+04  0.7818609E-02  0.8070569E-01
       -2   -1    0    0    0  501  0.00000000000E+00  0.00000000000E+00  0.26800472303E+04  0.26800472303E+04  0.25500000920E-02 0. -1.
        2   -1    0    0  501    0  0.00000000000E+00  0.00000000000E+00 -0.12689360592E+04  0.12689360592E+04  0.25500000920E-02 0.  1.
    10030    2    1    2    0    0  0.00000000000E+00  0.00000000000E+00  0.14111111711E+04  0.39489832894E+04  0.36882562659E+04 0.  0.
        5    1    3    3  502    0 -0.62208228943E+03  0.48592419932E+03 -0.10788975195E+04  0.13368435398E+04  0.46999998093E+01 0.  1.
       -5    1    3    3    0  502  0.62208228943E+03 -0.48592419932E+03  0.24900086906E+04  0.26121397497E+04  0.46999998093E+01 0. -1.
</event>
<event>
 5   0  0.1558258E-07  0.3710447E+04  0.7818609E-02  0.8065651E-01
       -2   -1    0    0    0  501  0.00000000000E+00  0.00000000000E+00  0.15344083876E+04  0.15344083876E+04  0.25500000920E-02 0. -1.
        2   -1    0    0  501    0  0.00000000000E+00  0.00000000000E+00 -0.22431148760E+04  0.22431148760E+04  0.25500000920E-02 0.  1.
    10030    2    1    2    0    0  0.00000000000E+00  0.00000000000E+00 -0.70870648844E+03  0.37775232636E+04  0.37104470244E+04 0.  0.
        1    1    3    3  502    0 -0.74826072788E+03  0.14393281609E+04 -0.12707897628E+04  0.20606955847E+04  0.50400001928E-02 0.  1.
       -1    1    3    3    0  502  0.74826072788E+03 -0.14393281609E+04  0.56208327438E+03  0.17168276789E+04  0.50400001928E-02 0. -1.
</event>
<event>
 5   0  0.5177000E-08  0.3694739E+04  0.7818609E-02  0.8069129E-01
        1   -1    0    0  501    0  0.00000000000E+00  0.00000000000E+00  0.22320310452E+04  0.22320310452E+04  0.50400001928E-02 0. -1.
       -1   -1    0    0    0  501  0.00000000000E+00  0.00000000000E+00 -0.15289994134E+04  0.15289994134E+04  0.50400001928E-02 0.  1.
    10030    2    1    2    0    0  0.00000000000E+00  0.00000000000E+00  0.70303163178E+03  0.37610304585E+04  0.36947390483E+04 0.  0.
        2    1    3    3  502    0 -0.15541034529E+04  0.32611776025E+03  0.13124789507E+04  0.20601435221E+04  0.25500000920E-02 0. -1.
       -2    1    3    3    0  502  0.15541034529E+04 -0.32611776025E+03 -0.60944731888E+03  0.17008869364E+04  0.25500000920E-02 0.  1.
</event>
<event>
 5   0  0.5177000E-08  0.3709972E+04  0.7818609E-02  0.8065756E-01
       -3   -1    0    0    0  501  0.00000000000E+00  0.00000000000E+00  0.15510001195E+04  0.15510001228E+04  0.10100000352E+00 0. -1.
        3   -1    0    0  501    0  0.00000000000E+00  0.00000000000E+00 -0.22185506324E+04  0.22185506347E+04  0.10100000352E+00 0.  1.
    10030    2    1    2    0    0  0.00000000000E+00  0.00000000000E+00 -0.66755051294E+03  0.37695507575E+04  0.37099715937E+04 0.  0.
        4    1    3    3  502    0 -0.17241680143E+04  0.18739734742E+03 -0.10024453395E+04  0.20031903002E+04  0.12699999809E+01 0.  1.
       -4    1    3    3    0  502  0.17241680143E+04 -0.18739734742E+03  0.33489482655E+03  0.17663604573E+04  0.12699999809E+01 0. -1.
</event>
<event>
 5   0  0.5177000E-08  0.3686179E+04  0.7818609E-02  0.8071032E-01
        1   -1    0    0  501    0  0.00000000000E+00  0.00000000000E+00  0.24321197568E+04  0.24321197568E+04  0.50400001928E-02 0. -1.
       -1   -1    0    0    0  501  0.00000000000E+00  0.00000000000E+00 -0.13967150380E+04  0.13967150380E+04  0.50400001928E-02 0.  1.
    10030    2    1    2    0    0  0.00000000000E+00  0.00000000000E+00  0.10354047188E+04  0.38288347948E+04  0.36861786384E+04 0.  0.
        3    1    3    3  502    0 -0.66206661396E+03 -0.10051533139E+04  0.19675407540E+04  0.23064869423E+04  0.10100000352E+00 0. -1.
       -3    1    3    3    0  502  0.66206661396E+03  0.10051533139E+04 -0.93213603520E+03  0.15223478525E+04  0.10100000352E+00 0.  1.
</event>
<event>
 5   0  0.5177000E-08  0.3693140E+04  0.7818609E-02  0.8069484E-01
        1   -1    0    0  501    0  0.00000000000E+00  0.00000000000E+00  0.15831650991E+04  0.15831650991E+04  0.50400001928E-02 0. -1.
       -1   -1    0    0    0  501  0.00000000000E+00  0.00000000000E+00 -0.21538001706E+04  0.21538001706E+04  0.50400001928E-02 0.  1.
    10030    2    1    2    0    0  0.00000000000E+00  0.00000000000E+00 -0.57063507145E+03  0.37369652697E+04  0.36931402684E+04 0.  0.
        3    1    3    3  502    0  0.43866484160E+03  0.54692526888E+03  0.14432477328E+04  0.16045304987E+04  0.10100000352E+00 0. -1.
       -3    1    3    3    0  502 -0.43866484160E+03 -0.54692526888E+03 -0.20138828042E+04  0.21324347710E+04  0.10100000352E+00 0.  1.
</event>
<event>
 5   0  0.5181371E-08  0.3778449E+04  0.7818609E-02  0.8050795E-01
       -1   -1    0    0    0  501  0.00000000000E+00  0.00000000000E+00  0.17738148832E+04  0.17738148832E+04  0.50400001928E-02 0.  1.
        1   -1    0    0  501    0  0.00000000000E+00  0.00000000000E+00 -0.20121434343E+04  0.20121434343E+04  0.50400001928E-02 0. -1.
    10030    2    1    2    0    0  0.00000000000E+00  0.00000000000E+00 -0.23832855111E+03  0.37859583176E+04  0.37784494021E+04 0.  0.
        5    1    3    3  502    0 -0.15918022980E+04  0.88545745540E+03 -0.62143725278E+03  0.19245975711E+04  0.46999998093E+01 0.  1.
       -5    1    3    3    0  502  0.15918022980E+04 -0.88545745540E+03  0.38310870167E+03  0.18613607465E+04  0.46999998093E+01 0. -1.
</event>
<event>
 5   0  0.5177000E-08  0.3690408E+04  0.7818609E-02  0.8070091E-01
       -1   -1    0    0    0  501  0.00000000000E+00  0.00000000000E+00  0.11835266800E+04  0.11835266800E+04  0.50400001928E-02 0.  1.
        1   -1    0    0  501    0  0.00000000000E+00  0.00000000000E+00 -0.28768075831E+04  0.28768075831E+04  0.50400001928E-02 0. -1.
    10030    2    1    2    0    0  0.00000000000E+00  0.00000000000E+00 -0.16932809031E+04  0.40603342631E+04  0.36904083935E+04 0.  0.
        4    1    3    3  502    0  0.11277843099E+04 -0.11417165459E+04 -0.18486217896E+04  0.24480233363E+04  0.12699999809E+01 0. -1.
       -4    1    3    3    0  502 -0.11277843099E+04  0.11417165459E+04  0.15534088656E+03  0.16123109268E+04  0.12699999809E+01 0.  1.
</event>
<event>
 5   0  0.5181371E-08  0.3701506E+04  0.7818609E-02  0.8067628E-01
        1   -1    0    0  501    0  0.00000000000E+00  0.00000000000E+00  0.17707077501E+04  0.17707077501E+04  0.50400001928E-02 0.  1.
       -1   -1    0    0    0  501  0.00000000000E+00  0.00000000000E+00 -0.19344170986E+04  0.19344170986E+04  0.50400001928E-02 0. -1.
    10030    2    1    2    0    0  0.00000000000E+00  0.00000000000E+00 -0.16370934848E+03  0.37051248488E+04  0.37015063683E+04 0.  0.
        5    1    3    3  502    0 -0.14637570433E+04  0.10053125758E+04  0.44021745959E+03  0.18294948916E+04  0.46999998093E+01 0. -1.
       -5    1    3    3    0  502  0.14637570433E+04 -0.10053125758E+04 -0.60392680807E+03  0.18756299572E+04  0.46999998093E+01 0.  1.
</event>
<event>
 5   0  0.1666189E-07  0.3696248E+04  0.7818609E-02  0.8068794E-01
        2   -1    0    0  501    0  0.00000000000E+00  0.00000000000E+00  0.27513893519E+04  0.27513893519E+04  0.25500000920E-02 0.  1.
       -2   -1    0    0    0  501  0.00000000000E+00  0.00000000000E+00 -0.12413952657E+04  0.12413952657E+04  0.25500000920E-02 0. -1.
    10030    2    1    2    0    0  0.00000000000E+00  0.00000000000E+00  0.15099940862E+04  0.39927846176E+04  0.36962476732E+04 0.  0.
        4    1    3    3  502    0  0.46693520236E+02 -0.10860458347E+04  0.23695234545E+04  0.26069750391E+04  0.12699999809E+01 0.  1.
       -4    1    3    3    0  502 -0.46693520236E+02  0.10860458347E+04 -0.85952936833E+03  0.13858095785E+04  0.12699999809E+01 0. -1.
</event>
<event>
 5   0  0.5181371E-08  0.3702797E+04  0.7818609E-02  0.8067342E-01
       -1   -1    0    0    0  501  0.00000000000E+00  0.00000000000E+00  0.28822635543E+04  0.28822635543E+04  0.50400001928E-02 0. -1.
        1   -1    0    0  501    0  0.00000000000E+00  0.00000000000E+00 -0.11892308687E+04  0.11892308687E+04  0.50400001928E-02 0.  1.
    10030    2    1    2    0    0  0.00000000000E+00  0.00000000000E+00  0.16930326856E+04  0.40714944230E+04  0.37027972078E+04 0.  0.
        5    1    3    3  502    0 -0.13419619733E+03 -0.95133466689E+03 -0.89366230662E+03  0.13121359213E+04  0.46999998093E+01 0.  1.
       -5    1    3    3    0  502  0.13419619733E+03  0.95133466689E+03  0.25866949922E+04  0.27593585017E+04  0.46999998093E+01 0. -1.
</event>
<event>
 5   0  0.1587026E-07  0.3694550E+04  0.7818609E-02  0.8069171E-01
       -2   -1    0    0    0  501  0.00000000000E+00  0.00000000000E+00  0.14069671846E+04  0.14069671846E+04  0.25500000920E-02 0.  1.
        2   -1    0    0  501    0  0.00000000000E+00  0.00000000000E+00 -0.24253765690E+04  0.24253765690E+04  0.25500000920E-02 0. -1.
    10030    2    1    2    0    0  0.00000000000E+00  0.00000000000E+00 -0.10184093844E+04  0.38323437536E+04  0.36945501718E+04 0.  0.
        3    1    3    3  502    0  0.16326465480E+04 -0.66962189120E+03  0.57520968958E+02  0.17655698513E+04  0.10100000352E+00 0.  1.
       -3    1    3    3    0  502 -0.16326465480E+04  0.66962189120E+03 -0.10759303534E+04  0.20667739023E+04  0.10100000352E+00 0. -1.
</event>
<event>
 5   0  0.1587026E-07  0.3703591E+04  0.7818609E-02  0.8067166E-01
        2   -1    0    0  501    0  0.00000000000E+00  0.00000000000E+00  0.13961985510E+04  0.13961985510E+04  0.25500000920E-02 0. -1.
       -2   -1    0    0    0  501  0.00000000000E+00  0.00000000000E+00 -0.24560599691E+04  0.24560599691E+04  0.25500000920E-02 0.  1.
    10030    2    1    2    0    0  0.00000000000E+00  0.00000000000E+00 -0.10598614181E+04  0.38522585201E+04  0.37035914299E+04 0.  0.
        3    1    3    3  502    0 -0.12834144113E+03 -0.10373274780E+04 -0.21198940065E+04  0.23635715413E+04  0.10100000352E+00 0.  1.
       -3    1    3    3    0  502  0.12834144113E+03  0.10373274780E+04  0.10600325883E+04  0.14886869787E+04  0.10100000352E+00 0. -1.
</event>
<event>
 5   0  0.5177000E-08  0.3739323E+04  0.7818609E-02  0.8059303E-01
       -1   -1    0    0    0  501  0.00000000000E+00  0.00000000000E+00  0.18060099215E+04  0.18060099215E+04  0.50400001928E-02 0. -1.
        1   -1    0    0  501    0  0.00000000000E+00  0.00000000000E+00 -0.19355565604E+04  0.19355565604E+04  0.50400001928E-02 0.  1.
    10030    2    1    2    0    0  0.00000000000E+00  0.00000000000E+00 -0.12954663889E+03  0.37415664819E+04  0.37393231214E+04 0.  0.
        2    1    3    3  502    0 -0.10731777943E+04 -0.10563354832E+04  0.10440788366E+04  0.18323907466E+04  0.25500000920E-02 0. -1.
       -2    1    3    3    0  502  0.10731777943E+04  0.10563354832E+04 -0.11736254755E+04  0.19091757352E+04  0.25500000920E-02 0.  1.
</event>
<event>
 5   0  0.1686284E-07  0.3698831E+04  0.7818609E-02  0.8068221E-01
        2   -1    0    0  501    0  0.00000000000E+00  0.00000000000E+00  0.11174493892E+04  0.11174493892E+04  0.25500000920E-02 0. -1.
       -2   -1    0    0    0  501  0.00000000000E+00  0.00000000000E+00 -0.30608436438E+04  0.30608436438E+04  0.25500000920E-02 0.  1.
    10030    2    1    2    0    0  0.00000000000E+00  0.00000000000E+00 -0.19433942546E+04  0.41782930331E+04  0.36988310912E+04 0.  0.
        5    1    3    3  502    0 -0.19657351317E+03  0.67596143417E+03 -0.29035712571E+04  0.29876936157E+04  0.46999998093E+01 0.  1.
       -5    1    3    3    0  502  0.19657351317E+03 -0.67596143417E+03  0.96017700244E+03  0.11905994173E+04  0.46999998093E+01 0. -1.
</event>
<event>
 5   0  0.5181371E-08  0.3578881E+04  0.7818609E-02  0.8095346E-01
        1   -1    0    0  501    0  0.00000000000E+00  0.00000000000E+00  0.22811978309E+04  0.22811978309E+04  0.50400001928E-02 0.  1.
       -1   -1    0    0    0  501  0.00000000000E+00  0.00000000000E+00 -0.14036915685E+04  0.14036915685E+04  0.50400001928E-02 0. -1.
    10030    2    1    2    0    0  0.00000000000E+00  0.00000000000E+00  0.87750626239E+03  0.36848893994E+04  0.35788814797E+04 0.  0.
        5    1    3    3  502    0  0.35831094871E+03  0.16348761171E+04  0.10906495621E+04  0.19976849630E+04  0.46999998093E+01 0.  1.
       -5    1    3    3    0  502 -0.35831094871E+03 -0.16348761171E+04 -0.21314329966E+03  0.16872044364E+04  0.46999998093E+01 0. -1.
</event>
<event>
 5   0  0.5177000E-08  0.3690784E+04  0.7818609E-02  0.8070007E-01
       -1   -1    0    0    0  501  0.00000000000E+00  0.00000000000E+00  0.17388499676E+04  0.17388499676E+04  0.50400001928E-02 0. -1.
        1   -1    0    0  501    0  0.00000000000E+00  0.00000000000E+00 -0.19584622894E+04  0.19584622894E+04  0.50400001928E-02 0.  1.
    10030    2    1    2    0    0  0.00000000000E+00  0.00000000000E+00 -0.21961232181E+03  0.36973122569E+04  0.36907842464E+04 0.  0.
        2    1    3    3  502    0 -0.82477388351E+03  0.11968211484E+04  0.10292358430E+04  0.17809995061E+04  0.25500000920E-02 0. -1.
       -2    1    3    3    0  502  0.82477388351E+03 -0.11968211484E+04 -0.12488481648E+04  0.19163127508E+04  0.25500000920E-02 0.  1.
</event>
<event>
 5   0  0.1686284E-07  0.3536670E+04  0.7818609E-02  0.8105154E-01
        2   -1    0    0  501    0  0.00000000000E+00  0.00000000000E+00  0.25813926519E+04  0.25813926519E+04  0.25500000920E-02 0. -1.
       -2   -1    0    0    0  501  0.00000000000E+00  0.00000000000E+00 -0.12113649666E+04  0.12113649666E+04  0.25500000920E-02 0.  1.
    10030    2    1    2    0    0  0.00000000000E+00  0.00000000000E+00  0.13700276853E+04  0.37927576184E+04  0.35366699724E+04 0.  0.
        5    1    3    3  502    0  0.22019397979E+03  0.17088617569E+03  0.25576808717E+04  0.25728274340E+04  0.46999998093E+01 0. -1.
       -5    1    3    3    0  502 -0.22019397979E+03 -0.17088617569E+03 -0.11876531864E+04  0.12199301844E+04  0.46999998093E+01 0.  1.
</event>
<event>
 5   0  0.1558258E-07  0.3720446E+04  0.7818609E-02  0.8063446E-01
        2   -1    0    0  501    0  0.00000000000E+00  0.00000000000E+00  0.19103562596E+04  0.19103562596E+04  0.25500000920E-02 0.  1.
       -2   -1    0    0    0  501  0.00000000000E+00  0.00000000000E+00 -0.18114052714E+04  0.18114052714E+04  0.25500000920E-02 0. -1.
    10030    2    1    2    0    0  0.00000000000E+00  0.00000000000E+00  0.98950988210E+02  0.37217615311E+04  0.37204458867E+04 0.  0.
        1    1    3    3  502    0 -0.12174810547E+04 -0.46182877259E+03 -0.12794834599E+04  0.18255475501E+04  0.50400001928E-02 0. -1.
       -1    1    3    3    0  502  0.12174810547E+04  0.46182877259E+03  0.13784344481E+04  0.18962139809E+04  0.50400001928E-02 0.  1.
</event>
<event>
 5   0  0.5177000E-08  0.3693206E+04  0.7818609E-02  0.8069469E-01
       -1   -1    0    0    0  501  0.00000000000E+00  0.00000000000E+00  0.26286679028E+04  0.26286679028E+04  0.50400001928E-02 0.  1.
        1   -1    0    0  501    0  0.00000000000E+00  0.00000000000E+00 -0.12972130148E+04  0.12972130148E+04  0.50400001928E-02 0. -1.
    10030    2    1    2    0    0  0.00000000000E+00  0.00000000000E+00  0.13314548879E+04  0.39258809176E+04  0.36932057701E+04 0.  0.
        2    1    3    3  502    0 -0.57186726173E+03 -0.13697614366E+04  0.18334152179E+04  0.23589594993E+04  0.25500000920E-02 0.  1.
       -2    1    3    3    0  502  0.57186726173E+03  0.13697614366E+04 -0.50196032998E+03  0.15669214183E+04  0.25500000920E-02 0. -1.
</event>
<event>
 5   0  0.1558258E-07  0.3696221E+04  0.7818609E-02  0.8068800E-01
        2   -1    0    0  501    0  0.00000000000E+00  0.00000000000E+00  0.28765021132E+04  0.28765021132E+04  0.25500000920E-02 0.  1.
       -2   -1    0    0    0  501  0.00000000000E+00  0.00000000000E+00 -0.11873837016E+04  0.11873837016E+04  0.25500000920E-02 0. -1.
    10030    2    1    2    0    0  0.00000000000E+00  0.00000000000E+00  0.16891184116E+04  0.40638858148E+04  0.36962206248E+04 0.  0.
        1    1    3    3  502    0 -0.88433529328E+03  0.50924666519E+03 -0.84952860696E+03  0.13278102014E+04  0.50400001928E-02 0. -1.
       -1    1    3    3    0  502  0.88433529328E+03 -0.50924666519E+03  0.25386470186E+04  0.27360756133E+04  0.50400001928E-02 0.  1.
</event>
<event>
 5   0  0.5177000E-08  0.3668132E+04  0.7818609E-02  0.8075061E-01
        1   -1    0    0  501    0  0.00000000000E+00  0.00000000000E+00  0.18131662473E+04  0.18131662473E+04  0.50400001928E-02 0.  1.
       -1   -1    0    0    0  501  0.00000000000E+00  0.00000000000E+00 -0.18552062926E+04  0.18552062926E+04  0.50400001928E-02 0. -1.
    10030    2    1    2    0    0  0.00000000000E+00  0.00000000000E+00 -0.42040045286E+02  0.36683725399E+04  0.36681316397E+04 0.  0.
        4    1    3    3  502    0  0.11294585657E+04  0.29742919036E+03  0.13931644428E+04  0.18179795248E+04  0.12699999809E+01 0.  1.
       -4    1    3    3    0  502 -0.11294585657E+04 -0.29742919036E+03 -0.14352044881E+04  0.18503930152E+04  0.12699999809E+01 0. -1.
</event>
<event>
 5   0  0.1587026E-07  0.3647689E+04  0.7818609E-02  0.8079654E-01
       -2   -1    0    0    0  501  0.00000000000E+00  0.00000000000E+00  0.13606729434E+04  0.13606729434E+04  0.25500000920E-02 0.  1.
        2   -1    0    0  501    0  0.00000000000E+00  0.00000000000E+00 -0.24446793550E+04  0.24446793550E+04  0.25500000920E-02 0. -1.
    10030    2    1    2    0    0  0.00000000000E+00  0.00000000000E+00 -0.10840064116E+04  0.38053522983E+04  0.36476891609E+04 0.  0.
        3    1    3    3  502    0 -0.14203644828E+04  0.11028422347E+04 -0.22435466835E+03  0.18121896385E+04  0.10100000352E+00 0.  1.
       -3    1    3    3    0  502  0.14203644828E+04 -0.11028422347E+04 -0.85965174321E+03  0.19931626598E+04  0.10100000352E+00 0. -1.
</event>
<event>
 5   0  0.5177000E-08  0.3701085E+04  0.7818609E-02  0.8067721E-01
       -1   -1    0    0    0  501  0.00000000000E+00  0.00000000000E+00  0.14132944505E+04  0.14132944505E+04  0.50400001928E-02 0.  1.
        1   -1    0    0  501    0  0.00000000000E+00  0.00000000000E+00 -0.24230679245E+04  0.24230679245E+04  0.50400001928E-02 0. -1.
    10030    2    1    2    0    0  0.00000000000E+00  0.00000000000E+00 -0.10097734740E+04  0.38363623750E+04  0.37010854899E+04 0.  0.
        4    1    3    3  502    0 -0.63476923162E+03 -0.83007513987E+03  0.10782046957E+04  0.15014938208E+04  0.12699999809E+01 0.  1.
       -4    1    3    3    0  502  0.63476923162E+03  0.83007513987E+03 -0.20879781697E+04  0.23348685542E+04  0.12699999809E+01 0. -1.
</event>
<event>
 5   0  0.1587026E-07  0.3701191E+04  0.7818609E-02  0.8067698E-01
        2   -1    0    0  501    0  0.00000000000E+00  0.00000000000E+00  0.12537724739E+04  0.12537724739E+04  0.25500000920E-02 0. -1.
       -2   -1    0    0    0  501  0.00000000000E+00  0.00000000000E+00 -0.27315190950E+04  0.27315190950E+04  0.25500000920E-02 0.  1.
    10030    2    1    2    0    0  0.00000000000E+00  0.00000000000E+00 -0.14777466211E+04  0.39852915689E+04  0.37011908642E+04 0.  0.
        3    1    3    3  502    0  0.35096888447E+03  0.17863511134E+04 -0.38098408097E+03  0.18599404126E+04  0.10100000352E+00 0. -1.
       -3    1    3    3    0  502 -0.35096888447E+03 -0.17863511134E+04 -0.10967625402E+04  0.21253511564E+04  0.10100000352E+00 0.  1.
</event>
<event>
 5   0  0.1666189E-07  0.3693343E+04  0.7818609E-02  0.8069439E-01
        2   -1    0    0  501    0  0.00000000000E+00  0.00000000000E+00  0.22471055805E+04  0.22471055805E+04  0.25500000920E-02 0.  1.
       -2   -1    0    0    0  501  0.00000000000E+00  0.00000000000E+00 -0.15175948692E+04  0.15175948692E+04  0.25500000920E-02 0. -1.
    10030    2    1    2    0    0  0.00000000000E+00  0.00000000000E+00  0.72951071133E+03  0.37647004497E+04  0.36933431465E+04 0.  0.
        4    1    3    3  502    0 -0.39700363055E+03  0.76397239846E+03  0.20300045888E+04  0.22050364967E+04  0.12699999809E+01 0.  1.
       -4    1    3    3    0  502  0.39700363055E+03 -0.76397239846E+03 -0.13004938774E+04  0.15596639530E+04  0.12699999809E+01 0. -1.
</event>
<event>
 5   0  0.1658770E-07  0.3699172E+04  0.7818609E-02  0.8068145E-01
       -2   -1    0    0    0  501  0.00000000000E+00  0.00000000000E+00  0.13220977683E+04  0.13220977683E+04  0.25500000920E-02 0. -1.
        2   -1    0    0  501    0  0.00000000000E+00  0.00000000000E+00 -0.25875302272E+04  0.25875302272E+04  0.25500000920E-02 0.  1.
    10030    2    1    2    0    0  0.00000000000E+00  0.00000000000E+00 -0.12654324589E+04  0.39096279954E+04  0.36991717660E+04 0.  0.
        2    1    3    3  502    0  0.10186166742E+04 -0.15254529491E+04 -0.38175968883E+03  0.18735866910E+04  0.25500000920E-02 0.  1.
       -2    1    3    3    0  502 -0.10186166742E+04  0.15254529491E+04 -0.88367277005E+03  0.20360413044E+04  0.25500000920E-02 0. -1.
</event>
<event>
 5   0  0.1658770E-07  0.3716725E+04  0.7818609E-02  0.8064265E-01
       -2   -1    0    0    0  501  0.00000000000E+00  0.00000000000E+00  0.13508165249E+04  0.13508165249E+04  0.25500000920E-02 0. -1.
        2   -1    0    0  501    0  0.00000000000E+00  0.00000000000E+00 -0.25566107732E+04  0.25566107732E+04  0.25500000920E-02 0.  1.
    10030    2    1    2    0    0  0.00000000000E+00  0.00000000000E+00 -0.12057942482E+04  0.39074272981E+04  0.37167254836E+04 0.  0.
        2    1    3    3  502    0 -0.12461348653E+04  0.10233947226E+04 -0.15740491097E+04  0.22534017530E+04  0.25500000920E-02 0.  1.
       -2    1    3    3    0  502  0.12461348653E+04 -0.10233947226E+04  0.36825486142E+03  0.16540255451E+04  0.25500000920E-02 0. -1.
</event>
<event>
 5   0  0.5177000E-08  0.3701385E+04  0.7818609E-02  0.8067655E-01
       -1   -1    0    0    0  501  0.00000000000E+00  0.00000000000E+00  0.26609302391E+04  0.26609302391E+04  0.50400001928E-02 0. -1.
        1   -1    0    0  501    0  0.00000000000E+00  0.00000000000E+00 -0.12871675905E+04  0.12871675905E+04  0.50400001928E-02 0.  1.
    10030    2    1    2    0    0  0.00000000000E+00  0.00000000000E+00  0.13737626487E+04  0.39480978296E+04  0.37013852349E+04 0.  0.
        4    1    3    3  502    0 -0.18060750093E+04  0.16216599257E+02  0.25638147147E+03  0.18242540912E+04  0.12699999809E+01 0.  1.
       -4    1    3    3    0  502  0.18060750093E+04 -0.16216599257E+02  0.11173811772E+04  0.21238437384E+04  0.12699999809E+01 0. -1.
</event>
<event>
 5   0  0.1658770E-07  0.3695712E+04  0.7818609E-02  0.8068913E-01
        2   -1    0    0  501    0  0.00000000000E+00  0.00000000000E+00  0.25486229238E+04  0.25486229238E+04  0.25500000920E-02 0. -1.
       -2   -1    0    0    0  501  0.00000000000E+00  0.00000000000E+00 -0.13397709923E+04  0.13397709923E+04  0.25500000920E-02 0.  1.
    10030    2    1    2    0    0  0.00000000000E+00  0.00000000000E+00  0.12088519315E+04  0.38883939160E+04  0.36957116032E+04 0.  0.
        2    1    3    3  502    0  0.13068027958E+04 -0.12785666462E+04  0.32190257271E+03  0.18563640489E+04  0.25500000920E-02 0.  1.
       -2    1    3    3    0  502 -0.13068027958E+04  0.12785666462E+04  0.88694935881E+03  0.20320298671E+04  0.25500000920E-02 0. -1.
</event>
<event>
 5   0  0.1686284E-07  0.3686614E+04  0.7818609E-02  0.8070935E-01
        2   -1    0    0  501    0  0.00000000000E+00  0.00000000000E+00  0.19772667734E+04  0.19772667734E+04  0.25500000920E-02 0.  1.
       -2   -1    0    0    0  501  0.00000000000E+00  0.00000000000E+00 -0.17184231261E+04  0.17184231261E+04  0.25500000920E-02 0. -1.
    10030    2    1    2    0    0  0.00000000000E+00  0.00000000000E+00  0.25884364726E+03  0.36956898995E+04  0.36866141376E+04 0.  0.
        5    1    3    3  502    0  0.84419446550E+03 -0.78459900620E+03  0.15715386542E+04  0.19488498474E+04  0.46999998093E+01 0.  1.
       -5    1    3    3    0  502 -0.84419446550E+03  0.78459900620E+03 -0.13126950070E+04  0.17468400520E+04  0.46999998093E+01 0. -1.
</event>
<event>
 5   0  0.1686284E-07  0.3683420E+04  0.7818609E-02  0.8071646E-01
        2   -1    0    0  501    0  0.00000000000E+00  0.00000000000E+00  0.23996858099E+04  0.23996858099E+04  0.25500000920E-02 0.  1.
       -2   -1    0    0    0  501  0.00000000000E+00  0.00000000000E+00 -0.14134751149E+04  0.14134751149E+04  0.25500000920E-02 0. -1.
    10030    2    1    2    0    0  0.00000000000E+00  0.00000000000E+00  0.98621069501E+03  0.38131609248E+04  0.36834202453E+04 0.  0.
        5    1    3    3  502    0 -0.37952792915E+03 -0.16633564890E+04 -0.22492290619E+03  0.17208743888E+04  0.46999998093E+01 0. -1.
       -5    1    3    3    0  502  0.37952792915E+03  0.16633564890E+04  0.12111336012E+04  0.20922865359E+04  0.46999998093E+01 0.  1.
</event>
<event>
 5   0  0.1587026E-07  0.3696304E+04  0.7818609E-02  0.8068781E-01
       -2   -1    0    0    0  501  0.00000000000E+00  0.00000000000E+00  0.28546438562E+04  0.28546438562E+04  0.25500000920E-02 0. -1.
        2   -1    0    0  501    0  0.00000000000E+00  0.00000000000E+00 -0.11965295854E+04  0.11965295854E+04  0.25500000920E-02 0.  1.
    10030    2    1    2    0    0  0.00000000000E+00  0.00000000000E+00  0.16581142709E+04  0.40511734416E+04  0.36963040079E+04 0.  0.
        3    1    3    3  502    0  0.62128753482E+03 -0.80057877142E+03 -0.86488163539E+03  0.13322705520E+04  0.10100000352E+00 0.  1.
       -3    1    3    3    0  502 -0.62128753482E+03  0.80057877142E+03  0.25229959063E+04  0.27189028896E+04  0.10100000352E+00 0. -1.
</event>
<event>
 5   0  0.5181371E-08  0.3698850E+04  0.7818609E-02  0.8068217E-01
       -1   -1    0    0    0  501  0.00000000000E+00  0.00000000000E+00  0.23675827376E+04  0.23675827376E+04  0.50400001928E-02 0. -1.
        1   -1    0    0  501    0  0.00000000000E+00  0.00000000000E+00 -0.14446690639E+04  0.14446690639E+04  0.50400001928E-02 0.  1.
    10030    2    1    2    0    0  0.00000000000E+00  0.00000000000E+00  0.92291367371E+03  0.38122518016E+04  0.36988503821E+04 0.  0.
        5    1    3    3  502    0 -0.45383033533E+03 -0.11847690674E+04 -0.92542503489E+03  0.15703736184E+04  0.46999998093E+01 0.  1.
       -5    1    3    3    0  502  0.45383033533E+03  0.11847690674E+04  0.18483387086E+04  0.22418781831E+04  0.46999998093E+01 0. -1.
</event>
<event>
 5   0  0.5177000E-08  0.3726419E+04  0.7818609E-02  0.8062132E-01
       -1   -1    0    0    0  501  0.00000000000E+00  0.00000000000E+00  0.11819085789E+04  0.11819085789E+04  0.50400001928E-02 0. -1.
        1   -1    0    0  501    0  0.00000000000E+00  0.00000000000E+00 -0.29372404385E+04  0.29372404385E+04  0.50400001928E-02 0.  1.
    10030    2    1    2    0    0  0.00000000000E+00  0.00000000000E+00 -0.17553318596E+04  0.41191490175E+04  0.37264190170E+04 0.  0.
        1    1    3    3  502    0  0.73284572167E+02  0.39124324576E+03 -0.28896919709E+04  0.29169781611E+04  0.50400001928E-02 0.  1.
       -1    1    3    3    0  502 -0.73284572167E+02 -0.39124324576E+03  0.11343601112E+04  0.12021708563E+04  0.50400001928E-02 0. -1.
</event>
<event>
 5   0  0.1587026E-07  0.3697898E+04  0.7818609E-02  0.8068428E-01
       -2   -1    0    0    0  501  0.00000000000E+00  0.00000000000E+00  0.31330181752E+04  0.31330181752E+04  0.25500000920E-02 0.  1.
        2   -1    0    0  501    0  0.00000000000E+00  0.00000000000E+00 -0.10911562060E+04  0.10911562060E+04  0.25500000920E-02 0. -1.
    10030    2    1    2    0    0  0.00000000000E+00  0.00000000000E+00  0.20418619692E+04  0.42241743813E+04  0.36978979031E+04 0.  0.
        3    1    3    3  502    0  0.46083073900E+03  0.17142613170E+04  0.16118034713E+04  0.23977004136E+04  0.10100000352E+00 0.  1.
       -3    1    3    3    0  502 -0.46083073900E+03 -0.17142613170E+04  0.43005849785E+03  0.18264739677E+04  0.10100000352E+00 0. -1.
</event>
<event>
 5   0  0.5177000E-08  0.3705824E+04  0.7818609E-02  0.8066672E-01
       -1   -1    0    0    0  501  0.00000000000E+00  0.00000000000E+00  0.25251969988E+04  0.25251969988E+04  0.50400001928E-02 0. -1.
        1   -1    0    0  501    0  0.00000000000E+00  0.00000000000E+00 -0.13596100725E+04  0.13596100725E+04  0.50400001928E-02 0.  1.
    10030    2    1    2    0    0  0.00000000000E+00  0.00000000000E+00  0.11655869262E+04  0.38848070713E+04  0.37058242131E+04 0.  0.
        2    1    3    3  502    0 -0.13456625443E+04 -0.11038228755E+03  0.19130544973E+04  0.23415314309E+04  0.25500000920E-02 0. -1.
       -2    1    3    3    0  502  0.13456625443E+04  0.11038228755E+03 -0.74746757105E+03  0.15432756404E+04  0.25500000920E-02 0.  1.
</event>
<event>
 5   0  0.1666189E-07  0.3598248E+04  0.7818609E-02  0.8090893E-01
       -2   -1    0    0    0  501  0.00000000000E+00  0.00000000000E+00  0.29792355541E+04  0.29792355541E+04  0.25500000920E-02 0.  1.
        2   -1    0    0  501    0  0.00000000000E+00  0.00000000000E+00 -0.10864687797E+04  0.10864687797E+04  0.25500000920E-02 0. -1.
    10030    2    1    2    0    0  0.00000000000E+00  0.00000000000E+00  0.18927667744E+04  0.40657043338E+04  0.35982475829E+04 0.  0.
        4    1    3    3  502    0 -0.95406381498E+03 -0.43589902136E+03 -0.70522191832E+03  0.12639562045E+04  0.12699999809E+01 0. -1.
       -4    1    3    3    0  502  0.95406381498E+03  0.43589902136E+03  0.25979886927E+04  0.28017481293E+04  0.12699999809E+01 0.  1.
</event>
<event>
 5   0  0.5177000E-08  0.3757549E+04  0.7818609E-02  0.8055327E-01
        1   -1    0    0  501    0  0.00000000000E+00  0.00000000000E+00  0.16754235198E+04  0.16754235198E+04  0.50400001928E-02 0. -1.
       -1   -1    0    0    0  501  0.00000000000E+00  0.00000000000E+00 -0.21068070130E+04  0.21068070130E+04  0.50400001928E-02 0.  1.
    10030    2    1    2    0    0  0.00000000000E+00  0.00000000000E+00 -0.43138349321E+03  0.37822305328E+04  0.37575492126E+04 0.  0.
        4    1    3    3  502    0 -0.97131269458E+03  0.93803386696E+03  0.10991951207E+04  0.17411454311E+04  0.12699999809E+01 0. -1.
       -4    1    3    3    0  502  0.97131269458E+03 -0.93803386696E+03 -0.15305786139E+04  0.20410851017E+04  0.12699999809E+01 0.  1.
</event>
<event>
 5   0  0.1666189E-07  0.3702321E+04  0.7818609E-02  0.8067448E-01
        2   -1    0    0  501    0  0.00000000000E+00  0.00000000000E+00  0.20482363164E+04  0.20482363164E+04  0.25500000920E-02 0. -1.
       -2   -1    0    0    0  501  0.00000000000E+00  0.00000000000E+00 -0.16730470798E+04  0.16730470798E+04  0.25500000920E-02 0.  1.
    10030    2    1    2    0    0  0.00000000000E+00  0.00000000000E+00  0.37518923663E+03  0.37212833962E+04  0.37023213193E+04 0.  0.
        4    1    3    3  502    0 -0.10289250950E+04  0.90548153830E+00  0.17343415124E+04  0.20165886456E+04  0.12699999809E+01 0. -1.
       -4    1    3    3    0  502  0.10289250950E+04 -0.90548153830E+00 -0.13591522758E+04  0.17046947506E+04  0.12699999809E+01 0.  1.
</event>
<event>
 5   0  0.1558258E-07  0.3681180E+04  0.7818609E-02  0.8072145E-01
        2   -1    0    0  501    0  0.00000000000E+00  0.00000000000E+00  0.25706886640E+04  0.25706886640E+04  0.25500000920E-02 0.  1.
       -2   -1    0    0    0  501  0.00000000000E+00  0.00000000000E+00 -0.13178456310E+04  0.13178456310E+04  0.25500000920E-02 0. -1.
    10030    2    1    2    0    0  0.00000000000E+00  0.00000000000E+00  0.12528430330E+04  0.38885342951E+04  0.36811796069E+04 0.  0.
        1    1    3    3  502    0  0.56142659716E+03 -0.17110807579E+04  0.22449776261E+03  0.18147717293E+04  0.50400001928E-02 0.  1.
       -1    1    3    3    0  502 -0.56142659716E+03  0.17110807579E+04  0.10283452704E+04  0.20737625658E+04  0.50400001928E-02 0. -1.
</event>
<event>
 5   0  0.1658770E-07  0.3699087E+04  0.7818609E-02  0.8068164E-01
       -2   -1    0    0    0  501  0.00000000000E+00  0.00000000000E+00  0.17434607538E+04  0.17434607538E+04  0.25500000920E-02 0. -1.
        2   -1    0    0  501    0  0.00000000000E+00  0.00000000000E+00 -0.19620809154E+04  0.19620809154E+04  0.25500000920E-02 0.  1.
    10030    2    1    2    0    0  0.00000000000E+00  0.00000000000E+00 -0.21862016165E+03  0.37055416692E+04  0.36990869532E+04 0.  0.
        2    1    3    3  502    0 -0.10685664840E+03  0.12871482066E+04 -0.14354941178E+04  0.19310132603E+04  0.25500000920E-02 0.  1.
       -2    1    3    3    0  502  0.10685664840E+03 -0.12871482066E+04  0.12168739562E+04  0.17745284090E+04  0.25500000920E-02 0. -1.
</event>
<event>
 5   0  0.5177000E-08  0.3691199E+04  0.7818609E-02  0.8069915E-01
       -1   -1    0    0    0  501  0.00000000000E+00  0.00000000000E+00  0.27312002815E+04  0.27312002815E+04  0.50400001928E-02 0. -1.
        1   -1    0    0  501    0  0.00000000000E+00  0.00000000000E+00 -0.12471574362E+04  0.12471574363E+04  0.50400001928E-02 0.  1.
    10030    2    1    2    0    0  0.00000000000E+00  0.00000000000E+00  0.14840428452E+04  0.39783577177E+04  0.36911985809E+04 0.  0.
        3    1    3    3  502    0 -0.15885620575E+04 -0.93898678033E+03  0.70774910395E+03  0.19763942897E+04  0.10100000352E+00 0.  1.
       -3    1    3    3    0  502  0.15885620575E+04  0.93898678033E+03  0.77629374129E+03  0.20019634280E+04  0.10100000352E+00 0. -1.
</event>
<event>
 5   0  0.5177000E-08  0.3689053E+04  0.7818609E-02  0.8070392E-01
        1   -1    0    0  501    0  0.00000000000E+00  0.00000000000E+00  0.22424422059E+04  0.22424422059E+04  0.50400001928E-02 0.  1.
       -1   -1    0    0    0  501  0.00000000000E+00  0.00000000000E+00 -0.15172199167E+04  0.15172199167E+04  0.50400001928E-02 0. -1.
    10030    2    1    2    0    0  0.00000000000E+00  0.00000000000E+00  0.72522228927E+03  0.37596621226E+04  0.36890529824E+04 0.  0.
        1    1    3    3  502    0  0.12571155746E+04  0.13268516781E+04  0.11007192379E+03  0.18311173562E+04  0.50400001928E-02 0. -1.
       -1    1    3    3    0  502 -0.12571155746E+04 -0.13268516781E+04  0.61515036548E+03  0.19285447664E+04  0.50400001928E-02 0.  1.
</event>
<event>
 5   0  0.5177000E-08  0.3696123E+04  0.7818609E-02  0.8068821E-01
        1   -1    0    0  501    0  0.00000000000E+00  0.00000000000E+00  0.15983139527E+04  0.15983139527E+04  0.50400001928E-02 0. -1.
       -1   -1    0    0    0  501  0.00000000000E+00  0.00000000000E+00 -0.21368342760E+04  0.21368342760E+04  0.50400001928E-02 0.  1.
    10030    2    1    2    0    0  0.00000000000E+00  0.00000000000E+00 -0.53852032336E+03  0.37351482287E+04  0.36961233951E+04 0.  0.
        2    1    3    3  502    0 -0.95243757854E+03  0.13545223383E+04 -0.10985733092E+04  0.19871415203E+04  0.25500000920E-02 0.  1.
       -2    1    3    3    0  502  0.95243757854E+03 -0.13545223383E+04  0.56005298583E+03  0.17480067085E+04  0.25500000920E-02 0. -1.
</event>
<event>
 5   0  0.1658770E-07  0.3702161E+04  0.7818609E-02  0.8067483E-01
       -2   -1    0    0    0  501  0.00000000000E+00  0.00000000000E+00  0.21781752779E+04  0.21781752779E+04  0.25500000920E-02 0. -1.
        2   -1    0    0  501    0  0.00000000000E+00  0.00000000000E+00 -0.15731055650E+04  0.15731055650E+04  0.25500000920E-02 0.  1.
    10030    2    1    2    0    0  0.00000000000E+00  0.00000000000E+00  0.60506971294E+03  0.37512808430E+04  0.37021613424E+04 0.  0.
        2    1    3    3  502    0  0.51782124602E+03  0.14352676884E+04  0.13644701841E+04  0.20469272248E+04  0.25500000920E-02 0. -1.
       -2    1    3    3    0  502 -0.51782124602E+03 -0.14352676884E+04 -0.75940047116E+03  0.17043536182E+04  0.25500000920E-02 0.  1.
</event>
<event>
 5   0  0.1686284E-07  0.3617446E+04  0.7818609E-02  0.8086507E-01
       -2   -1    0    0    0  501  0.00000000000E+00  0.00000000000E+00  0.18414777417E+04  0.18414777417E+04  0.25500000920E-02 0. -1.
        2   -1    0    0  501    0  0.00000000000E+00  0.00000000000E+00 -0.17765504585E+04  0.17765504585E+04  0.25500000920E-02 0.  1.
    10030    2    1    2    0    0  0.00000000000E+00  0.00000000000E+00  0.64927283190E+02  0.36180282002E+04  0.36174455774E+04 0.  0.
        5    1    3    3  502    0  0.84760904960E+03  0.12811984206E+04  0.98736635476E+03  0.18261502957E+04  0.46999998093E+01 0. -1.
       -5    1    3    3    0  502 -0.84760904960E+03 -0.12811984206E+04 -0.92243907157E+03  0.17918779045E+04  0.46999998093E+01 0.  1.
</event>
<event>
 5   0  0.5177000E-08  0.3704549E+04  0.7818609E-02  0.8066955E-01
        1   -1    0    0  501    0  0.00000000000E+00  0.00000000000E+00  0.17814064587E+04  0.17814064587E+04  0.50400001928E-02 0. -1.
       -1   -1    0    0    0  501  0.00000000000E+00  0.00000000000E+00 -0.19259613308E+04  0.19259613308E+04  0.50400001928E-02 0.  1.
    10030    2    1    2    0    0  0.00000000000E+00  0.00000000000E+00 -0.14455487203E+03  0.37073677895E+04  0.37045485306E+04 0.  0.
        1    1    3    3  502    0  0.41019791919E+03 -0.13044892123E+04 -0.13226143073E+04  0.19024360814E+04  0.50400001928E-02 0.  1.
       -1    1    3    3    0  502 -0.41019791919E+03  0.13044892123E+04  0.11780594353E+04  0.18049317081E+04  0.50400001928E-02 0. -1.
</event>
<event>
 5   0  0.1558258E-07  0.3710179E+04  0.7818609E-02  0.8065710E-01
        2   -1    0    0  501    0  0.00000000000E+00  0.00000000000E+00  0.13214700729E+04  0.13214700729E+04  0.25500000920E-02 0.  1.
       -2   -1    0    0    0  501  0.00000000000E+00  0.00000000000E+00 -0.26041880967E+04  0.26041880967E+04  0.25500000920E-02 0. -1.
    10030    2    1    2    0    0  0.00000000000E+00  0.00000000000E+00 -0.12827180238E+04  0.39256581696E+04  0.37101787742E+04 0.  0.
        1    1    3    3  502    0 -0.13748075071E+04 -0.80343661632E+03 -0.16483415705E+04  0.22918630001E+04  0.50400001928E-02 0. -1.
       -1    1    3    3    0  502  0.13748075071E+04  0.80343661632E+03  0.36562354668E+03  0.16337951695E+04  0.50400001928E-02 0.  1.
</event>
<event>
 5   0  0.5177000E-08  0.3688075E+04  0.7818609E-02  0.8070610E-01
       -1   -1    0    0    0  501  0.00000000000E+00  0.00000000000E+00  0.17867303581E+04  0.17867303581E+04  0.50400001928E-02 0. -1.
        1   -1    0    0  501    0  0.00000000000E+00  0.00000000000E+00 -0.19031822491E+04  0.19031822491E+04  0.50400001928E-02 0.  1.
    10030    2    1    2    0    0  0.00000000000E+00  0.00000000000E+00 -0.11645189103E+03  0.36899126072E+04  0.36880745662E+04 0.  0.
        1    1    3    3  502    0  0.50599453513E+03  0.20045429111E+03  0.17045434798E+04  0.17893241369E+04  0.50400001928E-02 0. -1.
       -1    1    3    3    0  502 -0.50599453513E+03 -0.20045429111E+03 -0.18209953709E+04  0.19005884702E+04  0.50400001928E-02 0.  1.
</event>
<event>
 5   0  0.1686284E-07  0.3697799E+04  0.7818609E-02  0.8068450E-01
        2   -1    0    0  501    0  0.00000000000E+00  0.00000000000E+00  0.18852969161E+04  0.18852969161E+04  0.25500000920E-02 0.  1.
       -2   -1    0    0    0  501  0.00000000000E+00  0.00000000000E+00 -0.18132049785E+04  0.18132049785E+04  0.25500000920E-02 0. -1.
    10030    2    1    2    0    0  0.00000000000E+00  0.00000000000E+00  0.72091937653E+02  0.36985018946E+04  0.36977992126E+04 0.  0.
        5    1    3    3  502    0  0.18475231932E+04  0.28659904708E+02  0.10120682922E+03  0.18505210758E+04  0.46999998093E+01 0.  1.
       -5    1    3    3    0  502 -0.18475231932E+04 -0.28659904708E+02 -0.29114891567E+02  0.18479808188E+04  0.46999998093E+01 0. -1.
</event>
<event>
 5   0  0.1558258E-07  0.3711778E+04  0.7818609E-02  0.8065357E-01
        2   -1    0    0  501    0  0.00000000000E+00  0.00000000000E+00  0.20184309858E+04  0.20184309858E+04  0.25500000920E-02 0. -1.
       -2   -1    0    0    0  501  0.00000000000E+00  0.00000000000E+00 -0.17064360735E+04  0.17064360735E+04  0.25500000920E-02 0.  1.
    10030    2    1    2    0    0  0.00000000000E+00  0.00000000000E+00  0.31199491230E+03  0.37248670592E+04  0.37117777120E+04 0.  0.
        1    1    3    3  502    0  0.21084437822E+03  0.15239402751E+04 -0.88567755011E+03  0.17751828178E+04  0.50400001928E-02 0.  1.
       -1    1    3    3    0  502 -0.21084437822E+03 -0.15239402751E+04  0.11976724624E+04  0.19496842414E+04  0.50400001928E-02 0. -1.
</event>
<event>
 5   0  0.1686284E-07  0.3709230E+04  0.7818609E-02  0.8065919E-01
       -2   -1    0    0    0  501  0.00000000000E+00  0.00000000000E+00  0.13076271369E+04  0.13076271369E+04  0.25500000920E-02 0.  1.
        2   -1    0    0  501    0  0.00000000000E+00  0.00000000000E+00 -0.26304109032E+04  0.26304109032E+04  0.25500000920E-02 0. -1.
    10030    2    1    2    0    0  0.00000000000E+00  0.00000000000E+00 -0.13227837663E+04  0.39380380400E+04  0.37092299352E+04 0.  0.
        5    1    3    3  502    0  0.79410890305E+03  0.92139038237E+03 -0.21477545377E+04  0.24682870236E+04  0.46999998093E+01 0. -1.
       -5    1    3    3    0  502 -0.79410890305E+03 -0.92139038237E+03  0.82497077139E+03  0.14697510164E+04  0.46999998093E+01 0.  1.
</event>
<event>
 5   0  0.1686284E-07  0.3676873E+04  0.7818609E-02  0.8073107E-01
       -2   -1    0    0    0  501  0.00000000000E+00  0.00000000000E+00  0.16113953008E+04  0.16113953008E+04  0.25500000920E-02 0. -1.
        2   -1    0    0  501    0  0.00000000000E+00  0.00000000000E+00 -0.20974668903E+04  0.20974668903E+04  0.25500000920E-02 0.  1.
    10030    2    1    2    0    0  0.00000000000E+00  0.00000000000E+00 -0.48607158951E+03  0.37088621911E+04  0.36768727422E+04 0.  0.
        5    1    3    3  502    0  0.93889940456E+03  0.74020169408E+03 -0.16517517956E+04  0.20390528988E+04  0.46999998093E+01 0.  1.
       -5    1    3    3    0  502 -0.93889940456E+03 -0.74020169408E+03  0.11656802061E+04  0.16698092923E+04  0.46999998093E+01 0. -1.
</event>
<event>
 5   0  0.5177000E-08  0.3687715E+04  0.7818609E-02  0.8070690E-01
        1   -1    0    0  501    0  0.00000000000E+00  0.00000000000E+00  0.21323223303E+04  0.21323223303E+04  0.50400001928E-02 0.  1.
       -1   -1    0    0    0  501  0.00000000000E+00  0.00000000000E+00 -0.15944163470E+04  0.15944163470E+04  0.50400001928E-02 0. -1.
    10030    2    1    2    0    0  0.00000000000E+00  0.00000000000E+00  0.53790598331E+03  0.37267386772E+04  0.36877145119E+04 0.  0.
        2    1    3    3  502    0  0.11144351287E+03 -0.74598943722E+02  0.21273872747E+04  0.21316100195E+04  0.25500000920E-02 0.  1.
       -2    1    3    3    0  502 -0.11144351287E+03  0.74598943722E+02 -0.15894812914E+04  0.15951286577E+04  0.25500000920E-02 0. -1.
</event>
<event>
 5   0  0.1558258E-07  0.3678705E+04  0.7818609E-02  0.8072698E-01
        2   -1    0    0  501    0  0.00000000000E+00  0.00000000000E+00  0.27762898112E+04  0.27762898112E+04  0.25500000920E-02 0. -1.
       -2   -1    0    0    0  501  0.00000000000E+00  0.00000000000E+00 -0.12186108945E+04  0.12186108945E+04  0.25500000920E-02 0.  1.
    10030    2    1    2    0    0  0.00000000000E+00  0.00000000000E+00  0.15576789167E+04  0.39949007057E+04  0.36787046688E+04 0.  0.
        1    1    3    3  502    0 -0.35808621225E+03  0.15162571149E+04  0.18406081981E+04  0.24114518268E+04  0.50400001928E-02 0. -1.
       -1    1    3    3    0  502  0.35808621225E+03 -0.15162571149E+04 -0.28292928141E+03  0.15834488789E+04  0.50400001928E-02 0.  1.
</event>
<event>
 5   0  0.5177000E-08  0.3703891E+04  0.7818609E-02  0.8067100E-01
        1   -1    0    0  501    0  0.00000000000E+00  0.00000000000E+00  0.20259357868E+04  0.20259357868E+04  0.50400001928E-02 0.  1.
       -1   -1    0    0    0  501  0.00000000000E+00  0.00000000000E+00 -0.16928973093E+04  0.16928973093E+04  0.50400001928E-02 0. -1.
    10030    2    1    2    0    0  0.00000000000E+00  0.00000000000E+00  0.33303847747E+03  0.37188330961E+04  0.37038905179E+04 0.  0.
        2    1    3    3  502    0 -0.89764686053E+03  0.89844646849E+03  0.15198164235E+04  0.19806104877E+04  0.25500000920E-02 0.  1.
       -2    1    3    3    0  502  0.89764686053E+03 -0.89844646849E+03 -0.11867779460E+04  0.17382226083E+04  0.25500000920E-02 0. -1.
</event>
<event>
 5   0  0.1666189E-07  0.3696489E+04  0.7818609E-02  0.8068740E-01
        2   -1    0    0  501    0  0.00000000000E+00  0.00000000000E+00  0.27171217581E+04  0.27171217581E+04  0.25500000920E-02 0. -1.
       -2   -1    0    0    0  501  0.00000000000E+00  0.00000000000E+00 -0.12572153013E+04  0.12572153013E+04  0.25500000920E-02 0.  1.
    10030    2    1    2    0    0  0.00000000000E+00  0.00000000000E+00  0.14599064568E+04  0.39743370593E+04  0.36964886309E+04 0.  0.
        4    1    3    3  502    0 -0.35786533849E+03  0.22814210791E+03  0.26640229698E+04  0.26976168035E+04  0.12699999809E+01 0. -1.
       -4    1    3    3    0  502  0.35786533849E+03 -0.22814210791E+03 -0.12041165130E+04  0.12767202558E+04  0.12699999809E+01 0.  1.
</event>
<event>
 5   0  0.5177000E-08  0.3734788E+04  0.7818609E-02  0.8060296E-01
        1   -1    0    0  501    0  0.00000000000E+00  0.00000000000E+00  0.20051397959E+04  0.20051397959E+04  0.50400001928E-02 0.  1.
       -1   -1    0    0    0  501  0.00000000000E+00  0.00000000000E+00 -0.17391112732E+04  0.17391112732E+04  0.50400001928E-02 0. -1.
    10030    2    1    2    0    0  0.00000000000E+00  0.00000000000E+00  0.26602852274E+03  0.37442510691E+04  0.37347884670E+04 0.  0.
        3    1    3    3  502    0 -0.66481261721E+03  0.10260483130E+04  0.15481181937E+04  0.19726684740E+04  0.10100000352E+00 0.  1.
       -3    1    3    3    0  502  0.66481261721E+03 -0.10260483130E+04 -0.12820896709E+04  0.17715825951E+04  0.10100000352E+00 0. -1.
</event>
<event>
 5   0  0.1587026E-07  0.3680588E+04  0.7818609E-02  0.8072277E-01
        2   -1    0    0  501    0  0.00000000000E+00  0.00000000000E+00  0.20049838717E+04  0.20049838717E+04  0.25500000920E-02 0.  1.
       -2   -1    0    0    0  501  0.00000000000E+00  0.00000000000E+00 -0.16891320106E+04  0.16891320106E+04  0.25500000920E-02 0. -1.
    10030    2    1    2    0    0  0.00000000000E+00  0.00000000000E+00  0.31585186107E+03  0.36941158823E+04  0.36805882348E+04 0.  0.
        3    1    3    3  502    0 -0.32251239636E+03  0.95873309141E+01  0.19763731237E+04  0.20025376144E+04  0.10100000352E+00 0.  1.
       -3    1    3    3    0  502  0.32251239636E+03 -0.95873309141E+01 -0.16605212626E+04  0.16915782679E+04  0.10100000352E+00 0. -1.
</event>
<event>
 5   0  0.5177000E-08  0.3612958E+04  0.7818609E-02  0.8087530E-01
        1   -1    0    0  501    0  0.00000000000E+00  0.00000000000E+00  0.10795876351E+04  0.10795876351E+04  0.50400001928E-02 0.  1.
       -1   -1    0    0    0  501  0.00000000000E+00  0.00000000000E+00 -0.30227891944E+04  0.30227891944E+04  0.50400001928E-02 0. -1.
    10030    2    1    2    0    0  0.00000000000E+00  0.00000000000E+00 -0.19432015593E+04  0.41023768295E+04  0.36129577012E+04 0.  0.
        4    1    3    3  502    0  0.50382063996E+03 -0.64298796905E+03 -0.28011032586E+04  0.29177816648E+04  0.12699999809E+01 0. -1.
       -4    1    3    3    0  502 -0.50382063996E+03  0.64298796905E+03  0.85790169924E+03  0.11845951646E+04  0.12699999809E+01 0.  1.
</event>
<event>
 5   0  0.1558258E-07  0.3674008E+04  0.7818609E-02  0.8073746E-01
        2   -1    0    0  501    0  0.00000000000E+00  0.00000000000E+00  0.11251600065E+04  0.11251600065E+04  0.25500000920E-02 0.  1.
       -2   -1    0    0    0  501  0.00000000000E+00  0.00000000000E+00 -0.29992034995E+04  0.29992034995E+04  0.25500000920E-02 0. -1.
    10030    2    1    2    0    0  0.00000000000E+00  0.00000000000E+00 -0.18740434930E+04  0.41243635059E+04  0.36740080723E+04 0.  0.
        1    1    3    3  502    0  0.45538951174E+03  0.17717750825E+04 -0.11249230539E+04  0.21475610417E+04  0.50400001928E-02 0. -1.
       -1    1    3    3    0  502 -0.45538951174E+03 -0.17717750825E+04 -0.74912043910E+03  0.19768024643E+04  0.50400001928E-02 0.  1.
</event>
<event>
 5   0  0.5181371E-08  0.3709664E+04  0.7818609E-02  0.8065824E-01
        1   -1    0    0  501    0  0.00000000000E+00  0.00000000000E+00  0.17952147778E+04  0.17952147779E+04  0.50400001928E-02 0. -1.
       -1   -1    0    0    0  501  0.00000000000E+00  0.00000000000E+00 -0.19164290841E+04  0.19164290841E+04  0.50400001928E-02 0.  1.
    10030    2    1    2    0    0  0.00000000000E+00  0.00000000000E+00 -0.12121430622E+03  0.37116438619E+04  0.37096640346E+04 0.  0.
        5    1    3    3  502    0  0.36489550574E+02  0.36400928774E+03 -0.18799685206E+04  0.19152383605E+04  0.46999998093E+01 0.  1.
       -5    1    3    3    0  502 -0.36489550574E+02 -0.36400928774E+03  0.17587542144E+04  0.17964055014E+04  0.46999998093E+01 0. -1.
</event>
<event>
 5   0  0.5177000E-08  0.3739222E+04  0.7818609E-02  0.8059325E-01
       -1   -1    0    0    0  501  0.00000000000E+00  0.00000000000E+00  0.18746039592E+04  0.18746039592E+04  0.50400001928E-02 0. -1.
        1   -1    0    0  501    0  0.00000000000E+00  0.00000000000E+00 -0.18646312849E+04  0.18646312849E+04  0.50400001928E-02 0.  1.
    10030    2    1    2    0    0  0.00000000000E+00  0.00000000000E+00  0.99726743461E+01  0.37392352441E+04  0.37392219453E+04 0.  0.
        4    1    3    3  502    0 -0.84493097399E+03  0.12281028511E+04  0.11333956910E+04  0.18726271302E+04  0.12699999809E+01 0. -1.
       -4    1    3    3    0  502  0.84493097399E+03 -0.12281028511E+04 -0.11234230166E+04  0.18666081139E+04  0.12699999809E+01 0.  1.
</event>
<event>
 5   0  0.1587026E-07  0.3699307E+04  0.7818609E-02  0.8068116E-01
        2   -1    0    0  501    0  0.00000000000E+00  0.00000000000E+00  0.16701022851E+04  0.16701022851E+04  0.25500000920E-02 0. -1.
       -2   -1    0    0    0  501  0.00000000000E+00  0.00000000000E+00 -0.20485075745E+04  0.20485075745E+04  0.25500000920E-02 0.  1.
    10030    2    1    2    0    0  0.00000000000E+00  0.00000000000E+00 -0.37840528936E+03  0.37186098596E+04  0.36993065195E+04 0.  0.
        3    1    3    3  502    0 -0.31027518841E+03 -0.67078188935E+03 -0.18936323016E+04  0.20327474855E+04  0.10100000352E+00 0.  1.
       -3    1    3    3    0  502  0.31027518841E+03  0.67078188935E+03  0.15152270123E+04  0.16858623741E+04  0.10100000352E+00 0. -1.
</event>
<event>
 5   0  0.5181371E-08  0.3673069E+04  0.7818609E-02  0.8073956E-01
        1   -1    0    0  501    0  0.00000000000E+00  0.00000000000E+00  0.14010620209E+04  0.14010620209E+04  0.50400001928E-02 0.  1.
       -1   -1    0    0    0  501  0.00000000000E+00  0.00000000000E+00 -0.24073586077E+04  0.24073586077E+04  0.50400001928E-02 0. -1.
    10030    2    1    2    0    0  0.00000000000E+00  0.00000000000E+00 -0.10062965868E+04  0.38084206287E+04  0.36730688619E+04 0.  0.
        5    1    3    3  502    0  0.50164453456E+03  0.26132376214E+03  0.13084924384E+04  0.14255216235E+04  0.46999998093E+01 0.  1.
       -5    1    3    3    0  502 -0.50164453456E+03 -0.26132376214E+03 -0.23147890252E+04  0.23828990052E+04  0.46999998093E+01 0. -1.
</event>
<event>
 5   0  0.5177000E-08  0.3750356E+04  0.7818609E-02  0.8056893E-01
        1   -1    0    0  501    0  0.00000000000E+00  0.00000000000E+00  0.24255534497E+04  0.24255534497E+04  0.50400001928E-02 0.  1.
       -1   -1    0    0    0  501  0.00000000000E+00  0.00000000000E+00 -0.14496865904E+04  0.14496865904E+04  0.50400001928E-02 0. -1.
    10030    2    1    2    0    0  0.00000000000E+00  0.00000000000E+00  0.97586685932E+03  0.38752400401E+04  0.37503558820E+04 0.  0.
        3    1    3    3  502    0 -0.54753564357E+03  0.12639573123E+04 -0.82679888400E+03  0.16065428015E+04  0.10100000352E+00 0. -1.
       -3    1    3    3    0  502  0.54753564357E+03 -0.12639573123E+04  0.18026657433E+04  0.22686972386E+04  0.10100000352E+00 0.  1.
</event>
<event>
 5   0  0.5177000E-08  0.3711175E+04  0.7818609E-02  0.8065490E-01
       -1   -1    0    0    0  501  0.00000000000E+00  0.00000000000E+00  0.18230518997E+04  0.18230518997E+04  0.50400001928E-02 0. -1.
        1   -1    0    0  501    0  0.00000000000E+00  0.00000000000E+00 -0.18887039544E+04  0.18887039544E+04  0.50400001928E-02 0.  1.
    10030    2    1    2    0    0  0.00000000000E+00  0.00000000000E+00 -0.65652054648E+02  0.37117558541E+04  0.37111751950E+04 0.  0.
        2    1    3    3  502    0 -0.12321536603E+04 -0.74275799530E+03  0.11392418150E+04  0.18351468593E+04  0.25500000920E-02 0. -1.
       -2    1    3    3    0  502  0.12321536603E+04  0.74275799530E+03 -0.12048938697E+04  0.18766089948E+04  0.25500000920E-02 0.  1.
</event>
<event>
 5   0  0.1658770E-07  0.3706667E+04  0.7818609E-02  0.8066486E-01
       -2   -1    0    0    0  501  0.00000000000E+00  0.00000000000E+00  0.14895095294E+04  0.14895095294E+04  0.25500000920E-02 0. -1.
        2   -1    0    0  501    0  0.00000000000E+00  0.00000000000E+00 -0.23060245767E+04  0.23060245767E+04  0.25500000920E-02 0.  1.
    10030    2    1    2    0    0  0.00000000000E+00  0.00000000000E+00 -0.81651504737E+03  0.37955341061E+04  0.37066672804E+04 0.  0.
        2    1    3    3  502    0 -0.13449091559E+03  0.98540965845E+03 -0.20096329390E+04  0.22422632653E+04  0.25500000920E-02 0.  1.
       -2    1    3    3    0  502  0.13449091559E+03 -0.98540965845E+03  0.11931178917E+04  0.15532708408E+04  0.25500000920E-02 0. -1.
</event>
<event>
 5   0  0.5177000E-08  0.3696181E+04  0.7818609E-02  0.8068809E-01
       -1   -1    0    0    0  501  0.00000000000E+00  0.00000000000E+00  0.16442008853E+04  0.16442008853E+04  0.50400001928E-02 0.  1.
        1   -1    0    0  501    0  0.00000000000E+00  0.00000000000E+00 -0.20772637730E+04  0.20772637730E+04  0.50400001928E-02 0. -1.
    10030    2    1    2    0    0  0.00000000000E+00  0.00000000000E+00 -0.43306288762E+03  0.37214646583E+04  0.36961812372E+04 0.  0.
        2    1    3    3  502    0 -0.10568554258E+04  0.22051201916E+03 -0.17267484366E+04  0.20364746758E+04  0.25500000920E-02 0. -1.
       -2    1    3    3    0  502  0.10568554258E+04 -0.22051201916E+03  0.12936855490E+04  0.16849899826E+04  0.25500000920E-02 0.  1.
</event>
<event>
 5   0  0.5177000E-08  0.3703217E+04  0.7818609E-02  0.8067249E-01
       -1   -1    0    0    0  501  0.00000000000E+00  0.00000000000E+00  0.14411068046E+04  0.14411068046E+04  0.50400001928E-02 0. -1.
        1   -1    0    0  501    0  0.00000000000E+00  0.00000000000E+00 -0.23790422135E+04  0.23790422135E+04  0.50400001928E-02 0.  1.
    10030    2    1    2    0    0  0.00000000000E+00  0.00000000000E+00 -0.93793540895E+03  0.38201490181E+04  0.37032169379E+04 0.  0.
        2    1    3    3  502    0  0.17048912397E+03  0.17971008290E+04 -0.89406705595E+03  0.20144462841E+04  0.25500000920E-02 0.  1.
       -2    1    3    3    0  502 -0.17048912397E+03 -0.17971008290E+04 -0.43868353004E+02  0.18057027340E+04  0.25500000920E-02 0. -1.
</event>
<event>
 5   0  0.5177000E-08  0.3585839E+04  0.7818609E-02  0.8093743E-01
        1   -1    0    0  501    0  0.00000000000E+00  0.00000000000E+00  0.15923928070E+04  0.15923928070E+04  0.50400001928E-02 0. -1.
       -1   -1    0    0    0  501  0.00000000000E+00  0.00000000000E+00 -0.20186976697E+04  0.20186976697E+04  0.50400001928E-02 0.  1.
    10030    2    1    2    0    0  0.00000000000E+00  0.00000000000E+00 -0.42630486268E+03  0.36110904767E+04  0.35858386180E+04 0.  0.
        3    1    3    3  502    0 -0.16836092165E+04  0.10798598531E+03  0.39804719319E+03  0.17333904769E+04  0.10100000352E+00 0.  1.
       -3    1    3    3    0  502  0.16836092165E+04 -0.10798598531E+03 -0.82435205587E+03  0.18776999998E+04  0.10100000352E+00 0. -1.
</event>
<event>
 5   0  0.1558258E-07  0.3700846E+04  0.7818609E-02  0.8067774E-01
        2   -1    0    0  501    0  0.00000000000E+00  0.00000000000E+00  0.27219781568E+04  0.27219781568E+04  0.25500000920E-02 0.  1.
       -2   -1    0    0    0  501  0.00000000000E+00  0.00000000000E+00 -0.12579328797E+04  0.12579328797E+04  0.25500000920E-02 0. -1.
    10030    2    1    2    0    0  0.00000000000E+00  0.00000000000E+00  0.14640452771E+04  0.39799110365E+04  0.37008462931E+04 0.  0.
        1    1    3    3  502    0 -0.95469616804E+03  0.12849585943E+04  0.17301835923E+04  0.23571378036E+04  0.50400001928E-02 0.  1.
       -1    1    3    3    0  502  0.95469616804E+03 -0.12849585943E+04 -0.26613831522E+03  0.16227732328E+04  0.50400001928E-02 0. -1.
</event>
<event>
 5   0  0.1666189E-07  0.3697604E+04  0.7818609E-02  0.8068493E-01
       -2   -1    0    0    0  501  0.00000000000E+00  0.00000000000E+00  0.17268581548E+04  0.17268581548E+04  0.25500000920E-02 0. -1.
        2   -1    0    0  501    0  0.00000000000E+00  0.00000000000E+00 -0.19793574338E+04  0.19793574338E+04  0.25500000920E-02 0.  1.
    10030    2    1    2    0    0  0.00000000000E+00  0.00000000000E+00 -0.25249927897E+03  0.37062155886E+04  0.36976043735E+04 0.  0.
        4    1    3    3  502    0  0.31054170168E+03 -0.20717526955E+03 -0.19411874593E+04  0.19767569669E+04  0.12699999809E+01 0.  1.
       -4    1    3    3    0  502 -0.31054170168E+03  0.20717526955E+03  0.16886881804E+04  0.17294586217E+04  0.12699999809E+01 0. -1.
</event>
<event>
 5   0  0.5177000E-08  0.3714383E+04  0.7818609E-02  0.8064782E-01
        1   -1    0    0  501    0  0.00000000000E+00  0.00000000000E+00  0.25127558994E+04  0.25127558994E+04  0.50400001928E-02 0.  1.
       -1   -1    0    0    0  501  0.00000000000E+00  0.00000000000E+00 -0.13726601872E+04  0.13726601872E+04  0.50400001928E-02 0. -1.
    10030    2    1    2    0    0  0.00000000000E+00  0.00000000000E+00  0.11400957122E+04  0.38854160867E+04  0.37143828470E+04 0.  0.
        1    1    3    3  502    0 -0.45572254794E+03  0.15318453092E+04 -0.41951787690E+03  0.16523402619E+04  0.50400001928E-02 0. -1.
       -1    1    3    3    0  502  0.45572254794E+03 -0.15318453092E+04  0.15596135891E+04  0.22330758248E+04  0.50400001928E-02 0.  1.
</event>
<event>
 5   0  0.1558258E-07  0.3703351E+04  0.7818609E-02  0.8067220E-01
        2   -1    0    0  501    0  0.00000000000E+00  0.00000000000E+00  0.22982675120E+04  0.22982675120E+04  0.25500000920E-02 0. -1.
       -2   -1    0    0    0  501  0.00000000000E+00  0.00000000000E+00 -0.14918636582E+04  0.14918636582E+04  0.25500000920E-02 0.  1.
    10030    2    1    2    0    0  0.00000000000E+00  0.00000000000E+00  0.80640385378E+03  0.37901311701E+04  0.37033507951E+04 0.  0.
        1    1    3    3  502    0  0.45474679589E+02  0.12795423669E+04 -0.96583048906E+03  0.16037846329E+04  0.50400001928E-02 0.  1.
       -1    1    3    3    0  502 -0.45474679589E+02 -0.12795423669E+04  0.17722343428E+04  0.21863465373E+04  0.50400001928E-02 0. -1.
</event>
<event>
 5   0  0.1666189E-07  0.3706347E+04  0.7818609E-02  0.8066557E-01
        2   -1    0    0  501    0  0.00000000000E+00  0.00000000000E+00  0.11378673188E+04  0.11378673188E+04  0.25500000920E-02 0.  1.
       -2   -1    0    0    0  501  0.00000000000E+00  0.00000000000E+00 -0.30181474698E+04  0.30181474698E+04  0.25500000920E-02 0. -1.
    10030    2    1    2    0    0  0.00000000000E+00  0.00000000000E+00 -0.18802801510E+04  0.41560147885E+04  0.37063466482E+04 0.  0.
        4    1    3    3  502    0 -0.74417908344E+03  0.10094980698E+04  0.58970108478E+03  0.13858707888E+04  0.12699999809E+01 0.  1.
       -4    1    3    3    0  502  0.74417908344E+03 -0.10094980698E+04 -0.24699812358E+04  0.27701439997E+04  0.12699999809E+01 0. -1.
</event>
<event>
 5   0  0.1686284E-07  0.3708426E+04  0.7818609E-02  0.8066097E-01
        2   -1    0    0  501    0  0.00000000000E+00  0.00000000000E+00  0.13221983721E+04  0.13221983721E+04  0.25500000920E-02 0. -1.
       -2   -1    0    0    0  501  0.00000000000E+00  0.00000000000E+00 -0.26002956543E+04  0.26002956543E+04  0.25500000920E-02 0.  1.
    10030    2    1    2    0    0  0.00000000000E+00  0.00000000000E+00 -0.12780972823E+04  0.39224940264E+04  0.37084264485E+04 0.  0.
        5    1    3    3  502    0  0.16968605609E+04  0.69694616466E+03 -0.92485920962E+03  0.20543749334E+04  0.46999998093E+01 0.  1.
       -5    1    3    3    0  502 -0.16968605609E+04 -0.69694616466E+03 -0.35323807266E+03  0.18681190930E+04  0.46999998093E+01 0. -1.
</event>
<event>
 5   0  0.1558258E-07  0.3777130E+04  0.7818609E-02  0.8051081E-01
       -2   -1    0    0    0  501  0.00000000000E+00  0.00000000000E+00  0.12940030694E+04  0.12940030694E+04  0.25500000920E-02 0.  1.
        2   -1    0    0  501    0  0.00000000000E+00  0.00000000000E+00 -0.27563127043E+04  0.27563127043E+04  0.25500000920E-02 0. -1.
    10030    2    1    2    0    0  0.00000000000E+00  0.00000000000E+00 -0.14623096349E+04  0.40503157737E+04  0.37771296507E+04 0.  0.
        1    1    3    3  502    0 -0.15680883761E+04 -0.10309426898E+04 -0.50384915581E+03  0.19430923696E+04  0.50400001928E-02 0.  1.
       -1    1    3    3    0  502  0.15680883761E+04  0.10309426898E+04 -0.95846047904E+03  0.21072234041E+04  0.50400001928E-02 0. -1.
</event>
<event>
 5   0  0.1686284E-07  0.3681152E+04  0.7818609E-02  0.8072152E-01
        2   -1    0    0  501    0  0.00000000000E+00  0.00000000000E+00  0.23662091541E+04  0.23662091541E+04  0.25500000920E-02 0.  1.
       -2   -1    0    0    0  501  0.00000000000E+00  0.00000000000E+00 -0.14317079643E+04  0.14317079643E+04  0.25500000920E-02 0. -1.
    10030    2    1    2    0    0  0.00000000000E+00  0.00000000000E+00  0.93450118980E+03  0.37979171184E+04  0.36811522604E+04 0.  0.
        5    1    3    3  502    0  0.10141429530E+04  0.90635548092E+03  0.17466379618E+04  0.22137597987E+04  0.46999998093E+01 0.  1.
       -5    1    3    3    0  502 -0.10141429530E+04 -0.90635548092E+03 -0.81213677204E+03  0.15841573196E+04  0.46999998093E+01 0. -1.
</event>
<event>
 5   0  0.1558258E-07  0.3686404E+04  0.7818609E-02  0.8070982E-01
       -2   -1    0    0    0  501  0.00000000000E+00  0.00000000000E+00  0.20524980771E+04  0.20524980771E+04  0.25500000920E-02 0.  1.
        2   -1    0    0  501    0  0.00000000000E+00  0.00000000000E+00 -0.16552477456E+04  0.16552477456E+04  0.25500000920E-02 0. -1.
    10030    2    1    2    0    0  0.00000000000E+00  0.00000000000E+00  0.39725033154E+03  0.37077458227E+04  0.36864035672E+04 0.  0.
        1    1    3    3  502    0 -0.73801505496E+03 -0.15747041037E+04  0.81292590854E+03  0.19196894979E+04  0.50400001928E-02 0.  1.
       -1    1    3    3    0  502  0.73801505496E+03  0.15747041037E+04 -0.41567557700E+03  0.17880563248E+04  0.50400001928E-02 0. -1.
</event>
<event>
 5   0  0.5177000E-08  0.3708835E+04  0.7818609E-02  0.8066007E-01
       -1   -1    0    0    0  501  0.00000000000E+00  0.00000000000E+00  0.25397699608E+04  0.25397699608E+04  0.50400001928E-02 0.  1.
        1   -1    0    0  501    0  0.00000000000E+00  0.00000000000E+00 -0.13540061526E+04  0.13540061526E+04  0.50400001928E-02 0. -1.
    10030    2    1    2    0    0  0.00000000000E+00  0.00000000000E+00  0.11857638082E+04  0.38937761134E+04  0.37088349401E+04 0.  0.
        4    1    3    3  502    0  0.83143780310E+03 -0.18784312885E+03 -0.11361437079E+04  0.14203513647E+04  0.12699999809E+01 0. -1.
       -4    1    3    3    0  502 -0.83143780310E+03  0.18784312885E+03  0.23219075160E+04  0.24734247487E+04  0.12699999809E+01 0.  1.
</event>
<event>
 5   0  0.5177000E-08  0.3729043E+04  0.7818609E-02  0.8061556E-01
       -1   -1    0    0    0  501  0.00000000000E+00  0.00000000000E+00  0.31927196252E+04  0.31927196252E+04  0.50400001928E-02 0. -1.
        1   -1    0    0  501    0  0.00000000000E+00  0.00000000000E+00 -0.10888647593E+04  0.10888647593E+04  0.50400001928E-02 0.  1.
    10030    2    1    2    0    0  0.00000000000E+00  0.00000000000E+00  0.21038548659E+04  0.42815843845E+04  0.37290427115E+04 0.  0.
        3    1    3    3  502    0  0.25318213478E+03 -0.22111128622E+03 -0.10537873211E+04  0.11061008645E+04  0.10100000352E+00 0.  1.
       -3    1    3    3    0  502 -0.25318213478E+03  0.22111128622E+03  0.31576421870E+04  0.31754835199E+04  0.10100000352E+00 0. -1.
</event>
<event>
 5   0  0.1558258E-07  0.3700567E+04  0.7818609E-02  0.8067836E-01
        2   -1    0    0  501    0  0.00000000000E+00  0.00000000000E+00  0.19744519376E+04  0.19744519376E+04  0.25500000920E-02 0.  1.
       -2   -1    0    0    0  501  0.00000000000E+00  0.00000000000E+00 -0.17339235118E+04  0.17339235118E+04  0.25500000920E-02 0. -1.
    10030    2    1    2    0    0  0.00000000000E+00  0.00000000000E+00  0.24052842577E+03  0.37083754495E+04  0.37005667877E+04 0.  0.
        1    1    3    3  502    0 -0.28938442022E+03  0.95585363916E+03  0.16811610315E+04  0.19554288368E+04  0.50400001928E-02 0.  1.
       -1    1    3    3    0  502  0.28938442022E+03 -0.95585363916E+03 -0.14406326057E+04  0.17529466126E+04  0.50400001928E-02 0. -1.
</event>
<event>
 5   0  0.5177000E-08  0.3682309E+04  0.7818609E-02  0.8071894E-01
        1   -1    0    0  501    0  0.00000000000E+00  0.00000000000E+00  0.10671038982E+04  0.10671038982E+04  0.50400001928E-02 0. -1.
       -1   -1    0    0    0  501  0.00000000000E+00  0.00000000000E+00 -0.31766820305E+04  0.31766820305E+04  0.50400001928E-02 0.  1.
    10030    2    1    2    0    0  0.00000000000E+00  0.00000000000E+00 -0.21095781322E+04  0.42437859287E+04  0.36823089377E+04 0.  0.
        2    1    3    3  502    0 -0.10240464327E+04  0.13851651645E+04 -0.18038973914E+04  0.24942733267E+04  0.25500000920E-02 0.  1.
       -2    1    3    3    0  502  0.10240464327E+04 -0.13851651645E+04 -0.30568074082E+03  0.17495126020E+04  0.25500000920E-02 0. -1.
</event>
<event>
 5   0  0.1658770E-07  0.3701327E+04  0.7818609E-02  0.8067668E-01
       -2   -1    0    0    0  501  0.00000000000E+00  0.00000000000E+00  0.16939904151E+04  0.16939904151E+04  0.25500000920E-02 0.  1.
        2   -1    0    0  501    0  0.00000000000E+00  0.00000000000E+00 -0.20218266506E+04  0.20218266506E+04  0.25500000920E-02 0. -1.
    10030    2    1    2    0    0  0.00000000000E+00  0.00000000000E+00 -0.32783623548E+03  0.37158170657E+04  0.37013267714E+04 0.  0.
        2    1    3    3  502    0  0.15930976126E+04 -0.83274154760E+03  0.27773196308E+03  0.18189429709E+04  0.25500000920E-02 0. -1.
       -2    1    3    3    0  502 -0.15930976126E+04  0.83274154760E+03 -0.60556819856E+03  0.18968740947E+04  0.25500000920E-02 0.  1.
</event>
<event>
 5   0  0.5177000E-08  0.3669276E+04  0.7818609E-02  0.8074805E-01
       -1   -1    0    0    0  501  0.00000000000E+00  0.00000000000E+00  0.32843753986E+04  0.32843753986E+04  0.50400001928E-02 0.  1.
        1   -1    0    0  501    0  0.00000000000E+00  0.00000000000E+00 -0.10248206758E+04  0.10248206758E+04  0.50400001928E-02 0. -1.
    10030    2    1    2    0    0  0.00000000000E+00  0.00000000000E+00  0.22595547228E+04  0.43091960744E+04  0.36692755773E+04 0.  0.
        4    1    3    3  502    0 -0.90429666593E+03  0.12269681915E+04  0.23289830943E+04  0.27834092889E+04  0.12699999809E+01 0.  1.
       -4    1    3    3    0  502  0.90429666593E+03 -0.12269681915E+04 -0.69428371555E+02  0.15257867855E+04  0.12699999809E+01 0. -1.
</event>
<event>
 5   0  0.1686284E-07  0.3709490E+04  0.7818609E-02  0.8065862E-01
       -2   -1    0    0    0  501  0.00000000000E+00  0.00000000000E+00  0.13740042203E+04  0.13740042203E+04  0.25500000920E-02 0.  1.
        2   -1    0    0  501    0  0.00000000000E+00  0.00000000000E+00 -0.25036882033E+04  0.25036882033E+04  0.25500000920E-02 0. -1.
    10030    2    1    2    0    0  0.00000000000E+00  0.00000000000E+00 -0.11296839830E+04  0.38776924236E+04  0.37094895377E+04 0.  0.
        5    1    3    3  502    0 -0.50407593405E+03 -0.17762350147E+04 -0.74875329704E+03  0.19924248956E+04  0.46999998093E+01 0. -1.
       -5    1    3    3    0  502  0.50407593405E+03  0.17762350147E+04 -0.38093068598E+03  0.18852675280E+04  0.46999998093E+01 0.  1.
</event>
<event>
 5   0  0.5177000E-08  0.3693258E+04  0.7818609E-02  0.8069458E-01
       -1   -1    0    0    0  501  0.00000000000E+00  0.00000000000E+00  0.19995969390E+04  0.19995969390E+04  0.50400001928E-02 0. -1.
        1   -1    0    0  501    0  0.00000000000E+00  0.00000000000E+00 -0.17053627537E+04  0.17053627537E+04  0.50400001928E-02 0.  1.
    10030    2    1    2    0    0  0.00000000000E+00  0.00000000000E+00  0.29423418530E+03  0.37049596927E+04  0.36932577176E+04 0.  0.
        1    1    3    3  502    0  0.16124541053E+04  0.87830963586E+03  0.34421374587E+03  0.18681325330E+04  0.50400001928E-02 0. -1.
       -1    1    3    3    0  502 -0.16124541053E+04 -0.87830963586E+03 -0.49979560573E+02  0.18368271597E+04  0.50400001928E-02 0.  1.
</event>
<event>
 5   0  0.1558258E-07  0.3693988E+04  0.7818609E-02  0.8069295E-01
       -2   -1    0    0    0  501  0.00000000000E+00  0.00000000000E+00  0.11733054703E+04  0.11733054703E+04  0.25500000920E-02 0.  1.
        2   -1    0    0  501    0  0.00000000000E+00  0.00000000000E+00 -0.29075012738E+04  0.29075012738E+04  0.25500000920E-02 0. -1.
    10030    2    1    2    0    0  0.00000000000E+00  0.00000000000E+00 -0.17341958034E+04  0.40808067441E+04  0.36939881697E+04 0.  0.
        1    1    3    3  502    0  0.10101674778E+04  0.89456720917E+03 -0.22603972689E+04  0.26325053918E+04  0.50400001928E-02 0. -1.
       -1    1    3    3    0  502 -0.10101674778E+04 -0.89456720917E+03  0.52620146542E+03  0.14483013523E+04  0.50400001928E-02 0.  1.
</event>
<event>
 5   0  0.5177000E-08  0.3626949E+04  0.7818609E-02  0.8084347E-01
        1   -1    0    0  501    0  0.00000000000E+00  0.00000000000E+00  0.11856650466E+04  0.11856650467E+04  0.50400001928E-02 0.  1.
       -1   -1    0    0    0  501  0.00000000000E+00  0.00000000000E+00 -0.27737085622E+04  0.27737085622E+04  0.50400001928E-02 0. -1.
    10030    2    1    2    0    0  0.00000000000E+00  0.00000000000E+00 -0.15880435156E+04  0.39593736089E+04  0.36269487407E+04 0.  0.
        2    1    3    3  502    0 -0.23273420298E+03  0.17294325684E+04 -0.13328026505E+04  0.21957834873E+04  0.25500000920E-02 0. -1.
       -2    1    3    3    0  502  0.23273420298E+03 -0.17294325684E+04 -0.25524086512E+03  0.17635901216E+04  0.25500000920E-02 0.  1.
</event>
<event>
 5   0  0.5177000E-08  0.3747785E+04  0.7818609E-02  0.8057454E-01
        1   -1    0    0  501    0  0.00000000000E+00  0.00000000000E+00  0.29995367109E+04  0.29995367109E+04  0.50400001928E-02 0.  1.
       -1   -1    0    0    0  501  0.00000000000E+00  0.00000000000E+00 -0.11706717372E+04  0.11706717372E+04  0.50400001928E-02 0. -1.
    10030    2    1    2    0    0  0.00000000000E+00  0.00000000000E+00  0.18288649737E+04  0.41702084481E+04  0.37477848669E+04 0.  0.
        2    1    3    3  502    0  0.94141102702E+03  0.15851363926E+04  0.12877484786E+04  0.22488237479E+04  0.25500000920E-02 0. -1.
       -2    1    3    3    0  502 -0.94141102702E+03 -0.15851363926E+04  0.54111649514E+03  0.19213847002E+04  0.25500000920E-02 0.  1.
</event>
<event>
 5   0  0.5181371E-08  0.3715087E+04  0.7818609E-02  0.8064627E-01
       -1   -1    0    0    0  501  0.00000000000E+00  0.00000000000E+00  0.21401264516E+04  0.21401264516E+04  0.50400001928E-02 0. -1.
        1   -1    0    0  501    0  0.00000000000E+00  0.00000000000E+00 -0.16122729181E+04  0.16122729181E+04  0.50400001928E-02 0.  1.
    10030    2    1    2    0    0  0.00000000000E+00  0.00000000000E+00  0.52785353350E+03  0.37523993697E+04  0.37150870349E+04 0.  0.
        5    1    3    3  502    0 -0.93839508078E+03 -0.80245832105E+03 -0.11377869149E+04  0.16790193085E+04  0.46999998093E+01 0.  1.
       -5    1    3    3    0  502  0.93839508078E+03  0.80245832105E+03  0.16656404484E+04  0.20733800612E+04  0.46999998093E+01 0. -1.
</event>
<event>
 5   0  0.5181371E-08  0.3698636E+04  0.7818609E-02  0.8068264E-01
       -1   -1    0    0    0  501  0.00000000000E+00  0.00000000000E+00  0.31415805212E+04  0.31415805212E+04  0.50400001928E-02 0.  1.
        1   -1    0    0  501    0  0.00000000000E+00  0.00000000000E+00 -0.10886166274E+04  0.10886166274E+04  0.50400001928E-02 0. -1.
    10030    2    1    2    0    0  0.00000000000E+00  0.00000000000E+00  0.20529638938E+04  0.42301971486E+04  0.36986358522E+04 0.  0.
        5    1    3    3  502    0 -0.13183524891E+04  0.50036207270E+03 -0.34194197413E+03  0.14509865241E+04  0.46999998093E+01 0. -1.
       -5    1    3    3    0  502  0.13183524891E+04 -0.50036207270E+03  0.23949058679E+04  0.27792106246E+04  0.46999998093E+01 0.  1.
</event>
<event>
 5   0  0.5177000E-08  0.3712929E+04  0.7818609E-02  0.8065103E-01
        1   -1    0    0  501    0  0.00000000000E+00  0.00000000000E+00  0.27390448359E+04  0.27390448359E+04  0.50400001928E-02 0. -1.
       -1   -1    0    0    0  501  0.00000000000E+00  0.00000000000E+00 -0.12582710463E+04  0.12582710463E+04  0.50400001928E-02 0.  1.
    10030    2    1    2    0    0  0.00000000000E+00  0.00000000000E+00  0.14807737895E+04  0.39973158822E+04  0.37129292003E+04 0.  0.
        4    1    3    3  502    0  0.36183465864E+03 -0.17474157683E+04  0.18924560205E+03  0.17944920446E+04  0.12699999809E+01 0.  1.
       -4    1    3    3    0  502 -0.36183465864E+03  0.17474157683E+04  0.12915281875E+04  0.22028238376E+04  0.12699999809E+01 0. -1.
</event>
<event>
 5   0  0.1666189E-07  0.3694833E+04  0.7818609E-02  0.8069108E-01
       -2   -1    0    0    0  501  0.00000000000E+00  0.00000000000E+00  0.20011596930E+04  0.20011596930E+04  0.25500000920E-02 0.  1.
        2   -1    0    0  501    0  0.00000000000E+00  0.00000000000E+00 -0.17054852317E+04  0.17054852318E+04  0.25500000920E-02 0. -1.
    10030    2    1    2    0    0  0.00000000000E+00  0.00000000000E+00  0.29567446129E+03  0.37066449248E+04  0.36948333131E+04 0.  0.
        4    1    3    3  502    0  0.46380528344E+03 -0.16983298579E+04 -0.41386970354E+03  0.18085157980E+04  0.12699999809E+01 0. -1.
       -4    1    3    3    0  502 -0.46380528344E+03  0.16983298579E+04  0.70954416483E+03  0.18981291268E+04  0.12699999809E+01 0.  1.
</event>
<event>
 5   0  0.1558258E-07  0.3698359E+04  0.7818609E-02  0.8068326E-01
        2   -1    0    0  501    0  0.00000000000E+00  0.00000000000E+00  0.19703755228E+04  0.19703755228E+04  0.25500000920E-02 0.  1.
       -2   -1    0    0    0  501  0.00000000000E+00  0.00000000000E+00 -0.17354382701E+04  0.17354382701E+04  0.25500000920E-02 0. -1.
    10030    2    1    2    0    0  0.00000000000E+00  0.00000000000E+00  0.23493725271E+03  0.37058137929E+04  0.36983591436E+04 0.  0.
        1    1    3    3  502    0  0.90463266278E+03 -0.72206217254E+03 -0.13275654843E+04  0.17612961564E+04  0.50400001928E-02 0. -1.
       -1    1    3    3    0  502 -0.90463266278E+03  0.72206217254E+03  0.15625027370E+04  0.19445176365E+04  0.50400001928E-02 0.  1.
</event>
<event>
 5   0  0.1686284E-07  0.3689647E+04  0.7818609E-02  0.8070260E-01
        2   -1    0    0  501    0  0.00000000000E+00  0.00000000000E+00  0.12019168590E+04  0.12019168590E+04  0.25500000920E-02 0.  1.
       -2   -1    0    0    0  501  0.00000000000E+00  0.00000000000E+00 -0.28316222555E+04  0.28316222555E+04  0.25500000920E-02 0. -1.
    10030    2    1    2    0    0  0.00000000000E+00  0.00000000000E+00 -0.16297053965E+04  0.40335391145E+04  0.36896474234E+04 0.  0.
        5    1    3    3  502    0 -0.10249431568E+04  0.75617953116E+03  0.64408858135E+03  0.14273010014E+04  0.46999998093E+01 0.  1.
       -5    1    3    3    0  502  0.10249431568E+04 -0.75617953116E+03 -0.22737939779E+04  0.26062381131E+04  0.46999998093E+01 0. -1.
</event>
<event>
 5   0  0.1658770E-07  0.3668426E+04  0.7818609E-02  0.8074995E-01
       -2   -1    0    0    0  501  0.00000000000E+00  0.00000000000E+00  0.12559028401E+04  0.12559028401E+04  0.25500000920E-02 0. -1.
        2   -1    0    0  501    0  0.00000000000E+00  0.00000000000E+00 -0.26788193557E+04  0.26788193557E+04  0.25500000920E-02 0.  1.
    10030    2    1    2    0    0  0.00000000000E+00  0.00000000000E+00 -0.14229165156E+04  0.39347221958E+04  0.36684257316E+04 0.  0.
        2    1    3    3  502    0  0.18718212537E+03 -0.96710603149E+03  0.94811690381E+03  0.13672076973E+04  0.25500000920E-02 0. -1.
       -2    1    3    3    0  502 -0.18718212537E+03  0.96710603149E+03 -0.23710334194E+04  0.25675144986E+04  0.25500000920E-02 0.  1.
</event>
<event>
 5   0  0.5177000E-08  0.3697013E+04  0.7818609E-02  0.8068624E-01
       -1   -1    0    0    0  501  0.00000000000E+00  0.00000000000E+00  0.16053739435E+04  0.16053739435E+04  0.50400001928E-02 0. -1.
        1   -1    0    0  501    0  0.00000000000E+00  0.00000000000E+00 -0.21284618294E+04  0.21284618294E+04  0.50400001928E-02 0.  1.
    10030    2    1    2    0    0  0.00000000000E+00  0.00000000000E+00 -0.52308788596E+03  0.37338357729E+04  0.36970134761E+04 0.  0.
        2    1    3    3  502    0 -0.82248057423E+03  0.12805068926E+03 -0.19284693687E+04  0.21004440911E+04  0.25500000920E-02 0.  1.
       -2    1    3    3    0  502  0.82248057423E+03 -0.12805068926E+03  0.14053814827E+04  0.16333916818E+04  0.25500000920E-02 0. -1.
</event>
<event>
 5   0  0.5177000E-08  0.3710170E+04  0.7818609E-02  0.8065712E-01
        1   -1    0    0  501    0  0.00000000000E+00  0.00000000000E+00  0.25409085184E+04  0.25409085184E+04  0.50400001928E-02 0.  1.
       -1   -1    0    0    0  501  0.00000000000E+00  0.00000000000E+00 -0.13543738565E+04  0.13543738565E+04  0.50400001928E-02 0. -1.
    10030    2    1    2    0    0  0.00000000000E+00  0.00000000000E+00  0.11865346619E+04  0.38952823750E+04  0.37101698447E+04 0.  0.
        1    1    3    3  502    0 -0.17316745948E+02 -0.18212211438E+04  0.96326161619E+03  0.20603444531E+04  0.50400001928E-02 0.  1.
       -1    1    3    3    0  502  0.17316745948E+02  0.18212211438E+04  0.22327304570E+03  0.18349379219E+04  0.50400001928E-02 0. -1.
</event>
<event>
 5   0  0.1686284E-07  0.3684138E+04  0.7818609E-02  0.8071486E-01
       -2   -1    0    0    0  501  0.00000000000E+00  0.00000000000E+00  0.23724198885E+04  0.23724198885E+04  0.25500000920E-02 0. -1.
        2   -1    0    0  501    0  0.00000000000E+00  0.00000000000E+00 -0.14302773231E+04  0.14302773231E+04  0.25500000920E-02 0.  1.
    10030    2    1    2    0    0  0.00000000000E+00  0.00000000000E+00  0.94214256541E+03  0.38026972116E+04  0.36841380904E+04 0.  0.
        5    1    3    3  502    0  0.13144156863E+04 -0.69924846941E+03 -0.64852835421E+03  0.16239606321E+04  0.46999998093E+01 0.  1.
       -5    1    3    3    0  502 -0.13144156863E+04  0.69924846941E+03  0.15906709196E+04  0.21787365795E+04  0.46999998093E+01 0. -1.
</event>
<event>
 5   0  0.1558258E-07  0.3698815E+04  0.7818609E-02  0.8068225E-01
        2   -1    0    0  501    0  0.00000000000E+00  0.00000000000E+00  0.23749294600E+04  0.23749294600E+04  0.25500000920E-02 0. -1.
       -2   -1    0    0    0  501  0.00000000000E+00  0.00000000000E+00 -0.14401723665E+04  0.14401723665E+04  0.25500000920E-02 0.  1.
    10030    2    1    2    0    0  0.00000000000E+00  0.00000000000E+00  0.93475709350E+03  0.38151018266E+04  0.36988148269E+04 0.  0.
        1    1    3    3  502    0 -0.22873697161E+03  0.39707744084E+03 -0.13806874742E+04  0.14547470562E+04  0.50400001928E-02 0.  1.
       -1    1    3    3    0  502  0.22873697161E+03 -0.39707744084E+03  0.23154445677E+04  0.23603547704E+04  0.50400001928E-02 0. -1.
</event>
<event>
 5   0  0.5181371E-08  0.3695651E+04  0.7818609E-02  0.8068926E-01
       -1   -1    0    0    0  501  0.00000000000E+00  0.00000000000E+00  0.18186317819E+04  0.18186317819E+04  0.50400001928E-02 0.  1.
        1   -1    0    0  501    0  0.00000000000E+00  0.00000000000E+00 -0.18774883077E+04  0.18774883077E+04  0.50400001928E-02 0. -1.
    10030    2    1    2    0    0  0.00000000000E+00  0.00000000000E+00 -0.58856525780E+02  0.36961200896E+04  0.36956514481E+04 0.  0.
        5    1    3    3  502    0  0.87412671340E+03 -0.83418018265E+03 -0.14276340602E+04  0.18703248883E+04  0.46999998093E+01 0. -1.
       -5    1    3    3    0  502 -0.87412671340E+03  0.83418018265E+03  0.13687775344E+04  0.18257952012E+04  0.46999998093E+01 0.  1.
</event>
<event>
 5   0  0.5177000E-08  0.3686395E+04  0.7818609E-02  0.8070984E-01
       -1   -1    0    0    0  501  0.00000000000E+00  0.00000000000E+00  0.19070839729E+04  0.19070839729E+04  0.50400001928E-02 0. -1.
        1   -1    0    0  501    0  0.00000000000E+00  0.00000000000E+00 -0.17814507255E+04  0.17814507255E+04  0.50400001928E-02 0.  1.
    10030    2    1    2    0    0  0.00000000000E+00  0.00000000000E+00  0.12563324743E+03  0.36885346984E+04  0.36863945134E+04 0.  0.
        3    1    3    3  502    0 -0.56302272406E+03 -0.75253552086E+03 -0.15236863928E+04  0.17902303014E+04  0.10100000352E+00 0.  1.
       -3    1    3    3    0  502  0.56302272406E+03  0.75253552086E+03  0.16493196403E+04  0.18983043971E+04  0.10100000352E+00 0. -1.
</event>
<event>
 5   0  0.1686284E-07  0.3699824E+04  0.7818609E-02  0.8068001E-01
        2   -1    0    0  501    0  0.00000000000E+00  0.00000000000E+00  0.19798900936E+04  0.19798900936E+04  0.25500000920E-02 0. -1.
       -2   -1    0    0    0  501  0.00000000000E+00  0.00000000000E+00 -0.17284671076E+04  0.17284671076E+04  0.25500000920E-02 0.  1.
    10030    2    1    2    0    0  0.00000000000E+00  0.00000000000E+00  0.25142298594E+03  0.37083572012E+04  0.36998242679E+04 0.  0.
        5    1    3    3  502    0  0.96007784136E+01  0.83346891743E+03  0.17810015314E+04  0.19664056439E+04  0.46999998093E+01 0. -1.
       -5    1    3    3    0  502 -0.96007784136E+01 -0.83346891743E+03 -0.15295785455E+04  0.17419515573E+04  0.46999998093E+01 0.  1.
</event>
<event>
 5   0  0.5177000E-08  0.3715819E+04  0.7818609E-02  0.8064465E-01
       -1   -1    0    0    0  501  0.00000000000E+00  0.00000000000E+00  0.12205456537E+04  0.12205456537E+04  0.50400001928E-02 0.  1.
        1   -1    0    0  501    0  0.00000000000E+00  0.00000000000E+00 -0.28281021648E+04  0.28281021648E+04  0.50400001928E-02 0. -1.
    10030    2    1    2    0    0  0.00000000000E+00  0.00000000000E+00 -0.16075565111E+04  0.40486478186E+04  0.37158190514E+04 0.  0.
        3    1    3    3  502    0 -0.69668214656E+03  0.36997852814E+03 -0.26365832220E+04  0.27520576341E+04  0.10100000352E+00 0. -1.
       -3    1    3    3    0  502  0.69668214656E+03 -0.36997852814E+03  0.10290267109E+04  0.12965901845E+04  0.10100000352E+00 0.  1.
</event>
<event>
 5   0  0.1587026E-07  0.3704275E+04  0.7818609E-02  0.8067015E-01
        2   -1    0    0  501    0  0.00000000000E+00  0.00000000000E+00  0.23022552929E+04  0.23022552929E+04  0.25500000920E-02 0.  1.
       -2   -1    0    0    0  501  0.00000000000E+00  0.00000000000E+00 -0.14900231227E+04  0.14900231227E+04  0.25500000920E-02 0. -1.
    10030    2    1    2    0    0  0.00000000000E+00  0.00000000000E+00  0.81223217017E+03  0.37922784156E+04  0.37042751630E+04 0.  0.
        3    1    3    3  502    0 -0.90868498545E+03 -0.51176473388E+03  0.19731008483E+04  0.22317568222E+04  0.10100000352E+00 0.  1.
       -3    1    3    3    0  502  0.90868498545E+03  0.51176473388E+03 -0.11608686781E+04  0.15605215935E+04  0.10100000352E+00 0. -1.
</event>
<event>
 5   0  0.5177000E-08  0.3702609E+04  0.7818609E-02  0.8067384E-01
       -1   -1    0    0    0  501  0.00000000000E+00  0.00000000000E+00  0.17385628612E+04  0.17385628612E+04  0.50400001928E-02 0. -1.
        1   -1    0    0  501    0  0.00000000000E+00  0.00000000000E+00 -0.19713576872E+04  0.19713576872E+04  0.50400001928E-02 0.  1.
    10030    2    1    2    0    0  0.00000000000E+00  0.00000000000E+00 -0.23279482605E+03  0.37099205484E+04  0.37026094912E+04 0.  0.
        2    1    3    3  502    0 -0.13364377907E+04 -0.11329977701E+04 -0.71555755007E+03  0.18925571386E+04  0.25500000920E-02 0.  1.
       -2    1    3    3    0  502  0.13364377907E+04  0.11329977701E+04  0.48276272402E+03  0.18173634098E+04  0.25500000920E-02 0. -1.
</event>
<event>
 5   0  0.1558258E-07  0.3612421E+04  0.7818609E-02  0.8087652E-01
       -2   -1    0    0    0  501  0.00000000000E+00  0.00000000000E+00  0.16884138072E+04  0.16884138072E+04  0.25500000920E-02 0. -1.
        2   -1    0    0  501    0  0.00000000000E+00  0.00000000000E+00 -0.19322255379E+04  0.19322255379E+04  0.25500000920E-02 0.  1.
    10030    2    1    2    0    0  0.00000000000E+00  0.00000000000E+00 -0.24381173068E+03  0.36206393451E+04  0.36124209483E+04 0.  0.
        1    1    3    3  502    0  0.61692823686E+03 -0.13539921943E+04 -0.11481987827E+04  0.18794296359E+04  0.50400001928E-02 0.  1.
       -1    1    3    3    0  502 -0.61692823686E+03  0.13539921943E+04  0.90438705204E+03  0.17412097092E+04  0.50400001928E-02 0. -1.
</event>
<event>
 5   0  0.5177000E-08  0.3760374E+04  0.7818609E-02  0.8054712E-01
        1   -1    0    0  501    0  0.00000000000E+00  0.00000000000E+00  0.16917217344E+04  0.16917217344E+04  0.50400001928E-02 0. -1.
       -1   -1    0    0    0  501  0.00000000000E+00  0.00000000000E+00 -0.20896486339E+04  0.20896486339E+04  0.50400001928E-02 0.  1.
    10030    2    1    2    0    0  0.00000000000E+00  0.00000000000E+00 -0.39792689955E+03  0.37813703683E+04  0.37603744554E+04 0.  0.
        2    1    3    3  502    0  0.13111762944E+04 -0.30098088342E+03 -0.15198160831E+04  0.20296831510E+04  0.25500000920E-02 0.  1.
       -2    1    3    3    0  502 -0.13111762944E+04  0.30098088342E+03  0.11218891835E+04  0.17516872173E+04  0.25500000920E-02 0. -1.
</event>
<event>
 5   0  0.1666189E-07  0.3684331E+04  0.7818609E-02  0.8071443E-01
       -2   -1    0    0    0  501  0.00000000000E+00  0.00000000000E+00  0.13518847711E+04  0.13518847711E+04  0.25500000920E-02 0. -1.
        2   -1    0    0  501    0  0.00000000000E+00  0.00000000000E+00 -0.25102538785E+04  0.25102538785E+04  0.25500000920E-02 0.  1.
    10030    2    1    2    0    0  0.00000000000E+00  0.00000000000E+00 -0.11583691075E+04  0.38621386496E+04  0.36843311414E+04 0.  0.
        4    1    3    3  502    0 -0.56400350410E+02 -0.84391382273E+03  0.11363156524E+04  0.14165402975E+04  0.12699999809E+01 0. -1.
       -4    1    3    3    0  502  0.56400350410E+02  0.84391382273E+03 -0.22946847599E+04  0.24455983521E+04  0.12699999809E+01 0.  1.
</event>
<event>
 5   0  0.5177000E-08  0.3718991E+04  0.7818609E-02  0.8063766E-01
        1   -1    0    0  501    0  0.00000000000E+00  0.00000000000E+00  0.22101665950E+04  0.22101665950E+04  0.50400001928E-02 0. -1.
       -1   -1    0    0    0  501  0.00000000000E+00  0.00000000000E+00 -0.15644629974E+04  0.15644629974E+04  0.50400001928E-02 0.  1.
    10030    2    1    2    0    0  0.00000000000E+00  0.00000000000E+00  0.64570359763E+03  0.37746295924E+04  0.37189911836E+04 0.  0.
        4    1    3    3  502    0 -0.49001376014E+03 -0.13320782370E+03  0.21384300898E+04  0.21978950546E+04  0.12699999809E+01 0. -1.
       -4    1    3    3    0  502  0.49001376014E+03  0.13320782370E+03 -0.14927264921E+04  0.15767345378E+04  0.12699999809E+01 0.  1.
</event>
<event>
 5   0  0.5177000E-08  0.3706046E+04  0.7818609E-02  0.8066623E-01
        1   -1    0    0  501    0  0.00000000000E+00  0.00000000000E+00  0.27965388524E+04  0.27965388524E+04  0.50400001928E-02 0. -1.
       -1   -1    0    0    0  501  0.00000000000E+00  0.00000000000E+00 -0.12278373018E+04  0.12278373018E+04  0.50400001928E-02 0.  1.
    10030    2    1    2    0    0  0.00000000000E+00  0.00000000000E+00  0.15687015507E+04  0.40243761542E+04  0.37060462592E+04 0.  0.
        2    1    3    3  502    0 -0.14614115130E+04  0.76017626235E+03 -0.13712747508E+03  0.16529959179E+04  0.25500000920E-02 0.  1.
       -2    1    3    3    0  502  0.14614115130E+04 -0.76017626235E+03  0.17058290258E+04  0.23713802363E+04  0.25500000920E-02 0. -1.
</event>
<event>
 5   0  0.5181371E-08  0.3697295E+04  0.7818609E-02  0.8068562E-01
        1   -1    0    0  501    0  0.00000000000E+00  0.00000000000E+00  0.18420805042E+04  0.18420805042E+04  0.50400001928E-02 0.  1.
       -1   -1    0    0    0  501  0.00000000000E+00  0.00000000000E+00 -0.18552379556E+04  0.18552379556E+04  0.50400001928E-02 0. -1.
    10030    2    1    2    0    0  0.00000000000E+00  0.00000000000E+00 -0.13157451384E+02  0.36973184597E+04  0.36972950483E+04 0.  0.
        5    1    3    3  502    0  0.30011877410E+03 -0.49066589103E+02 -0.18300476391E+04  0.18551483121E+04  0.46999998093E+01 0. -1.
       -5    1    3    3    0  502 -0.30011877410E+03  0.49066589103E+02  0.18168901877E+04  0.18421701476E+04  0.46999998093E+01 0.  1.
</event>
<event>
 5   0  0.5177000E-08  0.3697828E+04  0.7818609E-02  0.8068443E-01
        1   -1    0    0  501    0  0.00000000000E+00  0.00000000000E+00  0.12423581753E+04  0.12423581753E+04  0.50400001928E-02 0.  1.
       -1   -1    0    0    0  501  0.00000000000E+00  0.00000000000E+00 -0.27516075398E+04  0.27516075398E+04  0.50400001928E-02 0. -1.
    10030    2    1    2    0    0  0.00000000000E+00  0.00000000000E+00 -0.15092493645E+04  0.39939657151E+04  0.36978275364E+04 0.  0.
        2    1    3    3  502    0 -0.93327092622E+03 -0.15784852955E+04 -0.10099262700E+04  0.20934568352E+04  0.25500000920E-02 0. -1.
       -2    1    3    3    0  502  0.93327092622E+03  0.15784852955E+04 -0.49932309446E+03  0.19005088799E+04  0.25500000920E-02 0.  1.
</event>
<event>
 5   0  0.5177000E-08  0.3697065E+04  0.7818609E-02  0.8068612E-01
        1   -1    0    0  501    0  0.00000000000E+00  0.00000000000E+00  0.15359866734E+04  0.15359866734E+04  0.50400001928E-02 0. -1.
       -1   -1    0    0    0  501  0.00000000000E+00  0.00000000000E+00 -0.22246763881E+04  0.22246763881E+04  0.50400001928E-02 0.  1.
    10030    2    1    2    0    0  0.00000000000E+00  0.00000000000E+00 -0.68868971469E+03  0.37606630615E+04  0.36970654767E+04 0.  0.
        3    1    3    3  502    0  0.55604562664E+03 -0.82493885993E+03  0.12404556206E+04  0.15901072349E+04  0.10100000352E+00 0. -1.
       -3    1    3    3    0  502 -0.55604562664E+03  0.82493885993E+03 -0.19291453353E+04  0.21705558266E+04  0.10100000352E+00 0.  1.
</event>
<event>
 5   0  0.5181371E-08  0.3700995E+04  0.7818609E-02  0.8067741E-01
        1   -1    0    0  501    0  0.00000000000E+00  0.00000000000E+00  0.19628502123E+04  0.19628502123E+04  0.50400001928E-02 0.  1.
       -1   -1    0    0    0  501  0.00000000000E+00  0.00000000000E+00 -0.17445760609E+04  0.17445760609E+04  0.50400001928E-02 0. -1.
    10030    2    1    2    0    0  0.00000000000E+00  0.00000000000E+00  0.21827415135E+03  0.37074262732E+04  0.37009952670E+04 0.  0.
        5    1    3    3  502    0  0.11529089711E+04 -0.12930651141E+04  0.76073096545E+03  0.18920756266E+04  0.46999998093E+01 0.  1.
       -5    1    3    3    0  502 -0.11529089711E+04  0.12930651141E+04 -0.54245681409E+03  0.18153506466E+04  0.46999998093E+01 0. -1.
</event>
<event>
 5   0  0.5181371E-08  0.3701586E+04  0.7818609E-02  0.8067611E-01
        1   -1    0    0  501    0  0.00000000000E+00  0.00000000000E+00  0.18184478830E+04  0.18184478830E+04  0.50400001928E-02 0.  1.
       -1   -1    0    0    0  501  0.00000000000E+00  0.00000000000E+00 -0.18837131039E+04  0.18837131039E+04  0.50400001928E-02 0. -1.
    10030    2    1    2    0    0  0.00000000000E+00  0.00000000000E+00 -0.65265220906E+02  0.37021609869E+04  0.37015856635E+04 0.  0.
        5    1    3    3  502    0 -0.27574492955E+03  0.13416604650E+03 -0.18581220979E+04  0.18832619613E+04  0.46999998093E+01 0. -1.
       -5    1    3    3    0  502  0.27574492955E+03 -0.13416604650E+03  0.17928568770E+04  0.18188990256E+04  0.46999998093E+01 0.  1.
</event>
<event>
 5   0  0.5181371E-08  0.3705583E+04  0.7818609E-02  0.8066726E-01
        1   -1    0    0  501    0  0.00000000000E+00  0.00000000000E+00  0.11808792483E+04  0.11808792483E+04  0.50400001928E-02 0.  1.
       -1   -1    0    0    0  501  0.00000000000E+00  0.00000000000E+00 -0.29070170706E+04  0.29070170706E+04  0.50400001928E-02 0. -1.
    10030    2    1    2    0    0  0.00000000000E+00  0.00000000000E+00 -0.17261378223E+04  0.40878963189E+04  0.37055828870E+04 0.  0.
        5    1    3    3  502    0  0.20294839128E+02  0.13948141259E+04 -0.22082588035E+04  0.26119623580E+04  0.46999998093E+01 0. -1.
       -5    1    3    3    0  502 -0.20294839128E+02 -0.13948141259E+04  0.48212098118E+03  0.14759339609E+04  0.46999998093E+01 0.  1.
</event>
<event>
 5   0  0.1666189E-07  0.3667687E+04  0.7818609E-02  0.8075161E-01
        2   -1    0    0  501    0  0.00000000000E+00  0.00000000000E+00  0.23682871722E+04  0.23682871722E+04  0.25500000920E-02 0. -1.
       -2   -1    0    0    0  501  0.00000000000E+00  0.00000000000E+00 -0.14200063688E+04  0.14200063688E+04  0.25500000920E-02 0.  1.
    10030    2    1    2    0    0  0.00000000000E+00  0.00000000000E+00  0.94828080338E+03  0.37882935410E+04  0.36676874827E+04 0.  0.
        4    1    3    3  502    0  0.15745365093E+04  0.12600522975E+03 -0.48812712831E+03  0.16532731907E+04  0.12699999809E+01 0.  1.
       -4    1    3    3    0  502 -0.15745365093E+04 -0.12600522975E+03  0.14364079317E+04  0.21350203503E+04  0.12699999809E+01 0. -1.
</event>
<event>
 5   0  0.5177000E-08  0.3696259E+04  0.7818609E-02  0.8068791E-01
       -1   -1    0    0    0  501  0.00000000000E+00  0.00000000000E+00  0.27792434208E+04  0.27792434208E+04  0.50400001928E-02 0.  1.
        1   -1    0    0  501    0  0.00000000000E+00  0.00000000000E+00 -0.12289615848E+04  0.12289615848E+04  0.50400001928E-02 0. -1.
    10030    2    1    2    0    0  0.00000000000E+00  0.00000000000E+00  0.15502818360E+04  0.40082050057E+04  0.36962594060E+04 0.  0.
        4    1    3    3  502    0  0.13950192916E+04  0.86989412956E+03  0.16906600386E+04  0.23582043168E+04  0.12699999809E+01 0. -1.
       -4    1    3    3    0  502 -0.13950192916E+04 -0.86989412956E+03 -0.14037820262E+03  0.16500006889E+04  0.12699999809E+01 0.  1.
</event>
<event>
 5   0  0.1587026E-07  0.3692954E+04  0.7818609E-02  0.8069525E-01
       -2   -1    0    0    0  501  0.00000000000E+00  0.00000000000E+00  0.18247791318E+04  0.18247791318E+04  0.25500000920E-02 0. -1.
        2   -1    0    0  501    0  0.00000000000E+00  0.00000000000E+00 -0.18684325204E+04  0.18684325204E+04  0.25500000920E-02 0.  1.
    10030    2    1    2    0    0  0.00000000000E+00  0.00000000000E+00 -0.43653388610E+02  0.36932116521E+04  0.36929536538E+04 0.  0.
        3    1    3    3  502    0  0.15150206218E+04 -0.31931146096E+03  0.98433969685E+03  0.18347130410E+04  0.10100000352E+00 0. -1.
       -3    1    3    3    0  502 -0.15150206218E+04  0.31931146096E+03 -0.10279930855E+04  0.18584986112E+04  0.10100000352E+00 0.  1.
</event>
<event>
 5   0  0.1558258E-07  0.3696916E+04  0.7818609E-02  0.8068646E-01
        2   -1    0    0  501    0  0.00000000000E+00  0.00000000000E+00  0.30571048477E+04  0.30571048477E+04  0.25500000920E-02 0.  1.
       -2   -1    0    0    0  501  0.00000000000E+00  0.00000000000E+00 -0.11176578409E+04  0.11176578409E+04  0.25500000920E-02 0. -1.
    10030    2    1    2    0    0  0.00000000000E+00  0.00000000000E+00  0.19394470069E+04  0.41747626886E+04  0.36969161221E+04 0.  0.
        1    1    3    3  502    0 -0.12228390009E+04 -0.48160803075E+03  0.24375452251E+04  0.27692793723E+04  0.50400001928E-02 0.  1.
       -1    1    3    3    0  502  0.12228390009E+04  0.48160803075E+03 -0.49809821829E+03  0.14054833163E+04  0.50400001928E-02 0. -1.
</event>
<event>
 5   0  0.5177000E-08  0.3684092E+04  0.7818609E-02  0.8071496E-01
       -1   -1    0    0    0  501  0.00000000000E+00  0.00000000000E+00  0.17136498218E+04  0.17136498218E+04  0.50400001928E-02 0. -1.
        1   -1    0    0  501    0  0.00000000000E+00  0.00000000000E+00 -0.19800622404E+04  0.19800622404E+04  0.50400001928E-02 0.  1.
    10030    2    1    2    0    0  0.00000000000E+00  0.00000000000E+00 -0.26641241861E+03  0.36937120623E+04  0.36840919128E+04 0.  0.
        4    1    3    3  502    0  0.40671271340E+03 -0.11422664000E+04 -0.15235298000E+04  0.19471344135E+04  0.12699999809E+01 0.  1.
       -4    1    3    3    0  502 -0.40671271340E+03  0.11422664000E+04  0.12571173814E+04  0.17465776488E+04  0.12699999809E+01 0. -1.
</event>
<event>
 5   0  0.1558258E-07  0.3704357E+04  0.7818609E-02  0.8066997E-01
       -2   -1    0    0    0  501  0.00000000000E+00  0.00000000000E+00  0.16757598255E+04  0.16757598255E+04  0.25500000920E-02 0.  1.
        2   -1    0    0  501    0  0.00000000000E+00  0.00000000000E+00 -0.20471705028E+04  0.20471705028E+04  0.25500000920E-02 0. -1.
    10030    2    1    2    0    0  0.00000000000E+00  0.00000000000E+00 -0.37141067729E+03  0.37229303283E+04  0.37043574798E+04 0.  0.
        1    1    3    3  502    0  0.53865073381E+03  0.12795139415E+04  0.10465192479E+04  0.17385347497E+04  0.50400001928E-02 0.  1.
       -1    1    3    3    0  502 -0.53865073381E+03 -0.12795139415E+04 -0.14179299252E+04  0.19843955786E+04  0.50400001928E-02 0. -1.
</event>
<event>
 5   0  0.1558258E-07  0.3692379E+04  0.7818609E-02  0.8069653E-01
        2   -1    0    0  501    0  0.00000000000E+00  0.00000000000E+00  0.13912985745E+04  0.13912985745E+04  0.25500000920E-02 0. -1.
       -2   -1    0    0    0  501  0.00000000000E+00  0.00000000000E+00 -0.24498085125E+04  0.24498085125E+04  0.25500000920E-02 0.  1.
    10030    2    1    2    0    0  0.00000000000E+00  0.00000000000E+00 -0.10585099380E+04  0.38411070871E+04  0.36923786867E+04 0.  0.
        1    1    3    3  502    0 -0.20056586878E+03 -0.68032774801E+03  0.12439088218E+04  0.14319153849E+04  0.50400001928E-02 0. -1.
       -1    1    3    3    0  502  0.20056586878E+03  0.68032774801E+03 -0.23024187598E+04  0.24091917022E+04  0.50400001928E-02 0.  1.
</event>
<event>
 5   0  0.5177000E-08  0.3695977E+04  0.7818609E-02  0.8068854E-01
        1   -1    0    0  501    0  0.00000000000E+00  0.00000000000E+00  0.21543567182E+04  0.21543567182E+04  0.50400001928E-02 0.  1.
       -1   -1    0    0    0  501  0.00000000000E+00  0.00000000000E+00 -0.15851883953E+04  0.15851883953E+04  0.50400001928E-02 0. -1.
    10030    2    1    2    0    0  0.00000000000E+00  0.00000000000E+00  0.56916832294E+03  0.37395451135E+04  0.36959768771E+04 0.  0.
        2    1    3    3  502    0  0.97595546661E+03  0.14536987672E+04  0.88259461092E+03  0.19607912754E+04  0.25500000920E-02 0.  1.
       -2    1    3    3    0  502 -0.97595546661E+03 -0.14536987672E+04 -0.31342628797E+03  0.17787538381E+04  0.25500000920E-02 0. -1.
</event>
<event>
 5   0  0.1558258E-07  0.3704506E+04  0.7818609E-02  0.8066964E-01
       -2   -1    0    0    0  501  0.00000000000E+00  0.00000000000E+00  0.12808184825E+04  0.12808184825E+04  0.25500000920E-02 0. -1.
        2   -1    0    0  501    0  0.00000000000E+00  0.00000000000E+00 -0.26786319398E+04  0.26786319398E+04  0.25500000920E-02 0.  1.
    10030    2    1    2    0    0  0.00000000000E+00  0.00000000000E+00 -0.13978134572E+04  0.39594504223E+04  0.37045060650E+04 0.  0.
        1    1    3    3  502    0 -0.50072256358E+03 -0.54262027454E+03  0.11167293036E+04  0.13387472449E+04  0.50400001928E-02 0. -1.
       -1    1    3    3    0  502  0.50072256358E+03  0.54262027454E+03 -0.25145427609E+04  0.26207031774E+04  0.50400001928E-02 0.  1.
</event>
<event>
 5   0  0.5177000E-08  0.3714307E+04  0.7818609E-02  0.8064799E-01
       -1   -1    0    0    0  501  0.00000000000E+00  0.00000000000E+00  0.17843746867E+04  0.17843746867E+04  0.50400001928E-02 0.  1.
        1   -1    0    0  501    0  0.00000000000E+00  0.00000000000E+00 -0.19329003141E+04  0.19329003141E+04  0.50400001928E-02 0. -1.
    10030    2    1    2    0    0  0.00000000000E+00  0.00000000000E+00 -0.14852562741E+03  0.37172750008E+04  0.37143066068E+04 0.  0.
        1    1    3    3  502    0 -0.12197615025E+04  0.10617030120E+04 -0.98822152463E+03  0.18951551890E+04  0.50400001928E-02 0. -1.
       -1    1    3    3    0  502  0.12197615025E+04 -0.10617030120E+04  0.83969589722E+03  0.18221198118E+04  0.50400001928E-02 0.  1.
</event>
<event>
 5   0  0.5177000E-08  0.3709687E+04  0.7818609E-02  0.8065818E-01
       -1   -1    0    0    0  501  0.00000000000E+00  0.00000000000E+00  0.13109127739E+04  0.13109127739E+04  0.50400001928E-02 0. -1.
        1   -1    0    0  501    0  0.00000000000E+00  0.00000000000E+00 -0.26244654862E+04  0.26244654862E+04  0.50400001928E-02 0.  1.
    10030    2    1    2    0    0  0.00000000000E+00  0.00000000000E+00 -0.13135527123E+04  0.39353782601E+04  0.37096874965E+04 0.  0.
        2    1    3    3  502    0  0.77986827233E+03  0.16790525660E+04 -0.53566742652E+03  0.19272653251E+04  0.25500000920E-02 0.  1.
       -2    1    3    3    0  502 -0.77986827233E+03 -0.16790525660E+04 -0.77788528573E+03  0.20081129349E+04  0.25500000920E-02 0. -1.
</event>
<event>
 5   0  0.5177000E-08  0.3696485E+04  0.7818609E-02  0.8068741E-01
       -1   -1    0    0    0  501  0.00000000000E+00  0.00000000000E+00  0.26786634259E+04  0.26786634259E+04  0.50400001928E-02 0.  1.
        1   -1    0    0  501    0  0.00000000000E+00  0.00000000000E+00 -0.12752629733E+04  0.12752629733E+04  0.50400001928E-02 0. -1.
    10030    2    1    2    0    0  0.00000000000E+00  0.00000000000E+00  0.14034004527E+04  0.39539263992E+04  0.36964849709E+04 0.  0.
        1    1    3    3  502    0 -0.14818085099E+04  0.10812334697E+04  0.45971919180E+03  0.18910748296E+04  0.50400001928E-02 0. -1.
       -1    1    3    3    0  502  0.14818085099E+04 -0.10812334697E+04  0.94368126088E+03  0.20628515696E+04  0.50400001928E-02 0.  1.
</event>
<event>
 5   0  0.1558258E-07  0.3692385E+04  0.7818609E-02  0.8069651E-01
        2   -1    0    0  501    0  0.00000000000E+00  0.00000000000E+00  0.21607303178E+04  0.21607303178E+04  0.25500000920E-02 0. -1.
       -2   -1    0    0    0  501  0.00000000000E+00  0.00000000000E+00 -0.15774423913E+04  0.15774423913E+04  0.25500000920E-02 0.  1.
    10030    2    1    2    0    0  0.00000000000E+00  0.00000000000E+00  0.58328792650E+03  0.37381727092E+04  0.36923854618E+04 0.  0.
        1    1    3    3  502    0 -0.20813182883E+03 -0.18257865314E+04  0.11164074823E+03  0.18409994495E+04  0.50400001928E-02 0.  1.
       -1    1    3    3    0  502  0.20813182883E+03  0.18257865314E+04  0.47164717827E+03  0.18971732597E+04  0.50400001928E-02 0. -1.
</event>
<event>
 5   0  0.5177000E-08  0.3689869E+04  0.7818609E-02  0.8070211E-01
       -1   -1    0    0    0  501  0.00000000000E+00  0.00000000000E+00  0.16213427735E+04  0.16213427735E+04  0.50400001928E-02 0. -1.
        1   -1    0    0  501    0  0.00000000000E+00  0.00000000000E+00 -0.20993610948E+04  0.20993610949E+04  0.50400001928E-02 0.  1.
    10030    2    1    2    0    0  0.00000000000E+00  0.00000000000E+00 -0.47801832139E+03  0.37207038683E+04  0.36898693419E+04 0.  0.
        1    1    3    3  502    0 -0.11254634762E+04  0.10643759082E+04 -0.12494910035E+04  0.19901738311E+04  0.50400001928E-02 0.  1.
       -1    1    3    3    0  502  0.11254634762E+04 -0.10643759082E+04  0.77147268215E+03  0.17305300372E+04  0.50400001928E-02 0. -1.
</event>
<event>
 5   0  0.5177000E-08  0.3568511E+04  0.7818609E-02  0.8097743E-01
        1   -1    0    0  501    0  0.00000000000E+00  0.00000000000E+00  0.32284151797E+04  0.32284151797E+04  0.50400001928E-02 0.  1.
       -1   -1    0    0    0  501  0.00000000000E+00  0.00000000000E+00 -0.98610857973E+03  0.98610857974E+03  0.50400001928E-02 0. -1.
    10030    2    1    2    0    0  0.00000000000E+00  0.00000000000E+00  0.22423065999E+04  0.42145237594E+04  0.35685111224E+04 0.  0.
        4    1    3    3  502    0  0.97342739514E+03 -0.11402922543E+04 -0.21300933928E+02  0.14994274445E+04  0.12699999809E+01 0. -1.
       -4    1    3    3    0  502 -0.97342739514E+03  0.11402922543E+04  0.22636075339E+04  0.27150963149E+04  0.12699999809E+01 0.  1.
</event>
<event>
 5   0  0.1658770E-07  0.3708882E+04  0.7818609E-02  0.8065996E-01
       -2   -1    0    0    0  501  0.00000000000E+00  0.00000000000E+00  0.19736576714E+04  0.19736576714E+04  0.25500000920E-02 0. -1.
        2   -1    0    0  501    0  0.00000000000E+00  0.00000000000E+00 -0.17424256114E+04  0.17424256114E+04  0.25500000920E-02 0.  1.
    10030    2    1    2    0    0  0.00000000000E+00  0.00000000000E+00  0.23123205997E+03  0.37160832827E+04  0.37088821360E+04 0.  0.
        2    1    3    3  502    0 -0.35871472369E+03  0.16053458649E+03 -0.17002228403E+04  0.17450516649E+04  0.25500000920E-02 0.  1.
       -2    1    3    3    0  502  0.35871472369E+03 -0.16053458649E+03  0.19314549003E+04  0.19710316178E+04  0.25500000920E-02 0. -1.
</event>
<event>
 5   0  0.1658770E-07  0.3724660E+04  0.7818609E-02  0.8062519E-01
       -2   -1    0    0    0  501  0.00000000000E+00  0.00000000000E+00  0.16462857092E+04  0.16462857092E+04  0.25500000920E-02 0. -1.
        2   -1    0    0  501    0  0.00000000000E+00  0.00000000000E+00 -0.21067265538E+04  0.21067265538E+04  0.25500000920E-02 0.  1.
    10030    2    1    2    0    0  0.00000000000E+00  0.00000000000E+00 -0.46044084460E+03  0.37530122630E+04  0.37246604241E+04 0.  0.
        2    1    3    3  502    0  0.89577084397E+03  0.15548898326E+04 -0.73219527204E+03  0.19380912550E+04  0.25500000920E-02 0. -1.
       -2    1    3    3    0  502 -0.89577084397E+03 -0.15548898326E+04  0.27175442744E+03  0.18149210080E+04  0.25500000920E-02 0.  1.
</event>
<event>
 5   0  0.1686284E-07  0.3695968E+04  0.7818609E-02  0.8068856E-01
        2   -1    0    0  501    0  0.00000000000E+00  0.00000000000E+00  0.17680682323E+04  0.17680682323E+04  0.25500000920E-02 0. -1.
       -2   -1    0    0    0  501  0.00000000000E+00  0.00000000000E+00 -0.19315118847E+04  0.19315118847E+04  0.25500000920E-02 0.  1.
    10030    2    1    2    0    0  0.00000000000E+00  0.00000000000E+00 -0.16344365239E+03  0.36995801170E+04  0.36959679672E+04 0.  0.
        5    1    3    3  502    0 -0.15849359812E+02  0.18230499546E+04 -0.38411038929E+03  0.18631492749E+04  0.46999998093E+01 0.  1.
       -5    1    3    3    0  502  0.15849359812E+02 -0.18230499546E+04  0.22066673690E+03  0.18364308422E+04  0.46999998093E+01 0. -1.
</event>
<event>
 5   0  0.1558258E-07  0.3760723E+04  0.7818609E-02  0.8054637E-01
        2   -1    0    0  501    0  0.00000000000E+00  0.00000000000E+00  0.25956257974E+04  0.25956257975E+04  0.25500000920E-02 0.  1.
       -2   -1    0    0    0  501  0.00000000000E+00  0.00000000000E+00 -0.13621990625E+04  0.13621990625E+04  0.25500000920E-02 0. -1.
    10030    2    1    2    0    0  0.00000000000E+00  0.00000000000E+00  0.12334267349E+04  0.39578248600E+04  0.37607228177E+04 0.  0.
        1    1    3    3  502    0 -0.15101789287E+04 -0.67508374099E+03  0.15576536076E+04  0.22721494703E+04  0.50400001928E-02 0.  1.
       -1    1    3    3    0  502  0.15101789287E+04  0.67508374099E+03 -0.32422687270E+03  0.16856753896E+04  0.50400001928E-02 0. -1.
</event>
<event>
 5   0  0.5177000E-08  0.3689256E+04  0.7818609E-02  0.8070347E-01
       -1   -1    0    0    0  501  0.00000000000E+00  0.00000000000E+00  0.18357019695E+04  0.18357019695E+04  0.50400001928E-02 0.  1.
        1   -1    0    0  501    0  0.00000000000E+00  0.00000000000E+00 -0.18535976479E+04  0.18535976479E+04  0.50400001928E-02 0. -1.
    10030    2    1    2    0    0  0.00000000000E+00  0.00000000000E+00 -0.17895678401E+02  0.36892996175E+04  0.36892562139E+04 0.  0.
        3    1    3    3  502    0 -0.41554969963E+03  0.34967694639E+03 -0.17718348029E+04  0.18532010411E+04  0.10100000352E+00 0. -1.
       -3    1    3    3    0  502  0.41554969963E+03 -0.34967694639E+03  0.17539391245E+04  0.18360985764E+04  0.10100000352E+00 0.  1.
</event>
<event>
 5   0  0.1666189E-07  0.3702483E+04  0.7818609E-02  0.8067412E-01
       -2   -1    0    0    0  501  0.00000000000E+00  0.00000000000E+00  0.14393672311E+04  0.14393672311E+04  0.25500000920E-02 0. -1.
        2   -1    0    0  501    0  0.00000000000E+00  0.00000000000E+00 -0.23809728969E+04  0.23809728969E+04  0.25500000920E-02 0.  1.
    10030    2    1    2    0    0  0.00000000000E+00  0.00000000000E+00 -0.94160566581E+03  0.38203401280E+04  0.37024826082E+04 0.  0.
        4    1    3    3  502    0  0.50454324654E+03  0.53453759832E+03 -0.22239453915E+04  0.23422700632E+04  0.12699999809E+01 0.  1.
       -4    1    3    3    0  502 -0.50454324654E+03 -0.53453759832E+03  0.12823397257E+04  0.14780700649E+04  0.12699999809E+01 0. -1.
</event>
<event>
 5   0  0.1686284E-07  0.3609296E+04  0.7818609E-02  0.8088366E-01
        2   -1    0    0  501    0  0.00000000000E+00  0.00000000000E+00  0.27664289016E+04  0.27664289016E+04  0.25500000920E-02 0. -1.
       -2   -1    0    0    0  501  0.00000000000E+00  0.00000000000E+00 -0.11772415078E+04  0.11772415078E+04  0.25500000920E-02 0.  1.
    10030    2    1    2    0    0  0.00000000000E+00  0.00000000000E+00  0.15891873938E+04  0.39436704094E+04  0.36092962923E+04 0.  0.
        5    1    3    3  502    0  0.65832402170E+03  0.10982642049E+04 -0.59489273800E+03  0.14119115557E+04  0.46999998093E+01 0.  1.
       -5    1    3    3    0  502 -0.65832402170E+03 -0.10982642049E+04  0.21840801318E+04  0.25317588537E+04  0.46999998093E+01 0. -1.
</event>
<event>
 5   0  0.1558258E-07  0.3715862E+04  0.7818609E-02  0.8064456E-01
       -2   -1    0    0    0  501  0.00000000000E+00  0.00000000000E+00  0.18567159521E+04  0.18567159521E+04  0.25500000920E-02 0.  1.
        2   -1    0    0  501    0  0.00000000000E+00  0.00000000000E+00 -0.18591468368E+04  0.18591468368E+04  0.25500000920E-02 0. -1.
    10030    2    1    2    0    0  0.00000000000E+00  0.00000000000E+00 -0.24308847279E+01  0.37158627889E+04  0.37158619938E+04 0.  0.
        1    1    3    3  502    0  0.56705671972E+02 -0.78072784062E+03  0.16837644714E+04  0.18568290954E+04  0.50400001928E-02 0.  1.
       -1    1    3    3    0  502 -0.56705671972E+02  0.78072784062E+03 -0.16861953561E+04  0.18590336935E+04  0.50400001928E-02 0. -1.
</event>
<event>
 5   0  0.5177000E-08  0.3696203E+04  0.7818609E-02  0.8068804E-01
        1   -1    0    0  501    0  0.00000000000E+00  0.00000000000E+00  0.33946472513E+04  0.33946472513E+04  0.50400001928E-02 0. -1.
       -1   -1    0    0    0  501  0.00000000000E+00  0.00000000000E+00 -0.10061364936E+04  0.10061364937E+04  0.50400001928E-02 0.  1.
    10030    2    1    2    0    0  0.00000000000E+00  0.00000000000E+00  0.23885107577E+04  0.44007837450E+04  0.36962026366E+04 0.  0.
        1    1    3    3  502    0  0.36127752967E+03  0.14005387091E+04  0.25639626282E+04  0.29437959318E+04  0.50400001928E-02 0. -1.
       -1    1    3    3    0  502 -0.36127752967E+03 -0.14005387091E+04 -0.17545187051E+03  0.14569878132E+04  0.50400001928E-02 0.  1.
</event>
<event>
 5   0  0.5177000E-08  0.3712332E+04  0.7818609E-02  0.8065234E-01
        1   -1    0    0  501    0  0.00000000000E+00  0.00000000000E+00  0.12819749894E+04  0.12819749894E+04  0.50400001928E-02 0. -1.
       -1   -1    0    0    0  501  0.00000000000E+00  0.00000000000E+00 -0.26875341140E+04  0.26875341140E+04  0.50400001928E-02 0.  1.
    10030    2    1    2    0    0  0.00000000000E+00  0.00000000000E+00 -0.14055591246E+04  0.39695091035E+04  0.37123316217E+04 0.  0.
        2    1    3    3  502    0 -0.40888079337E+03 -0.18097326891E+04 -0.64386632433E+03  0.19638940279E+04  0.25500000920E-02 0. -1.
       -2    1    3    3    0  502  0.40888079337E+03  0.18097326891E+04 -0.76169280028E+03  0.20056150756E+04  0.25500000920E-02 0.  1.
</event>
<event>
 5   0  0.5177000E-08  0.3715993E+04  0.7818609E-02  0.8064427E-01
       -1   -1    0    0    0  501  0.00000000000E+00  0.00000000000E+00  0.15900931695E+04  0.15900931695E+04  0.50400001928E-02 0.  1.
        1   -1    0    0  501    0  0.00000000000E+00  0.00000000000E+00 -0.21710370562E+04  0.21710370562E+04  0.50400001928E-02 0. -1.
    10030    2    1    2    0    0  0.00000000000E+00  0.00000000000E+00 -0.58094388665E+03  0.37611302257E+04  0.37159931075E+04 0.  0.
        2    1    3    3  502    0 -0.82579379212E+03 -0.50165746229E+03  0.13158006232E+04  0.16324603752E+04  0.25500000920E-02 0.  1.
       -2    1    3    3    0  502  0.82579379212E+03  0.50165746229E+03 -0.18967445099E+04  0.21286698505E+04  0.25500000920E-02 0. -1.
</event>
<event>
 5   0  0.1658770E-07  0.3683076E+04  0.7818609E-02  0.8071723E-01
       -2   -1    0    0    0  501  0.00000000000E+00  0.00000000000E+00  0.14721269187E+04  0.14721269187E+04  0.25500000920E-02 0. -1.
        2   -1    0    0  501    0  0.00000000000E+00  0.00000000000E+00 -0.23036485542E+04  0.23036485542E+04  0.25500000920E-02 0.  1.
    10030    2    1    2    0    0  0.00000000000E+00  0.00000000000E+00 -0.83152163556E+03  0.37757754729E+04  0.36830764575E+04 0.  0.
        2    1    3    3  502    0 -0.18356037714E+04 -0.10757517557E+03 -0.51954834330E+03  0.19107443850E+04  0.25500000920E-02 0.  1.
       -2    1    3    3    0  502  0.18356037714E+04  0.10757517557E+03 -0.31197329226E+03  0.18650310879E+04  0.25500000920E-02 0. -1.
</event>
<event>
 5   0  0.1666189E-07  0.3696820E+04  0.7818609E-02  0.8068667E-01
       -2   -1    0    0    0  501  0.00000000000E+00  0.00000000000E+00  0.18049459689E+04  0.18049459689E+04  0.25500000920E-02 0. -1.
        2   -1    0    0  501    0  0.00000000000E+00  0.00000000000E+00 -0.18929210919E+04  0.18929210919E+04  0.25500000920E-02 0.  1.
    10030    2    1    2    0    0  0.00000000000E+00  0.00000000000E+00 -0.87975123058E+02  0.36978670608E+04  0.36968204145E+04 0.  0.
        4    1    3    3  502    0  0.61264041216E+03  0.29716595009E+03 -0.17628985955E+04  0.18898277560E+04  0.12699999809E+01 0.  1.
       -4    1    3    3    0  502 -0.61264041216E+03 -0.29716595009E+03  0.16749234724E+04  0.18080393048E+04  0.12699999809E+01 0. -1.
</event>
<event>
 5   0  0.1686284E-07  0.3598249E+04  0.7818609E-02  0.8090893E-01
       -2   -1    0    0    0  501  0.00000000000E+00  0.00000000000E+00  0.22975206690E+04  0.22975206690E+04  0.25500000920E-02 0. -1.
        2   -1    0    0  501    0  0.00000000000E+00  0.00000000000E+00 -0.14088441756E+04  0.14088441756E+04  0.25500000920E-02 0.  1.
    10030    2    1    2    0    0  0.00000000000E+00  0.00000000000E+00  0.88867649338E+03  0.37063648447E+04  0.35982488035E+04 0.  0.
        5    1    3    3  502    0  0.12633694602E+04  0.76762300895E+03  0.15005653061E+04  0.21064343818E+04  0.46999998093E+01 0. -1.
       -5    1    3    3    0  502 -0.12633694602E+04 -0.76762300895E+03 -0.61188881270E+03  0.15999304629E+04  0.46999998093E+01 0.  1.
</event>
<event>
 5   0  0.5177000E-08  0.3776381E+04  0.7818609E-02  0.8051242E-01
       -1   -1    0    0    0  501  0.00000000000E+00  0.00000000000E+00  0.17968596714E+04  0.17968596714E+04  0.50400001928E-02 0.  1.
        1   -1    0    0  501    0  0.00000000000E+00  0.00000000000E+00 -0.19841639517E+04  0.19841639517E+04  0.50400001928E-02 0. -1.
    10030    2    1    2    0    0  0.00000000000E+00  0.00000000000E+00 -0.18730428030E+03  0.37810236231E+04  0.37763814353E+04 0.  0.
        1    1    3    3  502    0 -0.17660410472E+04  0.53281870655E+03 -0.49722011389E+03  0.19105037546E+04  0.50400001928E-02 0. -1.
       -1    1    3    3    0  502  0.17660410472E+04 -0.53281870655E+03  0.30991583359E+03  0.18705198685E+04  0.50400001928E-02 0.  1.
</event>
<event>
 5   0  0.5177000E-08  0.3698425E+04  0.7818609E-02  0.8068311E-01
       -1   -1    0    0    0  501  0.00000000000E+00  0.00000000000E+00  0.13555198468E+04  0.13555198468E+04  0.50400001928E-02 0.  1.
        1   -1    0    0  501    0  0.00000000000E+00  0.00000000000E+00 -0.25227130332E+04  0.25227130332E+04  0.50400001928E-02 0. -1.
    10030    2    1    2    0    0  0.00000000000E+00  0.00000000000E+00 -0.11671931864E+04  0.38782328800E+04  0.36984253862E+04 0.  0.
        4    1    3    3  502    0  0.61909306180E+03 -0.98127327872E+03 -0.20935372505E+04  0.23935482654E+04  0.12699999809E+01 0. -1.
       -4    1    3    3    0  502 -0.61909306180E+03  0.98127327872E+03  0.92634406412E+03  0.14846846146E+04  0.12699999809E+01 0.  1.
</event>
<event>
 5   0  0.1658770E-07  0.3696801E+04  0.7818609E-02  0.8068671E-01
       -2   -1    0    0    0  501  0.00000000000E+00  0.00000000000E+00  0.17997812860E+04  0.17997812860E+04  0.25500000920E-02 0. -1.
        2   -1    0    0  501    0  0.00000000000E+00  0.00000000000E+00 -0.18983334316E+04  0.18983334316E+04  0.25500000920E-02 0.  1.
    10030    2    1    2    0    0  0.00000000000E+00  0.00000000000E+00 -0.98552145610E+02  0.36981147176E+04  0.36968013118E+04 0.  0.
        2    1    3    3  502    0 -0.22184579738E+03  0.13674338715E+04 -0.12734322261E+04  0.18816802558E+04  0.25500000920E-02 0. -1.
       -2    1    3    3    0  502  0.22184579738E+03 -0.13674338715E+04  0.11748800804E+04  0.18164344618E+04  0.25500000920E-02 0.  1.
</event>
<event>
 5   0  0.1558258E-07  0.3709805E+04  0.7818609E-02  0.8065792E-01
       -2   -1    0    0    0  501  0.00000000000E+00  0.00000000000E+00  0.17192281893E+04  0.17192281893E+04  0.25500000920E-02 0.  1.
        2   -1    0    0  501    0  0.00000000000E+00  0.00000000000E+00 -0.20012836905E+04  0.20012836905E+04  0.25500000920E-02 0. -1.
    10030    2    1    2    0    0  0.00000000000E+00  0.00000000000E+00 -0.28205550126E+03  0.37205118798E+04  0.37098050275E+04 0.  0.
        1    1    3    3  502    0 -0.15084944611E+04 -0.42007890982E+03  0.85614644113E+03  0.17846592275E+04  0.50400001928E-02 0.  1.
       -1    1    3    3    0  502  0.15084944611E+04  0.42007890982E+03 -0.11382019424E+04  0.19358526523E+04  0.50400001928E-02 0. -1.
</event>
<event>
 5   0  0.1558258E-07  0.3712539E+04  0.7818609E-02  0.8065189E-01
        2   -1    0    0  501    0  0.00000000000E+00  0.00000000000E+00  0.11688836739E+04  0.11688836739E+04  0.25500000920E-02 0.  1.
       -2   -1    0    0    0  501  0.00000000000E+00  0.00000000000E+00 -0.29478863051E+04  0.29478863051E+04  0.25500000920E-02 0. -1.
    10030    2    1    2    0    0  0.00000000000E+00  0.00000000000E+00 -0.17790026312E+04  0.41167699791E+04  0.37125388481E+04 0.  0.
        1    1    3    3  502    0  0.13276325184E+03  0.94453889023E+03 -0.26553621913E+04  0.28214762383E+04  0.50400001928E-02 0. -1.
       -1    1    3    3    0  502 -0.13276325184E+03 -0.94453889023E+03  0.87635956013E+03  0.12952937408E+04  0.50400001928E-02 0.  1.
</event>
<event>
 5   0  0.5177000E-08  0.3673331E+04  0.7818609E-02  0.8073898E-01
       -1   -1    0    0    0  501  0.00000000000E+00  0.00000000000E+00  0.17732524538E+04  0.17732524538E+04  0.50400001928E-02 0. -1.
        1   -1    0    0  501    0  0.00000000000E+00  0.00000000000E+00 -0.19023462681E+04  0.19023462681E+04  0.50400001928E-02 0.  1.
    10030    2    1    2    0    0  0.00000000000E+00  0.00000000000E+00 -0.12909381422E+03  0.36755987219E+04  0.36733310158E+04 0.  0.
        2    1    3    3  502    0 -0.30938391959E+02 -0.13977614621E+04  0.11272576165E+04  0.17959409854E+04  0.25500000920E-02 0. -1.
       -2    1    3    3    0  502  0.30938391959E+02  0.13977614621E+04 -0.12563514307E+04  0.18796577365E+04  0.25500000920E-02 0.  1.
</event>
<event>
 5   0  0.1686284E-07  0.3676624E+04  0.7818609E-02  0.8073162E-01
       -2   -1    0    0    0  501  0.00000000000E+00  0.00000000000E+00  0.16663239064E+04  0.16663239064E+04  0.25500000920E-02 0.  1.
        2   -1    0    0  501    0  0.00000000000E+00  0.00000000000E+00 -0.20280516567E+04  0.20280516567E+04  0.25500000920E-02 0. -1.
    10030    2    1    2    0    0  0.00000000000E+00  0.00000000000E+00 -0.36172775024E+03  0.36943755631E+04  0.36766239726E+04 0.  0.
        5    1    3    3  502    0  0.93487777968E+03  0.69423573527E+03 -0.16101977387E+04  0.19871382858E+04  0.46999998093E+01 0. -1.
       -5    1    3    3    0  502 -0.93487777968E+03 -0.69423573527E+03  0.12484699884E+04  0.17072372773E+04  0.46999998093E+01 0.  1.
</event>
<event>
 5   0  0.5177000E-08  0.3707856E+04  0.7818609E-02  0.8066223E-01
       -1   -1    0    0    0  501  0.00000000000E+00  0.00000000000E+00  0.25722133695E+04  0.25722133695E+04  0.50400001928E-02 0. -1.
        1   -1    0    0  501    0  0.00000000000E+00  0.00000000000E+00 -0.13362225478E+04  0.13362225478E+04  0.50400001928E-02 0.  1.
    10030    2    1    2    0    0  0.00000000000E+00  0.00000000000E+00  0.12359908217E+04  0.39084359173E+04  0.37078562551E+04 0.  0.
        4    1    3    3  502    0  0.18240033067E+04  0.10904148098E+03  0.94826532965E+03  0.20586614232E+04  0.12699999809E+01 0.  1.
       -4    1    3    3    0  502 -0.18240033067E+04 -0.10904148098E+03  0.28772549200E+03  0.18497744941E+04  0.12699999809E+01 0. -1.
</event>
<event>
 5   0  0.5177000E-08  0.3703458E+04  0.7818609E-02  0.8067196E-01
        1   -1    0    0  501    0  0.00000000000E+00  0.00000000000E+00  0.13777991394E+04  0.13777991395E+04  0.50400001928E-02 0. -1.
       -1   -1    0    0    0  501  0.00000000000E+00  0.00000000000E+00 -0.24886789951E+04  0.24886789951E+04  0.50400001928E-02 0.  1.
    10030    2    1    2    0    0  0.00000000000E+00  0.00000000000E+00 -0.11108798556E+04  0.38664781345E+04  0.37034577237E+04 0.  0.
        1    1    3    3  502    0 -0.99942708811E+03 -0.90098723985E+03  0.77266776404E+03  0.15516597515E+04  0.50400001928E-02 0. -1.
       -1    1    3    3    0  502  0.99942708811E+03  0.90098723985E+03 -0.18835476197E+04  0.23148183830E+04  0.50400001928E-02 0.  1.
</event>
<event>
 5   0  0.5177000E-08  0.3697243E+04  0.7818609E-02  0.8068573E-01
       -1   -1    0    0    0  501  0.00000000000E+00  0.00000000000E+00  0.16144826629E+04  0.16144826629E+04  0.50400001928E-02 0. -1.
        1   -1    0    0  501    0  0.00000000000E+00  0.00000000000E+00 -0.21167164913E+04  0.21167164913E+04  0.50400001928E-02 0.  1.
    10030    2    1    2    0    0  0.00000000000E+00  0.00000000000E+00 -0.50223382844E+03  0.37311991542E+04  0.36972433393E+04 0.  0.
        1    1    3    3  502    0  0.38199954220E+03  0.18014125232E+04 -0.87170778745E+02  0.18435317936E+04  0.50400001928E-02 0.  1.
       -1    1    3    3    0  502 -0.38199954220E+03 -0.18014125232E+04 -0.41506304970E+03  0.18876673606E+04  0.50400001928E-02 0. -1.
</event>
<event>
 5   0  0.5177000E-08  0.3706099E+04  0.7818609E-02  0.8066611E-01
       -1   -1    0    0    0  501  0.00000000000E+00  0.00000000000E+00  0.32474103904E+04  0.32474103904E+04  0.50400001928E-02 0.  1.
        1   -1    0    0  501    0  0.00000000000E+00  0.00000000000E+00 -0.10573943301E+04  0.10573943301E+04  0.50400001928E-02 0. -1.
    10030    2    1    2    0    0  0.00000000000E+00  0.00000000000E+00  0.21900160603E+04  0.43048047206E+04  0.37060994776E+04 0.  0.
        2    1    3    3  502    0  0.13382126848E+04 -0.70352334443E+03  0.23395626362E+04  0.27855540947E+04  0.25500000920E-02 0.  1.
       -2    1    3    3    0  502 -0.13382126848E+04  0.70352334443E+03 -0.14954657585E+03  0.15192506259E+04  0.25500000920E-02 0. -1.
</event>
<event>
 5   0  0.5177000E-08  0.3688014E+04  0.7818609E-02  0.8070623E-01
       -1   -1    0    0    0  501  0.00000000000E+00  0.00000000000E+00  0.11938903420E+04  0.11938903420E+04  0.50400001928E-02 0. -1.
        1   -1    0    0  501    0  0.00000000000E+00  0.00000000000E+00 -0.28481352914E+04  0.28481352914E+04  0.50400001928E-02 0.  1.
    10030    2    1    2    0    0  0.00000000000E+00  0.00000000000E+00 -0.16542449494E+04  0.40420256334E+04  0.36880136752E+04 0.  0.
        3    1    3    3  502    0  0.84995406391E+02 -0.10395079486E+04  0.83956075411E+03  0.13389037547E+04  0.10100000352E+00 0. -1.
       -3    1    3    3    0  502 -0.84995406391E+02  0.10395079486E+04 -0.24938057035E+04  0.27031218787E+04  0.10100000352E+00 0.  1.
</event>
<event>
 5   0  0.1587026E-07  0.3705373E+04  0.7818609E-02  0.8066772E-01
        2   -1    0    0  501    0  0.00000000000E+00  0.00000000000E+00  0.28415732739E+04  0.28415732739E+04  0.25500000920E-02 0.  1.
       -2   -1    0    0    0  501  0.00000000000E+00  0.00000000000E+00 -0.12079391430E+04  0.12079391430E+04  0.25500000920E-02 0. -1.
    10030    2    1    2    0    0  0.00000000000E+00  0.00000000000E+00  0.16336341310E+04  0.40495124169E+04  0.37053731717E+04 0.  0.
        3    1    3    3  502    0  0.13577014398E+04  0.12025192328E+04  0.12301522465E+04  0.21915018286E+04  0.10100000352E+00 0. -1.
       -3    1    3    3    0  502 -0.13577014398E+04 -0.12025192328E+04  0.40348188440E+03  0.18580105883E+04  0.10100000352E+00 0.  1.
</event>
<event>
 5   0  0.5177000E-08  0.3698742E+04  0.7818609E-02  0.8068241E-01
       -1   -1    0    0    0  501  0.00000000000E+00  0.00000000000E+00  0.24082440300E+04  0.24082440300E+04  0.50400001928E-02 0.  1.
        1   -1    0    0  501    0  0.00000000000E+00  0.00000000000E+00 -0.14201937996E+04  0.14201937996E+04  0.50400001928E-02 0. -1.
    10030    2    1    2    0    0  0.00000000000E+00  0.00000000000E+00  0.98805023037E+03  0.38284378297E+04  0.36987420778E+04 0.  0.
        3    1    3    3  502    0 -0.68297897074E+03  0.17009467095E+04  0.23944704137E+03  0.18485169404E+04  0.10100000352E+00 0. -1.
       -3    1    3    3    0  502  0.68297897074E+03 -0.17009467095E+04  0.74860318900E+03  0.19799208893E+04  0.10100000352E+00 0.  1.
</event>
<event>
 5   0  0.1666189E-07  0.3699020E+04  0.7818609E-02  0.8068179E-01
       -2   -1    0    0    0  501  0.00000000000E+00  0.00000000000E+00  0.16221250820E+04  0.16221250820E+04  0.25500000920E-02 0.  1.
        2   -1    0    0  501    0  0.00000000000E+00  0.00000000000E+00 -0.21087685292E+04  0.21087685292E+04  0.25500000920E-02 0. -1.
    10030    2    1    2    0    0  0.00000000000E+00  0.00000000000E+00 -0.48664344723E+03  0.37308936112E+04  0.36990195043E+04 0.  0.
        4    1    3    3  502    0 -0.75670533387E+02 -0.68658070197E+03  0.14871444117E+04  0.16397314427E+04  0.12699999809E+01 0.  1.
       -4    1    3    3    0  502  0.75670533387E+02  0.68658070197E+03 -0.19737878590E+04  0.20911621685E+04  0.12699999809E+01 0. -1.
</event>
<event>
 5   0  0.1587026E-07  0.3699279E+04  0.7818609E-02  0.8068122E-01
       -2   -1    0    0    0  501  0.00000000000E+00  0.00000000000E+00  0.17873671250E+04  0.17873671250E+04  0.25500000920E-02 0. -1.
        2   -1    0    0  501    0  0.00000000000E+00  0.00000000000E+00 -0.19140816237E+04  0.19140816237E+04  0.25500000920E-02 0.  1.
    10030    2    1    2    0    0  0.00000000000E+00  0.00000000000E+00 -0.12671449872E+03  0.37014487487E+04  0.36992791561E+04 0.  0.
        3    1    3    3  502    0 -0.84186977849E+03 -0.64604159771E+03  0.14524741830E+04  0.17988317687E+04  0.10100000352E+00 0. -1.
       -3    1    3    3    0  502  0.84186977849E+03  0.64604159771E+03 -0.15791886817E+04  0.19026169800E+04  0.10100000352E+00 0.  1.
</event>
<event>
 5   0  0.1658770E-07  0.3692295E+04  0.7818609E-02  0.8069672E-01
        2   -1    0    0  501    0  0.00000000000E+00  0.00000000000E+00  0.26486612116E+04  0.26486612116E+04  0.25500000920E-02 0.  1.
       -2   -1    0    0    0  501  0.00000000000E+00  0.00000000000E+00 -0.12867859938E+04  0.12867859938E+04  0.25500000920E-02 0. -1.
    10030    2    1    2    0    0  0.00000000000E+00  0.00000000000E+00  0.13618752178E+04  0.39354472054E+04  0.36922947604E+04 0.  0.
        2    1    3    3  502    0 -0.10766302556E+04  0.97985058485E+03  0.18910552737E+04  0.23864890370E+04  0.25500000920E-02 0.  1.
       -2    1    3    3    0  502  0.10766302556E+04 -0.97985058485E+03 -0.52918005586E+03  0.15489581684E+04  0.25500000920E-02 0. -1.
</event>
<event>
 5   0  0.5181371E-08  0.3703336E+04  0.7818609E-02  0.8067223E-01
       -1   -1    0    0    0  501  0.00000000000E+00  0.00000000000E+00  0.16141666969E+04  0.16141666969E+04  0.50400001928E-02 0.  1.
        1   -1    0    0  501    0  0.00000000000E+00  0.00000000000E+00 -0.21241142821E+04  0.21241142821E+04  0.50400001928E-02 0. -1.
    10030    2    1    2    0    0  0.00000000000E+00  0.00000000000E+00 -0.50994758519E+03  0.37382809791E+04  0.37033360823E+04 0.  0.
        5    1    3    3  502    0  0.79699414090E+01  0.56155500854E+03 -0.20360621175E+04  0.21121028820E+04  0.46999998093E+01 0. -1.
       -5    1    3    3    0  502 -0.79699414090E+01 -0.56155500854E+03  0.15261145323E+04  0.16261780971E+04  0.46999998093E+01 0.  1.
</event>
<event>
 5   0  0.5177000E-08  0.3697539E+04  0.7818609E-02  0.8068507E-01
       -1   -1    0    0    0  501  0.00000000000E+00  0.00000000000E+00  0.13122079045E+04  0.13122079046E+04  0.50400001928E-02 0. -1.
        1   -1    0    0  501    0  0.00000000000E+00  0.00000000000E+00 -0.26047317277E+04  0.26047317277E+04  0.50400001928E-02 0.  1.
    10030    2    1    2    0    0  0.00000000000E+00  0.00000000000E+00 -0.12925238232E+04  0.39169396323E+04  0.36975394858E+04 0.  0.
        1    1    3    3  502    0 -0.37588157751E+03  0.30355487533E+03  0.12441473933E+04  0.13346667220E+04  0.50400001928E-02 0. -1.
       -1    1    3    3    0  502  0.37588157751E+03 -0.30355487533E+03 -0.25366712164E+04  0.25822729102E+04  0.50400001928E-02 0.  1.
</event>
<event>
 5   0  0.1666189E-07  0.3665489E+04  0.7818609E-02  0.8075653E-01
       -2   -1    0    0    0  501  0.00000000000E+00  0.00000000000E+00  0.21449553021E+04  0.21449553021E+04  0.25500000920E-02 0.  1.
        2   -1    0    0  501    0  0.00000000000E+00  0.00000000000E+00 -0.15659777397E+04  0.15659777397E+04  0.25500000920E-02 0. -1.
    10030    2    1    2    0    0  0.00000000000E+00  0.00000000000E+00  0.57897756249E+03  0.37109330418E+04  0.36654889200E+04 0.  0.
        4    1    3    3  502    0 -0.98641349515E+03  0.15369141602E+04  0.44578518215E+03  0.18798517923E+04  0.12699999809E+01 0.  1.
       -4    1    3    3    0  502  0.98641349515E+03 -0.15369141602E+04  0.13319238035E+03  0.18310812495E+04  0.12699999809E+01 0. -1.
</event>
<event>
 5   0  0.1666189E-07  0.3688501E+04  0.7818609E-02  0.8070515E-01
        2   -1    0    0  501    0  0.00000000000E+00  0.00000000000E+00  0.23621861247E+04  0.23621861247E+04  0.25500000920E-02 0.  1.
       -2   -1    0    0    0  501  0.00000000000E+00  0.00000000000E+00 -0.14398783444E+04  0.14398783444E+04  0.25500000920E-02 0. -1.
    10030    2    1    2    0    0  0.00000000000E+00  0.00000000000E+00  0.92230778026E+03  0.38020644691E+04  0.36885014010E+04 0.  0.
        4    1    3    3  502    0 -0.17675524885E+04 -0.29822894359E+03  0.14123490355E+02  0.17925912496E+04  0.12699999809E+01 0. -1.
       -4    1    3    3    0  502  0.17675524885E+04  0.29822894359E+03  0.90818428990E+03  0.20094732195E+04  0.12699999809E+01 0.  1.
</event>
<event>
 5   0  0.1686284E-07  0.3698123E+04  0.7818609E-02  0.8068378E-01
       -2   -1    0    0    0  501  0.00000000000E+00  0.00000000000E+00  0.14120935081E+04  0.14120935081E+04  0.25500000920E-02 0. -1.
        2   -1    0    0  501    0  0.00000000000E+00  0.00000000000E+00 -0.24212477365E+04  0.24212477365E+04  0.25500000920E-02 0.  1.
    10030    2    1    2    0    0  0.00000000000E+00  0.00000000000E+00 -0.10091542284E+04  0.38333412446E+04  0.36981228808E+04 0.  0.
        5    1    3    3  502    0  0.30543220949E+03 -0.15166877044E+04 -0.15542105419E+04  0.21929940551E+04  0.46999998093E+01 0.  1.
       -5    1    3    3    0  502 -0.30543220949E+03  0.15166877044E+04  0.54505631351E+03  0.16403471895E+04  0.46999998093E+01 0. -1.
</event>
<event>
 5   0  0.1587026E-07  0.3665931E+04  0.7818609E-02  0.8075554E-01
        2   -1    0    0  501    0  0.00000000000E+00  0.00000000000E+00  0.31149967590E+04  0.31149967590E+04  0.25500000920E-02 0.  1.
       -2   -1    0    0    0  501  0.00000000000E+00  0.00000000000E+00 -0.10785767598E+04  0.10785767598E+04  0.25500000920E-02 0. -1.
    10030    2    1    2    0    0  0.00000000000E+00  0.00000000000E+00  0.20364199992E+04  0.41935735188E+04  0.36659313202E+04 0.  0.
        3    1    3    3  502    0 -0.10932881598E+04  0.81107643964E+03 -0.38591106660E+03  0.14149386393E+04  0.10100000352E+00 0. -1.
       -3    1    3    3    0  502  0.10932881598E+04 -0.81107643964E+03  0.24223310658E+04  0.27786348796E+04  0.10100000352E+00 0.  1.
</event>
<event>
 5   0  0.1666189E-07  0.3691595E+04  0.7818609E-02  0.8069827E-01
       -2   -1    0    0    0  501  0.00000000000E+00  0.00000000000E+00  0.15745915355E+04  0.15745915355E+04  0.25500000920E-02 0.  1.
        2   -1    0    0  501    0  0.00000000000E+00  0.00000000000E+00 -0.21637162642E+04  0.21637162642E+04  0.25500000920E-02 0. -1.
    10030    2    1    2    0    0  0.00000000000E+00  0.00000000000E+00 -0.58912472870E+03  0.37383077997E+04  0.36915954897E+04 0.  0.
        4    1    3    3  502    0 -0.93378986388E+03  0.92848253954E+02  0.13150102682E+04  0.16154992809E+04  0.12699999809E+01 0.  1.
       -4    1    3    3    0  502  0.93378986388E+03 -0.92848253954E+02 -0.19041349969E+04  0.21228085188E+04  0.12699999809E+01 0. -1.
</event>
<event>
 5   0  0.5181371E-08  0.3650169E+04  0.7818609E-02  0.8079096E-01
       -1   -1    0    0    0  501  0.00000000000E+00  0.00000000000E+00  0.32391680997E+04  0.32391680997E+04  0.50400001928E-02 0. -1.
        1   -1    0    0  501    0  0.00000000000E+00  0.00000000000E+00 -0.10283298299E+04  0.10283298299E+04  0.50400001928E-02 0.  1.
    10030    2    1    2    0    0  0.00000000000E+00  0.00000000000E+00  0.22108382698E+04  0.42674979296E+04  0.36501688623E+04 0.  0.
        5    1    3    3  502    0 -0.52813367183E+03  0.68932396174E+03 -0.77131290660E+03  0.11614811188E+04  0.46999998093E+01 0.  1.
       -5    1    3    3    0  502  0.52813367183E+03 -0.68932396174E+03  0.29821511764E+04  0.31060168107E+04  0.46999998093E+01 0. -1.
</event>
<event>
 5   0  0.5177000E-08  0.3696347E+04  0.7818609E-02  0.8068772E-01
       -1   -1    0    0    0  501  0.00000000000E+00  0.00000000000E+00  0.13899918025E+04  0.13899918025E+04  0.50400001928E-02 0.  1.
        1   -1    0    0  501    0  0.00000000000E+00  0.00000000000E+00 -0.24573853030E+04  0.24573853030E+04  0.50400001928E-02 0. -1.
    10030    2    1    2    0    0  0.00000000000E+00  0.00000000000E+00 -0.10673935005E+04  0.38473771055E+04  0.36963470761E+04 0.  0.
        2    1    3    3  502    0  0.16448331521E+04  0.25562510470E+03 -0.13695820051E+04  0.21555916035E+04  0.25500000920E-02 0. -1.
       -2    1    3    3    0  502 -0.16448331521E+04 -0.25562510470E+03  0.30218850458E+03  0.16917855020E+04  0.25500000920E-02 0.  1.
</event>
<event>
 5   0  0.1666189E-07  0.3444081E+04  0.7818609E-02  0.8127171E-01
       -2   -1    0    0    0  501  0.00000000000E+00  0.00000000000E+00  0.12783142313E+04  0.12783142313E+04  0.25500000920E-02 0. -1.
        2   -1    0    0  501    0  0.00000000000E+00  0.00000000000E+00 -0.23197921837E+04  0.23197921837E+04  0.25500000920E-02 0.  1.
    10030    2    1    2    0    0  0.00000000000E+00  0.00000000000E+00 -0.10414779523E+04  0.35981064150E+04  0.34440809294E+04 0.  0.
        4    1    3    3  502    0  0.15467957150E+04 -0.72694887694E+03 -0.74085096378E+03  0.18627649925E+04  0.12699999809E+01 0.  1.
       -4    1    3    3    0  502 -0.15467957150E+04  0.72694887694E+03 -0.30062698856E+03  0.17353414226E+04  0.12699999809E+01 0. -1.
</event>
<event>
 5   0  0.1587026E-07  0.3704026E+04  0.7818609E-02  0.8067070E-01
        2   -1    0    0  501    0  0.00000000000E+00  0.00000000000E+00  0.17082474810E+04  0.17082474810E+04  0.25500000920E-02 0.  1.
       -2   -1    0    0    0  501  0.00000000000E+00  0.00000000000E+00 -0.20078777746E+04  0.20078777746E+04  0.25500000920E-02 0. -1.
    10030    2    1    2    0    0  0.00000000000E+00  0.00000000000E+00 -0.29963029360E+03  0.37161252557E+04  0.37040259992E+04 0.  0.
        3    1    3    3  502    0  0.15974863237E+04 -0.88108779096E+03 -0.46972015503E+03  0.18838564924E+04  0.10100000352E+00 0.  1.
       -3    1    3    3    0  502 -0.15974863237E+04  0.88108779096E+03  0.17008986142E+03  0.18322687633E+04  0.10100000352E+00 0. -1.
</event>
<event>
 5   0  0.1658770E-07  0.3680238E+04  0.7818609E-02  0.8072356E-01
        2   -1    0    0  501    0  0.00000000000E+00  0.00000000000E+00  0.30175316120E+04  0.30175316120E+04  0.25500000920E-02 0.  1.
       -2   -1    0    0    0  501  0.00000000000E+00  0.00000000000E+00 -0.11221216494E+04  0.11221216494E+04  0.25500000920E-02 0. -1.
    10030    2    1    2    0    0  0.00000000000E+00  0.00000000000E+00  0.18954099627E+04  0.41396532614E+04  0.36802377910E+04 0.  0.
        2    1    3    3  502    0  0.14826026810E+04 -0.19310978330E+03 -0.25887734799E+03  0.15173725909E+04  0.25500000920E-02 0. -1.
       -2    1    3    3    0  502 -0.14826026810E+04  0.19310978330E+03  0.21542873107E+04  0.26222806705E+04  0.25500000920E-02 0.  1.
</event>
<event>
 5   0  0.1666189E-07  0.3682771E+04  0.7818609E-02  0.8071791E-01
        2   -1    0    0  501    0  0.00000000000E+00  0.00000000000E+00  0.24143308699E+04  0.24143308699E+04  0.25500000920E-02 0.  1.
       -2   -1    0    0    0  501  0.00000000000E+00  0.00000000000E+00 -0.14044056284E+04  0.14044056284E+04  0.25500000920E-02 0. -1.
    10030    2    1    2    0    0  0.00000000000E+00  0.00000000000E+00  0.10099252415E+04  0.38187364983E+04  0.36827706215E+04 0.  0.
        4    1    3    3  502    0 -0.11486456697E+04 -0.64800445226E+03 -0.82755012939E+03  0.15569641853E+04  0.12699999809E+01 0. -1.
       -4    1    3    3    0  502  0.11486456697E+04  0.64800445226E+03  0.18374753709E+04  0.22617723131E+04  0.12699999809E+01 0.  1.
</event>
<event>
 5   0  0.5177000E-08  0.3705114E+04  0.7818609E-02  0.8066829E-01
       -1   -1    0    0    0  501  0.00000000000E+00  0.00000000000E+00  0.33147828590E+04  0.33147828590E+04  0.50400001928E-02 0. -1.
        1   -1    0    0  501    0  0.00000000000E+00  0.00000000000E+00 -0.10353523725E+04  0.10353523726E+04  0.50400001928E-02 0.  1.
    10030    2    1    2    0    0  0.00000000000E+00  0.00000000000E+00  0.22794304864E+04  0.43501352315E+04  0.37051144638E+04 0.  0.
        1    1    3    3  502    0 -0.16158978410E+04 -0.86586011688E+03  0.14528444910E+04  0.23391444353E+04  0.50400001928E-02 0. -1.
       -1    1    3    3    0  502  0.16158978410E+04  0.86586011688E+03  0.82658599544E+03  0.20109907962E+04  0.50400001928E-02 0.  1.
</event>
<event>
 5   0  0.1658770E-07  0.3701266E+04  0.7818609E-02  0.8067681E-01
       -2   -1    0    0    0  501  0.00000000000E+00  0.00000000000E+00  0.34322046938E+04  0.34322046938E+04  0.25500000920E-02 0. -1.
        2   -1    0    0  501    0  0.00000000000E+00  0.00000000000E+00 -0.99785476846E+03  0.99785476846E+03  0.25500000920E-02 0.  1.
    10030    2    1    2    0    0  0.00000000000E+00  0.00000000000E+00  0.24343499253E+04  0.44300594622E+04  0.37012656322E+04 0.  0.
        2    1    3    3  502    0  0.16143808145E+04  0.90398948121E+03  0.12622686059E+04  0.22398090163E+04  0.25500000920E-02 0. -1.
       -2    1    3    3    0  502 -0.16143808145E+04 -0.90398948121E+03  0.11720813195E+04  0.21902504459E+04  0.25500000920E-02 0.  1.
</event>
<event>
 5   0  0.5181371E-08  0.3699978E+04  0.7818609E-02  0.8067967E-01
       -1   -1    0    0    0  501  0.00000000000E+00  0.00000000000E+00  0.20130217035E+04  0.20130217035E+04  0.50400001928E-02 0.  1.
        1   -1    0    0  501    0  0.00000000000E+00  0.00000000000E+00 -0.17001603354E+04  0.17001603354E+04  0.50400001928E-02 0. -1.
    10030    2    1    2    0    0  0.00000000000E+00  0.00000000000E+00  0.31286136810E+03  0.37131820389E+04  0.36999781916E+04 0.  0.
        5    1    3    3  502    0  0.17953089587E+04 -0.31467599688E+03 -0.16137325266E+03  0.18298138312E+04  0.46999998093E+01 0. -1.
       -5    1    3    3    0  502 -0.17953089587E+04  0.31467599688E+03  0.47423462075E+03  0.18833682077E+04  0.46999998093E+01 0.  1.
</event>
<event>
 5   0  0.5177000E-08  0.3690849E+04  0.7818609E-02  0.8069993E-01
        1   -1    0    0  501    0  0.00000000000E+00  0.00000000000E+00  0.10221151639E+04  0.10221151639E+04  0.50400001928E-02 0. -1.
       -1   -1    0    0    0  501  0.00000000000E+00  0.00000000000E+00 -0.33319050456E+04  0.33319050456E+04  0.50400001928E-02 0.  1.
    10030    2    1    2    0    0  0.00000000000E+00  0.00000000000E+00 -0.23097898817E+04  0.43540202095E+04  0.36908485050E+04 0.  0.
        3    1    3    3  502    0  0.12183907924E+03 -0.14058632960E+04  0.24802896460E+03  0.14327647210E+04  0.10100000352E+00 0. -1.
       -3    1    3    3    0  502 -0.12183907924E+03  0.14058632960E+04 -0.25578188463E+04  0.29212554885E+04  0.10100000352E+00 0.  1.
</event>
<event>
 5   0  0.1686284E-07  0.3775316E+04  0.7818609E-02  0.8051473E-01
        2   -1    0    0  501    0  0.00000000000E+00  0.00000000000E+00  0.22623034498E+04  0.22623034498E+04  0.25500000920E-02 0.  1.
       -2   -1    0    0    0  501  0.00000000000E+00  0.00000000000E+00 -0.15750553277E+04  0.15750553277E+04  0.25500000920E-02 0. -1.
    10030    2    1    2    0    0  0.00000000000E+00  0.00000000000E+00  0.68724812211E+03  0.38373587775E+04  0.37753161994E+04 0.  0.
        5    1    3    3  502    0 -0.49866606617E+03  0.91006523535E+03  0.19463516762E+04  0.22057183673E+04  0.46999998093E+01 0.  1.
       -5    1    3    3    0  502  0.49866606617E+03 -0.91006523535E+03 -0.12591035541E+04  0.16316404102E+04  0.46999998093E+01 0. -1.
</event>
<event>
 5   0  0.5181371E-08  0.3694809E+04  0.7818609E-02  0.8069113E-01
        1   -1    0    0  501    0  0.00000000000E+00  0.00000000000E+00  0.12808698142E+04  0.12808698142E+04  0.50400001928E-02 0.  1.
       -1   -1    0    0    0  501  0.00000000000E+00  0.00000000000E+00 -0.26645206690E+04  0.26645206690E+04  0.50400001928E-02 0. -1.
    10030    2    1    2    0    0  0.00000000000E+00  0.00000000000E+00 -0.13836508549E+04  0.39453904832E+04  0.36948093830E+04 0.  0.
        5    1    3    3  502    0 -0.93692390272E+02 -0.99361493292E+03  0.96822501754E+03  0.13905145355E+04  0.46999998093E+01 0.  1.
       -5    1    3    3    0  502  0.93692390272E+02  0.99361493292E+03 -0.23518758724E+04  0.25548759477E+04  0.46999998093E+01 0. -1.
</event>
<event>
 5   0  0.1587026E-07  0.3710917E+04  0.7818609E-02  0.8065547E-01
       -2   -1    0    0    0  501  0.00000000000E+00  0.00000000000E+00  0.16723417749E+04  0.16723417749E+04  0.25500000920E-02 0.  1.
        2   -1    0    0  501    0  0.00000000000E+00  0.00000000000E+00 -0.20586259234E+04  0.20586259234E+04  0.25500000920E-02 0. -1.
    10030    2    1    2    0    0  0.00000000000E+00  0.00000000000E+00 -0.38628414849E+03  0.37309676983E+04  0.37109169382E+04 0.  0.
        3    1    3    3  502    0 -0.66030782208E+03 -0.13296636147E+04  0.92584699376E+03  0.17496297935E+04  0.10100000352E+00 0.  1.
       -3    1    3    3    0  502  0.66030782208E+03  0.13296636147E+04 -0.13121311423E+04  0.19813379048E+04  0.10100000352E+00 0. -1.
</event>
<event>
 5   0  0.5177000E-08  0.3705776E+04  0.7818609E-02  0.8066683E-01
       -1   -1    0    0    0  501  0.00000000000E+00  0.00000000000E+00  0.13002433287E+04  0.13002433287E+04  0.50400001928E-02 0.  1.
        1   -1    0    0  501    0  0.00000000000E+00  0.00000000000E+00 -0.26404243277E+04  0.26404243277E+04  0.50400001928E-02 0. -1.
    10030    2    1    2    0    0  0.00000000000E+00  0.00000000000E+00 -0.13401809990E+04  0.39406676564E+04  0.37057760952E+04 0.  0.
        1    1    3    3  502    0  0.12562123604E+04  0.13620295330E+04 -0.66964750115E+03  0.19701831689E+04  0.50400001928E-02 0.  1.
       -1    1    3    3    0  502 -0.12562123604E+04 -0.13620295330E+04 -0.67053349789E+03  0.19704844874E+04  0.50400001928E-02 0. -1.
</event>
<event>
 5   0  0.5181371E-08  0.3702555E+04  0.7818609E-02  0.8067396E-01
       -1   -1    0    0    0  501  0.00000000000E+00  0.00000000000E+00  0.16196555291E+04  0.16196555291E+04  0.50400001928E-02 0. -1.
        1   -1    0    0  501    0  0.00000000000E+00  0.00000000000E+00 -0.21160227159E+04  0.21160227159E+04  0.50400001928E-02 0.  1.
    10030    2    1    2    0    0  0.00000000000E+00  0.00000000000E+00 -0.49636718685E+03  0.37356782450E+04  0.37025547350E+04 0.  0.
        5    1    3    3  502    0 -0.15483296271E+04 -0.20942762282E+03  0.75368580272E+03  0.17347186926E+04  0.46999998093E+01 0. -1.
       -5    1    3    3    0  502  0.15483296271E+04  0.20942762282E+03 -0.12500529896E+04  0.20009595523E+04  0.46999998093E+01 0.  1.
</event>
<event>
 5   0  0.1587026E-07  0.3707557E+04  0.7818609E-02  0.8066289E-01
       -2   -1    0    0    0  501  0.00000000000E+00  0.00000000000E+00  0.13015899957E+04  0.13015899957E+04  0.25500000920E-02 0.  1.
        2   -1    0    0  501    0  0.00000000000E+00  0.00000000000E+00 -0.26402283051E+04  0.26402283051E+04  0.25500000920E-02 0. -1.
    10030    2    1    2    0    0  0.00000000000E+00  0.00000000000E+00 -0.13386383094E+04  0.39418183008E+04  0.37075570114E+04 0.  0.
        3    1    3    3  502    0 -0.79997744029E+03 -0.47007314673E+02 -0.24465626040E+04  0.25744595895E+04  0.10100000352E+00 0. -1.
       -3    1    3    3    0  502  0.79997744029E+03  0.47007314673E+02  0.11079242946E+04  0.13673587113E+04  0.10100000352E+00 0.  1.
</event>
<event>
 5   0  0.1686284E-07  0.3649543E+04  0.7818609E-02  0.8079237E-01
       -2   -1    0    0    0  501  0.00000000000E+00  0.00000000000E+00  0.33013828349E+04  0.33013828349E+04  0.25500000920E-02 0.  1.
        2   -1    0    0  501    0  0.00000000000E+00  0.00000000000E+00 -0.10086051584E+04  0.10086051584E+04  0.25500000920E-02 0. -1.
    10030    2    1    2    0    0  0.00000000000E+00  0.00000000000E+00  0.22927776766E+04  0.43099879933E+04  0.36495434000E+04 0.  0.
        5    1    3    3  502    0  0.67439644369E+03 -0.15776229679E+04  0.41260579265E+03  0.17646445597E+04  0.46999998093E+01 0.  1.
       -5    1    3    3    0  502 -0.67439644369E+03  0.15776229679E+04  0.18801718839E+04  0.25453434336E+04  0.46999998093E+01 0. -1.
</event>
<event>
 5   0  0.1686284E-07  0.3705610E+04  0.7818609E-02  0.8066720E-01
       -2   -1    0    0    0  501  0.00000000000E+00  0.00000000000E+00  0.19004911674E+04  0.19004911674E+04  0.25500000920E-02 0.  1.
        2   -1    0    0  501    0  0.00000000000E+00  0.00000000000E+00 -0.18063155885E+04  0.18063155885E+04  0.25500000920E-02 0. -1.
    10030    2    1    2    0    0  0.00000000000E+00  0.00000000000E+00  0.94175578897E+02  0.37068067559E+04  0.37056102448E+04 0.  0.
        5    1    3    3  502    0 -0.36717975209E+03  0.27629292115E+03 -0.17484029077E+04  0.18077869251E+04  0.46999998093E+01 0. -1.
       -5    1    3    3    0  502  0.36717975209E+03 -0.27629292115E+03  0.18425784866E+04  0.18990198309E+04  0.46999998093E+01 0.  1.
</event>
<event>
 5   0  0.5177000E-08  0.3701074E+04  0.7818609E-02  0.8067724E-01
        1   -1    0    0  501    0  0.00000000000E+00  0.00000000000E+00  0.15361114067E+04  0.15361114067E+04  0.50400001928E-02 0. -1.
       -1   -1    0    0    0  501  0.00000000000E+00  0.00000000000E+00 -0.22293220059E+04  0.22293220059E+04  0.50400001928E-02 0.  1.
    10030    2    1    2    0    0  0.00000000000E+00  0.00000000000E+00 -0.69321059920E+03  0.37654334125E+04  0.37010738779E+04 0.  0.
        4    1    3    3  502    0 -0.11579620064E+04 -0.14370940416E+04 -0.48449837840E+03  0.19081026136E+04  0.12699999809E+01 0. -1.
       -4    1    3    3    0  502  0.11579620064E+04  0.14370940416E+04 -0.20871222079E+03  0.18573307989E+04  0.12699999809E+01 0.  1.
</event>
<event>
 5   0  0.5177000E-08  0.3701853E+04  0.7818609E-02  0.8067551E-01
       -3   -1    0    0    0  501  0.00000000000E+00  0.00000000000E+00  0.17107948531E+04  0.17107948560E+04  0.10100000352E+00 0.  1.
        3   -1    0    0  501    0  0.00000000000E+00  0.00000000000E+00 -0.20025366924E+04  0.20025366949E+04  0.10100000352E+00 0. -1.
    10030    2    1    2    0    0  0.00000000000E+00  0.00000000000E+00 -0.29174183930E+03  0.37133315510E+04  0.37018533070E+04 0.  0.
        3    1    3    3  502    0  0.10172320537E+04  0.11113116200E+04  0.93270950629E+03  0.17719259582E+04  0.10100000352E+00 0.  1.
       -3    1    3    3    0  502 -0.10172320537E+04 -0.11113116200E+04 -0.12244513456E+04  0.19414055928E+04  0.10100000352E+00 0. -1.
</event>
<event>
 5   0  0.5177000E-08  0.3708610E+04  0.7818609E-02  0.8066057E-01
       -1   -1    0    0    0  501  0.00000000000E+00  0.00000000000E+00  0.13497243706E+04  0.13497243706E+04  0.50400001928E-02 0. -1.
        1   -1    0    0  501    0  0.00000000000E+00  0.00000000000E+00 -0.25475174152E+04  0.25475174152E+04  0.50400001928E-02 0.  1.
    10030    2    1    2    0    0  0.00000000000E+00  0.00000000000E+00 -0.11977930445E+04  0.38972417858E+04  0.37086096262E+04 0.  0.
        4    1    3    3  502    0 -0.16538763575E+03  0.12164542993E+04  0.86151260738E+03  0.14997732222E+04  0.12699999809E+01 0. -1.
       -4    1    3    3    0  502  0.16538763575E+03 -0.12164542993E+04 -0.20593056519E+04  0.23974685636E+04  0.12699999809E+01 0.  1.
</event>
<event>
 5   0  0.5177000E-08  0.3743586E+04  0.7818609E-02  0.8058371E-01
       -1   -1    0    0    0  501  0.00000000000E+00  0.00000000000E+00  0.22515672163E+04  0.22515672163E+04  0.50400001928E-02 0.  1.
        1   -1    0    0  501    0  0.00000000000E+00  0.00000000000E+00 -0.15560760439E+04  0.15560760440E+04  0.50400001928E-02 0. -1.
    10030    2    1    2    0    0  0.00000000000E+00  0.00000000000E+00  0.69549117240E+03  0.38076432603E+04  0.37435864124E+04 0.  0.
        3    1    3    3  502    0  0.48515573837E+03 -0.17434160055E+04  0.83419095531E+03  0.19926740874E+04  0.10100000352E+00 0.  1.
       -3    1    3    3    0  502 -0.48515573837E+03  0.17434160055E+04 -0.13869978292E+03  0.18149691729E+04  0.10100000352E+00 0. -1.
</event>
<event>
 5   0  0.5177000E-08  0.3709031E+04  0.7818609E-02  0.8065963E-01
       -1   -1    0    0    0  501  0.00000000000E+00  0.00000000000E+00  0.19278768296E+04  0.19278768296E+04  0.50400001928E-02 0. -1.
        1   -1    0    0  501    0  0.00000000000E+00  0.00000000000E+00 -0.17839457065E+04  0.17839457065E+04  0.50400001928E-02 0.  1.
    10030    2    1    2    0    0  0.00000000000E+00  0.00000000000E+00  0.14393112303E+03  0.37118225361E+04  0.37090309208E+04 0.  0.
        1    1    3    3  502    0  0.76388258597E+03 -0.97687018055E+03 -0.13079978292E+04  0.18024012528E+04  0.50400001928E-02 0.  1.
       -1    1    3    3    0  502 -0.76388258597E+03  0.97687018055E+03  0.14519289523E+04  0.19094212833E+04  0.50400001928E-02 0. -1.
</event>
<event>
 5   0  0.1587026E-07  0.3651642E+04  0.7818609E-02  0.8078764E-01
        2   -1    0    0  501    0  0.00000000000E+00  0.00000000000E+00  0.24868865645E+04  0.24868865645E+04  0.25500000920E-02 0. -1.
       -2   -1    0    0    0  501  0.00000000000E+00  0.00000000000E+00 -0.13404799655E+04  0.13404799655E+04  0.25500000920E-02 0.  1.
    10030    2    1    2    0    0  0.00000000000E+00  0.00000000000E+00  0.11464065990E+04  0.38273665300E+04  0.36516416123E+04 0.  0.
        3    1    3    3  502    0  0.20751136089E+03  0.15664986195E+04 -0.38549492811E+03  0.16265255115E+04  0.10100000352E+00 0.  1.
       -3    1    3    3    0  502 -0.20751136089E+03 -0.15664986195E+04  0.15319015271E+04  0.22008410185E+04  0.10100000352E+00 0. -1.
</event>
<event>
 5   0  0.1686284E-07  0.3682294E+04  0.7818609E-02  0.8071897E-01
        2   -1    0    0  501    0  0.00000000000E+00  0.00000000000E+00  0.12334131546E+04  0.12334131546E+04  0.25500000920E-02 0.  1.
       -2   -1    0    0    0  501  0.00000000000E+00  0.00000000000E+00 -0.27483265047E+04  0.27483265047E+04  0.25500000920E-02 0. -1.
    10030    2    1    2    0    0  0.00000000000E+00  0.00000000000E+00 -0.15149133501E+04  0.39817396594E+04  0.36822938851E+04 0.  0.
        5    1    3    3  502    0 -0.55130117961E+03 -0.79479185654E+03  0.93651830353E+03  0.13463713116E+04  0.46999998093E+01 0.  1.
       -5    1    3    3    0  502  0.55130117961E+03  0.79479185654E+03 -0.24514316536E+04  0.26353683478E+04  0.46999998093E+01 0. -1.
</event>
<event>
 5   0  0.1686284E-07  0.3697443E+04  0.7818609E-02  0.8068529E-01
        2   -1    0    0  501    0  0.00000000000E+00  0.00000000000E+00  0.25927933025E+04  0.25927933025E+04  0.25500000920E-02 0. -1.
       -2   -1    0    0    0  501  0.00000000000E+00  0.00000000000E+00 -0.13181812467E+04  0.13181812467E+04  0.25500000920E-02 0.  1.
    10030    2    1    2    0    0  0.00000000000E+00  0.00000000000E+00  0.12746120558E+04  0.39109745492E+04  0.36974431749E+04 0.  0.
        5    1    3    3  502    0 -0.14171694807E+04 -0.59311128759E+03  0.17250934031E+04  0.23100042589E+04  0.46999998093E+01 0. -1.
       -5    1    3    3    0  502  0.14171694807E+04  0.59311128759E+03 -0.45048134732E+03  0.16009702904E+04  0.46999998093E+01 0.  1.
</event>
<event>
 5   0  0.5177000E-08  0.3814804E+04  0.7818609E-02  0.8042985E-01
       -1   -1    0    0    0  501  0.00000000000E+00  0.00000000000E+00  0.15820132827E+04  0.15820132827E+04  0.50400001928E-02 0. -1.
        1   -1    0    0  501    0  0.00000000000E+00  0.00000000000E+00 -0.22997169291E+04  0.22997169291E+04  0.50400001928E-02 0.  1.
    10030    2    1    2    0    0  0.00000000000E+00  0.00000000000E+00 -0.71770364641E+03  0.38817302118E+04  0.38148041776E+04 0.  0.
        1    1    3    3  502    0  0.14162625305E+04  0.11280160159E+04  0.25164309643E+03  0.18279890413E+04  0.50400001928E-02 0. -1.
       -1    1    3    3    0  502 -0.14162625305E+04 -0.11280160159E+04 -0.96934674284E+03  0.20537411704E+04  0.50400001928E-02 0.  1.
</event>
<event>
 5   0  0.1558258E-07  0.3701522E+04  0.7818609E-02  0.8067625E-01
       -2   -1    0    0    0  501  0.00000000000E+00  0.00000000000E+00  0.15169621082E+04  0.15169621082E+04  0.25500000920E-02 0. -1.
        2   -1    0    0  501    0  0.00000000000E+00  0.00000000000E+00 -0.22580107963E+04  0.22580107963E+04  0.25500000920E-02 0.  1.
    10030    2    1    2    0    0  0.00000000000E+00  0.00000000000E+00 -0.74104868816E+03  0.37749729045E+04  0.37015222911E+04 0.  0.
        1    1    3    3  502    0  0.56609794424E+03 -0.80625095451E+03 -0.19683976909E+04  0.22011580937E+04  0.50400001928E-02 0.  1.
       -1    1    3    3    0  502 -0.56609794424E+03  0.80625095451E+03  0.12273490027E+04  0.15738148108E+04  0.50400001928E-02 0. -1.
</event>
<event>
 5   0  0.1558258E-07  0.3731745E+04  0.7818609E-02  0.8060963E-01
       -2   -1    0    0    0  501  0.00000000000E+00  0.00000000000E+00  0.12715365831E+04  0.12715365831E+04  0.25500000920E-02 0.  1.
        2   -1    0    0  501    0  0.00000000000E+00  0.00000000000E+00 -0.27380105270E+04  0.27380105270E+04  0.25500000920E-02 0. -1.
    10030    2    1    2    0    0  0.00000000000E+00  0.00000000000E+00 -0.14664739439E+04  0.40095471102E+04  0.37317451950E+04 0.  0.
        1    1    3    3  502    0  0.16095613945E+04 -0.88892358221E+03 -0.39243775619E+03  0.18801277644E+04  0.50400001928E-02 0.  1.
       -1    1    3    3    0  502 -0.16095613945E+04  0.88892358221E+03 -0.10740361877E+04  0.21294193458E+04  0.50400001928E-02 0. -1.
</event>
<event>
 5   0  0.5177000E-08  0.3694157E+04  0.7818609E-02  0.8069258E-01
        1   -1    0    0  501    0  0.00000000000E+00  0.00000000000E+00  0.27039836684E+04  0.27039836685E+04  0.50400001928E-02 0.  1.
       -1   -1    0    0    0  501  0.00000000000E+00  0.00000000000E+00 -0.12617303564E+04  0.12617303565E+04  0.50400001928E-02 0. -1.
    10030    2    1    2    0    0  0.00000000000E+00  0.00000000000E+00  0.14422533120E+04  0.39657140249E+04  0.36941566171E+04 0.  0.
        3    1    3    3  502    0 -0.12342773401E+04  0.61469441780E+03  0.20404562317E+04  0.24626716028E+04  0.10100000352E+00 0.  1.
       -3    1    3    3    0  502  0.12342773401E+04 -0.61469441780E+03 -0.59820291966E+03  0.15030424222E+04  0.10100000352E+00 0. -1.
</event>
<event>
 5   0  0.1666189E-07  0.3678812E+04  0.7818609E-02  0.8072674E-01
       -2   -1    0    0    0  501  0.00000000000E+00  0.00000000000E+00  0.25884831370E+04  0.25884831370E+04  0.25500000920E-02 0.  1.
        2   -1    0    0  501    0  0.00000000000E+00  0.00000000000E+00 -0.13071030613E+04  0.13071030613E+04  0.25500000920E-02 0. -1.
    10030    2    1    2    0    0  0.00000000000E+00  0.00000000000E+00  0.12813800757E+04  0.38955861983E+04  0.36788118910E+04 0.  0.
        4    1    3    3  502    0  0.12422660195E+04 -0.30124094353E+03 -0.75991269001E+03  0.14870910794E+04  0.12699999809E+01 0. -1.
       -4    1    3    3    0  502 -0.12422660195E+04  0.30124094353E+03  0.20412927657E+04  0.24084951188E+04  0.12699999809E+01 0.  1.
</event>
<event>
 5   0  0.5177000E-08  0.3692017E+04  0.7818609E-02  0.8069733E-01
        1   -1    0    0  501    0  0.00000000000E+00  0.00000000000E+00  0.31159247028E+04  0.31159247028E+04  0.50400001928E-02 0.  1.
       -1   -1    0    0    0  501  0.00000000000E+00  0.00000000000E+00 -0.10936553353E+04  0.10936553353E+04  0.50400001928E-02 0. -1.
    10030    2    1    2    0    0  0.00000000000E+00  0.00000000000E+00  0.20222693674E+04  0.42095800381E+04  0.36920171591E+04 0.  0.
        2    1    3    3  502    0 -0.16635919113E+04 -0.31288372775E+03  0.18507884276E+04  0.25081571080E+04  0.25500000920E-02 0. -1.
       -2    1    3    3    0  502  0.16635919113E+04  0.31288372775E+03  0.17148093984E+03  0.17014229301E+04  0.25500000920E-02 0.  1.
</event>
<event>
 5   0  0.1658770E-07  0.3696980E+04  0.7818609E-02  0.8068631E-01
       -2   -1    0    0    0  501  0.00000000000E+00  0.00000000000E+00  0.16763537443E+04  0.16763537443E+04  0.25500000920E-02 0.  1.
        2   -1    0    0  501    0  0.00000000000E+00  0.00000000000E+00 -0.20383017920E+04  0.20383017920E+04  0.25500000920E-02 0. -1.
    10030    2    1    2    0    0  0.00000000000E+00  0.00000000000E+00 -0.36194804766E+03  0.37146555363E+04  0.36969797625E+04 0.  0.
        2    1    3    3  502    0 -0.12206114800E+04 -0.13569499395E+04  0.11318724727E+03  0.18286653265E+04  0.25500000920E-02 0. -1.
       -2    1    3    3    0  502  0.12206114800E+04  0.13569499395E+04 -0.47513529494E+03  0.18859902099E+04  0.25500000920E-02 0.  1.
</event>
<event>
 5   0  0.5177000E-08  0.3686580E+04  0.7818609E-02  0.8070942E-01
       -1   -1    0    0    0  501  0.00000000000E+00  0.00000000000E+00  0.22838168495E+04  0.22838168495E+04  0.50400001928E-02 0. -1.
        1   -1    0    0  501    0  0.00000000000E+00  0.00000000000E+00 -0.14877363807E+04  0.14877363807E+04  0.50400001928E-02 0.  1.
    10030    2    1    2    0    0  0.00000000000E+00  0.00000000000E+00  0.79608046880E+03  0.37715532302E+04  0.36865796690E+04 0.  0.
        1    1    3    3  502    0 -0.41174871430E+03  0.12134824184E+04 -0.95750637225E+03  0.15996546616E+04  0.50400001928E-02 0.  1.
       -1    1    3    3    0  502  0.41174871430E+03 -0.12134824184E+04  0.17535868411E+04  0.21718985687E+04  0.50400001928E-02 0. -1.
</event>
<event>
 5   0  0.1658770E-07  0.3692003E+04  0.7818609E-02  0.8069736E-01
       -2   -1    0    0    0  501  0.00000000000E+00  0.00000000000E+00  0.13387012276E+04  0.13387012276E+04  0.25500000920E-02 0.  1.
        2   -1    0    0  501    0  0.00000000000E+00  0.00000000000E+00 -0.25455434488E+04  0.25455434488E+04  0.25500000920E-02 0. -1.
    10030    2    1    2    0    0  0.00000000000E+00  0.00000000000E+00 -0.12068422213E+04  0.38842446764E+04  0.36920033260E+04 0.  0.
        2    1    3    3  502    0 -0.11340103955E+04  0.26197371654E+03 -0.21108986554E+04  0.24104984834E+04  0.25500000920E-02 0. -1.
       -2    1    3    3    0  502  0.11340103955E+04 -0.26197371654E+03  0.90405643408E+03  0.14737461930E+04  0.25500000920E-02 0.  1.
</event>
<event>
 5   0  0.1686284E-07  0.3739674E+04  0.7818609E-02  0.8059226E-01
       -2   -1    0    0    0  501  0.00000000000E+00  0.00000000000E+00  0.12747067218E+04  0.12747067218E+04  0.25500000920E-02 0. -1.
        2   -1    0    0  501    0  0.00000000000E+00  0.00000000000E+00 -0.27428191056E+04  0.27428191056E+04  0.25500000920E-02 0.  1.
    10030    2    1    2    0    0  0.00000000000E+00  0.00000000000E+00 -0.14681123837E+04  0.40175258274E+04  0.37396737562E+04 0.  0.
        5    1    3    3  502    0 -0.31475803750E+03 -0.73284161774E+03 -0.25509037324E+04  0.26726880478E+04  0.46999998093E+01 0.  1.
       -5    1    3    3    0  502  0.31475803750E+03  0.73284161774E+03  0.10827913486E+04  0.13448377796E+04  0.46999998093E+01 0. -1.
</event>
<event>
 5   0  0.1686284E-07  0.3710245E+04  0.7818609E-02  0.8065695E-01
        2   -1    0    0  501    0  0.00000000000E+00  0.00000000000E+00  0.16003222106E+04  0.16003222106E+04  0.25500000920E-02 0.  1.
       -2   -1    0    0    0  501  0.00000000000E+00  0.00000000000E+00 -0.21504913914E+04  0.21504913914E+04  0.25500000920E-02 0. -1.
    10030    2    1    2    0    0  0.00000000000E+00  0.00000000000E+00 -0.55016918083E+03  0.37508136021E+04  0.37102448100E+04 0.  0.
        5    1    3    3  502    0  0.12808192473E+04 -0.44874542988E+03 -0.15536613333E+04  0.20629483837E+04  0.46999998093E+01 0. -1.
       -5    1    3    3    0  502 -0.12808192473E+04  0.44874542988E+03  0.10034921525E+04  0.16878652183E+04  0.46999998093E+01 0.  1.
</event>
<event>
 5   0  0.1686284E-07  0.3697436E+04  0.7818609E-02  0.8068530E-01
       -2   -1    0    0    0  501  0.00000000000E+00  0.00000000000E+00  0.14148889291E+04  0.14148889291E+04  0.25500000920E-02 0.  1.
        2   -1    0    0  501    0  0.00000000000E+00  0.00000000000E+00 -0.24155663463E+04  0.24155663463E+04  0.25500000920E-02 0. -1.
    10030    2    1    2    0    0  0.00000000000E+00  0.00000000000E+00 -0.10006774172E+04  0.38304552754E+04  0.36974359120E+04 0.  0.
        5    1    3    3  502    0 -0.16158711118E+04  0.18448759810E+03  0.41029600003E+03  0.16773312200E+04  0.46999998093E+01 0.  1.
       -5    1    3    3    0  502  0.16158711118E+04 -0.18448759810E+03 -0.14109734172E+04  0.21531240554E+04  0.46999998093E+01 0. -1.
</event>
<event>
 5   0  0.5177000E-08  0.3710029E+04  0.7818609E-02  0.8065743E-01
        1   -1    0    0  501    0  0.00000000000E+00  0.00000000000E+00  0.16839276702E+04  0.16839276702E+04  0.50400001928E-02 0.  1.
       -1   -1    0    0    0  501  0.00000000000E+00  0.00000000000E+00 -0.20434838089E+04  0.20434838089E+04  0.50400001928E-02 0. -1.
    10030    2    1    2    0    0  0.00000000000E+00  0.00000000000E+00 -0.35955613877E+03  0.37274114791E+04  0.37100290723E+04 0.  0.
        3    1    3    3  502    0 -0.63461751335E+03 -0.15461838389E+04 -0.98831881270E+03  0.19416997548E+04  0.10100000352E+00 0. -1.
       -3    1    3    3    0  502  0.63461751335E+03  0.15461838389E+04  0.62876267393E+03  0.17857117243E+04  0.10100000352E+00 0.  1.
</event>
<event>
 5   0  0.5177000E-08  0.3723125E+04  0.7818609E-02  0.8062856E-01
        1   -1    0    0  501    0  0.00000000000E+00  0.00000000000E+00  0.25049772887E+04  0.25049772887E+04  0.50400001928E-02 0. -1.
       -1   -1    0    0    0  501  0.00000000000E+00  0.00000000000E+00 -0.13834113915E+04  0.13834113915E+04  0.50400001928E-02 0.  1.
    10030    2    1    2    0    0  0.00000000000E+00  0.00000000000E+00  0.11215658972E+04  0.38883886803E+04  0.37231245570E+04 0.  0.
        3    1    3    3  502    0 -0.62694476361E+03 -0.79666777975E+01  0.23913821636E+04  0.24722119381E+04  0.10100000352E+00 0. -1.
       -3    1    3    3    0  502  0.62694476361E+03  0.79666777975E+01 -0.12698162663E+04  0.14161767421E+04  0.10100000352E+00 0.  1.
</event>
<event>
 5   0  0.5181371E-08  0.3710349E+04  0.7818609E-02  0.8065672E-01
       -1   -1    0    0    0  501  0.00000000000E+00  0.00000000000E+00  0.26128409711E+04  0.26128409711E+04  0.50400001928E-02 0.  1.
        1   -1    0    0  501    0  0.00000000000E+00  0.00000000000E+00 -0.13172145622E+04  0.13172145622E+04  0.50400001928E-02 0. -1.
    10030    2    1    2    0    0  0.00000000000E+00  0.00000000000E+00  0.12956264090E+04  0.39300555333E+04  0.37103488655E+04 0.  0.
        5    1    3    3  502    0  0.18072934367E+04  0.25237749027E+03  0.10017337400E+04  0.20817052000E+04  0.46999998093E+01 0.  1.
       -5    1    3    3    0  502 -0.18072934367E+04 -0.25237749027E+03  0.29389266898E+03  0.18483503333E+04  0.46999998093E+01 0. -1.
</event>
<event>
 5   0  0.1558258E-07  0.3702682E+04  0.7818609E-02  0.8067368E-01
        2   -1    0    0  501    0  0.00000000000E+00  0.00000000000E+00  0.32030342559E+04  0.32030342559E+04  0.25500000920E-02 0. -1.
       -2   -1    0    0    0  501  0.00000000000E+00  0.00000000000E+00 -0.10700674334E+04  0.10700674334E+04  0.25500000920E-02 0.  1.
    10030    2    1    2    0    0  0.00000000000E+00  0.00000000000E+00  0.21329668225E+04  0.42731016893E+04  0.37026815392E+04 0.  0.
        1    1    3    3  502    0  0.57653717341E+03  0.58990101819E+03  0.29792538991E+04  0.30913317711E+04  0.50400001928E-02 0. -1.
       -1    1    3    3    0  502 -0.57653717341E+03 -0.58990101819E+03 -0.84628707657E+03  0.11817699182E+04  0.50400001928E-02 0.  1.
</event>
<event>
 5   0  0.5181371E-08  0.3714620E+04  0.7818609E-02  0.8064730E-01
        1   -1    0    0  501    0  0.00000000000E+00  0.00000000000E+00  0.13175413687E+04  0.13175413687E+04  0.50400001928E-02 0.  1.
       -1   -1    0    0    0  501  0.00000000000E+00  0.00000000000E+00 -0.26182096691E+04  0.26182096691E+04  0.50400001928E-02 0. -1.
    10030    2    1    2    0    0  0.00000000000E+00  0.00000000000E+00 -0.13006683004E+04  0.39357510378E+04  0.37146195235E+04 0.  0.
        5    1    3    3  502    0  0.30613624319E+03  0.10879764747E+04 -0.22118978783E+04  0.24839336793E+04  0.46999998093E+01 0. -1.
       -5    1    3    3    0  502 -0.30613624319E+03 -0.10879764747E+04  0.91122957789E+03  0.14518173585E+04  0.46999998093E+01 0.  1.
</event>
<event>
 5   0  0.1558258E-07  0.3669678E+04  0.7818609E-02  0.8074715E-01
        2   -1    0    0  501    0  0.00000000000E+00  0.00000000000E+00  0.22687315397E+04  0.22687315397E+04  0.25500000920E-02 0. -1.
       -2   -1    0    0    0  501  0.00000000000E+00  0.00000000000E+00 -0.14839281018E+04  0.14839281018E+04  0.25500000920E-02 0.  1.
    10030    2    1    2    0    0  0.00000000000E+00  0.00000000000E+00  0.78480343792E+03  0.37526596414E+04  0.36696781805E+04 0.  0.
        1    1    3    3  502    0  0.15406263430E+04  0.44828894274E+03  0.13025511717E+04  0.20666717349E+04  0.50400001928E-02 0. -1.
       -1    1    3    3    0  502 -0.15406263430E+04 -0.44828894274E+03 -0.51774773375E+03  0.16859879065E+04  0.50400001928E-02 0.  1.
</event>
<event>
 5   0  0.1587026E-07  0.3707969E+04  0.7818609E-02  0.8066198E-01
       -2   -1    0    0    0  501  0.00000000000E+00  0.00000000000E+00  0.25469116234E+04  0.25469116234E+04  0.25500000920E-02 0.  1.
        2   -1    0    0  501    0  0.00000000000E+00  0.00000000000E+00 -0.13495787947E+04  0.13495787947E+04  0.25500000920E-02 0. -1.
    10030    2    1    2    0    0  0.00000000000E+00  0.00000000000E+00  0.11973328287E+04  0.38964904181E+04  0.37079686724E+04 0.  0.
        3    1    3    3  502    0 -0.15830902598E+04 -0.64568051107E+03 -0.15485407936E+03  0.17166997085E+04  0.10100000352E+00 0.  1.
       -3    1    3    3    0  502  0.15830902598E+04  0.64568051107E+03  0.13521869081E+04  0.21797907096E+04  0.10100000352E+00 0. -1.
</event>
<event>
 5   0  0.1658770E-07  0.3696344E+04  0.7818609E-02  0.8068772E-01
        2   -1    0    0  501    0  0.00000000000E+00  0.00000000000E+00  0.17647794305E+04  0.17647794305E+04  0.25500000920E-02 0.  1.
       -2   -1    0    0    0  501  0.00000000000E+00  0.00000000000E+00 -0.19355054124E+04  0.19355054124E+04  0.25500000920E-02 0. -1.
    10030    2    1    2    0    0  0.00000000000E+00  0.00000000000E+00 -0.17072598188E+03  0.37002848430E+04  0.36963442153E+04 0.  0.
        2    1    3    3  502    0  0.15025161328E+04 -0.10756670946E+04 -0.11895038909E+03  0.18516920972E+04  0.25500000920E-02 0. -1.
       -2    1    3    3    0  502 -0.15025161328E+04  0.10756670946E+04 -0.51775592793E+02  0.18485927458E+04  0.25500000920E-02 0.  1.
</event>
<event>
 5   0  0.5177000E-08  0.3727158E+04  0.7818609E-02  0.8061970E-01
       -1   -1    0    0    0  501  0.00000000000E+00  0.00000000000E+00  0.27069735435E+04  0.27069735435E+04  0.50400001928E-02 0. -1.
        1   -1    0    0  501    0  0.00000000000E+00  0.00000000000E+00 -0.12829554457E+04  0.12829554457E+04  0.50400001928E-02 0.  1.
    10030    2    1    2    0    0  0.00000000000E+00  0.00000000000E+00  0.14240180978E+04  0.39899289891E+04  0.37271578710E+04 0.  0.
        2    1    3    3  502    0  0.11261403678E+04  0.13740007860E+04  0.10942385588E+03  0.17798999602E+04  0.25500000920E-02 0.  1.
       -2    1    3    3    0  502 -0.11261403678E+04 -0.13740007860E+04  0.13145942419E+04  0.22100290290E+04  0.25500000920E-02 0. -1.
</event>
<event>
 5   0  0.1686284E-07  0.3697141E+04  0.7818609E-02  0.8068596E-01
       -2   -1    0    0    0  501  0.00000000000E+00  0.00000000000E+00  0.18480363796E+04  0.18480363796E+04  0.25500000920E-02 0. -1.
        2   -1    0    0  501    0  0.00000000000E+00  0.00000000000E+00 -0.18491045695E+04  0.18491045695E+04  0.25500000920E-02 0.  1.
    10030    2    1    2    0    0  0.00000000000E+00  0.00000000000E+00 -0.10681899834E+01  0.36971409491E+04  0.36971407948E+04 0.  0.
        5    1    3    3  502    0  0.60630799630E+03  0.17351784309E+03 -0.17381971371E+04  0.18490725258E+04  0.46999998093E+01 0.  1.
       -5    1    3    3    0  502 -0.60630799630E+03 -0.17351784309E+03  0.17371289471E+04  0.18480684233E+04  0.46999998093E+01 0. -1.
</event>
<event>
 5   0  0.1686284E-07  0.3691315E+04  0.7818609E-02  0.8069889E-01
        2   -1    0    0  501    0  0.00000000000E+00  0.00000000000E+00  0.16155146270E+04  0.16155146270E+04  0.25500000920E-02 0. -1.
       -2   -1    0    0    0  501  0.00000000000E+00  0.00000000000E+00 -0.21085858355E+04  0.21085858355E+04  0.25500000920E-02 0.  1.
    10030    2    1    2    0    0  0.00000000000E+00  0.00000000000E+00 -0.49307120849E+03  0.37241004626E+04  0.36913148117E+04 0.  0.
        5    1    3    3  502    0  0.14761765305E+04  0.70209737215E+03 -0.11111133739E+04  0.19765203993E+04  0.46999998093E+01 0.  1.
       -5    1    3    3    0  502 -0.14761765305E+04 -0.70209737215E+03  0.61804216545E+03  0.17475800633E+04  0.46999998093E+01 0. -1.
</event>
<event>
 5   0  0.1558258E-07  0.3710551E+04  0.7818609E-02  0.8065628E-01
        2   -1    0    0  501    0  0.00000000000E+00  0.00000000000E+00  0.11182524054E+04  0.11182524054E+04  0.25500000920E-02 0. -1.
       -2   -1    0    0    0  501  0.00000000000E+00  0.00000000000E+00 -0.30780599944E+04  0.30780599944E+04  0.25500000920E-02 0.  1.
    10030    2    1    2    0    0  0.00000000000E+00  0.00000000000E+00 -0.19598075890E+04  0.41963123998E+04  0.37105514375E+04 0.  0.
        1    1    3    3  502    0  0.11648142656E+03 -0.16534761250E+04 -0.37440440807E+02  0.16579966843E+04  0.50400001928E-02 0. -1.
       -1    1    3    3    0  502 -0.11648142656E+03  0.16534761250E+04 -0.19223671482E+04  0.25383157154E+04  0.50400001928E-02 0.  1.
</event>
<event>
 5   0  0.1666189E-07  0.3707497E+04  0.7818609E-02  0.8066302E-01
        2   -1    0    0  501    0  0.00000000000E+00  0.00000000000E+00  0.19723993667E+04  0.19723993667E+04  0.25500000920E-02 0. -1.
       -2   -1    0    0    0  501  0.00000000000E+00  0.00000000000E+00 -0.17422352419E+04  0.17422352419E+04  0.25500000920E-02 0.  1.
    10030    2    1    2    0    0  0.00000000000E+00  0.00000000000E+00  0.23016412486E+03  0.37146346086E+04  0.37074971006E+04 0.  0.
        4    1    3    3  502    0 -0.14396610395E+04 -0.99648821731E+03  0.72516267234E+03  0.18951187799E+04  0.12699999809E+01 0.  1.
       -4    1    3    3    0  502  0.14396610395E+04  0.99648821731E+03 -0.49499854748E+03  0.18195158287E+04  0.12699999809E+01 0. -1.
</event>
<event>
 5   0  0.5177000E-08  0.3681830E+04  0.7818609E-02  0.8072001E-01
       -1   -1    0    0    0  501  0.00000000000E+00  0.00000000000E+00  0.30208155983E+04  0.30208155983E+04  0.50400001928E-02 0. -1.
        1   -1    0    0  501    0  0.00000000000E+00  0.00000000000E+00 -0.11218717795E+04  0.11218717795E+04  0.50400001928E-02 0.  1.
    10030    2    1    2    0    0  0.00000000000E+00  0.00000000000E+00  0.18989438189E+04  0.41426873778E+04  0.36818298552E+04 0.  0.
        2    1    3    3  502    0 -0.36549365341E+03 -0.17647333900E+04  0.52682352111E+03  0.18776082048E+04  0.25500000920E-02 0.  1.
       -2    1    3    3    0  502  0.36549365341E+03  0.17647333900E+04  0.13721202978E+04  0.22650791730E+04  0.25500000920E-02 0. -1.
</event>
<event>
 5   0  0.5177000E-08  0.3739046E+04  0.7818609E-02  0.8059363E-01
        1   -1    0    0  501    0  0.00000000000E+00  0.00000000000E+00  0.11794460593E+04  0.11794460593E+04  0.50400001928E-02 0.  1.
       -1   -1    0    0    0  501  0.00000000000E+00  0.00000000000E+00 -0.29633537179E+04  0.29633537179E+04  0.50400001928E-02 0. -1.
    10030    2    1    2    0    0  0.00000000000E+00  0.00000000000E+00 -0.17839076586E+04  0.41427997772E+04  0.37390457954E+04 0.  0.
        2    1    3    3  502    0 -0.50571340891E+03  0.17843514072E+04 -0.63102469177E+03  0.19590426636E+04  0.25500000920E-02 0. -1.
       -2    1    3    3    0  502  0.50571340891E+03 -0.17843514072E+04 -0.11528829668E+04  0.21837571136E+04  0.25500000920E-02 0.  1.
</event>
<event>
 5   0  0.1686284E-07  0.3707086E+04  0.7818609E-02  0.8066393E-01
       -2   -1    0    0    0  501  0.00000000000E+00  0.00000000000E+00  0.13289334125E+04  0.13289334125E+04  0.25500000920E-02 0.  1.
        2   -1    0    0  501    0  0.00000000000E+00  0.00000000000E+00 -0.25852468550E+04  0.25852468550E+04  0.25500000920E-02 0. -1.
    10030    2    1    2    0    0  0.00000000000E+00  0.00000000000E+00 -0.12563134425E+04  0.39141802674E+04  0.37070856073E+04 0.  0.
        5    1    3    3  502    0  0.16896175304E+04  0.51634143414E+03 -0.12199901896E+04  0.21470477471E+04  0.46999998093E+01 0. -1.
       -5    1    3    3    0  502 -0.16896175304E+04 -0.51634143414E+03 -0.36323252940E+02  0.17671325203E+04  0.46999998093E+01 0.  1.
</event>
<event>
 5   0  0.1587026E-07  0.3678860E+04  0.7818609E-02  0.8072663E-01
        2   -1    0    0  501    0  0.00000000000E+00  0.00000000000E+00  0.24333096390E+04  0.24333096390E+04  0.25500000920E-02 0. -1.
       -2   -1    0    0    0  501  0.00000000000E+00  0.00000000000E+00 -0.13904938516E+04  0.13904938516E+04  0.25500000920E-02 0.  1.
    10030    2    1    2    0    0  0.00000000000E+00  0.00000000000E+00  0.10428157873E+04  0.38238034906E+04  0.36788596560E+04 0.  0.
        3    1    3    3  502    0 -0.26628953743E+03 -0.16436236188E+04 -0.29111597703E+03  0.16903127641E+04  0.10100000352E+00 0. -1.
       -3    1    3    3    0  502  0.26628953743E+03  0.16436236188E+04  0.13339317644E+04  0.21334907266E+04  0.10100000352E+00 0.  1.
</event>
<event>
 5   0  0.5177000E-08  0.3695519E+04  0.7818609E-02  0.8068956E-01
       -1   -1    0    0    0  501  0.00000000000E+00  0.00000000000E+00  0.15508712940E+04  0.15508712940E+04  0.50400001928E-02 0. -1.
        1   -1    0    0  501    0  0.00000000000E+00  0.00000000000E+00 -0.22014823882E+04  0.22014823882E+04  0.50400001928E-02 0.  1.
    10030    2    1    2    0    0  0.00000000000E+00  0.00000000000E+00 -0.65061109418E+03  0.37523536821E+04  0.36955193627E+04 0.  0.
        2    1    3    3  502    0  0.34147134883E+03 -0.14861987509E+04 -0.13848217722E+04  0.20598836739E+04  0.25500000920E-02 0.  1.
       -2    1    3    3    0  502 -0.34147134883E+03  0.14861987509E+04  0.73421067801E+03  0.16924700083E+04  0.25500000920E-02 0. -1.
</event>
<event>
 5   0  0.1666189E-07  0.3700328E+04  0.7818609E-02  0.8067889E-01
        2   -1    0    0  501    0  0.00000000000E+00  0.00000000000E+00  0.14953329788E+04  0.14953329788E+04  0.25500000920E-02 0. -1.
       -2   -1    0    0    0  501  0.00000000000E+00  0.00000000000E+00 -0.22891939189E+04  0.22891939189E+04  0.25500000920E-02 0.  1.
    10030    2    1    2    0    0  0.00000000000E+00  0.00000000000E+00 -0.79386094002E+03  0.37845268977E+04  0.37003281810E+04 0.  0.
        4    1    3    3  502    0  0.12182529059E+04 -0.57753101055E+03  0.89895356360E+03  0.16204324526E+04  0.12699999809E+01 0. -1.
       -4    1    3    3    0  502 -0.12182529059E+04  0.57753101055E+03 -0.16928145036E+04  0.21640944451E+04  0.12699999809E+01 0.  1.
</event>
<event>
 5   0  0.5177000E-08  0.3637754E+04  0.7818609E-02  0.8081898E-01
       -1   -1    0    0    0  501  0.00000000000E+00  0.00000000000E+00  0.18037621847E+04  0.18037621847E+04  0.50400001928E-02 0.  1.
        1   -1    0    0  501    0  0.00000000000E+00  0.00000000000E+00 -0.18341183606E+04  0.18341183607E+04  0.50400001928E-02 0. -1.
    10030    2    1    2    0    0  0.00000000000E+00  0.00000000000E+00 -0.30356175974E+02  0.36378805453E+04  0.36377538901E+04 0.  0.
        4    1    3    3  502    0  0.16170878133E+03 -0.21162345723E+03  0.17841559403E+04  0.18039257884E+04  0.12699999809E+01 0.  1.
       -4    1    3    3    0  502 -0.16170878133E+03  0.21162345723E+03 -0.18145121163E+04  0.18339547570E+04  0.12699999809E+01 0. -1.
</event>
<event>
 5   0  0.5177000E-08  0.3698167E+04  0.7818609E-02  0.8068368E-01
        1   -1    0    0  501    0  0.00000000000E+00  0.00000000000E+00  0.23033461588E+04  0.23033461589E+04  0.50400001928E-02 0.  1.
       -1   -1    0    0    0  501  0.00000000000E+00  0.00000000000E+00 -0.14844098405E+04  0.14844098405E+04  0.50400001928E-02 0. -1.
    10030    2    1    2    0    0  0.00000000000E+00  0.00000000000E+00  0.81893631831E+03  0.37877559994E+04  0.36981669537E+04 0.  0.
        3    1    3    3  502    0 -0.62911665573E+03  0.17216014656E+04  0.15982111298E+03  0.18399027613E+04  0.10100000352E+00 0.  1.
       -3    1    3    3    0  502  0.62911665573E+03 -0.17216014656E+04  0.65911520533E+03  0.19478532380E+04  0.10100000352E+00 0. -1.
</event>
<event>
 5   0  0.1558258E-07  0.3692175E+04  0.7818609E-02  0.8069698E-01
       -2   -1    0    0    0  501  0.00000000000E+00  0.00000000000E+00  0.18817337552E+04  0.18817337552E+04  0.25500000920E-02 0. -1.
        2   -1    0    0  501    0  0.00000000000E+00  0.00000000000E+00 -0.18111164596E+04  0.18111164596E+04  0.25500000920E-02 0.  1.
    10030    2    1    2    0    0  0.00000000000E+00  0.00000000000E+00  0.70617295589E+02  0.36928502148E+04  0.36921749561E+04 0.  0.
        1    1    3    3  502    0  0.11818622723E+04  0.10090106541E+04 -0.96143672963E+03  0.18273646368E+04  0.50400001928E-02 0.  1.
       -1    1    3    3    0  502 -0.11818622723E+04 -0.10090106541E+04  0.10320540252E+04  0.18654855780E+04  0.50400001928E-02 0. -1.
</event>
<event>
 5   0  0.5177000E-08  0.3701896E+04  0.7818609E-02  0.8067542E-01
       -1   -1    0    0    0  501  0.00000000000E+00  0.00000000000E+00  0.16497779115E+04  0.16497779116E+04  0.50400001928E-02 0.  1.
        1   -1    0    0  501    0  0.00000000000E+00  0.00000000000E+00 -0.20766477829E+04  0.20766477829E+04  0.50400001928E-02 0. -1.
    10030    2    1    2    0    0  0.00000000000E+00  0.00000000000E+00 -0.42686987136E+03  0.37264256945E+04  0.37018955373E+04 0.  0.
        2    1    3    3  502    0 -0.58254254636E+02 -0.40133206214E+03 -0.20313772751E+04  0.20714619514E+04  0.25500000920E-02 0. -1.
       -2    1    3    3    0  502  0.58254254636E+02  0.40133206214E+03  0.16045074037E+04  0.16549637431E+04  0.25500000920E-02 0.  1.
</event>
<event>
 5   0  0.1558258E-07  0.3692367E+04  0.7818609E-02  0.8069655E-01
       -2   -1    0    0    0  501  0.00000000000E+00  0.00000000000E+00  0.23003913913E+04  0.23003913913E+04  0.25500000920E-02 0. -1.
        2   -1    0    0  501    0  0.00000000000E+00  0.00000000000E+00 -0.14816581726E+04  0.14816581726E+04  0.25500000920E-02 0.  1.
    10030    2    1    2    0    0  0.00000000000E+00  0.00000000000E+00  0.81873321865E+03  0.37820495639E+04  0.36923671026E+04 0.  0.
        1    1    3    3  502    0  0.14771802580E+03  0.35828960605E+03 -0.14395244510E+04  0.14907792264E+04  0.50400001928E-02 0.  1.
       -1    1    3    3    0  502 -0.14771802580E+03 -0.35828960605E+03  0.22582576696E+04  0.22912703375E+04  0.50400001928E-02 0. -1.
</event>
<event>
 5   0  0.1587026E-07  0.3703525E+04  0.7818609E-02  0.8067181E-01
        2   -1    0    0  501    0  0.00000000000E+00  0.00000000000E+00  0.21371767445E+04  0.21371767445E+04  0.25500000920E-02 0. -1.
       -2   -1    0    0    0  501  0.00000000000E+00  0.00000000000E+00 -0.16044645252E+04  0.16044645252E+04  0.25500000920E-02 0.  1.
    10030    2    1    2    0    0  0.00000000000E+00  0.00000000000E+00  0.53271221929E+03  0.37416412697E+04  0.37035249537E+04 0.  0.
        3    1    3    3  502    0  0.93813318130E+03 -0.22437156379E+03  0.18633166277E+04  0.20981862000E+04  0.10100000352E+00 0. -1.
       -3    1    3    3    0  502 -0.93813318130E+03  0.22437156379E+03 -0.13306044084E+04  0.16434550698E+04  0.10100000352E+00 0.  1.
</event>
<event>
 5   0  0.5177000E-08  0.3703552E+04  0.7818609E-02  0.8067175E-01
        1   -1    0    0  501    0  0.00000000000E+00  0.00000000000E+00  0.25451478691E+04  0.25451478691E+04  0.50400001928E-02 0.  1.
       -1   -1    0    0    0  501  0.00000000000E+00  0.00000000000E+00 -0.13472990186E+04  0.13472990186E+04  0.50400001928E-02 0. -1.
    10030    2    1    2    0    0  0.00000000000E+00  0.00000000000E+00  0.11978488505E+04  0.38924468878E+04  0.37035524710E+04 0.  0.
        1    1    3    3  502    0  0.69297498595E+03 -0.17128226869E+04  0.72807107761E+03  0.19859666115E+04  0.50400001928E-02 0.  1.
       -1    1    3    3    0  502 -0.69297498595E+03  0.17128226869E+04  0.46977777290E+03  0.19064802763E+04  0.50400001928E-02 0. -1.
</event>
<event>
 5   0  0.5177000E-08  0.3696568E+04  0.7818609E-02  0.8068723E-01
       -1   -1    0    0    0  501  0.00000000000E+00  0.00000000000E+00  0.15158127166E+04  0.15158127167E+04  0.50400001928E-02 0. -1.
        1   -1    0    0  501    0  0.00000000000E+00  0.00000000000E+00 -0.22536779237E+04  0.22536779237E+04  0.50400001928E-02 0.  1.
    10030    2    1    2    0    0  0.00000000000E+00  0.00000000000E+00 -0.73786520704E+03  0.37694906403E+04  0.36965679520E+04 0.  0.
        1    1    3    3  502    0 -0.10996565402E+04 -0.12650446332E+04  0.42525824353E+03  0.17292851136E+04  0.50400001928E-02 0. -1.
       -1    1    3    3    0  502  0.10996565402E+04  0.12650446332E+04 -0.11631234506E+04  0.20402055268E+04  0.50400001928E-02 0.  1.
</event>
<event>
 5   0  0.1558258E-07  0.3692501E+04  0.7818609E-02  0.8069626E-01
        2   -1    0    0  501    0  0.00000000000E+00  0.00000000000E+00  0.21872724081E+04  0.21872724081E+04  0.25500000920E-02 0.  1.
       -2   -1    0    0    0  501  0.00000000000E+00  0.00000000000E+00 -0.15583981298E+04  0.15583981298E+04  0.25500000920E-02 0. -1.
    10030    2    1    2    0    0  0.00000000000E+00  0.00000000000E+00  0.62887427828E+03  0.37456705378E+04  0.36925011740E+04 0.  0.
        1    1    3    3  502    0 -0.17311479811E+04  0.48791979928E+03 -0.10834005429E+03  0.18018536650E+04  0.50400001928E-02 0.  1.
       -1    1    3    3    0  502  0.17311479811E+04 -0.48791979928E+03  0.73721433257E+03  0.19438168728E+04  0.50400001928E-02 0. -1.
</event>
<event>
 5   0  0.5177000E-08  0.3678918E+04  0.7818609E-02  0.8072650E-01
        1   -1    0    0  501    0  0.00000000000E+00  0.00000000000E+00  0.25813781312E+04  0.25813781312E+04  0.50400001928E-02 0.  1.
       -1   -1    0    0    0  501  0.00000000000E+00  0.00000000000E+00 -0.13107764995E+04  0.13107764995E+04  0.50400001928E-02 0. -1.
    10030    2    1    2    0    0  0.00000000000E+00  0.00000000000E+00  0.12706016317E+04  0.38921546307E+04  0.36789182055E+04 0.  0.
        2    1    3    3  502    0  0.29028927252E+03  0.13161839664E+04 -0.68905501198E+03  0.15137387175E+04  0.25500000920E-02 0. -1.
       -2    1    3    3    0  502 -0.29028927252E+03 -0.13161839664E+04  0.19596566436E+04  0.23784159132E+04  0.25500000920E-02 0.  1.
</event>
<event>
 5   0  0.5177000E-08  0.3707438E+04  0.7818609E-02  0.8066315E-01
       -1   -1    0    0    0  501  0.00000000000E+00  0.00000000000E+00  0.20003154949E+04  0.20003154949E+04  0.50400001928E-02 0. -1.
        1   -1    0    0  501    0  0.00000000000E+00  0.00000000000E+00 -0.17178660009E+04  0.17178660010E+04  0.50400001928E-02 0.  1.
    10030    2    1    2    0    0  0.00000000000E+00  0.00000000000E+00  0.28244949392E+03  0.37181814958E+04  0.37074379185E+04 0.  0.
        1    1    3    3  502    0  0.14106555935E+04 -0.91803498546E+02 -0.10613735114E+04  0.17677360709E+04  0.50400001928E-02 0.  1.
       -1    1    3    3    0  502 -0.14106555935E+04  0.91803498546E+02  0.13438230054E+04  0.19504454249E+04  0.50400001928E-02 0. -1.
</event>
<event>
 5   0  0.1587026E-07  0.3695320E+04  0.7818609E-02  0.8069000E-01
       -2   -1    0    0    0  501  0.00000000000E+00  0.00000000000E+00  0.23048604004E+04  0.23048604004E+04  0.25500000920E-02 0.  1.
        2   -1    0    0  501    0  0.00000000000E+00  0.00000000000E+00 -0.14811513881E+04  0.14811513882E+04  0.25500000920E-02 0. -1.
    10030    2    1    2    0    0  0.00000000000E+00  0.00000000000E+00  0.82370901224E+03  0.37860117885E+04  0.36953198408E+04 0.  0.
        3    1    3    3  502    0 -0.29212836273E+03 -0.18041102322E+04  0.68998419631E+03  0.19535175739E+04  0.10100000352E+00 0.  1.
       -3    1    3    3    0  502  0.29212836273E+03  0.18041102322E+04  0.13372481594E+03  0.18324942147E+04  0.10100000352E+00 0. -1.
</event>
<event>
 5   0  0.5177000E-08  0.3699887E+04  0.7818609E-02  0.8067987E-01
        1   -1    0    0  501    0  0.00000000000E+00  0.00000000000E+00  0.20833741679E+04  0.20833741679E+04  0.50400001928E-02 0.  1.
       -1   -1    0    0    0  501  0.00000000000E+00  0.00000000000E+00 -0.16426676253E+04  0.16426676253E+04  0.50400001928E-02 0. -1.
    10030    2    1    2    0    0  0.00000000000E+00  0.00000000000E+00  0.44070654252E+03  0.37260417932E+04  0.36998871859E+04 0.  0.
        4    1    3    3  502    0  0.89362031420E+03 -0.82661214565E+03 -0.11824923594E+04  0.16970959602E+04  0.12699999809E+01 0. -1.
       -4    1    3    3    0  502 -0.89362031420E+03  0.82661214565E+03  0.16231989019E+04  0.20289458330E+04  0.12699999809E+01 0.  1.
</event>
<event>
 5   0  0.5177000E-08  0.3696410E+04  0.7818609E-02  0.8068758E-01
        1   -1    0    0  501    0  0.00000000000E+00  0.00000000000E+00  0.20837127437E+04  0.20837127437E+04  0.50400001928E-02 0. -1.
       -1   -1    0    0    0  501  0.00000000000E+00  0.00000000000E+00 -0.16393151741E+04  0.16393151741E+04  0.50400001928E-02 0.  1.
    10030    2    1    2    0    0  0.00000000000E+00  0.00000000000E+00  0.44439756964E+03  0.37230279178E+04  0.36964101067E+04 0.  0.
        1    1    3    3  502    0 -0.72511237490E+03 -0.77334138764E+03 -0.13026439922E+04  0.16795017798E+04  0.50400001928E-02 0.  1.
       -1    1    3    3    0  502  0.72511237490E+03  0.77334138764E+03  0.17470415618E+04  0.20435261380E+04  0.50400001928E-02 0. -1.
</event>
<event>
 5   0  0.5177000E-08  0.3535316E+04  0.7818609E-02  0.8105471E-01
       -1   -1    0    0    0  501  0.00000000000E+00  0.00000000000E+00  0.26966090732E+04  0.26966090732E+04  0.50400001928E-02 0.  1.
        1   -1    0    0  501    0  0.00000000000E+00  0.00000000000E+00 -0.11587201152E+04  0.11587201152E+04  0.50400001928E-02 0. -1.
    10030    2    1    2    0    0  0.00000000000E+00  0.00000000000E+00  0.15378889581E+04  0.38553291884E+04  0.35353162099E+04 0.  0.
        1    1    3    3  502    0  0.16661700369E+04  0.70404087483E+02  0.14081186744E+04  0.21826308732E+04  0.50400001928E-02 0. -1.
       -1    1    3    3    0  502 -0.16661700369E+04 -0.70404087483E+02  0.12977028370E+03  0.16726983153E+04  0.50400001928E-02 0.  1.
</event>
<event>
 5   0  0.1658770E-07  0.3701871E+04  0.7818609E-02  0.8067547E-01
        2   -1    0    0  501    0  0.00000000000E+00  0.00000000000E+00  0.19800559879E+04  0.19800559879E+04  0.25500000920E-02 0. -1.
       -2   -1    0    0    0  501  0.00000000000E+00  0.00000000000E+00 -0.17302350706E+04  0.17302350706E+04  0.25500000920E-02 0.  1.
    10030    2    1    2    0    0  0.00000000000E+00  0.00000000000E+00  0.24982091728E+03  0.37102910585E+04  0.37018710469E+04 0.  0.
        2    1    3    3  502    0  0.54110072229E+03 -0.45239689017E+03  0.18400916390E+04  0.19706319234E+04  0.25500000920E-02 0. -1.
       -2    1    3    3    0  502 -0.54110072229E+03  0.45239689017E+03 -0.15902707217E+04  0.17396591351E+04  0.25500000920E-02 0.  1.
</event>
<event>
 5   0  0.1666189E-07  0.3696502E+04  0.7818609E-02  0.8068737E-01
       -2   -1    0    0    0  501  0.00000000000E+00  0.00000000000E+00  0.18217287068E+04  0.18217287068E+04  0.25500000920E-02 0.  1.
        2   -1    0    0  501    0  0.00000000000E+00  0.00000000000E+00 -0.18751597762E+04  0.18751597762E+04  0.25500000920E-02 0. -1.
    10030    2    1    2    0    0  0.00000000000E+00  0.00000000000E+00 -0.53431069405E+02  0.36968884829E+04  0.36965023436E+04 0.  0.
        4    1    3    3  502    0  0.12989960856E+03 -0.41413655157E+03 -0.18234687592E+04  0.18744126867E+04  0.12699999809E+01 0. -1.
       -4    1    3    3    0  502 -0.12989960856E+03  0.41413655157E+03  0.17700376898E+04  0.18224757962E+04  0.12699999809E+01 0.  1.
</event>
<event>
 5   0  0.1587026E-07  0.3695482E+04  0.7818609E-02  0.8068964E-01
        2   -1    0    0  501    0  0.00000000000E+00  0.00000000000E+00  0.29241580198E+04  0.29241580198E+04  0.25500000920E-02 0.  1.
       -2   -1    0    0    0  501  0.00000000000E+00  0.00000000000E+00 -0.11675657943E+04  0.11675657943E+04  0.25500000920E-02 0. -1.
    10030    2    1    2    0    0  0.00000000000E+00  0.00000000000E+00  0.17565922255E+04  0.40917238142E+04  0.36954820423E+04 0.  0.
        3    1    3    3  502    0 -0.14702917386E+04 -0.10867774226E+04  0.58263658304E+03  0.19189341732E+04  0.10100000352E+00 0. -1.
       -3    1    3    3    0  502  0.14702917386E+04  0.10867774226E+04  0.11739556425E+04  0.21727896409E+04  0.10100000352E+00 0.  1.
</event>
<event>
 5   0  0.5177000E-08  0.3706055E+04  0.7818609E-02  0.8066621E-01
        1   -1    0    0  501    0  0.00000000000E+00  0.00000000000E+00  0.25331760974E+04  0.25331760974E+04  0.50400001928E-02 0. -1.
       -1   -1    0    0    0  501  0.00000000000E+00  0.00000000000E+00 -0.13554964414E+04  0.13554964414E+04  0.50400001928E-02 0.  1.
    10030    2    1    2    0    0  0.00000000000E+00  0.00000000000E+00  0.11776796561E+04  0.38886725388E+04  0.37060551456E+04 0.  0.
        3    1    3    3  502    0  0.21487761020E+03  0.29279464453E+03  0.24954659582E+04  0.25217556285E+04  0.10100000352E+00 0. -1.
       -3    1    3    3    0  502 -0.21487761020E+03 -0.29279464453E+03 -0.13177863022E+04  0.13669169103E+04  0.10100000352E+00 0.  1.
</event>
<event>
 5   0  0.1587026E-07  0.3693516E+04  0.7818609E-02  0.8069400E-01
        2   -1    0    0  501    0  0.00000000000E+00  0.00000000000E+00  0.24665443330E+04  0.24665443330E+04  0.25500000920E-02 0. -1.
       -2   -1    0    0    0  501  0.00000000000E+00  0.00000000000E+00 -0.13827098560E+04  0.13827098560E+04  0.25500000920E-02 0.  1.
    10030    2    1    2    0    0  0.00000000000E+00  0.00000000000E+00  0.10838344770E+04  0.38492541889E+04  0.36935160264E+04 0.  0.
        3    1    3    3  502    0  0.16576919598E+04 -0.42781230635E+03  0.12636113541E+04  0.21278345019E+04  0.10100000352E+00 0. -1.
       -3    1    3    3    0  502 -0.16576919598E+04  0.42781230635E+03 -0.17977687710E+03  0.17214196870E+04  0.10100000352E+00 0.  1.
</event>
<event>
 5   0  0.1658770E-07  0.3707142E+04  0.7818609E-02  0.8066381E-01
       -2   -1    0    0    0  501  0.00000000000E+00  0.00000000000E+00  0.23377927175E+04  0.23377927175E+04  0.25500000920E-02 0.  1.
        2   -1    0    0  501    0  0.00000000000E+00  0.00000000000E+00 -0.14696448848E+04  0.14696448848E+04  0.25500000920E-02 0. -1.
    10030    2    1    2    0    0  0.00000000000E+00  0.00000000000E+00  0.86814783267E+03  0.38074376023E+04  0.37071418149E+04 0.  0.
        2    1    3    3  502    0  0.11012686592E+04  0.78770483944E+02 -0.10950749419E+04  0.15550519533E+04  0.25500000920E-02 0. -1.
       -2    1    3    3    0  502 -0.11012686592E+04 -0.78770483944E+02  0.19632227746E+04  0.22523856490E+04  0.25500000920E-02 0.  1.
</event>
<event>
 5   0  0.5177000E-08  0.3685685E+04  0.7818609E-02  0.8071142E-01
       -1   -1    0    0    0  501  0.00000000000E+00  0.00000000000E+00  0.16868272039E+04  0.16868272039E+04  0.50400001928E-02 0. -1.
        1   -1    0    0  501    0  0.00000000000E+00  0.00000000000E+00 -0.20132881924E+04  0.20132881924E+04  0.50400001928E-02 0.  1.
    10030    2    1    2    0    0  0.00000000000E+00  0.00000000000E+00 -0.32646098857E+03  0.37001153963E+04  0.36856854408E+04 0.  0.
        3    1    3    3  502    0 -0.50020904259E+03 -0.49855262522E+03  0.15455809551E+04  0.16992893530E+04  0.10100000352E+00 0. -1.
       -3    1    3    3    0  502  0.50020904259E+03  0.49855262522E+03 -0.18720419436E+04  0.20008260433E+04  0.10100000352E+00 0.  1.
</event>
<event>
 5   0  0.1686284E-07  0.3703202E+04  0.7818609E-02  0.8067253E-01
       -2   -1    0    0    0  501  0.00000000000E+00  0.00000000000E+00  0.16499196275E+04  0.16499196275E+04  0.25500000920E-02 0. -1.
        2   -1    0    0  501    0  0.00000000000E+00  0.00000000000E+00 -0.20779357389E+04  0.20779357389E+04  0.25500000920E-02 0.  1.
    10030    2    1    2    0    0  0.00000000000E+00  0.00000000000E+00 -0.42801611132E+03  0.37278553664E+04  0.37032023765E+04 0.  0.
        5    1    3    3  502    0 -0.12946295180E+04  0.12917155662E+02  0.11185005694E+04  0.17109348485E+04  0.46999998093E+01 0. -1.
       -5    1    3    3    0  502  0.12946295180E+04 -0.12917155662E+02 -0.15465166808E+04  0.20169205179E+04  0.46999998093E+01 0.  1.
</event>
<event>
 5   0  0.5177000E-08  0.3689666E+04  0.7818609E-02  0.8070256E-01
       -3   -1    0    0    0  501  0.00000000000E+00  0.00000000000E+00  0.11866302516E+04  0.11866302559E+04  0.10100000352E+00 0. -1.
        3   -1    0    0  501    0  0.00000000000E+00  0.00000000000E+00 -0.28681289302E+04  0.28681289319E+04  0.10100000352E+00 0.  1.
    10030    2    1    2    0    0  0.00000000000E+00  0.00000000000E+00 -0.16814986786E+04  0.40547591878E+04  0.36896658744E+04 0.  0.
        3    1    3    3  502    0 -0.21836317876E+03  0.18282962901E+04 -0.71516690529E+03  0.19753008669E+04  0.10100000352E+00 0.  1.
       -3    1    3    3    0  502  0.21836317876E+03 -0.18282962901E+04 -0.96633177332E+03  0.20794583209E+04  0.10100000352E+00 0. -1.
</event>
<event>
 5   0  0.1686284E-07  0.3701720E+04  0.7818609E-02  0.8067581E-01
        2   -1    0    0  501    0  0.00000000000E+00  0.00000000000E+00  0.15115540873E+04  0.15115540873E+04  0.25500000920E-02 0. -1.
       -2   -1    0    0    0  501  0.00000000000E+00  0.00000000000E+00 -0.22663313964E+04  0.22663313964E+04  0.25500000920E-02 0.  1.
    10030    2    1    2    0    0  0.00000000000E+00  0.00000000000E+00 -0.75477730905E+03  0.37778854837E+04  0.37017198626E+04 0.  0.
        5    1    3    3  502    0 -0.44721295074E+03  0.17950132392E+04 -0.31625247897E+03  0.18767284494E+04  0.46999998093E+01 0.  1.
       -5    1    3    3    0  502  0.44721295074E+03 -0.17950132392E+04 -0.43852483009E+03  0.19011570343E+04  0.46999998093E+01 0. -1.
</event>
<event>
 5   0  0.1558258E-07  0.3707293E+04  0.7818609E-02  0.8066347E-01
       -2   -1    0    0    0  501  0.00000000000E+00  0.00000000000E+00  0.20990696471E+04  0.20990696471E+04  0.25500000920E-02 0.  1.
        2   -1    0    0  501    0  0.00000000000E+00  0.00000000000E+00 -0.16369184837E+04  0.16369184837E+04  0.25500000920E-02 0. -1.
    10030    2    1    2    0    0  0.00000000000E+00  0.00000000000E+00  0.46215116342E+03  0.37359881309E+04  0.37072933005E+04 0.  0.
        1    1    3    3  502    0  0.53360407251E+03  0.69908047784E+02 -0.15564592158E+04  0.16468714983E+04  0.50400001928E-02 0. -1.
       -1    1    3    3    0  502 -0.53360407251E+03 -0.69908047784E+02  0.20186103792E+04  0.20891166326E+04  0.50400001928E-02 0.  1.
</event>
<event>
 5   0  0.1666189E-07  0.3710748E+04  0.7818609E-02  0.8065584E-01
       -2   -1    0    0    0  501  0.00000000000E+00  0.00000000000E+00  0.23220585122E+04  0.23220585122E+04  0.25500000920E-02 0.  1.
        2   -1    0    0  501    0  0.00000000000E+00  0.00000000000E+00 -0.14824833807E+04  0.14824833807E+04  0.25500000920E-02 0. -1.
    10030    2    1    2    0    0  0.00000000000E+00  0.00000000000E+00  0.83957513144E+03  0.38045418929E+04  0.37107482552E+04 0.  0.
        4    1    3    3  502    0 -0.74389245599E+03  0.16391291920E+04  0.88092375798E+03  0.20040331271E+04  0.12699999809E+01 0.  1.
       -4    1    3    3    0  502  0.74389245599E+03 -0.16391291920E+04 -0.41348626542E+02  0.18005087658E+04  0.12699999809E+01 0. -1.
</event>
<event>
 5   0  0.5177000E-08  0.3952453E+04  0.7818609E-02  0.8014208E-01
       -1   -1    0    0    0  501  0.00000000000E+00  0.00000000000E+00  0.12679299139E+04  0.12679299139E+04  0.50400001928E-02 0.  1.
        1   -1    0    0  501    0  0.00000000000E+00  0.00000000000E+00 -0.30801946672E+04  0.30801946672E+04  0.50400001928E-02 0. -1.
    10030    2    1    2    0    0  0.00000000000E+00  0.00000000000E+00 -0.18122647533E+04  0.43481245811E+04  0.39524528886E+04 0.  0.
        3    1    3    3  502    0  0.16740461121E+03 -0.85309070505E+03  0.10462671456E+04  0.13603172442E+04  0.10100000352E+00 0.  1.
       -3    1    3    3    0  502 -0.16740461121E+03  0.85309070505E+03 -0.28585318989E+04  0.29878073368E+04  0.10100000352E+00 0. -1.
</event>
<event>
 5   0  0.5177000E-08  0.3701121E+04  0.7818609E-02  0.8067713E-01
       -1   -1    0    0    0  501  0.00000000000E+00  0.00000000000E+00  0.31414193815E+04  0.31414193815E+04  0.50400001928E-02 0. -1.
        1   -1    0    0  501    0  0.00000000000E+00  0.00000000000E+00 -0.10901361134E+04  0.10901361134E+04  0.50400001928E-02 0.  1.
    10030    2    1    2    0    0  0.00000000000E+00  0.00000000000E+00  0.20512832681E+04  0.42315554949E+04  0.37011212977E+04 0.  0.
        4    1    3    3  502    0 -0.11958606972E+04 -0.19884249930E+03  0.26242230750E+04  0.28907039812E+04  0.12699999809E+01 0. -1.
       -4    1    3    3    0  502  0.11958606972E+04  0.19884249930E+03 -0.57293980689E+03  0.13408515137E+04  0.12699999809E+01 0.  1.
</event>
<event>
 5   0  0.1558258E-07  0.3681978E+04  0.7818609E-02  0.8071968E-01
        2   -1    0    0  501    0  0.00000000000E+00  0.00000000000E+00  0.21701294319E+04  0.21701294319E+04  0.25500000920E-02 0.  1.
       -2   -1    0    0    0  501  0.00000000000E+00  0.00000000000E+00 -0.15617685251E+04  0.15617685251E+04  0.25500000920E-02 0. -1.
    10030    2    1    2    0    0  0.00000000000E+00  0.00000000000E+00  0.60836090681E+03  0.37318979570E+04  0.36819776437E+04 0.  0.
        1    1    3    3  502    0  0.18187204576E+04  0.27860625759E+03  0.36726817095E+03  0.18762333168E+04  0.50400001928E-02 0.  1.
       -1    1    3    3    0  502 -0.18187204576E+04 -0.27860625759E+03  0.24109273586E+03  0.18556646402E+04  0.50400001928E-02 0. -1.
</event>
<event>
 5   0  0.5177000E-08  0.3709139E+04  0.7818609E-02  0.8065940E-01
        1   -1    0    0  501    0  0.00000000000E+00  0.00000000000E+00  0.18161692905E+04  0.18161692905E+04  0.50400001928E-02 0. -1.
       -1   -1    0    0    0  501  0.00000000000E+00  0.00000000000E+00 -0.18937816396E+04  0.18937816397E+04  0.50400001928E-02 0.  1.
    10030    2    1    2    0    0  0.00000000000E+00  0.00000000000E+00 -0.77612349158E+02  0.37099509301E+04  0.37091390143E+04 0.  0.
        1    1    3    3  502    0 -0.92425066115E+03 -0.70054004997E+03  0.14087260140E+04  0.18246930231E+04  0.50400001928E-02 0. -1.
       -1    1    3    3    0  502  0.92425066115E+03  0.70054004997E+03 -0.14863383631E+04  0.18852579070E+04  0.50400001928E-02 0.  1.
</event>
<event>
 5   0  0.1666189E-07  0.3704582E+04  0.7818609E-02  0.8066947E-01
       -2   -1    0    0    0  501  0.00000000000E+00  0.00000000000E+00  0.30106365120E+04  0.30106365120E+04  0.25500000920E-02 0. -1.
        2   -1    0    0  501    0  0.00000000000E+00  0.00000000000E+00 -0.11396202044E+04  0.11396202044E+04  0.25500000920E-02 0.  1.
    10030    2    1    2    0    0  0.00000000000E+00  0.00000000000E+00  0.18710163076E+04  0.41502567163E+04  0.37045821341E+04 0.  0.
        4    1    3    3  502    0 -0.25523997369E+03 -0.37092213181E+03  0.29483947460E+04  0.29825767154E+04  0.12699999809E+01 0. -1.
       -4    1    3    3    0  502  0.25523997369E+03  0.37092213181E+03 -0.10773784385E+04  0.11676800009E+04  0.12699999809E+01 0.  1.
</event>
<event>
 5   0  0.1587026E-07  0.3677987E+04  0.7818609E-02  0.8072858E-01
       -2   -1    0    0    0  501  0.00000000000E+00  0.00000000000E+00  0.17948856521E+04  0.17948856521E+04  0.25500000920E-02 0. -1.
        2   -1    0    0  501    0  0.00000000000E+00  0.00000000000E+00 -0.18841849046E+04  0.18841849046E+04  0.25500000920E-02 0.  1.
    10030    2    1    2    0    0  0.00000000000E+00  0.00000000000E+00 -0.89299252460E+02  0.36790705568E+04  0.36779866510E+04 0.  0.
        3    1    3    3  502    0  0.47721723338E+02 -0.30099226541E+03 -0.18587503885E+04  0.18835675521E+04  0.10100000352E+00 0.  1.
       -3    1    3    3    0  502 -0.47721723338E+02  0.30099226541E+03  0.17694511360E+04  0.17955030046E+04  0.10100000352E+00 0. -1.
</event>
<event>
 5   0  0.1686284E-07  0.3697110E+04  0.7818609E-02  0.8068603E-01
        2   -1    0    0  501    0  0.00000000000E+00  0.00000000000E+00  0.30617131484E+04  0.30617131484E+04  0.25500000920E-02 0.  1.
       -2   -1    0    0    0  501  0.00000000000E+00  0.00000000000E+00 -0.11160925459E+04  0.11160925459E+04  0.25500000920E-02 0. -1.
    10030    2    1    2    0    0  0.00000000000E+00  0.00000000000E+00  0.19456206025E+04  0.41778056943E+04  0.36971098024E+04 0.  0.
        5    1    3    3  502    0  0.45056786158E+02 -0.17110839649E+04  0.17616372248E+04  0.24562626591E+04  0.46999998093E+01 0.  1.
       -5    1    3    3    0  502 -0.45056786158E+02  0.17110839649E+04  0.18398337765E+03  0.17215430352E+04  0.46999998093E+01 0. -1.
</event>
<event>
 5   0  0.5177000E-08  0.3693739E+04  0.7818609E-02  0.8069351E-01
       -1   -1    0    0    0  501  0.00000000000E+00  0.00000000000E+00  0.29328804755E+04  0.29328804755E+04  0.50400001928E-02 0.  1.
        1   -1    0    0  501    0  0.00000000000E+00  0.00000000000E+00 -0.11629952879E+04  0.11629952879E+04  0.50400001928E-02 0. -1.
    10030    2    1    2    0    0  0.00000000000E+00  0.00000000000E+00  0.17698851876E+04  0.40958757635E+04  0.36937385793E+04 0.  0.
        4    1    3    3  502    0 -0.63596715933E+03 -0.38875566200E+03  0.27586832763E+04  0.28576074301E+04  0.12699999809E+01 0.  1.
       -4    1    3    3    0  502  0.63596715933E+03  0.38875566200E+03 -0.98879808866E+03  0.12382683334E+04  0.12699999809E+01 0. -1.
</event>
<event>
 5   0  0.5177000E-08  0.3698147E+04  0.7818609E-02  0.8068373E-01
        1   -1    0    0  501    0  0.00000000000E+00  0.00000000000E+00  0.13469475897E+04  0.13469475897E+04  0.50400001928E-02 0.  1.
       -1   -1    0    0    0  501  0.00000000000E+00  0.00000000000E+00 -0.25383860462E+04  0.25383860463E+04  0.50400001928E-02 0. -1.
    10030    2    1    2    0    0  0.00000000000E+00  0.00000000000E+00 -0.11914384566E+04  0.38853336360E+04  0.36981470856E+04 0.  0.
        4    1    3    3  502    0  0.18939370094E+02 -0.14172742325E+04 -0.18432775005E+04  0.23252308502E+04  0.12699999809E+01 0. -1.
       -4    1    3    3    0  502 -0.18939370094E+02  0.14172742325E+04  0.65183904396E+03  0.15601027858E+04  0.12699999809E+01 0.  1.
</event>
<event>
 5   0  0.5177000E-08  0.3701063E+04  0.7818609E-02  0.8067726E-01
        1   -1    0    0  501    0  0.00000000000E+00  0.00000000000E+00  0.20620271551E+04  0.20620271551E+04  0.50400001928E-02 0. -1.
       -1   -1    0    0    0  501  0.00000000000E+00  0.00000000000E+00 -0.16607287314E+04  0.16607287315E+04  0.50400001928E-02 0.  1.
    10030    2    1    2    0    0  0.00000000000E+00  0.00000000000E+00  0.40129842363E+03  0.37227558865E+04  0.37010634912E+04 0.  0.
        1    1    3    3  502    0 -0.15657578439E+04  0.84218334618E+03 -0.31577729421E+03  0.18057091997E+04  0.50400001928E-02 0.  1.
       -1    1    3    3    0  502  0.15657578439E+04 -0.84218334618E+03  0.71707571784E+03  0.19170466868E+04  0.50400001928E-02 0. -1.
</event>
<event>
 5   0  0.1686284E-07  0.3686983E+04  0.7818609E-02  0.8070853E-01
        2   -1    0    0  501    0  0.00000000000E+00  0.00000000000E+00  0.18004964175E+04  0.18004964175E+04  0.25500000920E-02 0.  1.
       -2   -1    0    0    0  501  0.00000000000E+00  0.00000000000E+00 -0.18875130586E+04  0.18875130586E+04  0.25500000920E-02 0. -1.
    10030    2    1    2    0    0  0.00000000000E+00  0.00000000000E+00 -0.87016641081E+02  0.36880094760E+04  0.36869827772E+04 0.  0.
        5    1    3    3  502    0  0.21498282448E+02  0.21007272409E+03  0.17883524295E+04  0.18007829485E+04  0.46999998093E+01 0.  1.
       -5    1    3    3    0  502 -0.21498282448E+02 -0.21007272409E+03 -0.18753690705E+04  0.18872265276E+04  0.46999998093E+01 0. -1.
</event>
<event>
 5   0  0.1666189E-07  0.3751992E+04  0.7818609E-02  0.8056537E-01
        2   -1    0    0  501    0  0.00000000000E+00  0.00000000000E+00  0.18721655310E+04  0.18721655310E+04  0.25500000920E-02 0. -1.
       -2   -1    0    0    0  501  0.00000000000E+00  0.00000000000E+00 -0.18798340180E+04  0.18798340180E+04  0.25500000920E-02 0.  1.
    10030    2    1    2    0    0  0.00000000000E+00  0.00000000000E+00 -0.76684870092E+01  0.37519995489E+04  0.37519917123E+04 0.  0.
        4    1    3    3  502    0 -0.16233706498E+04  0.24634642120E+03  0.90354850533E+03  0.18741452292E+04  0.12699999809E+01 0. -1.
       -4    1    3    3    0  502  0.16233706498E+04 -0.24634642120E+03 -0.91121699234E+03  0.18778543197E+04  0.12699999809E+01 0.  1.
</event>
<event>
 5   0  0.1558258E-07  0.3711727E+04  0.7818609E-02  0.8065368E-01
        2   -1    0    0  501    0  0.00000000000E+00  0.00000000000E+00  0.24926195742E+04  0.24926195742E+04  0.25500000920E-02 0. -1.
       -2   -1    0    0    0  501  0.00000000000E+00  0.00000000000E+00 -0.13817710661E+04  0.13817710661E+04  0.25500000920E-02 0.  1.
    10030    2    1    2    0    0  0.00000000000E+00  0.00000000000E+00  0.11108485082E+04  0.38743906403E+04  0.37117271486E+04 0.  0.
        1    1    3    3  502    0 -0.28108681010E+03  0.17930068305E+04  0.96016204864E+03  0.20532399881E+04  0.50400001928E-02 0. -1.
       -1    1    3    3    0  502  0.28108681010E+03 -0.17930068305E+04  0.15068645951E+03  0.18211506522E+04  0.50400001928E-02 0.  1.
</event>
<event>
 5   0  0.1558258E-07  0.3695127E+04  0.7818609E-02  0.8069043E-01
        2   -1    0    0  501    0  0.00000000000E+00  0.00000000000E+00  0.27053306653E+04  0.27053306653E+04  0.25500000920E-02 0.  1.
       -2   -1    0    0    0  501  0.00000000000E+00  0.00000000000E+00 -0.12617649127E+04  0.12617649127E+04  0.25500000920E-02 0. -1.
    10030    2    1    2    0    0  0.00000000000E+00  0.00000000000E+00  0.14435657525E+04  0.39670955780E+04  0.36951272296E+04 0.  0.
        1    1    3    3  502    0 -0.12554818295E+04  0.12787416979E+04  0.23916765046E+03  0.18079314476E+04  0.50400001928E-02 0. -1.
       -1    1    3    3    0  502  0.12554818295E+04 -0.12787416979E+04  0.12043981021E+04  0.21591641305E+04  0.50400001928E-02 0.  1.
</event>
<event>
 5   0  0.5177000E-08  0.3734960E+04  0.7818609E-02  0.8060258E-01
        1   -1    0    0  501    0  0.00000000000E+00  0.00000000000E+00  0.13926267935E+04  0.13926267935E+04  0.50400001928E-02 0. -1.
       -1   -1    0    0    0  501  0.00000000000E+00  0.00000000000E+00 -0.25042467612E+04  0.25042467612E+04  0.50400001928E-02 0.  1.
    10030    2    1    2    0    0  0.00000000000E+00  0.00000000000E+00 -0.11116199678E+04  0.38968735547E+04  0.37349597787E+04 0.  0.
        2    1    3    3  502    0 -0.94495217370E+03 -0.25977268760E+03  0.11027781862E+04  0.14753088449E+04  0.25500000920E-02 0. -1.
       -2    1    3    3    0  502  0.94495217370E+03  0.25977268760E+03 -0.22143981539E+04  0.24215647098E+04  0.25500000920E-02 0.  1.
</event>
<event>
 5   0  0.5181371E-08  0.3695785E+04  0.7818609E-02  0.8068897E-01
       -1   -1    0    0    0  501  0.00000000000E+00  0.00000000000E+00  0.18423843884E+04  0.18423843884E+04  0.50400001928E-02 0. -1.
        1   -1    0    0  501    0  0.00000000000E+00  0.00000000000E+00 -0.18534170264E+04  0.18534170265E+04  0.50400001928E-02 0.  1.
    10030    2    1    2    0    0  0.00000000000E+00  0.00000000000E+00 -0.11032638008E+02  0.36958014149E+04  0.36957849476E+04 0.  0.
        5    1    3    3  502    0  0.50794666204E+03  0.17167583077E+04 -0.46313785729E+03  0.18492667908E+04  0.46999998093E+01 0.  1.
       -5    1    3    3    0  502 -0.50794666204E+03 -0.17167583077E+04  0.45210521928E+03  0.18465346241E+04  0.46999998093E+01 0. -1.
</event>
<event>
 5   0  0.1686284E-07  0.3677166E+04  0.7818609E-02  0.8073041E-01
        2   -1    0    0  501    0  0.00000000000E+00  0.00000000000E+00  0.19694445739E+04  0.19694445739E+04  0.25500000920E-02 0. -1.
       -2   -1    0    0    0  501  0.00000000000E+00  0.00000000000E+00 -0.17164167957E+04  0.17164167957E+04  0.25500000920E-02 0.  1.
    10030    2    1    2    0    0  0.00000000000E+00  0.00000000000E+00  0.25302777812E+03  0.36858613696E+04  0.36771661615E+04 0.  0.
        5    1    3    3  502    0  0.54851238436E+03 -0.37015442101E+03  0.18459375916E+04  0.19609660409E+04  0.46999998093E+01 0. -1.
       -5    1    3    3    0  502 -0.54851238436E+03  0.37015442101E+03 -0.15929098135E+04  0.17248953288E+04  0.46999998093E+01 0.  1.
</event>
<event>
 5   0  0.5177000E-08  0.3714779E+04  0.7818609E-02  0.8064695E-01
        1   -1    0    0  501    0  0.00000000000E+00  0.00000000000E+00  0.24204554108E+04  0.24204554108E+04  0.50400001928E-02 0. -1.
       -1   -1    0    0    0  501  0.00000000000E+00  0.00000000000E+00 -0.14253083999E+04  0.14253083999E+04  0.50400001928E-02 0.  1.
    10030    2    1    2    0    0  0.00000000000E+00  0.00000000000E+00  0.99514701093E+03  0.38457638107E+04  0.37147788244E+04 0.  0.
        4    1    3    3  502    0 -0.14830538103E+04 -0.38329904588E+03 -0.58995622713E+03  0.16414678571E+04  0.12699999809E+01 0.  1.
       -4    1    3    3    0  502  0.14830538103E+04  0.38329904588E+03  0.15851032381E+04  0.22042959536E+04  0.12699999809E+01 0. -1.
</event>
<event>
 5   0  0.1658770E-07  0.3724351E+04  0.7818609E-02  0.8062587E-01
        2   -1    0    0  501    0  0.00000000000E+00  0.00000000000E+00  0.20184674363E+04  0.20184674363E+04  0.25500000920E-02 0. -1.
       -2   -1    0    0    0  501  0.00000000000E+00  0.00000000000E+00 -0.17179855367E+04  0.17179855367E+04  0.25500000920E-02 0.  1.
    10030    2    1    2    0    0  0.00000000000E+00  0.00000000000E+00  0.30048189968E+03  0.37364529730E+04  0.37243511445E+04 0.  0.
        2    1    3    3  502    0  0.99071616618E+02  0.16983714521E+04 -0.60946270325E+03  0.18071318605E+04  0.25500000920E-02 0. -1.
       -2    1    3    3    0  502 -0.99071616618E+02 -0.16983714521E+04  0.90994460294E+03  0.19293211125E+04  0.25500000920E-02 0.  1.
</event>
<event>
 5   0  0.5177000E-08  0.3761108E+04  0.7818609E-02  0.8054553E-01
       -1   -1    0    0    0  501  0.00000000000E+00  0.00000000000E+00  0.19166733103E+04  0.19166733103E+04  0.50400001928E-02 0.  1.
        1   -1    0    0  501    0  0.00000000000E+00  0.00000000000E+00 -0.18451151355E+04  0.18451151355E+04  0.50400001928E-02 0. -1.
    10030    2    1    2    0    0  0.00000000000E+00  0.00000000000E+00  0.71558174797E+02  0.37617884458E+04  0.37611077807E+04 0.  0.
        1    1    3    3  502    0  0.68858023138E+03  0.87239911216E+03  0.15530440620E+04  0.19097562160E+04  0.50400001928E-02 0.  1.
       -1    1    3    3    0  502 -0.68858023138E+03 -0.87239911216E+03 -0.14814858872E+04  0.18520322298E+04  0.50400001928E-02 0. -1.
</event>
<event>
 5   0  0.1587026E-07  0.3709032E+04  0.7818609E-02  0.8065963E-01
       -2   -1    0    0    0  501  0.00000000000E+00  0.00000000000E+00  0.36642954387E+04  0.36642954387E+04  0.25500000920E-02 0. -1.
        2   -1    0    0  501    0  0.00000000000E+00  0.00000000000E+00 -0.93857856221E+03  0.93857856221E+03  0.25500000920E-02 0.  1.
    10030    2    1    2    0    0  0.00000000000E+00  0.00000000000E+00  0.27257168765E+04  0.46028740009E+04  0.37090317574E+04 0.  0.
        3    1    3    3  502    0 -0.62095296192E+02  0.11807237738E+04 -0.41018018070E+03  0.12514840177E+04  0.10100000352E+00 0.  1.
       -3    1    3    3    0  502  0.62095296192E+02 -0.11807237738E+04  0.31358970572E+04  0.33513899832E+04  0.10100000352E+00 0. -1.
</event>
<event>
 5   0  0.1686284E-07  0.3696086E+04  0.7818609E-02  0.8068830E-01
        2   -1    0    0  501    0  0.00000000000E+00  0.00000000000E+00  0.19619337711E+04  0.19619337711E+04  0.25500000920E-02 0.  1.
       -2   -1    0    0    0  501  0.00000000000E+00  0.00000000000E+00 -0.17407636764E+04  0.17407636764E+04  0.25500000920E-02 0. -1.
    10030    2    1    2    0    0  0.00000000000E+00  0.00000000000E+00  0.22117009475E+03  0.37026974475E+04  0.36960860619E+04 0.  0.
        5    1    3    3  502    0  0.88203693140E+03  0.65940245220E+03  0.15973017328E+04  0.19401535140E+04  0.46999998093E+01 0.  1.
       -5    1    3    3    0  502 -0.88203693140E+03 -0.65940245220E+03 -0.13761316381E+04  0.17625439335E+04  0.46999998093E+01 0. -1.
</event>
<event>
 5   0  0.5177000E-08  0.3695387E+04  0.7818609E-02  0.8068985E-01
        1   -1    0    0  501    0  0.00000000000E+00  0.00000000000E+00  0.16420445106E+04  0.16420445107E+04  0.50400001928E-02 0.  1.
       -1   -1    0    0    0  501  0.00000000000E+00  0.00000000000E+00 -0.20790983041E+04  0.20790983041E+04  0.50400001928E-02 0. -1.
    10030    2    1    2    0    0  0.00000000000E+00  0.00000000000E+00 -0.43705379345E+03  0.37211428148E+04  0.36953873721E+04 0.  0.
        1    1    3    3  502    0 -0.10799876666E+04  0.54062632150E+03 -0.16266009201E+04  0.20259518090E+04  0.50400001928E-02 0. -1.
       -1    1    3    3    0  502  0.10799876666E+04 -0.54062632150E+03  0.11895471266E+04  0.16951910057E+04  0.50400001928E-02 0.  1.
</event>
<event>
 5   0  0.5177000E-08  0.3694104E+04  0.7818609E-02  0.8069270E-01
        1   -1    0    0  501    0  0.00000000000E+00  0.00000000000E+00  0.15916849520E+04  0.15916849520E+04  0.50400001928E-02 0.  1.
       -1   -1    0    0    0  501  0.00000000000E+00  0.00000000000E+00 -0.21433902410E+04  0.21433902410E+04  0.50400001928E-02 0. -1.
    10030    2    1    2    0    0  0.00000000000E+00  0.00000000000E+00 -0.55170528901E+03  0.37350751929E+04  0.36941044884E+04 0.  0.
        4    1    3    3  502    0 -0.91816573752E+03  0.10499144066E+04  0.94846597015E+03  0.16866943683E+04  0.12699999809E+01 0.  1.
       -4    1    3    3    0  502  0.91816573752E+03 -0.10499144066E+04 -0.15001712592E+04  0.20483808246E+04  0.12699999809E+01 0. -1.
</event>
<event>
 5   0  0.5177000E-08  0.3699375E+04  0.7818609E-02  0.8068100E-01
        3   -1    0    0  501    0  0.00000000000E+00  0.00000000000E+00  0.19822040544E+04  0.19822040569E+04  0.10100000352E+00 0.  1.
       -3   -1    0    0    0  501  0.00000000000E+00  0.00000000000E+00 -0.17260304337E+04  0.17260304367E+04  0.10100000352E+00 0. -1.
    10030    2    1    2    0    0  0.00000000000E+00  0.00000000000E+00  0.25617362065E+03  0.37082344936E+04  0.36993753710E+04 0.  0.
        3    1    3    3  502    0 -0.11327782251E+04  0.10476905745E+03 -0.13338919329E+04  0.17531202930E+04  0.10100000352E+00 0. -1.
       -3    1    3    3    0  502  0.11327782251E+04 -0.10476905745E+03  0.15900655536E+04  0.19551142006E+04  0.10100000352E+00 0.  1.
</event>
<event>
 5   0  0.5181371E-08  0.3705572E+04  0.7818609E-02  0.8066728E-01
       -1   -1    0    0    0  501  0.00000000000E+00  0.00000000000E+00  0.28005084901E+04  0.28005084901E+04  0.50400001928E-02 0.  1.
        1   -1    0    0  501    0  0.00000000000E+00  0.00000000000E+00 -0.12257828394E+04  0.12257828394E+04  0.50400001928E-02 0. -1.
    10030    2    1    2    0    0  0.00000000000E+00  0.00000000000E+00  0.15747256507E+04  0.40262913295E+04  0.37055716151E+04 0.  0.
        5    1    3    3  502    0 -0.45072393634E+03  0.17805778275E+04  0.52303005195E+03  0.19097622867E+04  0.46999998093E+01 0. -1.
       -5    1    3    3    0  502  0.45072393634E+03 -0.17805778275E+04  0.10516955988E+04  0.21165290428E+04  0.46999998093E+01 0.  1.
</event>
<event>
 5   0  0.1686284E-07  0.3690601E+04  0.7818609E-02  0.8070048E-01
        2   -1    0    0  501    0  0.00000000000E+00  0.00000000000E+00  0.18909564384E+04  0.18909564384E+04  0.25500000920E-02 0.  1.
       -2   -1    0    0    0  501  0.00000000000E+00  0.00000000000E+00 -0.18007471206E+04  0.18007471206E+04  0.25500000920E-02 0. -1.
    10030    2    1    2    0    0  0.00000000000E+00  0.00000000000E+00  0.90209317711E+02  0.36917035590E+04  0.36906012310E+04 0.  0.
        5    1    3    3  502    0 -0.13379866007E+04  0.78751714506E+03  0.10427594988E+04  0.18702301623E+04  0.46999998093E+01 0.  1.
       -5    1    3    3    0  502  0.13379866007E+04 -0.78751714506E+03 -0.95255018112E+03  0.18214733967E+04  0.46999998093E+01 0. -1.
</event>
<event>
 5   0  0.1686284E-07  0.3703584E+04  0.7818609E-02  0.8067168E-01
        2   -1    0    0  501    0  0.00000000000E+00  0.00000000000E+00  0.28166487390E+04  0.28166487390E+04  0.25500000920E-02 0. -1.
       -2   -1    0    0    0  501  0.00000000000E+00  0.00000000000E+00 -0.12174515317E+04  0.12174515317E+04  0.25500000920E-02 0.  1.
    10030    2    1    2    0    0  0.00000000000E+00  0.00000000000E+00  0.15991972073E+04  0.40341002707E+04  0.37035838435E+04 0.  0.
        5    1    3    3  502    0  0.65923075835E+03  0.16357065162E+04  0.18440303304E+03  0.17731744326E+04  0.46999998093E+01 0. -1.
       -5    1    3    3    0  502 -0.65923075835E+03 -0.16357065162E+04  0.14147941743E+04  0.22609258381E+04  0.46999998093E+01 0.  1.
</event>
<event>
 5   0  0.1587026E-07  0.3713457E+04  0.7818609E-02  0.8064986E-01
        2   -1    0    0  501    0  0.00000000000E+00  0.00000000000E+00  0.10729167632E+04  0.10729167632E+04  0.25500000920E-02 0.  1.
       -2   -1    0    0    0  501  0.00000000000E+00  0.00000000000E+00 -0.32131487821E+04  0.32131487821E+04  0.25500000920E-02 0. -1.
    10030    2    1    2    0    0  0.00000000000E+00  0.00000000000E+00 -0.21402320189E+04  0.42860655453E+04  0.37134572522E+04 0.  0.
        3    1    3    3  502    0 -0.88814950486E+03 -0.78199590418E+00  0.81183976656E+03  0.12032846593E+04  0.10100000352E+00 0.  1.
       -3    1    3    3    0  502  0.88814950486E+03  0.78199590418E+00 -0.29520717854E+04  0.30827808860E+04  0.10100000352E+00 0. -1.
</event>
<event>
 5   0  0.1686284E-07  0.3696165E+04  0.7818609E-02  0.8068812E-01
       -2   -1    0    0    0  501  0.00000000000E+00  0.00000000000E+00  0.22186772160E+04  0.22186772160E+04  0.25500000920E-02 0.  1.
        2   -1    0    0  501    0  0.00000000000E+00  0.00000000000E+00 -0.15393894491E+04  0.15393894491E+04  0.25500000920E-02 0. -1.
    10030    2    1    2    0    0  0.00000000000E+00  0.00000000000E+00  0.67928776691E+03  0.37580666651E+04  0.36961646594E+04 0.  0.
        5    1    3    3  502    0  0.17766078893E+03 -0.45808170446E+02 -0.15301006803E+04  0.15410684366E+04  0.46999998093E+01 0. -1.
       -5    1    3    3    0  502 -0.17766078893E+03  0.45808170446E+02  0.22093884472E+04  0.22169982285E+04  0.46999998093E+01 0.  1.
</event>
<event>
 5   0  0.5177000E-08  0.3682266E+04  0.7818609E-02  0.8071903E-01
        1   -1    0    0  501    0  0.00000000000E+00  0.00000000000E+00  0.14571893428E+04  0.14571893428E+04  0.50400001928E-02 0.  1.
       -1   -1    0    0    0  501  0.00000000000E+00  0.00000000000E+00 -0.23262388220E+04  0.23262388220E+04  0.50400001928E-02 0. -1.
    10030    2    1    2    0    0  0.00000000000E+00  0.00000000000E+00 -0.86904947921E+03  0.37834281649E+04  0.36822658352E+04 0.  0.
        2    1    3    3  502    0 -0.15203228492E+04 -0.33642996872E+03 -0.14439632053E+04  0.21235810387E+04  0.25500000920E-02 0. -1.
       -2    1    3    3    0  502  0.15203228492E+04  0.33642996872E+03  0.57491372606E+03  0.16598471262E+04  0.25500000920E-02 0.  1.
</event>
<event>
 5   0  0.1587026E-07  0.3684656E+04  0.7818609E-02  0.8071371E-01
       -2   -1    0    0    0  501  0.00000000000E+00  0.00000000000E+00  0.11733819049E+04  0.11733819049E+04  0.25500000920E-02 0. -1.
        2   -1    0    0  501    0  0.00000000000E+00  0.00000000000E+00 -0.28926409402E+04  0.28926409402E+04  0.25500000920E-02 0.  1.
    10030    2    1    2    0    0  0.00000000000E+00  0.00000000000E+00 -0.17192590353E+04  0.40660228450E+04  0.36846560417E+04 0.  0.
        3    1    3    3  502    0 -0.13134429706E+03 -0.17606679776E+03 -0.28781387817E+04  0.28865089119E+04  0.10100000352E+00 0.  1.
       -3    1    3    3    0  502  0.13134429706E+03  0.17606679776E+03  0.11588797464E+04  0.11795139331E+04  0.10100000352E+00 0. -1.
</event>
<event>
 5   0  0.1666189E-07  0.3700727E+04  0.7818609E-02  0.8067801E-01
        2   -1    0    0  501    0  0.00000000000E+00  0.00000000000E+00  0.17941725326E+04  0.17941725326E+04  0.25500000920E-02 0. -1.
       -2   -1    0    0    0  501  0.00000000000E+00  0.00000000000E+00 -0.19083145518E+04  0.19083145518E+04  0.25500000920E-02 0.  1.
    10030    2    1    2    0    0  0.00000000000E+00  0.00000000000E+00 -0.11414201919E+03  0.37024870843E+04  0.37007272541E+04 0.  0.
        4    1    3    3  502    0  0.96190738012E+03  0.30246644940E+03 -0.16092894357E+04  0.18990960644E+04  0.12699999809E+01 0.  1.
       -4    1    3    3    0  502 -0.96190738012E+03 -0.30246644940E+03  0.14951474165E+04  0.18033910200E+04  0.12699999809E+01 0. -1.
</event>
<event>
 5   0  0.1587026E-07  0.3734615E+04  0.7818609E-02  0.8060334E-01
       -2   -1    0    0    0  501  0.00000000000E+00  0.00000000000E+00  0.20764328672E+04  0.20764328672E+04  0.25500000920E-02 0. -1.
        2   -1    0    0  501    0  0.00000000000E+00  0.00000000000E+00 -0.16792438480E+04  0.16792438480E+04  0.25500000920E-02 0.  1.
    10030    2    1    2    0    0  0.00000000000E+00  0.00000000000E+00  0.39718901919E+03  0.37556767153E+04  0.37346149028E+04 0.  0.
        3    1    3    3  502    0 -0.12906259469E+04  0.13405908089E+04  0.35418635017E+03  0.18942932805E+04  0.10100000352E+00 0.  1.
       -3    1    3    3    0  502  0.12906259469E+04 -0.13405908089E+04  0.43002669026E+02  0.18613834348E+04  0.10100000352E+00 0. -1.
</event>
<event>
 5   0  0.5177000E-08  0.3703918E+04  0.7818609E-02  0.8067094E-01
        1   -1    0    0  501    0  0.00000000000E+00  0.00000000000E+00  0.16957036802E+04  0.16957036802E+04  0.50400001928E-02 0.  1.
       -1   -1    0    0    0  501  0.00000000000E+00  0.00000000000E+00 -0.20226125576E+04  0.20226125576E+04  0.50400001928E-02 0. -1.
    10030    2    1    2    0    0  0.00000000000E+00  0.00000000000E+00 -0.32690887744E+03  0.37183162378E+04  0.37039176867E+04 0.  0.
        2    1    3    3  502    0  0.10421276726E+04  0.14394769279E+03 -0.16935186298E+04  0.19936791050E+04  0.25500000920E-02 0. -1.
       -2    1    3    3    0  502 -0.10421276726E+04 -0.14394769279E+03  0.13666097524E+04  0.17246371327E+04  0.25500000920E-02 0.  1.
</event>
<event>
 5   0  0.1658770E-07  0.3662435E+04  0.7818609E-02  0.8076338E-01
       -2   -1    0    0    0  501  0.00000000000E+00  0.00000000000E+00  0.15811534908E+04  0.15811534908E+04  0.25500000920E-02 0. -1.
        2   -1    0    0  501    0  0.00000000000E+00  0.00000000000E+00 -0.21208293750E+04  0.21208293750E+04  0.25500000920E-02 0.  1.
    10030    2    1    2    0    0  0.00000000000E+00  0.00000000000E+00 -0.53967588418E+03  0.37019828658E+04  0.36624345836E+04 0.  0.
        2    1    3    3  502    0  0.85026280826E+03  0.15726556163E+03 -0.19014798708E+04  0.20888525556E+04  0.25500000920E-02 0.  1.
       -2    1    3    3    0  502 -0.85026280826E+03 -0.15726556163E+03  0.13618039866E+04  0.16131303103E+04  0.25500000920E-02 0. -1.
</event>
<event>
 5   0  0.5177000E-08  0.3700280E+04  0.7818609E-02  0.8067900E-01
        1   -1    0    0  501    0  0.00000000000E+00  0.00000000000E+00  0.22617351324E+04  0.22617351324E+04  0.50400001928E-02 0.  1.
       -1   -1    0    0    0  501  0.00000000000E+00  0.00000000000E+00 -0.15134479052E+04  0.15134479052E+04  0.50400001928E-02 0. -1.
    10030    2    1    2    0    0  0.00000000000E+00  0.00000000000E+00  0.74828722717E+03  0.37751830377E+04  0.37002801507E+04 0.  0.
        4    1    3    3  502    0  0.20417506318E+03  0.17866580148E+04 -0.69611871854E+02  0.17996337805E+04  0.12699999809E+01 0. -1.
       -4    1    3    3    0  502 -0.20417506318E+03 -0.17866580148E+04  0.81789909902E+03  0.19755492571E+04  0.12699999809E+01 0.  1.
</event>
<event>
 5   0  0.5177000E-08  0.3709328E+04  0.7818609E-02  0.8065898E-01
       -1   -1    0    0    0  501  0.00000000000E+00  0.00000000000E+00  0.33383380913E+04  0.33383380913E+04  0.50400001928E-02 0. -1.
        1   -1    0    0  501    0  0.00000000000E+00  0.00000000000E+00 -0.10303867597E+04  0.10303867597E+04  0.50400001928E-02 0.  1.
    10030    2    1    2    0    0  0.00000000000E+00  0.00000000000E+00  0.23079513316E+04  0.43687248510E+04  0.37093284399E+04 0.  0.
        4    1    3    3  502    0  0.53111066610E+03 -0.86411282920E+03  0.29827442417E+04  0.31504816053E+04  0.12699999809E+01 0. -1.
       -4    1    3    3    0  502 -0.53111066610E+03  0.86411282920E+03 -0.67479291010E+03  0.12182432457E+04  0.12699999809E+01 0.  1.
</event>
<event>
 5   0  0.1666189E-07  0.3710012E+04  0.7818609E-02  0.8065747E-01
        2   -1    0    0  501    0  0.00000000000E+00  0.00000000000E+00  0.21511019126E+04  0.21511019126E+04  0.25500000920E-02 0.  1.
       -2   -1    0    0    0  501  0.00000000000E+00  0.00000000000E+00 -0.15996675559E+04  0.15996675559E+04  0.25500000920E-02 0. -1.
    10030    2    1    2    0    0  0.00000000000E+00  0.00000000000E+00  0.55143435671E+03  0.37507694686E+04  0.37100123661E+04 0.  0.
        4    1    3    3  502    0  0.51545716026E+03 -0.16774173333E+04  0.88367301986E+03  0.19647657909E+04  0.12699999809E+01 0. -1.
       -4    1    3    3    0  502 -0.51545716026E+03  0.16774173333E+04 -0.33223866316E+03  0.17860036776E+04  0.12699999809E+01 0.  1.
</event>
<event>
 5   0  0.5177000E-08  0.3699767E+04  0.7818609E-02  0.8068013E-01
        1   -1    0    0  501    0  0.00000000000E+00  0.00000000000E+00  0.10830990523E+04  0.10830990523E+04  0.50400001928E-02 0. -1.
       -1   -1    0    0    0  501  0.00000000000E+00  0.00000000000E+00 -0.31595161985E+04  0.31595161985E+04  0.50400001928E-02 0.  1.
    10030    2    1    2    0    0  0.00000000000E+00  0.00000000000E+00 -0.20764171462E+04  0.42426152509E+04  0.36997670199E+04 0.  0.
        3    1    3    3  502    0 -0.85700293602E+03 -0.60522325463E+03  0.70892760639E+03  0.12662257230E+04  0.10100000352E+00 0. -1.
       -3    1    3    3    0  502  0.85700293602E+03  0.60522325463E+03 -0.27853447526E+04  0.29763895278E+04  0.10100000352E+00 0.  1.
</event>
<event>
 5   0  0.5177000E-08  0.3689929E+04  0.7818609E-02  0.8070197E-01
       -1   -1    0    0    0  501  0.00000000000E+00  0.00000000000E+00  0.15286264099E+04  0.15286264099E+04  0.50400001928E-02 0. -1.
        1   -1    0    0  501    0  0.00000000000E+00  0.00000000000E+00 -0.22267659115E+04  0.22267659115E+04  0.50400001928E-02 0.  1.
    10030    2    1    2    0    0  0.00000000000E+00  0.00000000000E+00 -0.69813950153E+03  0.37553923214E+04  0.36899285527E+04 0.  0.
        2    1    3    3  502    0 -0.88890323253E+03 -0.82386354953E+03  0.10666492618E+04  0.16145094465E+04  0.25500000920E-02 0. -1.
       -2    1    3    3    0  502  0.88890323253E+03  0.82386354953E+03 -0.17647887633E+04  0.21408828749E+04  0.25500000920E-02 0.  1.
</event>
<event>
 5   0  0.1558258E-07  0.3685962E+04  0.7818609E-02  0.8071080E-01
       -2   -1    0    0    0  501  0.00000000000E+00  0.00000000000E+00  0.16362280432E+04  0.16362280432E+04  0.25500000920E-02 0. -1.
        2   -1    0    0  501    0  0.00000000000E+00  0.00000000000E+00 -0.20758589856E+04  0.20758589857E+04  0.25500000920E-02 0.  1.
    10030    2    1    2    0    0  0.00000000000E+00  0.00000000000E+00 -0.43963094243E+03  0.37120870289E+04  0.36859618479E+04 0.  0.
        1    1    3    3  502    0  0.41587647562E+03  0.91415946912E+03 -0.17760635521E+04  0.20403535279E+04  0.50400001928E-02 0.  1.
       -1    1    3    3    0  502 -0.41587647562E+03 -0.91415946912E+03  0.13364326096E+04  0.16717335009E+04  0.50400001928E-02 0. -1.
</event>
<event>
 5   0  0.1587026E-07  0.3699804E+04  0.7818609E-02  0.8068005E-01
       -2   -1    0    0    0  501  0.00000000000E+00  0.00000000000E+00  0.11776467075E+04  0.11776467075E+04  0.25500000920E-02 0. -1.
        2   -1    0    0  501    0  0.00000000000E+00  0.00000000000E+00 -0.29059112767E+04  0.29059112767E+04  0.25500000920E-02 0.  1.
    10030    2    1    2    0    0  0.00000000000E+00  0.00000000000E+00 -0.17282645692E+04  0.40835579843E+04  0.36998036961E+04 0.  0.
        3    1    3    3  502    0  0.12236054045E+04  0.35711449821E+03 -0.23438603688E+04  0.26680371792E+04  0.10100000352E+00 0.  1.
       -3    1    3    3    0  502 -0.12236054045E+04 -0.35711449821E+03  0.61559579961E+03  0.14155208050E+04  0.10100000352E+00 0. -1.
</event>
<event>
 5   0  0.1666189E-07  0.3516173E+04  0.7818609E-02  0.8109968E-01
       -2   -1    0    0    0  501  0.00000000000E+00  0.00000000000E+00  0.10680931532E+04  0.10680931532E+04  0.25500000920E-02 0. -1.
        2   -1    0    0  501    0  0.00000000000E+00  0.00000000000E+00 -0.28938183476E+04  0.28938183476E+04  0.25500000920E-02 0.  1.
    10030    2    1    2    0    0  0.00000000000E+00  0.00000000000E+00 -0.18257251944E+04  0.39619115009E+04  0.35161726714E+04 0.  0.
        4    1    3    3  502    0 -0.24887634069E+03  0.28401794296E+03  0.10218545922E+04  0.10894007735E+04  0.12699999809E+01 0. -1.
       -4    1    3    3    0  502  0.24887634069E+03 -0.28401794296E+03 -0.28475797866E+04  0.28725107273E+04  0.12699999809E+01 0.  1.
</event>
<event>
 5   0  0.5177000E-08  0.3693510E+04  0.7818609E-02  0.8069402E-01
        1   -1    0    0  501    0  0.00000000000E+00  0.00000000000E+00  0.31957317214E+04  0.31957317214E+04  0.50400001928E-02 0. -1.
       -1   -1    0    0    0  501  0.00000000000E+00  0.00000000000E+00 -0.10672061560E+04  0.10672061560E+04  0.50400001928E-02 0.  1.
    10030    2    1    2    0    0  0.00000000000E+00  0.00000000000E+00  0.21285255654E+04  0.42629378774E+04  0.36935102902E+04 0.  0.
        1    1    3    3  502    0  0.86515567250E+00 -0.94396809266E+03 -0.76771697773E+03  0.12167439609E+04  0.50400001928E-02 0.  1.
       -1    1    3    3    0  502 -0.86515567250E+00  0.94396809266E+03  0.28962425431E+04  0.30461939165E+04  0.50400001928E-02 0. -1.
</event>
<event>
 5   0  0.1666189E-07  0.3693517E+04  0.7818609E-02  0.8069400E-01
       -2   -1    0    0    0  501  0.00000000000E+00  0.00000000000E+00  0.25235341762E+04  0.25235341762E+04  0.25500000920E-02 0. -1.
        2   -1    0    0  501    0  0.00000000000E+00  0.00000000000E+00 -0.13514840250E+04  0.13514840250E+04  0.25500000920E-02 0.  1.
    10030    2    1    2    0    0  0.00000000000E+00  0.00000000000E+00  0.11720501512E+04  0.38750182012E+04  0.36935165496E+04 0.  0.
        4    1    3    3  502    0 -0.20290925246E+03  0.17145835965E+04  0.12736288521E+04  0.21454838941E+04  0.12699999809E+01 0. -1.
       -4    1    3    3    0  502  0.20290925246E+03 -0.17145835965E+04 -0.10157870084E+03  0.17295343071E+04  0.12699999809E+01 0.  1.
</event>
<event>
 5   0  0.5177000E-08  0.3745778E+04  0.7818609E-02  0.8057892E-01
       -1   -1    0    0    0  501  0.00000000000E+00  0.00000000000E+00  0.12716133751E+04  0.12716133751E+04  0.50400001928E-02 0. -1.
        1   -1    0    0  501    0  0.00000000000E+00  0.00000000000E+00 -0.27584748729E+04  0.27584748729E+04  0.50400001928E-02 0.  1.
    10030    2    1    2    0    0  0.00000000000E+00  0.00000000000E+00 -0.14868614978E+04  0.40300882480E+04  0.37457781799E+04 0.  0.
        3    1    3    3  502    0 -0.60430544715E+03 -0.48446806948E+03  0.10912318043E+04  0.13381633849E+04  0.10100000352E+00 0. -1.
       -3    1    3    3    0  502  0.60430544715E+03  0.48446806948E+03 -0.25780933021E+04  0.26919248631E+04  0.10100000352E+00 0.  1.
</event>
<event>
 5   0  0.1587026E-07  0.3694247E+04  0.7818609E-02  0.8069238E-01
        2   -1    0    0  501    0  0.00000000000E+00  0.00000000000E+00  0.22766635541E+04  0.22766635541E+04  0.25500000920E-02 0. -1.
       -2   -1    0    0    0  501  0.00000000000E+00  0.00000000000E+00 -0.14986251995E+04  0.14986251995E+04  0.25500000920E-02 0.  1.
    10030    2    1    2    0    0  0.00000000000E+00  0.00000000000E+00  0.77803835463E+03  0.37752887536E+04  0.36942470805E+04 0.  0.
        3    1    3    3  502    0 -0.94916694099E+03  0.10072650528E+04 -0.86107561914E+03  0.16300159510E+04  0.10100000352E+00 0.  1.
       -3    1    3    3    0  502  0.94916694099E+03 -0.10072650528E+04  0.16391139738E+04  0.21452728026E+04  0.10100000352E+00 0. -1.
</event>
<event>
 5   0  0.1587026E-07  0.3684970E+04  0.7818609E-02  0.8071301E-01
       -2   -1    0    0    0  501  0.00000000000E+00  0.00000000000E+00  0.14739224557E+04  0.14739224557E+04  0.25500000920E-02 0. -1.
        2   -1    0    0  501    0  0.00000000000E+00  0.00000000000E+00 -0.23032083253E+04  0.23032083254E+04  0.25500000920E-02 0.  1.
    10030    2    1    2    0    0  0.00000000000E+00  0.00000000000E+00 -0.82928586964E+03  0.37771307811E+04  0.36849697263E+04 0.  0.
        3    1    3    3  502    0 -0.82133026498E+03 -0.36557036036E+03  0.12338476427E+04  0.15266319491E+04  0.10100000352E+00 0. -1.
       -3    1    3    3    0  502  0.82133026498E+03  0.36557036036E+03 -0.20631335123E+04  0.22504988319E+04  0.10100000352E+00 0.  1.
</event>
<event>
 5   0  0.5177000E-08  0.3687051E+04  0.7818609E-02  0.8070838E-01
        1   -1    0    0  501    0  0.00000000000E+00  0.00000000000E+00  0.15550700320E+04  0.15550700320E+04  0.50400001928E-02 0.  1.
       -1   -1    0    0    0  501  0.00000000000E+00  0.00000000000E+00 -0.21854876785E+04  0.21854876785E+04  0.50400001928E-02 0. -1.
    10030    2    1    2    0    0  0.00000000000E+00  0.00000000000E+00 -0.63041764643E+03  0.37405577105E+04  0.36870510678E+04 0.  0.
        1    1    3    3  502    0  0.65625104156E+03 -0.17227653229E+04 -0.31441861166E+03  0.18701456764E+04  0.50400001928E-02 0.  1.
       -1    1    3    3    0  502 -0.65625104156E+03  0.17227653229E+04 -0.31599903476E+03  0.18704120341E+04  0.50400001928E-02 0. -1.
</event>
<event>
 5   0  0.5177000E-08  0.3709085E+04  0.7818609E-02  0.8065951E-01
       -1   -1    0    0    0  501  0.00000000000E+00  0.00000000000E+00  0.15459627155E+04  0.15459627156E+04  0.50400001928E-02 0. -1.
        1   -1    0    0  501    0  0.00000000000E+00  0.00000000000E+00 -0.22247157577E+04  0.22247157577E+04  0.50400001928E-02 0.  1.
    10030    2    1    2    0    0  0.00000000000E+00  0.00000000000E+00 -0.67875304219E+03  0.37706784733E+04  0.37090848543E+04 0.  0.
        1    1    3    3  502    0  0.16756371233E+04  0.37381341974E+03 -0.10523294318E+04  0.20136766063E+04  0.50400001928E-02 0.  1.
       -1    1    3    3    0  502 -0.16756371233E+04 -0.37381341974E+03  0.37357638958E+03  0.17570018670E+04  0.50400001928E-02 0. -1.
</event>
<event>
 5   0  0.1558258E-07  0.3698445E+04  0.7818609E-02  0.8068307E-01
       -2   -1    0    0    0  501  0.00000000000E+00  0.00000000000E+00  0.13208257778E+04  0.13208257778E+04  0.25500000920E-02 0.  1.
        2   -1    0    0  501    0  0.00000000000E+00  0.00000000000E+00 -0.25890040790E+04  0.25890040790E+04  0.25500000920E-02 0. -1.
    10030    2    1    2    0    0  0.00000000000E+00  0.00000000000E+00 -0.12681783012E+04  0.39098298569E+04  0.36984447145E+04 0.  0.
        1    1    3    3  502    0  0.86860486160E+03  0.40035791636E+03  0.10390446374E+04  0.14122232916E+04  0.50400001928E-02 0.  1.
       -1    1    3    3    0  502 -0.86860486160E+03 -0.40035791636E+03 -0.23072229386E+04  0.24976065653E+04  0.50400001928E-02 0. -1.
</event>
<event>
 5   0  0.5177000E-08  0.3702760E+04  0.7818609E-02  0.8067351E-01
       -1   -1    0    0    0  501  0.00000000000E+00  0.00000000000E+00  0.14700193161E+04  0.14700193161E+04  0.50400001928E-02 0. -1.
        1   -1    0    0  501    0  0.00000000000E+00  0.00000000000E+00 -0.23316748120E+04  0.23316748120E+04  0.50400001928E-02 0.  1.
    10030    2    1    2    0    0  0.00000000000E+00  0.00000000000E+00 -0.86165549593E+03  0.38016941281E+04  0.37027595182E+04 0.  0.
        4    1    3    3  502    0  0.13116977735E+02  0.84717581579E+03  0.12592800005E+04  0.15177834663E+04  0.12699999809E+01 0. -1.
       -4    1    3    3    0  502 -0.13116977735E+02 -0.84717581579E+03 -0.21209354965E+04  0.22839106618E+04  0.12699999809E+01 0.  1.
</event>
<event>
 5   0  0.1686284E-07  0.3674462E+04  0.7818609E-02  0.8073645E-01
       -2   -1    0    0    0  501  0.00000000000E+00  0.00000000000E+00  0.16869222317E+04  0.16869222317E+04  0.25500000920E-02 0.  1.
        2   -1    0    0  501    0  0.00000000000E+00  0.00000000000E+00 -0.20009327239E+04  0.20009327239E+04  0.25500000920E-02 0. -1.
    10030    2    1    2    0    0  0.00000000000E+00  0.00000000000E+00 -0.31401049212E+03  0.36878549556E+04  0.36744620809E+04 0.  0.
        5    1    3    3  502    0 -0.53325742766E+03 -0.56713214131E+03  0.15132098037E+04  0.17017133571E+04  0.46999998093E+01 0.  1.
       -5    1    3    3    0  502  0.53325742766E+03  0.56713214131E+03 -0.18272202958E+04  0.19861415985E+04  0.46999998093E+01 0. -1.
</event>
<event>
 5   0  0.5177000E-08  0.3697309E+04  0.7818609E-02  0.8068558E-01
        1   -1    0    0  501    0  0.00000000000E+00  0.00000000000E+00  0.22273575958E+04  0.22273575958E+04  0.50400001928E-02 0.  1.
       -1   -1    0    0    0  501  0.00000000000E+00  0.00000000000E+00 -0.15343400620E+04  0.15343400620E+04  0.50400001928E-02 0. -1.
    10030    2    1    2    0    0  0.00000000000E+00  0.00000000000E+00  0.69301753378E+03  0.37616976578E+04  0.36973092874E+04 0.  0.
        2    1    3    3  502    0  0.14411297380E+04  0.11390439913E+04  0.13492595008E+03  0.18418689280E+04  0.25500000920E-02 0.  1.
       -2    1    3    3    0  502 -0.14411297380E+04 -0.11390439913E+04  0.55809158370E+03  0.19198287298E+04  0.25500000920E-02 0. -1.
</event>
<event>
 5   0  0.5181371E-08  0.3699562E+04  0.7818609E-02  0.8068059E-01
       -1   -1    0    0    0  501  0.00000000000E+00  0.00000000000E+00  0.14988807700E+04  0.14988807701E+04  0.50400001928E-02 0.  1.
        1   -1    0    0  501    0  0.00000000000E+00  0.00000000000E+00 -0.22828302394E+04  0.22828302394E+04  0.50400001928E-02 0. -1.
    10030    2    1    2    0    0  0.00000000000E+00  0.00000000000E+00 -0.78394946934E+03  0.37817110094E+04  0.36995623239E+04 0.  0.
        5    1    3    3  502    0 -0.17474706371E+04  0.60087331053E+03 -0.30665953186E+03  0.18731696457E+04  0.46999998093E+01 0.  1.
       -5    1    3    3    0  502  0.17474706371E+04 -0.60087331053E+03 -0.47728993748E+03  0.19085413638E+04  0.46999998093E+01 0. -1.
</event>
<event>
 5   0  0.5177000E-08  0.3706929E+04  0.7818609E-02  0.8066428E-01
       -1   -1    0    0    0  501  0.00000000000E+00  0.00000000000E+00  0.13847679448E+04  0.13847679448E+04  0.50400001928E-02 0.  1.
        1   -1    0    0  501    0  0.00000000000E+00  0.00000000000E+00 -0.24807993128E+04  0.24807993129E+04  0.50400001928E-02 0. -1.
    10030    2    1    2    0    0  0.00000000000E+00  0.00000000000E+00 -0.10960313680E+04  0.38655672577E+04  0.37069293848E+04 0.  0.
        1    1    3    3  502    0 -0.58097776121E+03 -0.10118918186E+04 -0.20497385947E+04  0.23585776473E+04  0.50400001928E-02 0. -1.
       -1    1    3    3    0  502  0.58097776121E+03  0.10118918186E+04  0.95370722667E+03  0.15069896104E+04  0.50400001928E-02 0.  1.
</event>
<event>
 5   0  0.1686284E-07  0.3685278E+04  0.7818609E-02  0.8071232E-01
        2   -1    0    0  501    0  0.00000000000E+00  0.00000000000E+00  0.26574062712E+04  0.26574062712E+04  0.25500000920E-02 0.  1.
       -2   -1    0    0    0  501  0.00000000000E+00  0.00000000000E+00 -0.12776811348E+04  0.12776811348E+04  0.25500000920E-02 0. -1.
    10030    2    1    2    0    0  0.00000000000E+00  0.00000000000E+00  0.13797251364E+04  0.39350874060E+04  0.36852776613E+04 0.  0.
        5    1    3    3  502    0  0.11296476354E+04 -0.74972916623E+03  0.20222857053E+04  0.24347195253E+04  0.46999998093E+01 0.  1.
       -5    1    3    3    0  502 -0.11296476354E+04  0.74972916623E+03 -0.64256056888E+03  0.15003678807E+04  0.46999998093E+01 0. -1.
</event>
<event>
 5   0  0.5177000E-08  0.3737221E+04  0.7818609E-02  0.8059763E-01
       -1   -1    0    0    0  501  0.00000000000E+00  0.00000000000E+00  0.13355535035E+04  0.13355535035E+04  0.50400001928E-02 0. -1.
        1   -1    0    0  501    0  0.00000000000E+00  0.00000000000E+00 -0.26144250753E+04  0.26144250753E+04  0.50400001928E-02 0.  1.
    10030    2    1    2    0    0  0.00000000000E+00  0.00000000000E+00 -0.12788715718E+04  0.39499785788E+04  0.37372206619E+04 0.  0.
        2    1    3    3  502    0 -0.14312633103E+04  0.10894523814E+04 -0.10437114794E+03  0.18017531716E+04  0.25500000920E-02 0. -1.
       -2    1    3    3    0  502  0.14312633103E+04 -0.10894523814E+04 -0.11745004239E+04  0.21482254073E+04  0.25500000920E-02 0.  1.
</event>
<event>
 5   0  0.5177000E-08  0.3676821E+04  0.7818609E-02  0.8073118E-01
        1   -1    0    0  501    0  0.00000000000E+00  0.00000000000E+00  0.16270675486E+04  0.16270675486E+04  0.50400001928E-02 0.  1.
       -1   -1    0    0    0  501  0.00000000000E+00  0.00000000000E+00 -0.20772051952E+04  0.20772051952E+04  0.50400001928E-02 0. -1.
    10030    2    1    2    0    0  0.00000000000E+00  0.00000000000E+00 -0.45013764661E+03  0.37042727438E+04  0.36768209991E+04 0.  0.
        3    1    3    3  502    0 -0.60203440158E+02 -0.11158975637E+03  0.16226571961E+04  0.16276034880E+04  0.10100000352E+00 0.  1.
       -3    1    3    3    0  502  0.60203440158E+02  0.11158975637E+03 -0.20727948427E+04  0.20766692558E+04  0.10100000352E+00 0. -1.
</event>
<event>
 5   0  0.1587026E-07  0.3730546E+04  0.7818609E-02  0.8061226E-01
       -2   -1    0    0    0  501  0.00000000000E+00  0.00000000000E+00  0.17167942890E+04  0.17167942890E+04  0.25500000920E-02 0.  1.
        2   -1    0    0  501    0  0.00000000000E+00  0.00000000000E+00 -0.20265933142E+04  0.20265933142E+04  0.25500000920E-02 0. -1.
    10030    2    1    2    0    0  0.00000000000E+00  0.00000000000E+00 -0.30979902525E+03  0.37433876032E+04  0.37305462484E+04 0.  0.
        3    1    3    3  502    0 -0.23542619952E+03 -0.66917136988E+03  0.15761555237E+04  0.17284334129E+04  0.10100000352E+00 0.  1.
       -3    1    3    3    0  502  0.23542619952E+03  0.66917136988E+03 -0.18859545490E+04  0.20149541902E+04  0.10100000352E+00 0. -1.
</event>
<event>
 5   0  0.1686284E-07  0.3714378E+04  0.7818609E-02  0.8064783E-01
        2   -1    0    0  501    0  0.00000000000E+00  0.00000000000E+00  0.15345819744E+04  0.15345819744E+04  0.25500000920E-02 0. -1.
       -2   -1    0    0    0  501  0.00000000000E+00  0.00000000000E+00 -0.22476153993E+04  0.22476153993E+04  0.25500000920E-02 0.  1.
    10030    2    1    2    0    0  0.00000000000E+00  0.00000000000E+00 -0.71303342490E+03  0.37821973737E+04  0.37143775130E+04 0.  0.
        5    1    3    3  502    0  0.10948363027E+04 -0.14684431141E+04 -0.44098272287E+02  0.18322004411E+04  0.46999998093E+01 0.  1.
       -5    1    3    3    0  502 -0.10948363027E+04  0.14684431141E+04 -0.66893515261E+03  0.19499969326E+04  0.46999998093E+01 0. -1.
</event>
<event>
 5   0  0.1558258E-07  0.3702451E+04  0.7818609E-02  0.8067419E-01
       -2   -1    0    0    0  501  0.00000000000E+00  0.00000000000E+00  0.19043343738E+04  0.19043343738E+04  0.25500000920E-02 0. -1.
        2   -1    0    0  501    0  0.00000000000E+00  0.00000000000E+00 -0.17995972948E+04  0.17995972948E+04  0.25500000920E-02 0.  1.
    10030    2    1    2    0    0  0.00000000000E+00  0.00000000000E+00  0.10473707901E+03  0.37039316685E+04  0.37024505330E+04 0.  0.
        1    1    3    3  502    0 -0.72076691938E+03  0.26442626831E+03 -0.16328256817E+04  0.18043131408E+04  0.50400001928E-02 0.  1.
       -1    1    3    3    0  502  0.72076691938E+03 -0.26442626831E+03  0.17375627607E+04  0.18996185277E+04  0.50400001928E-02 0. -1.
</event>
<event>
 5   0  0.5177000E-08  0.3686583E+04  0.7818609E-02  0.8070942E-01
       -1   -1    0    0    0  501  0.00000000000E+00  0.00000000000E+00  0.12989850774E+04  0.12989850775E+04  0.50400001928E-02 0. -1.
        1   -1    0    0  501    0  0.00000000000E+00  0.00000000000E+00 -0.26156749916E+04  0.26156749916E+04  0.50400001928E-02 0.  1.
    10030    2    1    2    0    0  0.00000000000E+00  0.00000000000E+00 -0.13166899141E+04  0.39146600691E+04  0.36865825810E+04 0.  0.
        4    1    3    3  502    0 -0.81391714399E+03 -0.15812308001E+04 -0.14361959718E+03  0.17842029487E+04  0.12699999809E+01 0. -1.
       -4    1    3    3    0  502  0.81391714399E+03  0.15812308001E+04 -0.11730703170E+04  0.21304571204E+04  0.12699999809E+01 0.  1.
</event>
<event>
 5   0  0.5181371E-08  0.3672874E+04  0.7818609E-02  0.8074000E-01
       -1   -1    0    0    0  501  0.00000000000E+00  0.00000000000E+00  0.23978716998E+04  0.23978716998E+04  0.50400001928E-02 0. -1.
        1   -1    0    0  501    0  0.00000000000E+00  0.00000000000E+00 -0.14064562364E+04  0.14064562365E+04  0.50400001928E-02 0.  1.
    10030    2    1    2    0    0  0.00000000000E+00  0.00000000000E+00  0.99141546336E+03  0.38043279363E+04  0.36728744092E+04 0.  0.
        5    1    3    3  502    0  0.15397008300E+04 -0.47700087523E+03  0.14071273546E+04  0.21396817434E+04  0.46999998093E+01 0. -1.
       -5    1    3    3    0  502 -0.15397008300E+04  0.47700087523E+03 -0.41571189120E+03  0.16646461929E+04  0.46999998093E+01 0.  1.
</event>
<event>
 5   0  0.5177000E-08  0.3691400E+04  0.7818609E-02  0.8069870E-01
        1   -1    0    0  501    0  0.00000000000E+00  0.00000000000E+00  0.20076863347E+04  0.20076863347E+04  0.50400001928E-02 0. -1.
       -1   -1    0    0    0  501  0.00000000000E+00  0.00000000000E+00 -0.16967829474E+04  0.16967829474E+04  0.50400001928E-02 0.  1.
    10030    2    1    2    0    0  0.00000000000E+00  0.00000000000E+00  0.31090338723E+03  0.37044692821E+04  0.36913997001E+04 0.  0.
        3    1    3    3  502    0 -0.66392742757E+03  0.43192999592E+03 -0.15175574876E+04  0.17118247249E+04  0.10100000352E+00 0.  1.
       -3    1    3    3    0  502  0.66392742757E+03 -0.43192999592E+03  0.18284608748E+04  0.19926445572E+04  0.10100000352E+00 0. -1.
</event>
<event>
 5   0  0.1658770E-07  0.3705391E+04  0.7818609E-02  0.8066768E-01
        2   -1    0    0  501    0  0.00000000000E+00  0.00000000000E+00  0.24791777698E+04  0.24791777698E+04  0.25500000920E-02 0. -1.
       -2   -1    0    0    0  501  0.00000000000E+00  0.00000000000E+00 -0.13845237142E+04  0.13845237142E+04  0.25500000920E-02 0.  1.
    10030    2    1    2    0    0  0.00000000000E+00  0.00000000000E+00  0.10946540556E+04  0.38637014840E+04  0.37053908911E+04 0.  0.
        2    1    3    3  502    0 -0.70087516255E+02  0.35341672680E+03 -0.13476405430E+04  0.13949733602E+04  0.25500000920E-02 0.  1.
       -2    1    3    3    0  502  0.70087516255E+02 -0.35341672680E+03  0.24422945986E+04  0.24687281238E+04  0.25500000920E-02 0. -1.
</event>
<event>
 5   0  0.5177000E-08  0.3705341E+04  0.7818609E-02  0.8066779E-01
       -1   -1    0    0    0  501  0.00000000000E+00  0.00000000000E+00  0.15644731111E+04  0.15644731111E+04  0.50400001928E-02 0.  1.
        1   -1    0    0  501    0  0.00000000000E+00  0.00000000000E+00 -0.21939573661E+04  0.21939573661E+04  0.50400001928E-02 0. -1.
    10030    2    1    2    0    0  0.00000000000E+00  0.00000000000E+00 -0.62948425500E+03  0.37584304772E+04  0.37053406354E+04 0.  0.
        3    1    3    3  502    0 -0.10815224517E+04 -0.14349739627E+04 -0.77236728449E+03  0.19558610174E+04  0.10100000352E+00 0. -1.
       -3    1    3    3    0  502  0.10815224517E+04  0.14349739627E+04  0.14288302949E+03  0.18025694598E+04  0.10100000352E+00 0.  1.
</event>
<event>
 5   0  0.5177000E-08  0.3672803E+04  0.7818609E-02  0.8074016E-01
       -1   -1    0    0    0  501  0.00000000000E+00  0.00000000000E+00  0.14088345193E+04  0.14088345193E+04  0.50400001928E-02 0. -1.
        1   -1    0    0  501    0  0.00000000000E+00  0.00000000000E+00 -0.23937308425E+04  0.23937308425E+04  0.50400001928E-02 0.  1.
    10030    2    1    2    0    0  0.00000000000E+00  0.00000000000E+00 -0.98489632318E+03  0.38025653618E+04  0.36728030935E+04 0.  0.
        2    1    3    3  502    0  0.18310085301E+04  0.11825179483E+03 -0.41363429530E+03  0.18808692285E+04  0.25500000920E-02 0.  1.
       -2    1    3    3    0  502 -0.18310085301E+04 -0.11825179483E+03 -0.57126202788E+03  0.19216961333E+04  0.25500000920E-02 0. -1.
</event>
<event>
 5   0  0.5177000E-08  0.3715787E+04  0.7818609E-02  0.8064472E-01
       -1   -1    0    0    0  501  0.00000000000E+00  0.00000000000E+00  0.16168778384E+04  0.16168778384E+04  0.50400001928E-02 0. -1.
        1   -1    0    0  501    0  0.00000000000E+00  0.00000000000E+00 -0.21348351635E+04  0.21348351635E+04  0.50400001928E-02 0.  1.
    10030    2    1    2    0    0  0.00000000000E+00  0.00000000000E+00 -0.51795732510E+03  0.37517130019E+04  0.37157866809E+04 0.  0.
        4    1    3    3  502    0 -0.58295889259E+03 -0.84344770980E+03  0.13053629004E+04  0.16598852443E+04  0.12699999809E+01 0. -1.
       -4    1    3    3    0  502  0.58295889259E+03  0.84344770980E+03 -0.18233202255E+04  0.20918277576E+04  0.12699999809E+01 0.  1.
</event>
<event>
 5   0  0.1558258E-07  0.3695078E+04  0.7818609E-02  0.8069053E-01
       -2   -1    0    0    0  501  0.00000000000E+00  0.00000000000E+00  0.16887688440E+04  0.16887688440E+04  0.25500000920E-02 0. -1.
        2   -1    0    0  501    0  0.00000000000E+00  0.00000000000E+00 -0.20212359496E+04  0.20212359496E+04  0.25500000920E-02 0.  1.
    10030    2    1    2    0    0  0.00000000000E+00  0.00000000000E+00 -0.33246710563E+03  0.37100047936E+04  0.36950779684E+04 0.  0.
        1    1    3    3  502    0  0.10790084980E+04 -0.12712831537E+03 -0.16665857463E+04  0.19894544471E+04  0.50400001928E-02 0.  1.
       -1    1    3    3    0  502 -0.10790084980E+04  0.12712831537E+03  0.13341186407E+04  0.17205503465E+04  0.50400001928E-02 0. -1.
</event>
<event>
 5   0  0.1587026E-07  0.3682116E+04  0.7818609E-02  0.8071937E-01
       -2   -1    0    0    0  501  0.00000000000E+00  0.00000000000E+00  0.16711692678E+04  0.16711692678E+04  0.25500000920E-02 0. -1.
        2   -1    0    0  501    0  0.00000000000E+00  0.00000000000E+00 -0.20282171088E+04  0.20282171088E+04  0.25500000920E-02 0.  1.
    10030    2    1    2    0    0  0.00000000000E+00  0.00000000000E+00 -0.35704784102E+03  0.36993863767E+04  0.36821157509E+04 0.  0.
        3    1    3    3  502    0  0.71434296164E+03  0.12723825048E+04  0.94935058214E+03  0.17408359036E+04  0.10100000352E+00 0. -1.
       -3    1    3    3    0  502 -0.71434296164E+03 -0.12723825048E+04 -0.13063984232E+04  0.19585504731E+04  0.10100000352E+00 0.  1.
</event>
<event>
 5   0  0.5177000E-08  0.3684862E+04  0.7818609E-02  0.8071325E-01
        1   -1    0    0  501    0  0.00000000000E+00  0.00000000000E+00  0.15876251142E+04  0.15876251142E+04  0.50400001928E-02 0.  1.
       -1   -1    0    0    0  501  0.00000000000E+00  0.00000000000E+00 -0.21381319223E+04  0.21381319223E+04  0.50400001928E-02 0. -1.
    10030    2    1    2    0    0  0.00000000000E+00  0.00000000000E+00 -0.55050680812E+03  0.37257570366E+04  0.36848619716E+04 0.  0.
        2    1    3    3  502    0 -0.13545135209E+03  0.17763816069E+04 -0.75022556622E+03  0.19330589961E+04  0.25500000920E-02 0. -1.
       -2    1    3    3    0  502  0.13545135209E+03 -0.17763816069E+04  0.19971875810E+03  0.17926980405E+04  0.25500000920E-02 0.  1.
</event>
<event>
 5   0  0.5181371E-08  0.3700217E+04  0.7818609E-02  0.8067914E-01
        1   -1    0    0  501    0  0.00000000000E+00  0.00000000000E+00  0.10627608004E+04  0.10627608004E+04  0.50400001928E-02 0. -1.
       -1   -1    0    0    0  501  0.00000000000E+00  0.00000000000E+00 -0.32207643954E+04  0.32207643954E+04  0.50400001928E-02 0.  1.
    10030    2    1    2    0    0  0.00000000000E+00  0.00000000000E+00 -0.21580035950E+04  0.42835251958E+04  0.37002173703E+04 0.  0.
        5    1    3    3  502    0 -0.63407591141E+03 -0.44253356614E+03  0.86672870367E+03  0.11615201050E+04  0.46999998093E+01 0. -1.
       -5    1    3    3    0  502  0.63407591141E+03  0.44253356614E+03 -0.30247322987E+04  0.31220050908E+04  0.46999998093E+01 0.  1.
</event>
<event>
 5   0  0.1686284E-07  0.3700766E+04  0.7818609E-02  0.8067792E-01
        2   -1    0    0  501    0  0.00000000000E+00  0.00000000000E+00  0.23273864236E+04  0.23273864236E+04  0.25500000920E-02 0. -1.
       -2   -1    0    0    0  501  0.00000000000E+00  0.00000000000E+00 -0.14711427388E+04  0.14711427389E+04  0.25500000920E-02 0.  1.
    10030    2    1    2    0    0  0.00000000000E+00  0.00000000000E+00  0.85624368480E+03  0.37985291625E+04  0.37007662113E+04 0.  0.
        5    1    3    3  502    0 -0.17203327867E+04 -0.63277155432E+03  0.68768726713E+03  0.19577744008E+04  0.46999998093E+01 0. -1.
       -5    1    3    3    0  502  0.17203327867E+04  0.63277155432E+03  0.16855641767E+03  0.18407547617E+04  0.46999998093E+01 0.  1.
</event>
<event>
 5   0  0.1558258E-07  0.3692721E+04  0.7818609E-02  0.8069577E-01
        2   -1    0    0  501    0  0.00000000000E+00  0.00000000000E+00  0.20214832950E+04  0.20214832950E+04  0.25500000920E-02 0.  1.
       -2   -1    0    0    0  501  0.00000000000E+00  0.00000000000E+00 -0.16864089215E+04  0.16864089215E+04  0.25500000920E-02 0. -1.
    10030    2    1    2    0    0  0.00000000000E+00  0.00000000000E+00  0.33507437347E+03  0.37078922165E+04  0.36927211990E+04 0.  0.
        1    1    3    3  502    0  0.13301166135E+04  0.40735189703E+03  0.13865684400E+04  0.19641073831E+04  0.50400001928E-02 0.  1.
       -1    1    3    3    0  502 -0.13301166135E+04 -0.40735189703E+03 -0.10514940665E+04  0.17437848335E+04  0.50400001928E-02 0. -1.
</event>
<event>
 5   0  0.5177000E-08  0.3688724E+04  0.7818609E-02  0.8070465E-01
        3   -1    0    0  501    0  0.00000000000E+00  0.00000000000E+00  0.27014784234E+04  0.27014784253E+04  0.10100000352E+00 0. -1.
       -3   -1    0    0    0  501  0.00000000000E+00  0.00000000000E+00 -0.12591888454E+04  0.12591888494E+04  0.10100000352E+00 0.  1.
    10030    2    1    2    0    0  0.00000000000E+00  0.00000000000E+00  0.14422895780E+04  0.39606672747E+04  0.36887241743E+04 0.  0.
        3    1    3    3  502    0 -0.85862555255E+03 -0.62188422938E+03  0.23416104594E+04  0.25704313623E+04  0.10100000352E+00 0. -1.
       -3    1    3    3    0  502  0.85862555255E+03  0.62188422938E+03 -0.89932088143E+03  0.13902359124E+04  0.10100000352E+00 0.  1.
</event>
<event>
 5   0  0.5177000E-08  0.3590410E+04  0.7818609E-02  0.8092692E-01
        1   -1    0    0  501    0  0.00000000000E+00  0.00000000000E+00  0.17167829483E+04  0.17167829483E+04  0.50400001928E-02 0. -1.
       -1   -1    0    0    0  501  0.00000000000E+00  0.00000000000E+00 -0.18772091742E+04  0.18772091742E+04  0.50400001928E-02 0.  1.
    10030    2    1    2    0    0  0.00000000000E+00  0.00000000000E+00 -0.16042622591E+03  0.35939921225E+04  0.35904098377E+04 0.  0.
        4    1    3    3  502    0 -0.14026156028E+04 -0.49013262544E+03 -0.10887890303E+04  0.18420162011E+04  0.12699999809E+01 0.  1.
       -4    1    3    3    0  502  0.14026156028E+04  0.49013262544E+03  0.92836280443E+03  0.17519759214E+04  0.12699999809E+01 0. -1.
</event>
<event>
 5   0  0.1666189E-07  0.3543434E+04  0.7818609E-02  0.8103573E-01
       -2   -1    0    0    0  501  0.00000000000E+00  0.00000000000E+00  0.13400555344E+04  0.13400555344E+04  0.25500000920E-02 0. -1.
        2   -1    0    0  501    0  0.00000000000E+00  0.00000000000E+00 -0.23424264254E+04  0.23424264254E+04  0.25500000920E-02 0.  1.
    10030    2    1    2    0    0  0.00000000000E+00  0.00000000000E+00 -0.10023708910E+04  0.36824819598E+04  0.35434342072E+04 0.  0.
        4    1    3    3  502    0 -0.16059663203E+03 -0.65865953939E+03 -0.22022918614E+04  0.23042818237E+04  0.12699999809E+01 0.  1.
       -4    1    3    3    0  502  0.16059663203E+03  0.65865953939E+03  0.11999209704E+04  0.13782001361E+04  0.12699999809E+01 0. -1.
</event>
<event>
 5   0  0.1558258E-07  0.3696065E+04  0.7818609E-02  0.8068834E-01
        2   -1    0    0  501    0  0.00000000000E+00  0.00000000000E+00  0.22992118140E+04  0.22992118140E+04  0.25500000920E-02 0.  1.
       -2   -1    0    0    0  501  0.00000000000E+00  0.00000000000E+00 -0.14853893069E+04  0.14853893069E+04  0.25500000920E-02 0. -1.
    10030    2    1    2    0    0  0.00000000000E+00  0.00000000000E+00  0.81382250704E+03  0.37846011209E+04  0.36960652823E+04 0.  0.
        1    1    3    3  502    0 -0.74035108069E+02 -0.15073324658E+04 -0.68526539404E+03  0.16574441227E+04  0.50400001928E-02 0. -1.
       -1    1    3    3    0  502  0.74035108069E+02  0.15073324658E+04  0.14990879011E+04  0.21271569982E+04  0.50400001928E-02 0.  1.
</event>
<event>
 5   0  0.1686284E-07  0.3677895E+04  0.7818609E-02  0.8072878E-01
       -2   -1    0    0    0  501  0.00000000000E+00  0.00000000000E+00  0.15775549421E+04  0.15775549421E+04  0.25500000920E-02 0. -1.
        2   -1    0    0  501    0  0.00000000000E+00  0.00000000000E+00 -0.21436518244E+04  0.21436518244E+04  0.25500000920E-02 0.  1.
    10030    2    1    2    0    0  0.00000000000E+00  0.00000000000E+00 -0.56609688227E+03  0.37212067665E+04  0.36778953382E+04 0.  0.
        5    1    3    3  502    0  0.74629683886E+03  0.36993392468E+03  0.13757388340E+04  0.16082566679E+04  0.46999998093E+01 0. -1.
       -5    1    3    3    0  502 -0.74629683886E+03 -0.36993392468E+03 -0.19418357163E+04  0.21129500986E+04  0.46999998093E+01 0.  1.
</event>
<event>
 5   0  0.1686284E-07  0.3675783E+04  0.7818609E-02  0.8073350E-01
        2   -1    0    0  501    0  0.00000000000E+00  0.00000000000E+00  0.20960445264E+04  0.20960445264E+04  0.25500000920E-02 0. -1.
       -2   -1    0    0    0  501  0.00000000000E+00  0.00000000000E+00 -0.16115335311E+04  0.16115335311E+04  0.25500000920E-02 0.  1.
    10030    2    1    2    0    0  0.00000000000E+00  0.00000000000E+00  0.48451099536E+03  0.37075780575E+04  0.36757834740E+04 0.  0.
        5    1    3    3  502    0 -0.96197187987E+03 -0.10123361899E+04 -0.96290557458E+03  0.16962970538E+04  0.46999998093E+01 0.  1.
       -5    1    3    3    0  502  0.96197187987E+03  0.10123361899E+04  0.14474165699E+04  0.20112810037E+04  0.46999998093E+01 0. -1.
</event>
<event>
 5   0  0.1686284E-07  0.3686954E+04  0.7818609E-02  0.8070859E-01
       -2   -1    0    0    0  501  0.00000000000E+00  0.00000000000E+00  0.32509890841E+04  0.32509890841E+04  0.25500000920E-02 0.  1.
        2   -1    0    0  501    0  0.00000000000E+00  0.00000000000E+00 -0.10453454754E+04  0.10453454754E+04  0.25500000920E-02 0. -1.
    10030    2    1    2    0    0  0.00000000000E+00  0.00000000000E+00  0.22056436086E+04  0.42963345595E+04  0.36869536095E+04 0.  0.
        5    1    3    3  502    0 -0.42344985733E+03  0.60232309024E+03  0.30722082404E+04  0.31592069335E+04  0.46999998093E+01 0.  1.
       -5    1    3    3    0  502  0.42344985733E+03 -0.60232309024E+03 -0.86656463175E+03  0.11371276260E+04  0.46999998093E+01 0. -1.
</event>
<event>
 5   0  0.5181371E-08  0.3696401E+04  0.7818609E-02  0.8068760E-01
       -1   -1    0    0    0  501  0.00000000000E+00  0.00000000000E+00  0.23530257643E+04  0.23530257643E+04  0.50400001928E-02 0. -1.
        1   -1    0    0  501    0  0.00000000000E+00  0.00000000000E+00 -0.14516819411E+04  0.14516819411E+04  0.50400001928E-02 0.  1.
    10030    2    1    2    0    0  0.00000000000E+00  0.00000000000E+00  0.90134382325E+03  0.38047077054E+04  0.36964009571E+04 0.  0.
        5    1    3    3  502    0 -0.15975181218E+03  0.11035567260E+04 -0.10664434335E+04  0.15429458110E+04  0.46999998093E+01 0.  1.
       -5    1    3    3    0  502  0.15975181218E+03 -0.11035567260E+04  0.19677872567E+04  0.22617618944E+04  0.46999998093E+01 0. -1.
</event>
<event>
 5   0  0.1558258E-07  0.3696028E+04  0.7818609E-02  0.8068843E-01
        2   -1    0    0  501    0  0.00000000000E+00  0.00000000000E+00  0.21369258646E+04  0.21369258646E+04  0.25500000920E-02 0. -1.
       -2   -1    0    0    0  501  0.00000000000E+00  0.00000000000E+00 -0.15981631487E+04  0.15981631487E+04  0.25500000920E-02 0.  1.
    10030    2    1    2    0    0  0.00000000000E+00  0.00000000000E+00  0.53876271592E+03  0.37350890133E+04  0.36960282295E+04 0.  0.
        1    1    3    3  502    0 -0.10519464975E+04  0.11988580492E+04 -0.67392021490E+03  0.17314792843E+04  0.50400001928E-02 0.  1.
       -1    1    3    3    0  502  0.10519464975E+04 -0.11988580492E+04  0.12126829308E+04  0.20036097291E+04  0.50400001928E-02 0. -1.
</event>
<event>
 5   0  0.5177000E-08  0.3695915E+04  0.7818609E-02  0.8068868E-01
        1   -1    0    0  501    0  0.00000000000E+00  0.00000000000E+00  0.14220978245E+04  0.14220978245E+04  0.50400001928E-02 0.  1.
       -1   -1    0    0    0  501  0.00000000000E+00  0.00000000000E+00 -0.24013443645E+04  0.24013443645E+04  0.50400001928E-02 0. -1.
    10030    2    1    2    0    0  0.00000000000E+00  0.00000000000E+00 -0.97924653996E+03  0.38234421890E+04  0.36959148241E+04 0.  0.
        2    1    3    3  502    0 -0.13067808159E+04  0.10506175747E+04  0.31401677774E+03  0.17058956374E+04  0.25500000920E-02 0.  1.
       -2    1    3    3    0  502  0.13067808159E+04 -0.10506175747E+04 -0.12932633177E+04  0.21175465516E+04  0.25500000920E-02 0. -1.
</event>
<event>
 5   0  0.5177000E-08  0.3696471E+04  0.7818609E-02  0.8068744E-01
       -1   -1    0    0    0  501  0.00000000000E+00  0.00000000000E+00  0.16438936413E+04  0.16438936413E+04  0.50400001928E-02 0.  1.
        1   -1    0    0  501    0  0.00000000000E+00  0.00000000000E+00 -0.20779781106E+04  0.20779781106E+04  0.50400001928E-02 0. -1.
    10030    2    1    2    0    0  0.00000000000E+00  0.00000000000E+00 -0.43408446928E+03  0.37218717518E+04  0.36964712917E+04 0.  0.
        2    1    3    3  502    0 -0.16020951522E+03 -0.16361032575E+04  0.63343590625E+03  0.17617440238E+04  0.25500000920E-02 0.  1.
       -2    1    3    3    0  502  0.16020951522E+03  0.16361032575E+04 -0.10675203755E+04  0.19601277280E+04  0.25500000920E-02 0. -1.
</event>
<event>
 5   0  0.5177000E-08  0.3660776E+04  0.7818609E-02  0.8076710E-01
        1   -1    0    0  501    0  0.00000000000E+00  0.00000000000E+00  0.11601910899E+04  0.11601910899E+04  0.50400001928E-02 0.  1.
       -1   -1    0    0    0  501  0.00000000000E+00  0.00000000000E+00 -0.28877306238E+04  0.28877306238E+04  0.50400001928E-02 0. -1.
    10030    2    1    2    0    0  0.00000000000E+00  0.00000000000E+00 -0.17275395339E+04  0.40479217137E+04  0.36607755134E+04 0.  0.
        3    1    3    3  502    0  0.10014448277E+04  0.63065479661E+03 -0.24077549853E+04  0.26828904739E+04  0.10100000352E+00 0. -1.
       -3    1    3    3    0  502 -0.10014448277E+04 -0.63065479661E+03  0.68021545134E+03  0.13650312399E+04  0.10100000352E+00 0.  1.
</event>
<event>
 5   0  0.1558258E-07  0.3704948E+04  0.7818609E-02  0.8066866E-01
        2   -1    0    0  501    0  0.00000000000E+00  0.00000000000E+00  0.14488658912E+04  0.14488658912E+04  0.25500000920E-02 0. -1.
       -2   -1    0    0    0  501  0.00000000000E+00  0.00000000000E+00 -0.23685141305E+04  0.23685141305E+04  0.25500000920E-02 0.  1.
    10030    2    1    2    0    0  0.00000000000E+00  0.00000000000E+00 -0.91964823930E+03  0.38173800218E+04  0.37049476847E+04 0.  0.
        1    1    3    3  502    0  0.62328033164E+03  0.89278904401E+03  0.10843586428E+04  0.15366796397E+04  0.50400001928E-02 0. -1.
       -1    1    3    3    0  502 -0.62328033164E+03 -0.89278904401E+03 -0.20040068821E+04  0.22807003820E+04  0.50400001928E-02 0.  1.
</event>
<event>
 5   0  0.5177000E-08  0.3698490E+04  0.7818609E-02  0.8068297E-01
        1   -1    0    0  501    0  0.00000000000E+00  0.00000000000E+00  0.28407400591E+04  0.28407400591E+04  0.50400001928E-02 0. -1.
       -1   -1    0    0    0  501  0.00000000000E+00  0.00000000000E+00 -0.12038084746E+04  0.12038084746E+04  0.50400001928E-02 0.  1.
    10030    2    1    2    0    0  0.00000000000E+00  0.00000000000E+00  0.16369315845E+04  0.40445485337E+04  0.36984899390E+04 0.  0.
        4    1    3    3  502    0 -0.35551198649E+03 -0.76633990804E+02 -0.11643153436E+04  0.12197923484E+04  0.12699999809E+01 0.  1.
       -4    1    3    3    0  502  0.35551198649E+03  0.76633990804E+02  0.28012469281E+04  0.28247561853E+04  0.12699999809E+01 0. -1.
</event>
<event>
 5   0  0.5177000E-08  0.3710708E+04  0.7818609E-02  0.8065593E-01
       -1   -1    0    0    0  501  0.00000000000E+00  0.00000000000E+00  0.21002112462E+04  0.21002112462E+04  0.50400001928E-02 0.  1.
        1   -1    0    0  501    0  0.00000000000E+00  0.00000000000E+00 -0.16390437927E+04  0.16390437927E+04  0.50400001928E-02 0. -1.
    10030    2    1    2    0    0  0.00000000000E+00  0.00000000000E+00  0.46116745353E+03  0.37392550390E+04  0.37107078605E+04 0.  0.
        4    1    3    3  502    0  0.16103609140E+04 -0.72468644648E+03  0.80408765231E+03  0.19403585454E+04  0.12699999809E+01 0.  1.
       -4    1    3    3    0  502 -0.16103609140E+04  0.72468644648E+03 -0.34292019878E+03  0.17988964936E+04  0.12699999809E+01 0. -1.
</event>
<event>
 5   0  0.5181371E-08  0.3693411E+04  0.7818609E-02  0.8069423E-01
       -1   -1    0    0    0  501  0.00000000000E+00  0.00000000000E+00  0.18852759480E+04  0.18852759480E+04  0.50400001928E-02 0. -1.
        1   -1    0    0  501    0  0.00000000000E+00  0.00000000000E+00 -0.18089245790E+04  0.18089245790E+04  0.50400001928E-02 0.  1.
    10030    2    1    2    0    0  0.00000000000E+00  0.00000000000E+00  0.76351369053E+02  0.36942005270E+04  0.36934114315E+04 0.  0.
        5    1    3    3  502    0 -0.75512547133E+03 -0.16843447261E+04  0.93579545567E+02  0.18482453450E+04  0.46999998093E+01 0. -1.
       -5    1    3    3    0  502  0.75512547133E+03  0.16843447261E+04 -0.17228176513E+02  0.18459551820E+04  0.46999998093E+01 0.  1.
</event>
<event>
 5   0  0.1658770E-07  0.3707927E+04  0.7818609E-02  0.8066207E-01
       -2   -1    0    0    0  501  0.00000000000E+00  0.00000000000E+00  0.15192581839E+04  0.15192581839E+04  0.25500000920E-02 0.  1.
        2   -1    0    0  501    0  0.00000000000E+00  0.00000000000E+00 -0.22624077422E+04  0.22624077422E+04  0.25500000920E-02 0. -1.
    10030    2    1    2    0    0  0.00000000000E+00  0.00000000000E+00 -0.74314955828E+03  0.37816659260E+04  0.37079274413E+04 0.  0.
        2    1    3    3  502    0 -0.12566061747E+04 -0.37242284080E+03 -0.17089195333E+04  0.21536396685E+04  0.25500000920E-02 0. -1.
       -2    1    3    3    0  502  0.12566061747E+04  0.37242284080E+03  0.96576997498E+03  0.16280262575E+04  0.25500000920E-02 0.  1.
</event>
<event>
 5   0  0.1666189E-07  0.3702923E+04  0.7818609E-02  0.8067314E-01
       -2   -1    0    0    0  501  0.00000000000E+00  0.00000000000E+00  0.17751428394E+04  0.17751428394E+04  0.25500000920E-02 0.  1.
        2   -1    0    0  501    0  0.00000000000E+00  0.00000000000E+00 -0.19310615615E+04  0.19310615615E+04  0.25500000920E-02 0. -1.
    10030    2    1    2    0    0  0.00000000000E+00  0.00000000000E+00 -0.15591872208E+03  0.37062044009E+04  0.37029232255E+04 0.  0.
        4    1    3    3  502    0  0.11174148968E+04 -0.10324784150E+04  0.97809679317E+03  0.18086742876E+04  0.12699999809E+01 0.  1.
       -4    1    3    3    0  502 -0.11174148968E+04  0.10324784150E+04 -0.11340155152E+04  0.18975301133E+04  0.12699999809E+01 0. -1.
</event>
<event>
 5   0  0.1686284E-07  0.3695075E+04  0.7818609E-02  0.8069054E-01
        2   -1    0    0  501    0  0.00000000000E+00  0.00000000000E+00  0.10130758177E+04  0.10130758177E+04  0.25500000920E-02 0. -1.
       -2   -1    0    0    0  501  0.00000000000E+00  0.00000000000E+00 -0.33693385377E+04  0.33693385377E+04  0.25500000920E-02 0.  1.
    10030    2    1    2    0    0  0.00000000000E+00  0.00000000000E+00 -0.23562627200E+04  0.43824143555E+04  0.36950753142E+04 0.  0.
        5    1    3    3  502    0 -0.11946229583E+04  0.17543584584E+02  0.49324159346E+03  0.12925715258E+04  0.46999998093E+01 0. -1.
       -5    1    3    3    0  502  0.11946229583E+04 -0.17543584584E+02 -0.28495043135E+04  0.30898428297E+04  0.46999998093E+01 0.  1.
</event>
<event>
 5   0  0.1587026E-07  0.3699330E+04  0.7818609E-02  0.8068110E-01
       -2   -1    0    0    0  501  0.00000000000E+00  0.00000000000E+00  0.15563209656E+04  0.15563209656E+04  0.25500000920E-02 0.  1.
        2   -1    0    0  501    0  0.00000000000E+00  0.00000000000E+00 -0.21983006216E+04  0.21983006216E+04  0.25500000920E-02 0. -1.
    10030    2    1    2    0    0  0.00000000000E+00  0.00000000000E+00 -0.64197965608E+03  0.37546215872E+04  0.36993303967E+04 0.  0.
        3    1    3    3  502    0  0.10609450162E+03 -0.13669602380E+04  0.93910796527E+03  0.16618544209E+04  0.10100000352E+00 0.  1.
       -3    1    3    3    0  502 -0.10609450162E+03  0.13669602380E+04 -0.15810876214E+04  0.20927671663E+04  0.10100000352E+00 0. -1.
</event>
<event>
 5   0  0.1686284E-07  0.3680960E+04  0.7818609E-02  0.8072195E-01
       -2   -1    0    0    0  501  0.00000000000E+00  0.00000000000E+00  0.17035798468E+04  0.17035798468E+04  0.25500000920E-02 0.  1.
        2   -1    0    0  501    0  0.00000000000E+00  0.00000000000E+00 -0.19883812872E+04  0.19883812872E+04  0.25500000920E-02 0. -1.
    10030    2    1    2    0    0  0.00000000000E+00  0.00000000000E+00 -0.28480144047E+03  0.36919611340E+04  0.36809598143E+04 0.  0.
        5    1    3    3  502    0 -0.16360930563E+04  0.68478823560E+03  0.35060550396E+03  0.18079495917E+04  0.46999998093E+01 0.  1.
       -5    1    3    3    0  502  0.16360930563E+04 -0.68478823560E+03 -0.63540694443E+03  0.18840115423E+04  0.46999998093E+01 0. -1.
</event>
<event>
 5   0  0.1658770E-07  0.3690166E+04  0.7818609E-02  0.8070145E-01
        2   -1    0    0  501    0  0.00000000000E+00  0.00000000000E+00  0.24804239326E+04  0.24804239326E+04  0.25500000920E-02 0.  1.
       -2   -1    0    0    0  501  0.00000000000E+00  0.00000000000E+00 -0.13724798672E+04  0.13724798672E+04  0.25500000920E-02 0. -1.
    10030    2    1    2    0    0  0.00000000000E+00  0.00000000000E+00  0.11079440655E+04  0.38529037998E+04  0.36901663429E+04 0.  0.
        2    1    3    3  502    0 -0.15013083916E+04 -0.93151409033E+03 -0.11580644066E+01  0.17668182499E+04  0.25500000920E-02 0. -1.
       -2    1    3    3    0  502  0.15013083916E+04  0.93151409033E+03  0.11091021299E+04  0.20860855499E+04  0.25500000920E-02 0.  1.
</event>
<event>
 5   0  0.5177000E-08  0.3698164E+04  0.7818609E-02  0.8068369E-01
       -1   -1    0    0    0  501  0.00000000000E+00  0.00000000000E+00  0.16079427287E+04  0.16079427287E+04  0.50400001928E-02 0. -1.
        1   -1    0    0  501    0  0.00000000000E+00  0.00000000000E+00 -0.21263846207E+04  0.21263846207E+04  0.50400001928E-02 0.  1.
    10030    2    1    2    0    0  0.00000000000E+00  0.00000000000E+00 -0.51844189197E+03  0.37343273494E+04  0.36981642415E+04 0.  0.
        1    1    3    3  502    0 -0.17395865142E+03  0.10895083425E+04 -0.17575823193E+04  0.20751832811E+04  0.50400001928E-02 0.  1.
       -1    1    3    3    0  502  0.17395865142E+03 -0.10895083425E+04  0.12391404273E+04  0.16591440684E+04  0.50400001928E-02 0. -1.
</event>
<event>
 5   0  0.5177000E-08  0.3685736E+04  0.7818609E-02  0.8071130E-01
        1   -1    0    0  501    0  0.00000000000E+00  0.00000000000E+00  0.19547944586E+04  0.19547944586E+04  0.50400001928E-02 0. -1.
       -1   -1    0    0    0  501  0.00000000000E+00  0.00000000000E+00 -0.17373499063E+04  0.17373499064E+04  0.50400001928E-02 0.  1.
    10030    2    1    2    0    0  0.00000000000E+00  0.00000000000E+00  0.21744455220E+03  0.36921443649E+04  0.36857357309E+04 0.  0.
        4    1    3    3  502    0 -0.14197970321E+04 -0.11309156522E+04  0.42765697740E+03  0.18648554711E+04  0.12699999809E+01 0. -1.
       -4    1    3    3    0  502  0.14197970321E+04  0.11309156522E+04 -0.21021242520E+03  0.18272888938E+04  0.12699999809E+01 0.  1.
</event>
<event>
 5   0  0.1666189E-07  0.3704962E+04  0.7818609E-02  0.8066863E-01
        2   -1    0    0  501    0  0.00000000000E+00  0.00000000000E+00  0.19985934833E+04  0.19985934833E+04  0.25500000920E-02 0. -1.
       -2   -1    0    0    0  501  0.00000000000E+00  0.00000000000E+00 -0.17170503984E+04  0.17170503984E+04  0.25500000920E-02 0.  1.
    10030    2    1    2    0    0  0.00000000000E+00  0.00000000000E+00  0.28154308487E+03  0.37156438817E+04  0.37049619359E+04 0.  0.
        4    1    3    3  502    0  0.12366299731E+04 -0.90443776720E+03 -0.90358705067E+03  0.17786884314E+04  0.12699999809E+01 0.  1.
       -4    1    3    3    0  502 -0.12366299731E+04  0.90443776720E+03  0.11851301355E+04  0.19369554502E+04  0.12699999809E+01 0. -1.
</event>
<event>
 5   0  0.1666189E-07  0.3697903E+04  0.7818609E-02  0.8068427E-01
       -2   -1    0    0    0  501  0.00000000000E+00  0.00000000000E+00  0.12062408169E+04  0.12062408169E+04  0.25500000920E-02 0.  1.
        2   -1    0    0  501    0  0.00000000000E+00  0.00000000000E+00 -0.28341121622E+04  0.28341121622E+04  0.25500000920E-02 0. -1.
    10030    2    1    2    0    0  0.00000000000E+00  0.00000000000E+00 -0.16278713453E+04  0.40403529790E+04  0.36979030650E+04 0.  0.
        4    1    3    3  502    0  0.89037042088E+03 -0.23754052174E+03  0.93745332809E+03  0.13145361696E+04  0.12699999809E+01 0.  1.
       -4    1    3    3    0  502 -0.89037042088E+03  0.23754052174E+03 -0.25653246734E+04  0.27258168095E+04  0.12699999809E+01 0. -1.
</event>
<event>
 5   0  0.5177000E-08  0.3697692E+04  0.7818609E-02  0.8068474E-01
       -1   -1    0    0    0  501  0.00000000000E+00  0.00000000000E+00  0.12496765832E+04  0.12496765832E+04  0.50400001928E-02 0. -1.
        1   -1    0    0  501    0  0.00000000000E+00  0.00000000000E+00 -0.27352925058E+04  0.27352925058E+04  0.50400001928E-02 0.  1.
    10030    2    1    2    0    0  0.00000000000E+00  0.00000000000E+00 -0.14856159227E+04  0.39849690890E+04  0.36976917085E+04 0.  0.
        2    1    3    3  502    0 -0.16876889370E+04 -0.50917583533E+03 -0.14212015199E+03  0.17685451979E+04  0.25500000920E-02 0. -1.
       -2    1    3    3    0  502  0.16876889370E+04  0.50917583533E+03 -0.13434957707E+04  0.22164238911E+04  0.25500000920E-02 0.  1.
</event>
<event>
 5   0  0.5177000E-08  0.3690131E+04  0.7818609E-02  0.8070152E-01
        1   -1    0    0  501    0  0.00000000000E+00  0.00000000000E+00  0.14785605218E+04  0.14785605218E+04  0.50400001928E-02 0. -1.
       -1   -1    0    0    0  501  0.00000000000E+00  0.00000000000E+00 -0.23024199099E+04  0.23024199099E+04  0.50400001928E-02 0.  1.
    10030    2    1    2    0    0  0.00000000000E+00  0.00000000000E+00 -0.82385938815E+03  0.37809804317E+04  0.36901312624E+04 0.  0.
        2    1    3    3  502    0  0.43969765462E+03 -0.13314497392E+04  0.81683420790E+03  0.16227478420E+04  0.25500000920E-02 0. -1.
       -2    1    3    3    0  502 -0.43969765462E+03  0.13314497392E+04 -0.16406935960E+04  0.21582325898E+04  0.25500000920E-02 0.  1.
</event>
<event>
 5   0  0.1658770E-07  0.3710021E+04  0.7818609E-02  0.8065745E-01
       -2   -1    0    0    0  501  0.00000000000E+00  0.00000000000E+00  0.15162174343E+04  0.15162174343E+04  0.25500000920E-02 0.  1.
        2   -1    0    0  501    0  0.00000000000E+00  0.00000000000E+00 -0.22695060509E+04  0.22695060509E+04  0.25500000920E-02 0. -1.
    10030    2    1    2    0    0  0.00000000000E+00  0.00000000000E+00 -0.75328861661E+03  0.37857234852E+04  0.37100213701E+04 0.  0.
        2    1    3    3  502    0 -0.17944540981E+04  0.28538554963E+03 -0.75783647230E+03  0.19687118989E+04  0.25500000920E-02 0. -1.
       -2    1    3    3    0  502  0.17944540981E+04 -0.28538554963E+03  0.45478556926E+01  0.18170115864E+04  0.25500000920E-02 0.  1.
</event>
<event>
 5   0  0.1587026E-07  0.3705743E+04  0.7818609E-02  0.8066690E-01
        2   -1    0    0  501    0  0.00000000000E+00  0.00000000000E+00  0.24447152072E+04  0.24447152072E+04  0.25500000920E-02 0.  1.
       -2   -1    0    0    0  501  0.00000000000E+00  0.00000000000E+00 -0.14043075950E+04  0.14043075950E+04  0.25500000920E-02 0. -1.
    10030    2    1    2    0    0  0.00000000000E+00  0.00000000000E+00  0.10404076122E+04  0.38490228022E+04  0.37057426424E+04 0.  0.
        3    1    3    3  502    0 -0.11824931400E+04 -0.88214229894E+03  0.16845586247E+04  0.22392415752E+04  0.10100000352E+00 0.  1.
       -3    1    3    3    0  502  0.11824931400E+04  0.88214229894E+03 -0.64415101243E+03  0.16097812270E+04  0.10100000352E+00 0. -1.
</event>
<event>
 5   0  0.1658770E-07  0.3686939E+04  0.7818609E-02  0.8070863E-01
        2   -1    0    0  501    0  0.00000000000E+00  0.00000000000E+00  0.21942337863E+04  0.21942337863E+04  0.25500000920E-02 0. -1.
       -2   -1    0    0    0  501  0.00000000000E+00  0.00000000000E+00 -0.15487771761E+04  0.15487771761E+04  0.25500000920E-02 0.  1.
    10030    2    1    2    0    0  0.00000000000E+00  0.00000000000E+00  0.64545661022E+03  0.37430109623E+04  0.36869386798E+04 0.  0.
        2    1    3    3  502    0  0.96109333797E+03 -0.58244357279E+03  0.18062663803E+04  0.21273314637E+04  0.25500000920E-02 0. -1.
       -2    1    3    3    0  502 -0.96109333797E+03  0.58244357279E+03 -0.11608097701E+04  0.16156794986E+04  0.25500000920E-02 0.  1.
</event>
<event>
 5   0  0.1558258E-07  0.3701489E+04  0.7818609E-02  0.8067632E-01
        2   -1    0    0  501    0  0.00000000000E+00  0.00000000000E+00  0.10361121592E+04  0.10361121592E+04  0.25500000920E-02 0. -1.
       -2   -1    0    0    0  501  0.00000000000E+00  0.00000000000E+00 -0.33058721023E+04  0.33058721023E+04  0.25500000920E-02 0.  1.
    10030    2    1    2    0    0  0.00000000000E+00  0.00000000000E+00 -0.22697599431E+04  0.43419842615E+04  0.37014885016E+04 0.  0.
        1    1    3    3  502    0 -0.58091866549E+03 -0.14035213165E+04 -0.23751503400E+04  0.28193399440E+04  0.50400001928E-02 0.  1.
       -1    1    3    3    0  502  0.58091866549E+03  0.14035213165E+04  0.10539039691E+03  0.15226443175E+04  0.50400001928E-02 0. -1.
</event>
<event>
 5   0  0.5181371E-08  0.3669804E+04  0.7818609E-02  0.8074687E-01
       -1   -1    0    0    0  501  0.00000000000E+00  0.00000000000E+00  0.22960657728E+04  0.22960657728E+04  0.50400001928E-02 0.  1.
        1   -1    0    0  501    0  0.00000000000E+00  0.00000000000E+00 -0.14663623813E+04  0.14663623813E+04  0.50400001928E-02 0. -1.
    10030    2    1    2    0    0  0.00000000000E+00  0.00000000000E+00  0.82970339153E+03  0.37624281541E+04  0.36698035229E+04 0.  0.
        5    1    3    3  502    0  0.12808601326E+04 -0.13137994242E+04  0.40145365651E+03  0.18782594961E+04  0.46999998093E+01 0.  1.
       -5    1    3    3    0  502 -0.12808601326E+04  0.13137994242E+04  0.42824973502E+03  0.18841686580E+04  0.46999998093E+01 0. -1.
</event>
<event>
 5   0  0.1686284E-07  0.3707595E+04  0.7818609E-02  0.8066281E-01
       -2   -1    0    0    0  501  0.00000000000E+00  0.00000000000E+00  0.23840971593E+04  0.23840971593E+04  0.25500000920E-02 0.  1.
        2   -1    0    0  501    0  0.00000000000E+00  0.00000000000E+00 -0.14414532396E+04  0.14414532396E+04  0.25500000920E-02 0. -1.
    10030    2    1    2    0    0  0.00000000000E+00  0.00000000000E+00  0.94264391967E+03  0.38255503989E+04  0.37075946778E+04 0.  0.
        5    1    3    3  502    0 -0.11677694859E+04  0.11234264816E+04  0.14003963168E+04  0.21417059943E+04  0.46999998093E+01 0.  1.
       -5    1    3    3    0  502  0.11677694859E+04 -0.11234264816E+04 -0.45775239711E+03  0.16838444046E+04  0.46999998093E+01 0. -1.
</event>
<event>
 5   0  0.1666189E-07  0.3710546E+04  0.7818609E-02  0.8065629E-01
        2   -1    0    0  501    0  0.00000000000E+00  0.00000000000E+00  0.11319036629E+04  0.11319036629E+04  0.25500000920E-02 0. -1.
       -2   -1    0    0    0  501  0.00000000000E+00  0.00000000000E+00 -0.30409288697E+04  0.30409288697E+04  0.25500000920E-02 0.  1.
    10030    2    1    2    0    0  0.00000000000E+00  0.00000000000E+00 -0.19090252067E+04  0.41728325326E+04  0.37105463351E+04 0.  0.
        4    1    3    3  502    0  0.69936865203E+03 -0.43565560641E+03 -0.28238742612E+04  0.29416287622E+04  0.12699999809E+01 0.  1.
       -4    1    3    3    0  502 -0.69936865203E+03  0.43565560641E+03  0.91484905446E+03  0.12312037704E+04  0.12699999809E+01 0. -1.
</event>
<event>
 5   0  0.1658770E-07  0.3702325E+04  0.7818609E-02  0.8067447E-01
       -2   -1    0    0    0  501  0.00000000000E+00  0.00000000000E+00  0.13334310208E+04  0.13334310208E+04  0.25500000920E-02 0. -1.
        2   -1    0    0  501    0  0.00000000000E+00  0.00000000000E+00 -0.25699138994E+04  0.25699138994E+04  0.25500000920E-02 0.  1.
    10030    2    1    2    0    0  0.00000000000E+00  0.00000000000E+00 -0.12364828786E+04  0.39033449202E+04  0.37023251690E+04 0.  0.
        2    1    3    3  502    0  0.17534378741E+04  0.54928493770E+03 -0.85526947781E+03  0.20267570651E+04  0.25500000920E-02 0. -1.
       -2    1    3    3    0  502 -0.17534378741E+04 -0.54928493770E+03 -0.38121340076E+03  0.18765878551E+04  0.25500000920E-02 0.  1.
</event>
<event>
 5   0  0.5181371E-08  0.3689184E+04  0.7818609E-02  0.8070363E-01
        1   -1    0    0  501    0  0.00000000000E+00  0.00000000000E+00  0.22189185144E+04  0.22189185144E+04  0.50400001928E-02 0.  1.
       -1   -1    0    0    0  501  0.00000000000E+00  0.00000000000E+00 -0.15334135559E+04  0.15334135559E+04  0.50400001928E-02 0. -1.
    10030    2    1    2    0    0  0.00000000000E+00  0.00000000000E+00  0.68550495849E+03  0.37523320703E+04  0.36891840449E+04 0.  0.
        5    1    3    3  502    0  0.30473495741E+03  0.32928265441E+03  0.21625699687E+04  0.22086243275E+04  0.46999998093E+01 0.  1.
       -5    1    3    3    0  502 -0.30473495741E+03 -0.32928265441E+03 -0.14770650102E+04  0.15437077427E+04  0.46999998093E+01 0. -1.
</event>
<event>
 5   0  0.5181371E-08  0.3700070E+04  0.7818609E-02  0.8067946E-01
        1   -1    0    0  501    0  0.00000000000E+00  0.00000000000E+00  0.16393240756E+04  0.16393240756E+04  0.50400001928E-02 0.  1.
       -1   -1    0    0    0  501  0.00000000000E+00  0.00000000000E+00 -0.20878293434E+04  0.20878293434E+04  0.50400001928E-02 0. -1.
    10030    2    1    2    0    0  0.00000000000E+00  0.00000000000E+00 -0.44850526777E+03  0.37271534191E+04  0.37000696796E+04 0.  0.
        5    1    3    3  502    0 -0.16055280194E+04 -0.85975905565E+03  0.10324399978E+03  0.18241675549E+04  0.46999998093E+01 0. -1.
       -5    1    3    3    0  502  0.16055280194E+04  0.85975905565E+03 -0.55174926754E+03  0.19029858641E+04  0.46999998093E+01 0.  1.
</event>
<event>
 5   0  0.1558258E-07  0.3697177E+04  0.7818609E-02  0.8068588E-01
        2   -1    0    0  501    0  0.00000000000E+00  0.00000000000E+00  0.12362186492E+04  0.12362186492E+04  0.25500000920E-02 0. -1.
       -2   -1    0    0    0  501  0.00000000000E+00  0.00000000000E+00 -0.27642995643E+04  0.27642995643E+04  0.25500000920E-02 0.  1.
    10030    2    1    2    0    0  0.00000000000E+00  0.00000000000E+00 -0.15280809151E+04  0.40005182136E+04  0.36971765841E+04 0.  0.
        1    1    3    3  502    0 -0.63260794399E+03  0.13564002611E+04  0.40999989991E+03  0.15518100389E+04  0.50400001928E-02 0. -1.
       -1    1    3    3    0  502  0.63260794399E+03 -0.13564002611E+04 -0.19380808150E+04  0.24487081746E+04  0.50400001928E-02 0.  1.
</event>
<event>
 5   0  0.1686284E-07  0.3684363E+04  0.7818609E-02  0.8071436E-01
       -2   -1    0    0    0  501  0.00000000000E+00  0.00000000000E+00  0.19936930346E+04  0.19936930346E+04  0.25500000920E-02 0.  1.
        2   -1    0    0  501    0  0.00000000000E+00  0.00000000000E+00 -0.17021840138E+04  0.17021840138E+04  0.25500000920E-02 0. -1.
    10030    2    1    2    0    0  0.00000000000E+00  0.00000000000E+00  0.29150902075E+03  0.36958770484E+04  0.36843628551E+04 0.  0.
        5    1    3    3  502    0 -0.85199454625E+03 -0.58123549755E+03  0.16769194687E+04  0.19687078008E+04  0.46999998093E+01 0.  1.
       -5    1    3    3    0  502  0.85199454625E+03  0.58123549755E+03 -0.13854104480E+04  0.17271692476E+04  0.46999998093E+01 0. -1.
</event>
<event>
 5   0  0.1686284E-07  0.3736387E+04  0.7818609E-02  0.8059946E-01
        2   -1    0    0  501    0  0.00000000000E+00  0.00000000000E+00  0.12810146721E+04  0.12810146721E+04  0.25500000920E-02 0.  1.
       -2   -1    0    0    0  501  0.00000000000E+00  0.00000000000E+00 -0.27245175214E+04  0.27245175214E+04  0.25500000920E-02 0. -1.
    10030    2    1    2    0    0  0.00000000000E+00  0.00000000000E+00 -0.14435028493E+04  0.40055321935E+04  0.37363869817E+04 0.  0.
        5    1    3    3  502    0 -0.29950007523E+03  0.17931284139E+04 -0.11829938127E+04  0.21689873800E+04  0.46999998093E+01 0. -1.
       -5    1    3    3    0  502  0.29950007523E+03 -0.17931284139E+04 -0.26050903669E+03  0.18365448135E+04  0.46999998093E+01 0.  1.
</event>
<event>
 5   0  0.5177000E-08  0.3716000E+04  0.7818609E-02  0.8064425E-01
        1   -1    0    0  501    0  0.00000000000E+00  0.00000000000E+00  0.17780683706E+04  0.17780683706E+04  0.50400001928E-02 0.  1.
       -1   -1    0    0    0  501  0.00000000000E+00  0.00000000000E+00 -0.19415253326E+04  0.19415253326E+04  0.50400001928E-02 0. -1.
    10030    2    1    2    0    0  0.00000000000E+00  0.00000000000E+00 -0.16345696197E+03  0.37195937032E+04  0.37160004223E+04 0.  0.
        4    1    3    3  502    0  0.12510458639E+04 -0.13103339984E+04  0.33106844396E+03  0.18416565555E+04  0.12699999809E+01 0. -1.
       -4    1    3    3    0  502 -0.12510458639E+04  0.13103339984E+04 -0.49452540593E+03  0.18779371477E+04  0.12699999809E+01 0.  1.
</event>
<event>
 5   0  0.5177000E-08  0.3905610E+04  0.7818609E-02  0.8023863E-01
       -1   -1    0    0    0  501  0.00000000000E+00  0.00000000000E+00  0.13652207572E+04  0.13652207572E+04  0.50400001928E-02 0. -1.
        1   -1    0    0  501    0  0.00000000000E+00  0.00000000000E+00 -0.27932831989E+04  0.27932831989E+04  0.50400001928E-02 0.  1.
    10030    2    1    2    0    0  0.00000000000E+00  0.00000000000E+00 -0.14280624417E+04  0.41585039561E+04  0.39056104280E+04 0.  0.
        4    1    3    3  502    0  0.16295877113E+03 -0.13220168395E+03 -0.27812436248E+04  0.27891487160E+04  0.12699999809E+01 0.  1.
       -4    1    3    3    0  502 -0.16295877113E+03  0.13220168395E+03  0.13531811831E+04  0.13693552401E+04  0.12699999809E+01 0. -1.
</event>
<event>
 5   0  0.5177000E-08  0.3701560E+04  0.7818609E-02  0.8067616E-01
        1   -1    0    0  501    0  0.00000000000E+00  0.00000000000E+00  0.17546603815E+04  0.17546603815E+04  0.50400001928E-02 0.  1.
       -1   -1    0    0    0  501  0.00000000000E+00  0.00000000000E+00 -0.19521650014E+04  0.19521650014E+04  0.50400001928E-02 0. -1.
    10030    2    1    2    0    0  0.00000000000E+00  0.00000000000E+00 -0.19750461990E+03  0.37068253829E+04  0.37015599880E+04 0.  0.
        2    1    3    3  502    0 -0.15813300103E+03 -0.28129948976E+03 -0.19237746890E+04  0.19506523275E+04  0.25500000920E-02 0. -1.
       -2    1    3    3    0  502  0.15813300103E+03  0.28129948976E+03  0.17262700691E+04  0.17561730554E+04  0.25500000920E-02 0.  1.
</event>
<event>
 5   0  0.1558258E-07  0.3697981E+04  0.7818609E-02  0.8068409E-01
       -2   -1    0    0    0  501  0.00000000000E+00  0.00000000000E+00  0.16919168272E+04  0.16919168272E+04  0.25500000920E-02 0.  1.
        2   -1    0    0  501    0  0.00000000000E+00  0.00000000000E+00 -0.20206466312E+04  0.20206466312E+04  0.25500000920E-02 0. -1.
    10030    2    1    2    0    0  0.00000000000E+00  0.00000000000E+00 -0.32872980402E+03  0.37125634584E+04  0.36979810909E+04 0.  0.
        1    1    3    3  502    0 -0.14146345095E+04  0.33597705579E+03  0.98237161356E+03  0.17547436749E+04  0.50400001928E-02 0.  1.
       -1    1    3    3    0  502  0.14146345095E+04 -0.33597705579E+03 -0.13111014176E+04  0.19578197835E+04  0.50400001928E-02 0. -1.
</event>
<event>
 5   0  0.1686284E-07  0.3698837E+04  0.7818609E-02  0.8068220E-01
       -2   -1    0    0    0  501  0.00000000000E+00  0.00000000000E+00  0.18564247778E+04  0.18564247778E+04  0.25500000920E-02 0.  1.
        2   -1    0    0  501    0  0.00000000000E+00  0.00000000000E+00 -0.18424382301E+04  0.18424382301E+04  0.25500000920E-02 0. -1.
    10030    2    1    2    0    0  0.00000000000E+00  0.00000000000E+00  0.13986547737E+02  0.36988630079E+04  0.36988365640E+04 0.  0.
        5    1    3    3  502    0 -0.92138575515E+03 -0.12648134890E+04 -0.97872215806E+03  0.18457042083E+04  0.46999998093E+01 0. -1.
       -5    1    3    3    0  502  0.92138575515E+03  0.12648134890E+04  0.99270870579E+03  0.18531587996E+04  0.46999998093E+01 0.  1.
</event>
<event>
 5   0  0.1587026E-07  0.3690742E+04  0.7818609E-02  0.8070017E-01
       -2   -1    0    0    0  501  0.00000000000E+00  0.00000000000E+00  0.12027459799E+04  0.12027459799E+04  0.25500000920E-02 0. -1.
        2   -1    0    0  501    0  0.00000000000E+00  0.00000000000E+00 -0.28313490268E+04  0.28313490268E+04  0.25500000920E-02 0.  1.
    10030    2    1    2    0    0  0.00000000000E+00  0.00000000000E+00 -0.16286030470E+04  0.40340950067E+04  0.36907417464E+04 0.  0.
        3    1    3    3  502    0  0.13594196018E+04 -0.47196300614E+03 -0.20770351729E+04  0.25268252516E+04  0.10100000352E+00 0.  1.
       -3    1    3    3    0  502 -0.13594196018E+04  0.47196300614E+03  0.44843212589E+03  0.15072697551E+04  0.10100000352E+00 0. -1.
</event>
<event>
 5   0  0.5177000E-08  0.3705388E+04  0.7818609E-02  0.8066769E-01
        1   -1    0    0  501    0  0.00000000000E+00  0.00000000000E+00  0.23473572467E+04  0.23473572467E+04  0.50400001928E-02 0.  1.
       -1   -1    0    0    0  501  0.00000000000E+00  0.00000000000E+00 -0.14622722250E+04  0.14622722250E+04  0.50400001928E-02 0. -1.
    10030    2    1    2    0    0  0.00000000000E+00  0.00000000000E+00  0.88508502170E+03  0.38096294717E+04  0.37053881330E+04 0.  0.
        4    1    3    3  502    0 -0.28316556060E+03 -0.18088395896E+04  0.15103426534E+03  0.18370890991E+04  0.12699999809E+01 0. -1.
       -4    1    3    3    0  502  0.28316556060E+03  0.18088395896E+04  0.73405075636E+03  0.19725403726E+04  0.12699999809E+01 0.  1.
</event>
<event>
 5   0  0.1558258E-07  0.3715836E+04  0.7818609E-02  0.8064462E-01
        2   -1    0    0  501    0  0.00000000000E+00  0.00000000000E+00  0.20146729139E+04  0.20146729139E+04  0.25500000920E-02 0.  1.
       -2   -1    0    0    0  501  0.00000000000E+00  0.00000000000E+00 -0.17133592931E+04  0.17133592931E+04  0.25500000920E-02 0. -1.
    10030    2    1    2    0    0  0.00000000000E+00  0.00000000000E+00  0.30131362083E+03  0.37280322070E+04  0.37158356043E+04 0.  0.
        1    1    3    3  502    0 -0.77315636973E+03 -0.93306396812E+03  0.15636400589E+04  0.19782187378E+04  0.50400001928E-02 0.  1.
       -1    1    3    3    0  502  0.77315636973E+03  0.93306396812E+03 -0.12623264381E+04  0.17498134692E+04  0.50400001928E-02 0. -1.
</event>
<event>
 5   0  0.5177000E-08  0.3709207E+04  0.7818609E-02  0.8065924E-01
       -1   -1    0    0    0  501  0.00000000000E+00  0.00000000000E+00  0.16220352648E+04  0.16220352648E+04  0.50400001928E-02 0.  1.
        1   -1    0    0  501    0  0.00000000000E+00  0.00000000000E+00 -0.21205175473E+04  0.21205175473E+04  0.50400001928E-02 0. -1.
    10030    2    1    2    0    0  0.00000000000E+00  0.00000000000E+00 -0.49848228247E+03  0.37425528121E+04  0.37092070535E+04 0.  0.
        4    1    3    3  502    0  0.26166186816E+03  0.17226592222E+04 -0.89019277396E+03  0.19566467532E+04  0.12699999809E+01 0. -1.
       -4    1    3    3    0  502 -0.26166186816E+03 -0.17226592222E+04  0.39171049149E+03  0.17859060589E+04  0.12699999809E+01 0.  1.
</event>
<event>
 5   0  0.1587026E-07  0.3703172E+04  0.7818609E-02  0.8067259E-01
       -2   -1    0    0    0  501  0.00000000000E+00  0.00000000000E+00  0.18505893498E+04  0.18505893498E+04  0.25500000920E-02 0.  1.
        2   -1    0    0  501    0  0.00000000000E+00  0.00000000000E+00 -0.18525830808E+04  0.18525830808E+04  0.25500000920E-02 0. -1.
    10030    2    1    2    0    0  0.00000000000E+00  0.00000000000E+00 -0.19937310804E+01  0.37031724306E+04  0.37031718939E+04 0.  0.
        3    1    3    3  502    0  0.84431051544E+03 -0.10824783682E+03 -0.16453184435E+04  0.18524714928E+04  0.10100000352E+00 0. -1.
       -3    1    3    3    0  502 -0.84431051544E+03  0.10824783682E+03  0.16433247124E+04  0.18507009379E+04  0.10100000352E+00 0.  1.
</event>
<event>
 5   0  0.1666189E-07  0.3691198E+04  0.7818609E-02  0.8069915E-01
       -2   -1    0    0    0  501  0.00000000000E+00  0.00000000000E+00  0.12252456320E+04  0.12252456320E+04  0.25500000920E-02 0. -1.
        2   -1    0    0  501    0  0.00000000000E+00  0.00000000000E+00 -0.27800427649E+04  0.27800427649E+04  0.25500000920E-02 0.  1.
    10030    2    1    2    0    0  0.00000000000E+00  0.00000000000E+00 -0.15547971330E+04  0.40052883969E+04  0.36911977754E+04 0.  0.
        4    1    3    3  502    0 -0.13157615807E+04  0.22781446379E+03 -0.21598181424E+04  0.25392802107E+04  0.12699999809E+01 0.  1.
       -4    1    3    3    0  502  0.13157615807E+04 -0.22781446379E+03  0.60502100942E+03  0.14660081862E+04  0.12699999809E+01 0. -1.
</event>
<event>
 5   0  0.5177000E-08  0.3693812E+04  0.7818609E-02  0.8069335E-01
        1   -1    0    0  501    0  0.00000000000E+00  0.00000000000E+00  0.26650518217E+04  0.26650518218E+04  0.50400001928E-02 0.  1.
       -1   -1    0    0    0  501  0.00000000000E+00  0.00000000000E+00 -0.12799229202E+04  0.12799229202E+04  0.50400001928E-02 0. -1.
    10030    2    1    2    0    0  0.00000000000E+00  0.00000000000E+00  0.13851289015E+04  0.39449747420E+04  0.36938115330E+04 0.  0.
        1    1    3    3  502    0  0.35338929134E+03 -0.49294020738E+03  0.25556543222E+04  0.26266410211E+04  0.50400001928E-02 0.  1.
       -1    1    3    3    0  502 -0.35338929134E+03  0.49294020738E+03 -0.11705254206E+04  0.13183337209E+04  0.50400001928E-02 0. -1.
</event>
<event>
 5   0  0.1558258E-07  0.3709821E+04  0.7818609E-02  0.8065789E-01
        2   -1    0    0  501    0  0.00000000000E+00  0.00000000000E+00  0.13621152857E+04  0.13621152857E+04  0.25500000920E-02 0. -1.
       -2   -1    0    0    0  501  0.00000000000E+00  0.00000000000E+00 -0.25259923198E+04  0.25259923198E+04  0.25500000920E-02 0.  1.
    10030    2    1    2    0    0  0.00000000000E+00  0.00000000000E+00 -0.11638770341E+04  0.38881076055E+04  0.37098208854E+04 0.  0.
        1    1    3    3  502    0  0.13701081475E+04 -0.11782749479E+04 -0.10205787440E+04  0.20753575984E+04  0.50400001928E-02 0.  1.
       -1    1    3    3    0  502 -0.13701081475E+04  0.11782749479E+04 -0.14329829012E+03  0.18127500072E+04  0.50400001928E-02 0. -1.
</event>
<event>
 5   0  0.5181371E-08  0.3688920E+04  0.7818609E-02  0.8070422E-01
        1   -1    0    0  501    0  0.00000000000E+00  0.00000000000E+00  0.21972177259E+04  0.21972177259E+04  0.50400001928E-02 0.  1.
       -1   -1    0    0    0  501  0.00000000000E+00  0.00000000000E+00 -0.15483363050E+04  0.15483363050E+04  0.50400001928E-02 0. -1.
    10030    2    1    2    0    0  0.00000000000E+00  0.00000000000E+00  0.64888142093E+03  0.37455540309E+04  0.36889196115E+04 0.  0.
        5    1    3    3  502    0 -0.14838169464E+04 -0.35661093323E+03 -0.72738114973E+03  0.16905589357E+04  0.46999998093E+01 0. -1.
       -5    1    3    3    0  502  0.14838169464E+04  0.35661093323E+03  0.13762625707E+04  0.20549950952E+04  0.46999998093E+01 0.  1.
</event>
<event>
 5   0  0.5181371E-08  0.3746687E+04  0.7818609E-02  0.8057694E-01
       -1   -1    0    0    0  501  0.00000000000E+00  0.00000000000E+00  0.27194449217E+04  0.27194449217E+04  0.50400001928E-02 0. -1.
        1   -1    0    0  501    0  0.00000000000E+00  0.00000000000E+00 -0.12904895207E+04  0.12904895207E+04  0.50400001928E-02 0.  1.
    10030    2    1    2    0    0  0.00000000000E+00  0.00000000000E+00  0.14289554010E+04  0.40099344424E+04  0.37466866288E+04 0.  0.
        5    1    3    3  502    0 -0.16358596956E+04 -0.90783039659E+03  0.81713419631E+03  0.20415492542E+04  0.46999998093E+01 0.  1.
       -5    1    3    3    0  502  0.16358596956E+04  0.90783039659E+03  0.61182120468E+03  0.19683851882E+04  0.46999998093E+01 0. -1.
</event>
<event>
 5   0  0.5177000E-08  0.3671400E+04  0.7818609E-02  0.8074330E-01
       -1   -1    0    0    0  501  0.00000000000E+00  0.00000000000E+00  0.18698187129E+04  0.18698187129E+04  0.50400001928E-02 0. -1.
        1   -1    0    0  501    0  0.00000000000E+00  0.00000000000E+00 -0.18022037086E+04  0.18022037086E+04  0.50400001928E-02 0.  1.
    10030    2    1    2    0    0  0.00000000000E+00  0.00000000000E+00  0.67615004250E+02  0.36720224215E+04  0.36713998523E+04 0.  0.
        1    1    3    3  502    0  0.19259325639E+03  0.16238599912E+04 -0.80046869686E+03  0.18206492161E+04  0.50400001928E-02 0.  1.
       -1    1    3    3    0  502 -0.19259325639E+03 -0.16238599912E+04  0.86808370111E+03  0.18513732054E+04  0.50400001928E-02 0. -1.
</event>
<event>
 5   0  0.5177000E-08  0.3687930E+04  0.7818609E-02  0.8070642E-01
        1   -1    0    0  501    0  0.00000000000E+00  0.00000000000E+00  0.13054981880E+04  0.13054981880E+04  0.50400001928E-02 0.  1.
       -1   -1    0    0    0  501  0.00000000000E+00  0.00000000000E+00 -0.26045288471E+04  0.26045288471E+04  0.50400001928E-02 0. -1.
    10030    2    1    2    0    0  0.00000000000E+00  0.00000000000E+00 -0.12990306591E+04  0.39100270352E+04  0.36879304172E+04 0.  0.
        3    1    3    3  502    0 -0.39175213766E+03  0.56531599423E+03  0.11644123127E+04  0.13523712341E+04  0.10100000352E+00 0.  1.
       -3    1    3    3    0  502  0.39175213766E+03 -0.56531599423E+03 -0.24634429719E+04  0.25576558010E+04  0.10100000352E+00 0. -1.
</event>
<event>
 5   0  0.5177000E-08  0.3675291E+04  0.7818609E-02  0.8073460E-01
       -1   -1    0    0    0  501  0.00000000000E+00  0.00000000000E+00  0.20927046878E+04  0.20927046878E+04  0.50400001928E-02 0. -1.
        1   -1    0    0  501    0  0.00000000000E+00  0.00000000000E+00 -0.16136730200E+04  0.16136730200E+04  0.50400001928E-02 0.  1.
    10030    2    1    2    0    0  0.00000000000E+00  0.00000000000E+00  0.47903166784E+03  0.37063777078E+04  0.36752910598E+04 0.  0.
        3    1    3    3  502    0  0.28253923470E+03 -0.48708995918E+03  0.20035558550E+04  0.20811826257E+04  0.10100000352E+00 0. -1.
       -3    1    3    3    0  502 -0.28253923470E+03  0.48708995918E+03 -0.15245241871E+04  0.16251950821E+04  0.10100000352E+00 0.  1.
</event>
<event>
 5   0  0.5177000E-08  0.3701627E+04  0.7818609E-02  0.8067601E-01
        1   -1    0    0  501    0  0.00000000000E+00  0.00000000000E+00  0.18940833651E+04  0.18940833651E+04  0.50400001928E-02 0. -1.
       -1   -1    0    0    0  501  0.00000000000E+00  0.00000000000E+00 -0.18085325167E+04  0.18085325168E+04  0.50400001928E-02 0.  1.
    10030    2    1    2    0    0  0.00000000000E+00  0.00000000000E+00  0.85550848380E+02  0.37026158819E+04  0.37016274017E+04 0.  0.
        4    1    3    3  502    0  0.12935242748E+04  0.84271527238E+03  0.10638984919E+04  0.18749015157E+04  0.12699999809E+01 0. -1.
       -4    1    3    3    0  502 -0.12935242748E+04 -0.84271527238E+03 -0.97834764354E+03  0.18277143662E+04  0.12699999809E+01 0.  1.
</event>
<event>
 5   0  0.5177000E-08  0.3663301E+04  0.7818609E-02  0.8076144E-01
        1   -1    0    0  501    0  0.00000000000E+00  0.00000000000E+00  0.19757665085E+04  0.19757665085E+04  0.50400001928E-02 0.  1.
       -1   -1    0    0    0  501  0.00000000000E+00  0.00000000000E+00 -0.16980465053E+04  0.16980465053E+04  0.50400001928E-02 0. -1.
    10030    2    1    2    0    0  0.00000000000E+00  0.00000000000E+00  0.27772000323E+03  0.36738130138E+04  0.36633009241E+04 0.  0.
        3    1    3    3  502    0  0.13892843897E+04 -0.90699984657E+03 -0.63937167288E+03  0.17780764842E+04  0.10100000352E+00 0.  1.
       -3    1    3    3    0  502 -0.13892843897E+04  0.90699984657E+03  0.91709167610E+03  0.18957365297E+04  0.10100000352E+00 0. -1.
</event>
<event>
 5   0  0.5177000E-08  0.3679591E+04  0.7818609E-02  0.8072500E-01
       -1   -1    0    0    0  501  0.00000000000E+00  0.00000000000E+00  0.10173485320E+04  0.10173485320E+04  0.50400001928E-02 0. -1.
        1   -1    0    0  501    0  0.00000000000E+00  0.00000000000E+00 -0.33271272773E+04  0.33271272773E+04  0.50400001928E-02 0.  1.
    10030    2    1    2    0    0  0.00000000000E+00  0.00000000000E+00 -0.23097787453E+04  0.43444758094E+04  0.36795913096E+04 0.  0.
        1    1    3    3  502    0 -0.23372011316E+03  0.12582767509E+04  0.40566749734E+03  0.13425541298E+04  0.50400001928E-02 0. -1.
       -1    1    3    3    0  502  0.23372011316E+03 -0.12582767509E+04 -0.27154462427E+04  0.30019216795E+04  0.50400001928E-02 0.  1.
</event>
<event>
 5   0  0.5181371E-08  0.3753715E+04  0.7818609E-02  0.8056161E-01
       -1   -1    0    0    0  501  0.00000000000E+00  0.00000000000E+00  0.20526888000E+04  0.20526888000E+04  0.50400001928E-02 0.  1.
        1   -1    0    0  501    0  0.00000000000E+00  0.00000000000E+00 -0.17160874984E+04  0.17160874984E+04  0.50400001928E-02 0. -1.
    10030    2    1    2    0    0  0.00000000000E+00  0.00000000000E+00  0.33660130161E+03  0.37687762984E+04  0.37537147403E+04 0.  0.
        5    1    3    3  502    0  0.79358159936E+03  0.16572597967E+04  0.55231370030E+03  0.19186855662E+04  0.46999998093E+01 0.  1.
       -5    1    3    3    0  502 -0.79358159936E+03 -0.16572597967E+04 -0.21571239869E+03  0.18500907322E+04  0.46999998093E+01 0. -1.
</event>
<event>
 5   0  0.1587026E-07  0.3724258E+04  0.7818609E-02  0.8062607E-01
        2   -1    0    0  501    0  0.00000000000E+00  0.00000000000E+00  0.18351183093E+04  0.18351183093E+04  0.25500000920E-02 0. -1.
       -2   -1    0    0    0  501  0.00000000000E+00  0.00000000000E+00 -0.18895368847E+04  0.18895368847E+04  0.25500000920E-02 0.  1.
    10030    2    1    2    0    0  0.00000000000E+00  0.00000000000E+00 -0.54418575414E+02  0.37246551941E+04  0.37242576352E+04 0.  0.
        3    1    3    3  502    0  0.12684534182E+03  0.79857457975E+02  0.18290752587E+04  0.18352066005E+04  0.10100000352E+00 0. -1.
       -3    1    3    3    0  502 -0.12684534182E+03 -0.79857457975E+02 -0.18834938341E+04  0.18894485936E+04  0.10100000352E+00 0.  1.
</event>
<event>
 5   0  0.1658770E-07  0.3689114E+04  0.7818609E-02  0.8070378E-01
        2   -1    0    0  501    0  0.00000000000E+00  0.00000000000E+00  0.31149764332E+04  0.31149764332E+04  0.25500000920E-02 0.  1.
       -2   -1    0    0    0  501  0.00000000000E+00  0.00000000000E+00 -0.10922687204E+04  0.10922687204E+04  0.25500000920E-02 0. -1.
    10030    2    1    2    0    0  0.00000000000E+00  0.00000000000E+00  0.20227077128E+04  0.42072451535E+04  0.36891144317E+04 0.  0.
        2    1    3    3  502    0 -0.12036585219E+04  0.19247054318E+03 -0.56747865500E+03  0.13445708502E+04  0.25500000920E-02 0. -1.
       -2    1    3    3    0  502  0.12036585219E+04 -0.19247054318E+03  0.25901863678E+04  0.28626743034E+04  0.25500000920E-02 0.  1.
</event>
<event>
 5   0  0.5181371E-08  0.3688447E+04  0.7818609E-02  0.8070527E-01
       -1   -1    0    0    0  501  0.00000000000E+00  0.00000000000E+00  0.16422602897E+04  0.16422602897E+04  0.50400001928E-02 0.  1.
        1   -1    0    0  501    0  0.00000000000E+00  0.00000000000E+00 -0.20710236771E+04  0.20710236771E+04  0.50400001928E-02 0. -1.
    10030    2    1    2    0    0  0.00000000000E+00  0.00000000000E+00 -0.42876338742E+03  0.37132839667E+04  0.36884467971E+04 0.  0.
        5    1    3    3  502    0  0.16830697006E+04  0.18319880855E+03 -0.95064240631E+03  0.19416561218E+04  0.46999998093E+01 0. -1.
       -5    1    3    3    0  502 -0.16830697006E+04 -0.18319880855E+03  0.52187901889E+03  0.17716278449E+04  0.46999998093E+01 0.  1.
</event>
<event>
 5   0  0.1587026E-07  0.3760309E+04  0.7818609E-02  0.8054727E-01
        2   -1    0    0  501    0  0.00000000000E+00  0.00000000000E+00  0.27063335310E+04  0.27063335310E+04  0.25500000920E-02 0. -1.
       -2   -1    0    0    0  501  0.00000000000E+00  0.00000000000E+00 -0.13061880356E+04  0.13061880356E+04  0.25500000920E-02 0.  1.
    10030    2    1    2    0    0  0.00000000000E+00  0.00000000000E+00  0.14001454954E+04  0.40125215666E+04  0.37603087525E+04 0.  0.
        3    1    3    3  502    0  0.86206940212E+02  0.22224058026E+03  0.26901435350E+04  0.27006841284E+04  0.10100000352E+00 0. -1.
       -3    1    3    3    0  502 -0.86206940212E+02 -0.22224058026E+03 -0.12899980396E+04  0.13118374382E+04  0.10100000352E+00 0.  1.
</event>
<event>
 5   0  0.1558258E-07  0.3695414E+04  0.7818609E-02  0.8068979E-01
       -2   -1    0    0    0  501  0.00000000000E+00  0.00000000000E+00  0.22654648937E+04  0.22654648937E+04  0.25500000920E-02 0. -1.
        2   -1    0    0  501    0  0.00000000000E+00  0.00000000000E+00 -0.15069851123E+04  0.15069851123E+04  0.25500000920E-02 0.  1.
    10030    2    1    2    0    0  0.00000000000E+00  0.00000000000E+00  0.75847978142E+03  0.37724500060E+04  0.36954143839E+04 0.  0.
        1    1    3    3  502    0  0.10892970979E+04 -0.14293991758E+04 -0.58977556628E+02  0.17981180504E+04  0.50400001928E-02 0.  1.
       -1    1    3    3    0  502 -0.10892970979E+04  0.14293991758E+04  0.81745733805E+03  0.19743319555E+04  0.50400001928E-02 0. -1.
</event>
<event>
 5   0  0.1666189E-07  0.3690422E+04  0.7818609E-02  0.8070088E-01
        2   -1    0    0  501    0  0.00000000000E+00  0.00000000000E+00  0.16437286813E+04  0.16437286813E+04  0.25500000920E-02 0.  1.
       -2   -1    0    0    0  501  0.00000000000E+00  0.00000000000E+00 -0.20713901521E+04  0.20713901521E+04  0.25500000920E-02 0. -1.
    10030    2    1    2    0    0  0.00000000000E+00  0.00000000000E+00 -0.42766147079E+03  0.37151188334E+04  0.36904218746E+04 0.  0.
        4    1    3    3  502    0 -0.29148844577E+03 -0.75860299135E+03 -0.18815273937E+04  0.20495343272E+04  0.12699999809E+01 0. -1.
       -4    1    3    3    0  502  0.29148844577E+03  0.75860299135E+03  0.14538659229E+04  0.16655845061E+04  0.12699999809E+01 0.  1.
</event>
<event>
 5   0  0.1658770E-07  0.3699340E+04  0.7818609E-02  0.8068108E-01
        2   -1    0    0  501    0  0.00000000000E+00  0.00000000000E+00  0.11571311077E+04  0.11571311077E+04  0.25500000920E-02 0. -1.
       -2   -1    0    0    0  501  0.00000000000E+00  0.00000000000E+00 -0.29566905333E+04  0.29566905333E+04  0.25500000920E-02 0.  1.
    10030    2    1    2    0    0  0.00000000000E+00  0.00000000000E+00 -0.17995594255E+04  0.41138216410E+04  0.36993397206E+04 0.  0.
        2    1    3    3  502    0 -0.11644717793E+04  0.10892636318E+04 -0.19422495583E+04  0.25129311831E+04  0.25500000920E-02 0.  1.
       -2    1    3    3    0  502  0.11644717793E+04 -0.10892636318E+04  0.14269013275E+03  0.16008904579E+04  0.25500000920E-02 0. -1.
</event>
<event>
 5   0  0.5181371E-08  0.3709490E+04  0.7818609E-02  0.8065862E-01
        1   -1    0    0  501    0  0.00000000000E+00  0.00000000000E+00  0.24245801873E+04  0.24245801873E+04  0.50400001928E-02 0.  1.
       -1   -1    0    0    0  501  0.00000000000E+00  0.00000000000E+00 -0.14188350217E+04  0.14188350217E+04  0.50400001928E-02 0. -1.
    10030    2    1    2    0    0  0.00000000000E+00  0.00000000000E+00  0.10057451656E+04  0.38434152090E+04  0.37094901443E+04 0.  0.
        5    1    3    3  502    0 -0.37474807089E+03  0.12862019813E+04 -0.82613164578E+03  0.15739336833E+04  0.46999998093E+01 0. -1.
       -5    1    3    3    0  502  0.37474807089E+03 -0.12862019813E+04  0.18318768114E+04  0.22694815257E+04  0.46999998093E+01 0.  1.
</event>
<event>
 5   0  0.1658770E-07  0.3723047E+04  0.7818609E-02  0.8062873E-01
        2   -1    0    0  501    0  0.00000000000E+00  0.00000000000E+00  0.17437239243E+04  0.17437239243E+04  0.25500000920E-02 0. -1.
       -2   -1    0    0    0  501  0.00000000000E+00  0.00000000000E+00 -0.19872811752E+04  0.19872811752E+04  0.25500000920E-02 0.  1.
    10030    2    1    2    0    0  0.00000000000E+00  0.00000000000E+00 -0.24355725088E+03  0.37310050995E+04  0.37230469938E+04 0.  0.
        2    1    3    3  502    0  0.74965321421E+03 -0.24771798877E+03 -0.18111832378E+04  0.19757856322E+04  0.25500000920E-02 0.  1.
       -2    1    3    3    0  502 -0.74965321421E+03  0.24771798877E+03  0.15676259869E+04  0.17552194673E+04  0.25500000920E-02 0. -1.
</event>
<event>
 5   0  0.5181371E-08  0.3699600E+04  0.7818609E-02  0.8068051E-01
        1   -1    0    0  501    0  0.00000000000E+00  0.00000000000E+00  0.23068648693E+04  0.23068648693E+04  0.50400001928E-02 0. -1.
       -1   -1    0    0    0  501  0.00000000000E+00  0.00000000000E+00 -0.14832942658E+04  0.14832942658E+04  0.50400001928E-02 0.  1.
    10030    2    1    2    0    0  0.00000000000E+00  0.00000000000E+00  0.82357060351E+03  0.37901591351E+04  0.36995996716E+04 0.  0.
        5    1    3    3  502    0  0.63209019268E+03  0.14168461181E+04  0.14437895237E+04  0.21193256505E+04  0.46999998093E+01 0. -1.
       -5    1    3    3    0  502 -0.63209019268E+03 -0.14168461181E+04 -0.62021892022E+03  0.16708334846E+04  0.46999998093E+01 0.  1.
</event>
<event>
 5   0  0.5177000E-08  0.3706631E+04  0.7818609E-02  0.8066494E-01
        1   -1    0    0  501    0  0.00000000000E+00  0.00000000000E+00  0.10453998211E+04  0.10453998211E+04  0.50400001928E-02 0.  1.
       -1   -1    0    0    0  501  0.00000000000E+00  0.00000000000E+00 -0.32856118615E+04  0.32856118615E+04  0.50400001928E-02 0. -1.
    10030    2    1    2    0    0  0.00000000000E+00  0.00000000000E+00 -0.22402120404E+04  0.43310116827E+04  0.37066308434E+04 0.  0.
        4    1    3    3  502    0  0.74550315486E+03 -0.39811727214E+03  0.80712915744E+03  0.11686451155E+04  0.12699999809E+01 0.  1.
       -4    1    3    3    0  502 -0.74550315486E+03  0.39811727214E+03 -0.30473411978E+04  0.31623665672E+04  0.12699999809E+01 0. -1.
</event>
<event>
 5   0  0.5177000E-08  0.3703668E+04  0.7818609E-02  0.8067149E-01
        1   -1    0    0  501    0  0.00000000000E+00  0.00000000000E+00  0.19772338047E+04  0.19772338047E+04  0.50400001928E-02 0.  1.
       -1   -1    0    0    0  501  0.00000000000E+00  0.00000000000E+00 -0.17343874312E+04  0.17343874312E+04  0.50400001928E-02 0. -1.
    10030    2    1    2    0    0  0.00000000000E+00  0.00000000000E+00  0.24284637347E+03  0.37116212359E+04  0.37036681598E+04 0.  0.
        2    1    3    3  502    0  0.10171363371E+04 -0.77111522258E+03 -0.12231375810E+04  0.17678378197E+04  0.25500000920E-02 0. -1.
       -2    1    3    3    0  502 -0.10171363371E+04  0.77111522258E+03  0.14659839544E+04  0.19437834163E+04  0.25500000920E-02 0.  1.
</event>
<event>
 5   0  0.5177000E-08  0.3687197E+04  0.7818609E-02  0.8070805E-01
       -1   -1    0    0    0  501  0.00000000000E+00  0.00000000000E+00  0.23582624456E+04  0.23582624456E+04  0.50400001928E-02 0.  1.
        1   -1    0    0  501    0  0.00000000000E+00  0.00000000000E+00 -0.14412544555E+04  0.14412544555E+04  0.50400001928E-02 0. -1.
    10030    2    1    2    0    0  0.00000000000E+00  0.00000000000E+00  0.91700799016E+03  0.37995169011E+04  0.36871974490E+04 0.  0.
        4    1    3    3  502    0 -0.10993854061E+04  0.37725905284E+03 -0.10161307019E+04  0.15438574677E+04  0.12699999809E+01 0. -1.
       -4    1    3    3    0  502  0.10993854061E+04 -0.37725905284E+03  0.19331386921E+04  0.22556594335E+04  0.12699999809E+01 0.  1.
</event>
<event>
 5   0  0.1558258E-07  0.3692912E+04  0.7818609E-02  0.8069534E-01
        2   -1    0    0  501    0  0.00000000000E+00  0.00000000000E+00  0.31769962108E+04  0.31769962108E+04  0.25500000920E-02 0. -1.
       -2   -1    0    0    0  501  0.00000000000E+00  0.00000000000E+00 -0.10731520365E+04  0.10731520365E+04  0.25500000920E-02 0.  1.
    10030    2    1    2    0    0  0.00000000000E+00  0.00000000000E+00  0.21038441743E+04  0.42501482473E+04  0.36929121049E+04 0.  0.
        1    1    3    3  502    0 -0.76258597319E+03 -0.10127004866E+04 -0.49314978567E+03  0.13602559881E+04  0.50400001928E-02 0.  1.
       -1    1    3    3    0  502  0.76258597319E+03  0.10127004866E+04  0.25969939599E+04  0.28898922592E+04  0.50400001928E-02 0. -1.
</event>
<event>
 5   0  0.1666189E-07  0.3708998E+04  0.7818609E-02  0.8065971E-01
        2   -1    0    0  501    0  0.00000000000E+00  0.00000000000E+00  0.24669612728E+04  0.24669612728E+04  0.25500000920E-02 0. -1.
       -2   -1    0    0    0  501  0.00000000000E+00  0.00000000000E+00 -0.13940903143E+04  0.13940903143E+04  0.25500000920E-02 0.  1.
    10030    2    1    2    0    0  0.00000000000E+00  0.00000000000E+00  0.10728709584E+04  0.38610515871E+04  0.37089981484E+04 0.  0.
        4    1    3    3  502    0  0.23263711347E+03 -0.15606703144E+04  0.15507273167E+04  0.22123672120E+04  0.12699999809E+01 0. -1.
       -4    1    3    3    0  502 -0.23263711347E+03  0.15606703144E+04 -0.47785635828E+03  0.16486843752E+04  0.12699999809E+01 0.  1.
</event>
<event>
 5   0  0.5177000E-08  0.3695426E+04  0.7818609E-02  0.8068976E-01
       -1   -1    0    0    0  501  0.00000000000E+00  0.00000000000E+00  0.13215536379E+04  0.13215536379E+04  0.50400001928E-02 0.  1.
        1   -1    0    0  501    0  0.00000000000E+00  0.00000000000E+00 -0.25833555113E+04  0.25833555113E+04  0.50400001928E-02 0. -1.
    10030    2    1    2    0    0  0.00000000000E+00  0.00000000000E+00 -0.12618018734E+04  0.39049091491E+04  0.36954257529E+04 0.  0.
        3    1    3    3  502    0  0.63753670883E+03  0.69018890042E+02 -0.24619987814E+04  0.25441412445E+04  0.10100000352E+00 0. -1.
       -3    1    3    3    0  502 -0.63753670883E+03 -0.69018890042E+02  0.12001969080E+04  0.13607679047E+04  0.10100000352E+00 0.  1.
</event>
<event>
 5   0  0.1587026E-07  0.3703553E+04  0.7818609E-02  0.8067175E-01
       -2   -1    0    0    0  501  0.00000000000E+00  0.00000000000E+00  0.32409614337E+04  0.32409614337E+04  0.25500000920E-02 0.  1.
        2   -1    0    0  501    0  0.00000000000E+00  0.00000000000E+00 -0.10580426738E+04  0.10580426738E+04  0.25500000920E-02 0. -1.
    10030    2    1    2    0    0  0.00000000000E+00  0.00000000000E+00  0.21829187599E+04  0.42990041075E+04  0.37035526193E+04 0.  0.
        3    1    3    3  502    0  0.17724801641E+03  0.18118720991E+03 -0.10378113945E+04  0.10683155738E+04  0.10100000352E+00 0. -1.
       -3    1    3    3    0  502 -0.17724801641E+03 -0.18118720991E+03  0.32207301544E+04  0.32306885338E+04  0.10100000352E+00 0.  1.
</event>
<event>
 5   0  0.5177000E-08  0.3724580E+04  0.7818609E-02  0.8062536E-01
        1   -1    0    0  501    0  0.00000000000E+00  0.00000000000E+00  0.18416596079E+04  0.18416596079E+04  0.50400001928E-02 0.  1.
       -1   -1    0    0    0  501  0.00000000000E+00  0.00000000000E+00 -0.18831514746E+04  0.18831514746E+04  0.50400001928E-02 0. -1.
    10030    2    1    2    0    0  0.00000000000E+00  0.00000000000E+00 -0.41491866758E+02  0.37248110825E+04  0.37245799797E+04 0.  0.
        3    1    3    3  502    0  0.63672709294E+03 -0.16014405150E+04 -0.72654526400E+03  0.18702676666E+04  0.10100000352E+00 0. -1.
       -3    1    3    3    0  502 -0.63672709294E+03  0.16014405150E+04  0.68505339724E+03  0.18545434159E+04  0.10100000352E+00 0.  1.
</event>
<event>
 5   0  0.5177000E-08  0.3705614E+04  0.7818609E-02  0.8066719E-01
       -1   -1    0    0    0  501  0.00000000000E+00  0.00000000000E+00  0.15751550764E+04  0.15751550764E+04  0.50400001928E-02 0. -1.
        1   -1    0    0  501    0  0.00000000000E+00  0.00000000000E+00 -0.21794006684E+04  0.21794006684E+04  0.50400001928E-02 0.  1.
    10030    2    1    2    0    0  0.00000000000E+00  0.00000000000E+00 -0.60424559209E+03  0.37545557448E+04  0.37056141334E+04 0.  0.
        2    1    3    3  502    0 -0.18181080522E+04 -0.35460661543E+03 -0.34304540298E+03  0.18838638193E+04  0.25500000920E-02 0. -1.
       -2    1    3    3    0  502  0.18181080522E+04  0.35460661543E+03 -0.26120018910E+03  0.18706919255E+04  0.25500000920E-02 0.  1.
</event>
<event>
 5   0  0.1658770E-07  0.3685597E+04  0.7818609E-02  0.8071161E-01
        2   -1    0    0  501    0  0.00000000000E+00  0.00000000000E+00  0.13281366494E+04  0.13281366494E+04  0.25500000920E-02 0.  1.
       -2   -1    0    0    0  501  0.00000000000E+00  0.00000000000E+00 -0.25568957563E+04  0.25568957563E+04  0.25500000920E-02 0. -1.
    10030    2    1    2    0    0  0.00000000000E+00  0.00000000000E+00 -0.12287591069E+04  0.38850324056E+04  0.36855973532E+04 0.  0.
        2    1    3    3  502    0 -0.87522898128E+03  0.84367549041E+03  0.84551528342E+03  0.14807802664E+04  0.25500000920E-02 0.  1.
       -2    1    3    3    0  502  0.87522898128E+03 -0.84367549041E+03 -0.20742743903E+04  0.24042521393E+04  0.25500000920E-02 0. -1.
</event>
<event>
 5   0  0.5177000E-08  0.3707373E+04  0.7818609E-02  0.8066330E-01
       -3   -1    0    0    0  501  0.00000000000E+00  0.00000000000E+00  0.16382947586E+04  0.16382947617E+04  0.10100000352E+00 0. -1.
        3   -1    0    0  501    0  0.00000000000E+00  0.00000000000E+00 -0.20973966348E+04  0.20973966373E+04  0.10100000352E+00 0.  1.
    10030    2    1    2    0    0  0.00000000000E+00  0.00000000000E+00 -0.45910187625E+03  0.37356913990E+04  0.37073731530E+04 0.  0.
        4    1    3    3  502    0 -0.91825043613E+03 -0.15946290250E+03  0.13850429476E+04  0.16694184197E+04  0.12699999809E+01 0. -1.
       -4    1    3    3    0  502  0.91825043613E+03  0.15946290250E+03 -0.18441448238E+04  0.20662729792E+04  0.12699999809E+01 0.  1.
</event>
<event>
 5   0  0.5177000E-08  0.3678898E+04  0.7818609E-02  0.8072654E-01
       -1   -1    0    0    0  501  0.00000000000E+00  0.00000000000E+00  0.14008821554E+04  0.14008821554E+04  0.50400001928E-02 0. -1.
        1   -1    0    0  501    0  0.00000000000E+00  0.00000000000E+00 -0.24153154779E+04  0.24153154779E+04  0.50400001928E-02 0.  1.
    10030    2    1    2    0    0  0.00000000000E+00  0.00000000000E+00 -0.10144333225E+04  0.38161976332E+04  0.36788978526E+04 0.  0.
        1    1    3    3  502    0 -0.25381895419E+03 -0.18120770401E+04 -0.31170136828E+03  0.18561263437E+04  0.50400001928E-02 0. -1.
       -1    1    3    3    0  502  0.25381895419E+03  0.18120770401E+04 -0.70273195422E+03  0.19600712896E+04  0.50400001928E-02 0.  1.
</event>
<event>
 5   0  0.1666189E-07  0.3709958E+04  0.7818609E-02  0.8065759E-01
        2   -1    0    0  501    0  0.00000000000E+00  0.00000000000E+00  0.14894568675E+04  0.14894568675E+04  0.25500000920E-02 0.  1.
       -2   -1    0    0    0  501  0.00000000000E+00  0.00000000000E+00 -0.23102019711E+04  0.23102019711E+04  0.25500000920E-02 0. -1.
    10030    2    1    2    0    0  0.00000000000E+00  0.00000000000E+00 -0.82074510354E+03  0.37996588386E+04  0.37099575153E+04 0.  0.
        4    1    3    3  502    0  0.12787131466E+04  0.67158997078E+03 -0.16024759654E+04  0.21573296532E+04  0.12699999809E+01 0. -1.
       -4    1    3    3    0  502 -0.12787131466E+04 -0.67158997078E+03  0.78173086185E+03  0.16423291854E+04  0.12699999809E+01 0.  1.
</event>
<event>
 5   0  0.5177000E-08  0.3702906E+04  0.7818609E-02  0.8067318E-01
       -1   -1    0    0    0  501  0.00000000000E+00  0.00000000000E+00  0.13430225856E+04  0.13430225856E+04  0.50400001928E-02 0. -1.
        1   -1    0    0  501    0  0.00000000000E+00  0.00000000000E+00 -0.25523610312E+04  0.25523610312E+04  0.50400001928E-02 0.  1.
    10030    2    1    2    0    0  0.00000000000E+00  0.00000000000E+00 -0.12093384456E+04  0.38953836168E+04  0.37029061622E+04 0.  0.
        1    1    3    3  502    0  0.66008528164E+03 -0.20611828838E+03  0.12020683068E+04  0.13867824422E+04  0.50400001928E-02 0. -1.
       -1    1    3    3    0  502 -0.66008528164E+03  0.20611828838E+03 -0.24114067524E+04  0.25086011746E+04  0.50400001928E-02 0.  1.
</event>
<event>
 5   0  0.1666189E-07  0.3706086E+04  0.7818609E-02  0.8066614E-01
       -2   -1    0    0    0  501  0.00000000000E+00  0.00000000000E+00  0.15538887133E+04  0.15538887133E+04  0.25500000920E-02 0.  1.
        2   -1    0    0  501    0  0.00000000000E+00  0.00000000000E+00 -0.22097903512E+04  0.22097903512E+04  0.25500000920E-02 0. -1.
    10030    2    1    2    0    0  0.00000000000E+00  0.00000000000E+00 -0.65590163794E+03  0.37636790646E+04  0.37060859599E+04 0.  0.
        4    1    3    3  502    0  0.75998366393E+03  0.12762171992E+04  0.79717470025E+03  0.16857623274E+04  0.12699999809E+01 0.  1.
       -4    1    3    3    0  502 -0.75998366393E+03 -0.12762171992E+04 -0.14530763382E+04  0.20779167371E+04  0.12699999809E+01 0. -1.
</event>
<event>
 5   0  0.1686284E-07  0.3715563E+04  0.7818609E-02  0.8064522E-01
       -2   -1    0    0    0  501  0.00000000000E+00  0.00000000000E+00  0.21132847268E+04  0.21132847268E+04  0.25500000920E-02 0. -1.
        2   -1    0    0  501    0  0.00000000000E+00  0.00000000000E+00 -0.16331694773E+04  0.16331694773E+04  0.25500000920E-02 0.  1.
    10030    2    1    2    0    0  0.00000000000E+00  0.00000000000E+00  0.48011524951E+03  0.37464542040E+04  0.37155630058E+04 0.  0.
        5    1    3    3  502    0 -0.12349977577E+03  0.90057443255E+03 -0.13936113146E+04  0.16638693126E+04  0.46999998093E+01 0.  1.
       -5    1    3    3    0  502  0.12349977577E+03 -0.90057443255E+03  0.18737265641E+04  0.20825848915E+04  0.46999998093E+01 0. -1.
</event>
<event>
 5   0  0.5177000E-08  0.3745198E+04  0.7818609E-02  0.8058019E-01
       -1   -1    0    0    0  501  0.00000000000E+00  0.00000000000E+00  0.13878065331E+04  0.13878065331E+04  0.50400001928E-02 0. -1.
        1   -1    0    0  501    0  0.00000000000E+00  0.00000000000E+00 -0.25267401623E+04  0.25267401623E+04  0.50400001928E-02 0.  1.
    10030    2    1    2    0    0  0.00000000000E+00  0.00000000000E+00 -0.11389336293E+04  0.39145466954E+04  0.37451977276E+04 0.  0.
        4    1    3    3  502    0 -0.36251376862E+03  0.18321628032E+04 -0.71120126136E+03  0.19985108499E+04  0.12699999809E+01 0. -1.
       -4    1    3    3    0  502  0.36251376862E+03 -0.18321628032E+04 -0.42773236792E+03  0.19160358456E+04  0.12699999809E+01 0.  1.
</event>
<event>
 5   0  0.1686284E-07  0.3753509E+04  0.7818609E-02  0.8056206E-01
       -2   -1    0    0    0  501  0.00000000000E+00  0.00000000000E+00  0.17211593605E+04  0.17211593605E+04  0.25500000920E-02 0.  1.
        2   -1    0    0  501    0  0.00000000000E+00  0.00000000000E+00 -0.20464161899E+04  0.20464161899E+04  0.25500000920E-02 0. -1.
    10030    2    1    2    0    0  0.00000000000E+00  0.00000000000E+00 -0.32525682944E+03  0.37675755505E+04  0.37535094942E+04 0.  0.
        5    1    3    3  502    0  0.75786872318E+03 -0.12641035858E+04  0.10035617232E+04  0.17831099516E+04  0.46999998093E+01 0.  1.
       -5    1    3    3    0  502 -0.75786872318E+03  0.12641035858E+04 -0.13288185526E+04  0.19844655989E+04  0.46999998093E+01 0. -1.
</event>
<event>
 5   0  0.5177000E-08  0.3722260E+04  0.7818609E-02  0.8063047E-01
        1   -1    0    0  501    0  0.00000000000E+00  0.00000000000E+00  0.25378341661E+04  0.25378341661E+04  0.50400001928E-02 0.  1.
       -1   -1    0    0    0  501  0.00000000000E+00  0.00000000000E+00 -0.13648666979E+04  0.13648666979E+04  0.50400001928E-02 0. -1.
    10030    2    1    2    0    0  0.00000000000E+00  0.00000000000E+00  0.11729674682E+04  0.39027008640E+04  0.37222602479E+04 0.  0.
        2    1    3    3  502    0  0.27164784474E+03 -0.38304832387E+03 -0.13017302315E+04  0.13838425364E+04  0.25500000920E-02 0. -1.
       -2    1    3    3    0  502 -0.27164784474E+03  0.38304832387E+03  0.24746976997E+04  0.25188583276E+04  0.25500000920E-02 0.  1.
</event>
<event>
 5   0  0.1658770E-07  0.3684417E+04  0.7818609E-02  0.8071424E-01
        2   -1    0    0  501    0  0.00000000000E+00  0.00000000000E+00  0.14900272498E+04  0.14900272498E+04  0.25500000920E-02 0.  1.
       -2   -1    0    0    0  501  0.00000000000E+00  0.00000000000E+00 -0.22776309344E+04  0.22776309344E+04  0.25500000920E-02 0. -1.
    10030    2    1    2    0    0  0.00000000000E+00  0.00000000000E+00 -0.78760368460E+03  0.37676581842E+04  0.36844169998E+04 0.  0.
        2    1    3    3  502    0 -0.84622114787E+03 -0.12048157096E+04 -0.15260946857E+04  0.21205273200E+04  0.25500000920E-02 0. -1.
       -2    1    3    3    0  502  0.84622114787E+03  0.12048157096E+04  0.73849100108E+03  0.16471308642E+04  0.25500000920E-02 0.  1.
</event>
<event>
 5   0  0.5181371E-08  0.3682739E+04  0.7818609E-02  0.8071798E-01
       -1   -1    0    0    0  501  0.00000000000E+00  0.00000000000E+00  0.14079277479E+04  0.14079277479E+04  0.50400001928E-02 0.  1.
        1   -1    0    0  501    0  0.00000000000E+00  0.00000000000E+00 -0.24082500869E+04  0.24082500869E+04  0.50400001928E-02 0. -1.
    10030    2    1    2    0    0  0.00000000000E+00  0.00000000000E+00 -0.10003223390E+04  0.38161778349E+04  0.36827392638E+04 0.  0.
        5    1    3    3  502    0 -0.15720300566E+04  0.93648545543E+03 -0.71337493113E+03  0.19639779504E+04  0.46999998093E+01 0.  1.
       -5    1    3    3    0  502  0.15720300566E+04 -0.93648545543E+03 -0.28694740784E+03  0.18521998845E+04  0.46999998093E+01 0. -1.
</event>
</LesHouchesEvents>
