<LesHouchesEvents version="3.0">
<header>
<!--
#*********************************************************************
#                                                                    *
#                        MadGraph5_aMC@NLO                           *
#                                                                    *
#                           Going Beyond                             *
#                                                                    *
#                   http://madgraph.hep.uiuc.edu                     *
#                   http://madgraph.phys.ucl.ac.be                   *
#                   http://amcatnlo.cern.ch                          *
#                                                                    *
#                     The MadGraph5_aMC@NLO team                     *
#                                                                    *
#....................................................................*
#                                                                    *
# This file contains all the information necessary to reproduce      *
# the events generated:                                              *
#                                                                    *
# 1. software version                                                *
# 2. proc_card          : code generation info including model       *
# 3. param_card         : model primary parameters in the LH format  *
# 4. run_card           : running parameters (collider and cuts)     *
# 5. pythia_card        : present only if pythia has been run        *
# 6. pgs_card           : present only if pgs has been run           *
# 7. delphes_cards      : present only if delphes has been run       *
#                                                                    *
#                                                                    *
#*********************************************************************
-->
<MGVersion>
#5.2.2.3
</MGVersion>
<MG5ProcCard>
#************************************************************
#*                     MadGraph5_aMC@NLO                    *
#*                                                          *
#*                *                       *                 *
#*                  *        * *        *                   *
#*                    * * * * 5 * * * *                     *
#*                  *        * *        *                   *
#*                *                       *                 *
#*                                                          *
#*                                                          *
#*         VERSION 2.2.3                 2015-02-10         *
#*                                                          *
#*    The MadGraph5_aMC@NLO Development Team - Find us at   *
#*    https://server06.fynu.ucl.ac.be/projects/madgraph     *
#*                                                          *
#************************************************************
#*                                                          *
#*               Command File for MadGraph5_aMC@NLO         *
#*                                                          *
#*     run as ./bin/mg5_aMC  filename                       *
#*                                                          *
#************************************************************
set group_subprocesses Auto
set ignore_six_quark_processes False
set loop_optimized_output True
set gauge unitary
set complex_mass_scheme False
import model sm
define p = g u c d s u~ c~ d~ s~
define j = g u c d s u~ c~ d~ s~
define l+ = e+ mu+
define l- = e- mu-
define vl = ve vm vt
define vl~ = ve~ vm~ vt~
import model Zprime_UFO
generate p p > zph, zph > j j
add process p p > zph, zph > b b~
output Dijet_signal
</MG5ProcCard>
<MGProcCard>
#*********************************************************************
#                        MadGraph/MadEvent                           *
#                   http://madgraph.hep.uiuc.edu                     *
#                                                                    *
#                          proc_card.dat                             *
#*********************************************************************
#                                                                    *
#            This Files is generated by MADGRAPH 5                   *
#                                                                    *
# WARNING: This Files is generated for MADEVENT (compatibility issue)*
#          This files is NOT a valid MG4 proc_card.dat               *
#          Running this in MG4 will NEVER reproduce the result of MG5*
#                                                                    *
#*********************************************************************
#*********************************************************************
# Process(es) requested : mg2 input                                  *
#*********************************************************************
# Begin PROCESS # This is TAG. Do not modify this line
p p > zph , zph > j j           #Process
# Be carefull the coupling are here in MG5 convention
          
end_coup           # End the couplings input

done               # this tells MG there are no more procs
# End PROCESS  # This is TAG. Do not modify this line
#*********************************************************************
# Model information                                                  *
#*********************************************************************
# Begin MODEL  # This is TAG. Do not modify this line
Zprime_UFO
# End   MODEL  # This is TAG. Do not modify this line
#*********************************************************************
# Start multiparticle definitions                                    *
#*********************************************************************
# Begin MULTIPARTICLES # This is TAG. Do not modify this line

# End  MULTIPARTICLES # This is TAG. Do not modify this line
</MGProcCard>
<MGRunCard>
#*********************************************************************
#                       MadGraph5_aMC@NLO                            *
#                                                                    *
#                     run_card.dat MadEvent                          *
#                                                                    *
#  This file is used to set the parameters of the run.               *
#                                                                    *
#  Some notation/conventions:                                        *
#                                                                    *
#   Lines starting with a '# ' are info or comments                  *
#                                                                    *
#   mind the format:   value    = variable     ! comment             *
#*********************************************************************
#
#*******************                                                 
# Running parameters
#*******************                                                 
#                                                                    
#*********************************************************************
# Tag name for the run (one word)                                    *
#*********************************************************************
  tag_1     = run_tag ! name of the run 
#*********************************************************************
# Run to generate the grid pack                                      *
#*********************************************************************
  .false.     = gridpack  !True = setting up the grid pack
#*********************************************************************
# Number of events and rnd seed                                      *
# Warning: Do not generate more than 1M events in a single run       *
# If you want to run Pythia, avoid more than 50k events in a run.    *
#*********************************************************************
  2000 = nevents ! Number of unweighted events requested 
 2298 = iseed   ! rnd seed (0=assigned automatically=default))
#*********************************************************************
# Collider type and energy                                           *
# lpp: 0=No PDF, 1=proton, -1=antiproton, 2=photon from proton,      *
#                                         3=photon from electron     *
#*********************************************************************
        1     = lpp1    ! beam 1 type 
        1     = lpp2    ! beam 2 type
     4000     = ebeam1  ! beam 1 total energy in GeV
     4000     = ebeam2  ! beam 2 total energy in GeV
#*********************************************************************
# Beam polarization from -100 (left-handed) to 100 (right-handed)    *
#*********************************************************************
        0     = polbeam1 ! beam polarization for beam 1
        0     = polbeam2 ! beam polarization for beam 2
#*********************************************************************
# PDF CHOICE: this automatically fixes also alpha_s and its evol.    *
#*********************************************************************
 'nn23lo1'    = pdlabel     ! PDF set                                     
 230000    = lhaid     ! if pdlabel=lhapdf, this is the lhapdf number
#*********************************************************************
# Renormalization and factorization scales                           *
#*********************************************************************
 F        = fixed_ren_scale  ! if .true. use fixed ren scale
 F        = fixed_fac_scale  ! if .true. use fixed fac scale
 91.1880  = scale            ! fixed ren scale
 91.1880  = dsqrt_q2fact1    ! fixed fact scale for pdf1
 91.1880  = dsqrt_q2fact2    ! fixed fact scale for pdf2
 1        = scalefact        ! scale factor for event-by-event scales
#*********************************************************************
# Matching - Warning! ickkw > 1 is still beta
#*********************************************************************
 0        = ickkw            ! 0 no matching, 1 MLM, 2 CKKW matching
 1        = highestmult      ! for ickkw=2, highest mult group
 1        = ktscheme         ! for ickkw=1, 1 Durham kT, 2 Pythia pTE
 1        = alpsfact         ! scale factor for QCD emission vx
 F        = chcluster        ! cluster only according to channel diag
 T        = pdfwgt           ! for ickkw=1, perform pdf reweighting
 5        = asrwgtflavor     ! highest quark flavor for a_s reweight
 T        = clusinfo         ! include clustering tag in output
 3.0      = lhe_version       ! Change the way clustering information pass to shower.        
#*********************************************************************
#**********************************************************
#
#**********************************************************
# Automatic ptj and mjj cuts if xqcut > 0
# (turn off for VBF and single top processes)
#**********************************************************
   T  = auto_ptj_mjj  ! Automatic setting of ptj and mjj
#**********************************************************
#                                                                    
#**********************************
# BW cutoff (M+/-bwcutoff*Gamma)
#**********************************
  15  = bwcutoff      ! (M+/-bwcutoff*Gamma)
#**********************************************************
# Apply pt/E/eta/dr/mij cuts on decay products or not
# (note that etmiss/ptll/ptheavy/ht/sorted cuts always apply)
#**********************************************************
   T  = cut_decays    ! Cut decay products 
#*************************************************************
# Number of helicities to sum per event (0 = all helicities)
# 0 gives more stable result, but longer run time (needed for
# long decay chains e.g.).
# Use >=2 if most helicities contribute, e.g. pure QCD.
#*************************************************************
   0  = nhel          ! Number of helicities used per event
#*******************                                                 
# Standard Cuts
#*******************                                                 
#                                                                    
#*********************************************************************
# Minimum and maximum pt's (for max, -1 means no cut)                *
#*********************************************************************
 20  = ptj       ! minimum pt for the jets 
  0  = ptb       ! minimum pt for the b 
 10  = pta       ! minimum pt for the photons 
 10  = ptl       ! minimum pt for the charged leptons 
  0  = misset    ! minimum missing Et (sum of neutrino's momenta)
  0  = ptheavy   ! minimum pt for one heavy final state
 1.0 = ptonium   ! minimum pt for the quarkonium states
 -1  = ptjmax    ! maximum pt for the jets
 -1  = ptbmax    ! maximum pt for the b
 -1  = ptamax    ! maximum pt for the photons
 -1  = ptlmax    ! maximum pt for the charged leptons
 -1  = missetmax ! maximum missing Et (sum of neutrino's momenta)
#*********************************************************************
# Minimum and maximum E's (in the center of mass frame)              *
#*********************************************************************
  0  = ej     ! minimum E for the jets 
  0  = eb     ! minimum E for the b 
  0  = ea     ! minimum E for the photons 
  0  = el     ! minimum E for the charged leptons 
 -1   = ejmax ! maximum E for the jets
 -1   = ebmax ! maximum E for the b
 -1   = eamax ! maximum E for the photons
 -1   = elmax ! maximum E for the charged leptons
#*********************************************************************
# Maximum and minimum absolute rapidity (for max, -1 means no cut)   *
#*********************************************************************
   5  = etaj    ! max rap for the jets 
  -1  = etab    ! max rap for the b
 2.5  = etaa    ! max rap for the photons 
 2.5  = etal    ! max rap for the charged leptons 
 0.6  = etaonium ! max rap for the quarkonium states
   0  = etajmin ! min rap for the jets
   0  = etabmin ! min rap for the b
   0  = etaamin ! min rap for the photons
   0  = etalmin ! main rap for the charged leptons
#*********************************************************************
# Minimum and maximum DeltaR distance                                *
#*********************************************************************
 0.4 = drjj    ! min distance between jets 
 0   = drbb    ! min distance between b's 
 0.4 = drll    ! min distance between leptons 
 0.4 = draa    ! min distance between gammas 
 0   = drbj    ! min distance between b and jet 
 0.4 = draj    ! min distance between gamma and jet 
 0.4 = drjl    ! min distance between jet and lepton 
 0   = drab    ! min distance between gamma and b 
 0   = drbl    ! min distance between b and lepton 
 0.4 = dral    ! min distance between gamma and lepton 
 -1  = drjjmax ! max distance between jets
 -1  = drbbmax ! max distance between b's
 -1  = drllmax ! max distance between leptons
 -1  = draamax ! max distance between gammas
 -1  = drbjmax ! max distance between b and jet
 -1  = drajmax ! max distance between gamma and jet
 -1  = drjlmax ! max distance between jet and lepton
 -1  = drabmax ! max distance between gamma and b
 -1  = drblmax ! max distance between b and lepton
 -1  = dralmax ! maxdistance between gamma and lepton
#*********************************************************************
# Minimum and maximum invariant mass for pairs                       *
# WARNING: for four lepton final state mmll cut require to have      *
#          different lepton masses for each flavor!                  *           
#*********************************************************************
 0   = mmjj    ! min invariant mass of a jet pair 
 0   = mmbb    ! min invariant mass of a b pair 
 0   = mmaa    ! min invariant mass of gamma gamma pair
 0   = mmll    ! min invariant mass of l+l- (same flavour) lepton pair
 -1  = mmjjmax ! max invariant mass of a jet pair
 -1  = mmbbmax ! max invariant mass of a b pair
 -1  = mmaamax ! max invariant mass of gamma gamma pair
 -1  = mmllmax ! max invariant mass of l+l- (same flavour) lepton pair
#*********************************************************************
# Minimum and maximum invariant mass for all letpons                 *
#*********************************************************************
 0   = mmnl    ! min invariant mass for all letpons (l+- and vl) 
 -1  = mmnlmax ! max invariant mass for all letpons (l+- and vl) 
#*********************************************************************
# Minimum and maximum pt for 4-momenta sum of leptons                *
#*********************************************************************
 0   = ptllmin  ! Minimum pt for 4-momenta sum of leptons(l and vl)
 -1  = ptllmax  ! Maximum pt for 4-momenta sum of leptons(l and vl)
#*********************************************************************
# Inclusive cuts                                                     *
#*********************************************************************
 0  = xptj ! minimum pt for at least one jet  
 0  = xptb ! minimum pt for at least one b 
 0  = xpta ! minimum pt for at least one photon 
 0  = xptl ! minimum pt for at least one charged lepton 
#*********************************************************************
# Control the pt's of the jets sorted by pt                          *
#*********************************************************************
 0   = ptj1min ! minimum pt for the leading jet in pt
 0   = ptj2min ! minimum pt for the second jet in pt
 0   = ptj3min ! minimum pt for the third jet in pt
 0   = ptj4min ! minimum pt for the fourth jet in pt
 -1  = ptj1max ! maximum pt for the leading jet in pt 
 -1  = ptj2max ! maximum pt for the second jet in pt
 -1  = ptj3max ! maximum pt for the third jet in pt
 -1  = ptj4max ! maximum pt for the fourth jet in pt
 0   = cutuse  ! reject event if fails any (0) / all (1) jet pt cuts
#*********************************************************************
# Control the pt's of leptons sorted by pt                           *
#*********************************************************************
 0   = ptl1min ! minimum pt for the leading lepton in pt
 0   = ptl2min ! minimum pt for the second lepton in pt
 0   = ptl3min ! minimum pt for the third lepton in pt
 0   = ptl4min ! minimum pt for the fourth lepton in pt
 -1  = ptl1max ! maximum pt for the leading lepton in pt 
 -1  = ptl2max ! maximum pt for the second lepton in pt
 -1  = ptl3max ! maximum pt for the third lepton in pt
 -1  = ptl4max ! maximum pt for the fourth lepton in pt
#*********************************************************************
# Control the Ht(k)=Sum of k leading jets                            *
#*********************************************************************
 0   = htjmin ! minimum jet HT=Sum(jet pt)
 -1  = htjmax ! maximum jet HT=Sum(jet pt)
 0   = ihtmin  !inclusive Ht for all partons (including b)
 -1  = ihtmax  !inclusive Ht for all partons (including b)
 0   = ht2min ! minimum Ht for the two leading jets
 0   = ht3min ! minimum Ht for the three leading jets
 0   = ht4min ! minimum Ht for the four leading jets
 -1  = ht2max ! maximum Ht for the two leading jets
 -1  = ht3max ! maximum Ht for the three leading jets
 -1  = ht4max ! maximum Ht for the four leading jets
#***********************************************************************
# Photon-isolation cuts, according to hep-ph/9801442                   *
# When ptgmin=0, all the other parameters are ignored                  *
# When ptgmin>0, pta and draj are not going to be used                 *
#***********************************************************************
   0 = ptgmin ! Min photon transverse momentum
 0.4 = R0gamma ! Radius of isolation code
 1.0 = xn ! n parameter of eq.(3.4) in hep-ph/9801442
 1.0 = epsgamma ! epsilon_gamma parameter of eq.(3.4) in hep-ph/9801442
 .true. = isoEM ! isolate photons from EM energy (photons and leptons)
#*********************************************************************
# WBF cuts                                                           *
#*********************************************************************
 0   = xetamin ! minimum rapidity for two jets in the WBF case  
 0   = deltaeta ! minimum rapidity for two jets in the WBF case 
#*********************************************************************
# KT DURHAM CUT                                                      *
#*********************************************************************
 -1    =  ktdurham        
 0.4  =  dparameter 
#*********************************************************************
# maximal pdg code for quark to be considered as a light jet         *
# (otherwise b cuts are applied)                                     *
#*********************************************************************
 4 = maxjetflavor    ! Maximum jet pdg code
#*********************************************************************
# Jet measure cuts                                                   *
#*********************************************************************
 0   = xqcut   ! minimum kt jet measure between partons
#*********************************************************************
#
#*********************************************************************
# Store info for systematics studies                                 *
# WARNING: If use_syst is T, matched Pythia output is                *
#          meaningful ONLY if plotted taking matchscale              *
#          reweighting into account!                                 *
#*********************************************************************
   F  = use_syst      ! Enable systematics studies
#
#**************************************
# Parameter of the systematics study
#  will be used by SysCalc (if installed)
#**************************************                                  
#
0.5 1 2 = sys_scalefact  # factorization/renormalization scale factor
0.5 1 2 = sys_alpsfact  # \alpha_s emission scale factors
30 50 = sys_matchscale # variation of merging scale
# PDF sets and number of members (0 or none for all members).
CT10nlo.LHgrid = sys_pdf # matching scales
# MSTW2008nlo68cl.LHgrid 1  = sys_pdf
</MGRunCard>
<slha>
######################################################################
## PARAM_CARD AUTOMATICALY GENERATED BY MG5 FOLLOWING UFO MODEL   ####
######################################################################
##                                                                  ##
##  Width set on Auto will be computed following the information    ##
##        present in the decay.py files of the model.               ##
##        See  arXiv:1402.1178 for more details.                    ##
##                                                                  ##
######################################################################

###################################
## INFORMATION FOR CKMBLOCK
###################################
Block ckmblock 
    1 2.277360e-01 # cabi 

###################################
## INFORMATION FOR FRBLOCK
###################################
Block frblock 
    1 1.200000e+00 # gz 

###################################
## INFORMATION FOR MASS
###################################
Block mass 
    1 5.040000e-03 # MD 
    2 2.550000e-03 # MU 
    3 1.010000e-01 # MS 
    4 1.270000e+00 # MC 
    5 4.700000e+00 # MB 
    6 1.720000e+02 # MT 
   11 5.110000e-04 # Me 
   13 1.056600e-01 # MM 
   15 1.777000e+00 # MTA 
   23 9.118760e+01 # MZ 
   25 1.200000e+02 # MH 
  10030 2.500000e+03 # MZph 
  10031 3.000000e+02 # MZpl 
## Dependent parameters, given by model restrictions.
## Those values should be edited following the 
## analytical expression. MG5 ignores those values 
## but they are important for interfacing the output of MG5
## to external program such as Pythia.
  12 0.000000 # ve : 0.0 
  14 0.000000 # vm : 0.0 
  16 0.000000 # vt : 0.0 
  21 0.000000 # g : 0.0 
  22 0.000000 # a : 0.0 
  24 79.824360 # w+ : cmath.sqrt(MZ__exp__2/2. + cmath.sqrt(MZ__exp__4/4. - (aEW*cmath.pi*MZ__exp__2)/(Gf*sqrt__2))) 

###################################
## INFORMATION FOR SMINPUTS
###################################
Block sminputs 
    1 1.279000e+02 # aEWM1 
    2 1.166370e-05 # Gf 
    3 1.184000e-01 # aS 

###################################
## INFORMATION FOR YUKAWA
###################################
Block yukawa 
    1 5.040000e-03 # ymdo 
    2 2.550000e-03 # ymup 
    3 1.010000e-01 # yms 
    4 1.270000e+00 # ymc 
    5 4.700000e+00 # ymb 
    6 1.720000e+02 # ymt 
   11 5.110000e-04 # yme 
   13 1.056600e-01 # ymm 
   15 1.777000e+00 # ymtau 

###################################
## INFORMATION FOR DECAY
###################################
DECAY   6 1.508336e+00 # WT 
DECAY  23 2.495200e+00 # WZ 
DECAY  24 2.085000e+00 # WW 
DECAY  25 5.753088e-03 # WH 
## Dependent parameters, given by model restrictions.
## Those values should be edited following the 
## analytical expression. MG5 ignores those values 
## but they are important for interfacing the output of MG5
## to external program such as Pythia.
DECAY  1 0.000000 # d : 0.0 
DECAY  2 0.000000 # u : 0.0 
DECAY  3 0.000000 # s : 0.0 
DECAY  4 0.000000 # c : 0.0 
DECAY  5 0.000000 # b : 0.0 
DECAY  11 0.000000 # e- : 0.0 
DECAY  12 0.000000 # ve : 0.0 
DECAY  13 0.000000 # mu- : 0.0 
DECAY  14 0.000000 # vm : 0.0 
DECAY  15 0.000000 # ta- : 0.0 
DECAY  16 0.000000 # vt : 0.0 
DECAY  21 0.000000 # g : 0.0 
DECAY  22 0.000000 # a : 0.0 
DECAY  10030 0.308725 # zph : (gz__exp__2*MZph*(5 + cmath.sqrt(1 - (4*MT__exp__2)/MZph__exp__2)))/(144.*cmath.pi) 
DECAY  10031 0.132629 # zpl : (5*gz__exp__2*MZpl)/(144.*cmath.pi) 
#===========================================================
# QUANTUM NUMBERS OF NEW STATE(S) (NON SM PDG CODE)
#===========================================================

Block QNUMBERS 10030  # zph 
        1 0  # 3 times electric charge
        2 3  # number of spin states (2S+1)
        3 1  # colour rep (1: singlet, 3: triplet, 8: octet)
        4 0  # Particle/Antiparticle distinction (0=own anti)
Block QNUMBERS 10031  # zpl 
        1 0  # 3 times electric charge
        2 3  # number of spin states (2S+1)
        3 1  # colour rep (1: singlet, 3: triplet, 8: octet)
        4 0  # Particle/Antiparticle distinction (0=own anti)
</slha>
## END BANNER##
<MGGenerationInfo>
#  Number of Events        :         3875
#  Integrated weight (pb)  :  0.96115E-02
#  Max wgt                 :  0.37042E-05
#  Average wgt             :  0.24804E-05
</MGGenerationInfo>
</header>
<init>
     2212     2212  0.40000000000E+04  0.40000000000E+04 0 0  247000  247000 2   1
  0.96184801845E-02  0.26763422364E-04  0.37042410000E-05   0
</init>
<event>
 5   0  0.3581449E-05  0.2501325E+04  0.7818609E-02  0.8402514E-01
       -2   -1    0    0    0  501  0.00000000000E+00  0.00000000000E+00  0.16376710087E+04  0.16376710087E+04  0.25500000920E-02 0. -1.
        2   -1    0    0  501    0  0.00000000000E+00  0.00000000000E+00 -0.95511056650E+03  0.95511056651E+03  0.25500000920E-02 0.  1.
    10030    2    1    2    0    0  0.00000000000E+00  0.00000000000E+00  0.68256044216E+03  0.25927815752E+04  0.25013251567E+04 0.  0.
        1    1    3    3  502    0  0.42656252955E+03  0.90437534874E+03 -0.43738955082E+03  0.10914027589E+04  0.50400001928E-02 0.  1.
       -1    1    3    3    0  502 -0.42656252955E+03 -0.90437534874E+03  0.11199499930E+04  0.15013788162E+04  0.50400001928E-02 0. -1.
</event>
<event>
 5   0  0.3581449E-05  0.2500397E+04  0.7818609E-02  0.8402844E-01
       -2   -1    0    0    0  501  0.00000000000E+00  0.00000000000E+00  0.80567173757E+03  0.80567173757E+03  0.25500000920E-02 0. -1.
        2   -1    0    0  501    0  0.00000000000E+00  0.00000000000E+00 -0.19399912875E+04  0.19399912875E+04  0.25500000920E-02 0.  1.
    10030    2    1    2    0    0  0.00000000000E+00  0.00000000000E+00 -0.11343195500E+04  0.27456630251E+04  0.25003968897E+04 0.  0.
        1    1    3    3  502    0 -0.25510708436E+03  0.93825751944E+03  0.29579529742E+03  0.10163176941E+04  0.50400001928E-02 0. -1.
       -1    1    3    3    0  502  0.25510708436E+03 -0.93825751944E+03 -0.14301148474E+04  0.17293453310E+04  0.50400001928E-02 0.  1.
</event>
<event>
 5   0  0.3650620E-05  0.2488292E+04  0.7818609E-02  0.8407168E-01
       -2   -1    0    0    0  501  0.00000000000E+00  0.00000000000E+00  0.75070153867E+03  0.75070153868E+03  0.25500000920E-02 0. -1.
        2   -1    0    0  501    0  0.00000000000E+00  0.00000000000E+00 -0.20619368311E+04  0.20619368311E+04  0.25500000920E-02 0.  1.
    10030    2    1    2    0    0  0.00000000000E+00  0.00000000000E+00 -0.13112352924E+04  0.28126383698E+04  0.24882919055E+04 0.  0.
        3    1    3    3  502    0 -0.48987902556E+03  0.96069024493E+03 -0.13569734356E+04  0.17332870858E+04  0.10100000352E+00 0.  1.
       -3    1    3    3    0  502  0.48987902556E+03 -0.96069024493E+03  0.45738143212E+02  0.10793512840E+04  0.10100000352E+00 0. -1.
</event>
<event>
 5   0  0.3581449E-05  0.2576463E+04  0.7818609E-02  0.8376240E-01
       -2   -1    0    0    0  501  0.00000000000E+00  0.00000000000E+00  0.67595545334E+03  0.67595545335E+03  0.25500000920E-02 0.  1.
        2   -1    0    0  501    0  0.00000000000E+00  0.00000000000E+00 -0.24551039561E+04  0.24551039561E+04  0.25500000920E-02 0. -1.
    10030    2    1    2    0    0  0.00000000000E+00  0.00000000000E+00 -0.17791485027E+04  0.31310594094E+04  0.25764633959E+04 0.  0.
        1    1    3    3  502    0  0.50536974569E+03 -0.10444334078E+04 -0.20935589179E+03  0.11790121342E+04  0.50400001928E-02 0.  1.
       -1    1    3    3    0  502 -0.50536974569E+03  0.10444334078E+04 -0.15697926109E+04  0.19520472752E+04  0.50400001928E-02 0. -1.
</event>
<event>
 5   0  0.3650620E-05  0.2540892E+04  0.7818609E-02  0.8388561E-01
        2   -1    0    0  501    0  0.00000000000E+00  0.00000000000E+00  0.17576694938E+04  0.17576694938E+04  0.25500000920E-02 0. -1.
       -2   -1    0    0    0  501  0.00000000000E+00  0.00000000000E+00 -0.91828017403E+03  0.91828017403E+03  0.25500000920E-02 0.  1.
    10030    2    1    2    0    0  0.00000000000E+00  0.00000000000E+00  0.83938931980E+03  0.26759496679E+04  0.25408920077E+04 0.  0.
        3    1    3    3  502    0 -0.37056328869E+03  0.57840749256E+03 -0.70583082251E+03  0.98492108242E+03  0.10100000352E+00 0.  1.
       -3    1    3    3    0  502  0.37056328869E+03 -0.57840749256E+03  0.15452201423E+04  0.16910285854E+04  0.10100000352E+00 0. -1.
</event>
<event>
 5   0  0.1456876E-05  0.2487074E+04  0.7818609E-02  0.8407605E-01
        1   -1    0    0  501    0  0.00000000000E+00  0.00000000000E+00  0.11044347490E+04  0.11044347491E+04  0.50400001928E-02 0.  1.
       -1   -1    0    0    0  501  0.00000000000E+00  0.00000000000E+00 -0.14001593754E+04  0.14001593754E+04  0.50400001928E-02 0. -1.
    10030    2    1    2    0    0  0.00000000000E+00  0.00000000000E+00 -0.29572462636E+03  0.25045941245E+04  0.24870743201E+04 0.  0.
        1    1    3    3  502    0 -0.36139392906E+03  0.10075279163E+04  0.48957893291E+03  0.11770325423E+04  0.50400001928E-02 0.  1.
       -1    1    3    3    0  502  0.36139392906E+03 -0.10075279163E+04 -0.78530355927E+03  0.13275615821E+04  0.50400001928E-02 0. -1.
</event>
<event>
 5   0  0.1421242E-05  0.2434256E+04  0.7818609E-02  0.8426789E-01
       -1   -1    0    0    0  501  0.00000000000E+00  0.00000000000E+00  0.97292835856E+03  0.97292835857E+03  0.50400001928E-02 0. -1.
        1   -1    0    0  501    0  0.00000000000E+00  0.00000000000E+00 -0.15226207299E+04  0.15226207299E+04  0.50400001928E-02 0.  1.
    10030    2    1    2    0    0  0.00000000000E+00  0.00000000000E+00 -0.54969237130E+03  0.24955490884E+04  0.24342562621E+04 0.  0.
        3    1    3    3  502    0 -0.78548862389E+03 -0.43029400947E+03 -0.11197678066E+04  0.14338846759E+04  0.10100000352E+00 0.  1.
       -3    1    3    3    0  502  0.78548862389E+03  0.43029400947E+03  0.57007543527E+03  0.10616644126E+04  0.10100000352E+00 0. -1.
</event>
<event>
 5   0  0.3581449E-05  0.2499270E+04  0.7818609E-02  0.8403246E-01
        2   -1    0    0  501    0  0.00000000000E+00  0.00000000000E+00  0.16239964658E+04  0.16239964658E+04  0.25500000920E-02 0. -1.
       -2   -1    0    0    0  501  0.00000000000E+00  0.00000000000E+00 -0.96157112668E+03  0.96157112669E+03  0.25500000920E-02 0.  1.
    10030    2    1    2    0    0  0.00000000000E+00  0.00000000000E+00  0.66242533913E+03  0.25855675925E+04  0.24992703826E+04 0.  0.
        1    1    3    3  502    0  0.25173252266E+03 -0.33267130919E+03  0.15498283509E+04  0.16049945110E+04  0.50400001928E-02 0. -1.
       -1    1    3    3    0  502 -0.25173252266E+03  0.33267130919E+03 -0.88740301177E+03  0.98057308154E+03  0.50400001928E-02 0.  1.
</event>
<event>
 5   0  0.1429483E-05  0.2531491E+04  0.7818609E-02  0.8391852E-01
       -1   -1    0    0    0  501  0.00000000000E+00  0.00000000000E+00  0.95053012296E+03  0.95053012297E+03  0.50400001928E-02 0. -1.
        1   -1    0    0  501    0  0.00000000000E+00  0.00000000000E+00 -0.16854934141E+04  0.16854934141E+04  0.50400001928E-02 0.  1.
    10030    2    1    2    0    0  0.00000000000E+00  0.00000000000E+00 -0.73496329115E+03  0.26360235371E+04  0.25314914672E+04 0.  0.
        2    1    3    3  502    0  0.90863529969E+03 -0.30231100502E+03  0.49440569197E+03  0.10777045234E+04  0.25500000920E-02 0. -1.
       -2    1    3    3    0  502 -0.90863529969E+03  0.30231100502E+03 -0.12293689831E+04  0.15583190136E+04  0.25500000920E-02 0.  1.
</event>
<event>
 5   0  0.3581449E-05  0.2441902E+04  0.7818609E-02  0.8423981E-01
        2   -1    0    0  501    0  0.00000000000E+00  0.00000000000E+00  0.17940694593E+04  0.17940694593E+04  0.25500000920E-02 0.  1.
       -2   -1    0    0    0  501  0.00000000000E+00  0.00000000000E+00 -0.83091617400E+03  0.83091617400E+03  0.25500000920E-02 0. -1.
    10030    2    1    2    0    0  0.00000000000E+00  0.00000000000E+00  0.96315328527E+03  0.26249856333E+04  0.24419019890E+04 0.  0.
        1    1    3    3  502    0  0.11549063504E+04  0.15316873956E+03  0.87427693910E+03  0.14565814455E+04  0.50400001928E-02 0.  1.
       -1    1    3    3    0  502 -0.11549063504E+04 -0.15316873956E+03  0.88876346171E+02  0.11684041878E+04  0.50400001928E-02 0. -1.
</event>
<event>
 5   0  0.1429483E-05  0.2495482E+04  0.7818609E-02  0.8404597E-01
       -1   -1    0    0    0  501  0.00000000000E+00  0.00000000000E+00  0.11075374119E+04  0.11075374119E+04  0.50400001928E-02 0.  1.
        1   -1    0    0  501    0  0.00000000000E+00  0.00000000000E+00 -0.14056926229E+04  0.14056926229E+04  0.50400001928E-02 0. -1.
    10030    2    1    2    0    0  0.00000000000E+00  0.00000000000E+00 -0.29815521095E+03  0.25132300348E+04  0.24954816525E+04 0.  0.
        2    1    3    3  502    0 -0.10104119345E+04  0.46171848893E+03  0.42306578133E+03  0.11887392043E+04  0.25500000920E-02 0.  1.
       -2    1    3    3    0  502  0.10104119345E+04 -0.46171848893E+03 -0.72122099228E+03  0.13244908305E+04  0.25500000920E-02 0. -1.
</event>
<event>
 5   0  0.3579097E-05  0.2558423E+04  0.7818609E-02  0.8382463E-01
        2   -1    0    0  501    0  0.00000000000E+00  0.00000000000E+00  0.12886290030E+04  0.12886290030E+04  0.25500000920E-02 0.  1.
       -2   -1    0    0    0  501  0.00000000000E+00  0.00000000000E+00 -0.12698628994E+04  0.12698628994E+04  0.25500000920E-02 0. -1.
    10030    2    1    2    0    0  0.00000000000E+00  0.00000000000E+00  0.18766103639E+02  0.25584919025E+04  0.25584230784E+04 0.  0.
        5    1    3    3  502    0  0.44144140574E+03 -0.21381013777E+03  0.11908439605E+04  0.12879117664E+04  0.46999998093E+01 0.  1.
       -5    1    3    3    0  502 -0.44144140574E+03  0.21381013777E+03 -0.11720778568E+04  0.12705801361E+04  0.46999998093E+01 0. -1.
</event>
<event>
 5   0  0.1492639E-05  0.1992064E+04  0.7818609E-02  0.8610340E-01
        1   -1    0    0  501    0  0.00000000000E+00  0.00000000000E+00  0.22740827077E+04  0.22740827077E+04  0.50400001928E-02 0. -1.
       -1   -1    0    0    0  501  0.00000000000E+00  0.00000000000E+00 -0.43625471760E+03  0.43625471763E+03  0.50400001928E-02 0.  1.
    10030    2    1    2    0    0  0.00000000000E+00  0.00000000000E+00  0.18378279901E+04  0.27103374253E+04  0.19920635627E+04 0.  0.
        5    1    3    3  502    0 -0.44966878729E+03  0.36742091297E+03  0.20199294923E+04  0.21017462714E+04  0.46999998093E+01 0. -1.
       -5    1    3    3    0  502  0.44966878729E+03 -0.36742091297E+03 -0.18210150219E+03  0.60859115394E+03  0.46999998093E+01 0.  1.
</event>
<event>
 5   0  0.1456876E-05  0.2508789E+04  0.7818609E-02  0.8399861E-01
       -1   -1    0    0    0  501  0.00000000000E+00  0.00000000000E+00  0.79049807195E+03  0.79049807196E+03  0.50400001928E-02 0.  1.
        1   -1    0    0  501    0  0.00000000000E+00  0.00000000000E+00 -0.19905235815E+04  0.19905235815E+04  0.50400001928E-02 0. -1.
    10030    2    1    2    0    0  0.00000000000E+00  0.00000000000E+00 -0.12000255095E+04  0.27810216535E+04  0.25087885948E+04 0.  0.
        1    1    3    3  502    0  0.43074140362E+03 -0.50244827404E+03 -0.17812477040E+04  0.19002199367E+04  0.50400001928E-02 0. -1.
       -1    1    3    3    0  502 -0.43074140362E+03  0.50244827404E+03  0.58122219445E+03  0.88080171675E+03  0.50400001928E-02 0.  1.
</event>
<event>
 5   0  0.1421242E-05  0.2555149E+04  0.7818609E-02  0.8383597E-01
       -1   -1    0    0    0  501  0.00000000000E+00  0.00000000000E+00  0.72692604705E+03  0.72692604706E+03  0.50400001928E-02 0. -1.
        1   -1    0    0  501    0  0.00000000000E+00  0.00000000000E+00 -0.22453414114E+04  0.22453414114E+04  0.50400001928E-02 0.  1.
    10030    2    1    2    0    0  0.00000000000E+00  0.00000000000E+00 -0.15184153644E+04  0.29722674585E+04  0.25551494332E+04 0.  0.
        3    1    3    3  502    0 -0.98219303916E+03 -0.57483143282E+03 -0.14345547168E+04  0.18311421539E+04  0.10100000352E+00 0.  1.
       -3    1    3    3    0  502  0.98219303916E+03  0.57483143282E+03 -0.83860647642E+02  0.11411253046E+04  0.10100000352E+00 0. -1.
</event>
<event>
 5   0  0.1421242E-05  0.2509514E+04  0.7818609E-02  0.8399604E-01
       -1   -1    0    0    0  501  0.00000000000E+00  0.00000000000E+00  0.48288400216E+03  0.48288400219E+03  0.50400001928E-02 0. -1.
        1   -1    0    0  501    0  0.00000000000E+00  0.00000000000E+00 -0.32604425403E+04  0.32604425403E+04  0.50400001928E-02 0.  1.
    10030    2    1    2    0    0  0.00000000000E+00  0.00000000000E+00 -0.27775585382E+04  0.37433265425E+04  0.25095143297E+04 0.  0.
        3    1    3    3  502    0 -0.11346284285E+04  0.15880199479E+03 -0.21520277521E+04  0.24379957343E+04  0.10100000352E+00 0.  1.
       -3    1    3    3    0  502  0.11346284285E+04 -0.15880199479E+03 -0.62553078603E+03  0.13053308082E+04  0.10100000352E+00 0. -1.
</event>
<event>
 5   0  0.3581449E-05  0.2463355E+04  0.7818609E-02  0.8416158E-01
        2   -1    0    0  501    0  0.00000000000E+00  0.00000000000E+00  0.19835614518E+04  0.19835614518E+04  0.25500000920E-02 0.  1.
       -2   -1    0    0    0  501  0.00000000000E+00  0.00000000000E+00 -0.76480102529E+03  0.76480102530E+03  0.25500000920E-02 0. -1.
    10030    2    1    2    0    0  0.00000000000E+00  0.00000000000E+00  0.12187604265E+04  0.27483624771E+04  0.24633552988E+04 0.  0.
        1    1    3    3  502    0 -0.15215339353E+03  0.26664742380E+03  0.19401887406E+04  0.19643278375E+04  0.50400001928E-02 0.  1.
       -1    1    3    3    0  502  0.15215339353E+03 -0.26664742380E+03 -0.72142831409E+03  0.78403463965E+03  0.50400001928E-02 0. -1.
</event>
<event>
 5   0  0.1502886E-05  0.2489697E+04  0.7818609E-02  0.8406665E-01
       -1   -1    0    0    0  501  0.00000000000E+00  0.00000000000E+00  0.18868703590E+04  0.18868703590E+04  0.50400001928E-02 0. -1.
        1   -1    0    0  501    0  0.00000000000E+00  0.00000000000E+00 -0.82127910797E+03  0.82127910799E+03  0.50400001928E-02 0.  1.
    10030    2    1    2    0    0  0.00000000000E+00  0.00000000000E+00  0.10655912510E+04  0.27081494669E+04  0.24896965319E+04 0.  0.
        4    1    3    3  502    0  0.88345255086E+03  0.87156383647E+03  0.63900334518E+03  0.13958648999E+04  0.12699999809E+01 0. -1.
       -4    1    3    3    0  502 -0.88345255086E+03 -0.87156383647E+03  0.42658790580E+03  0.13122845671E+04  0.12699999809E+01 0.  1.
</event>
<event>
 5   0  0.1456876E-05  0.2512532E+04  0.7818609E-02  0.8398535E-01
       -1   -1    0    0    0  501  0.00000000000E+00  0.00000000000E+00  0.11011752935E+04  0.11011752935E+04  0.50400001928E-02 0. -1.
        1   -1    0    0  501    0  0.00000000000E+00  0.00000000000E+00 -0.14331996485E+04  0.14331996485E+04  0.50400001928E-02 0.  1.
    10030    2    1    2    0    0  0.00000000000E+00  0.00000000000E+00 -0.33202435494E+03  0.25343749420E+04  0.25125318256E+04 0.  0.
        1    1    3    3  502    0 -0.37869566475E+03 -0.60339219763E+03  0.87773551078E+03  0.11304477775E+04  0.50400001928E-02 0. -1.
       -1    1    3    3    0  502  0.37869566475E+03  0.60339219763E+03 -0.12097598657E+04  0.14039271646E+04  0.50400001928E-02 0.  1.
</event>
<event>
 5   0  0.3704241E-05  0.2430384E+04  0.7818609E-02  0.8428215E-01
       -2   -1    0    0    0  501  0.00000000000E+00  0.00000000000E+00  0.13780053188E+04  0.13780053188E+04  0.25500000920E-02 0.  1.
        2   -1    0    0  501    0  0.00000000000E+00  0.00000000000E+00 -0.10716149770E+04  0.10716149770E+04  0.25500000920E-02 0. -1.
    10030    2    1    2    0    0  0.00000000000E+00  0.00000000000E+00  0.30639034182E+03  0.24496202958E+04  0.24303836224E+04 0.  0.
        2    1    3    3  502    0  0.68331494434E+03  0.92526351283E+03  0.54829178297E+03  0.12742275152E+04  0.25500000920E-02 0.  1.
       -2    1    3    3    0  502 -0.68331494434E+03 -0.92526351283E+03 -0.24190144115E+03  0.11753927806E+04  0.25500000920E-02 0. -1.
</event>
<event>
 5   0  0.1421242E-05  0.2543230E+04  0.7818609E-02  0.8387745E-01
        1   -1    0    0  501    0  0.00000000000E+00  0.00000000000E+00  0.19937708166E+04  0.19937708166E+04  0.50400001928E-02 0.  1.
       -1   -1    0    0    0  501  0.00000000000E+00  0.00000000000E+00 -0.81102828664E+03  0.81102828665E+03  0.50400001928E-02 0. -1.
    10030    2    1    2    0    0  0.00000000000E+00  0.00000000000E+00  0.11827425299E+04  0.28047991032E+04  0.25432298593E+04 0.  0.
        3    1    3    3  502    0  0.46883064586E+02  0.26717623502E+03 -0.77874896928E+03  0.82464000003E+03  0.10100000352E+00 0. -1.
       -3    1    3    3    0  502 -0.46883064586E+02 -0.26717623502E+03  0.19614914992E+04  0.19801591032E+04  0.10100000352E+00 0.  1.
</event>
<event>
 5   0  0.3650620E-05  0.2485236E+04  0.7818609E-02  0.8408264E-01
       -2   -1    0    0    0  501  0.00000000000E+00  0.00000000000E+00  0.16701018862E+04  0.16701018862E+04  0.25500000920E-02 0. -1.
        2   -1    0    0  501    0  0.00000000000E+00  0.00000000000E+00 -0.92455395768E+03  0.92455395769E+03  0.25500000920E-02 0.  1.
    10030    2    1    2    0    0  0.00000000000E+00  0.00000000000E+00  0.74554792855E+03  0.25946558439E+04  0.24852358509E+04 0.  0.
        3    1    3    3  502    0 -0.50200593968E+03  0.39833841422E+03  0.14842671143E+04  0.16167041574E+04  0.10100000352E+00 0. -1.
       -3    1    3    3    0  502  0.50200593968E+03 -0.39833841422E+03 -0.73871918571E+03  0.97795168657E+03  0.10100000352E+00 0.  1.
</event>
<event>
 5   0  0.1456876E-05  0.2507149E+04  0.7818609E-02  0.8400443E-01
        1   -1    0    0  501    0  0.00000000000E+00  0.00000000000E+00  0.13246190081E+04  0.13246190081E+04  0.50400001928E-02 0. -1.
       -1   -1    0    0    0  501  0.00000000000E+00  0.00000000000E+00 -0.11863399832E+04  0.11863399833E+04  0.50400001928E-02 0.  1.
    10030    2    1    2    0    0  0.00000000000E+00  0.00000000000E+00  0.13827902485E+03  0.25109589914E+04  0.25071485731E+04 0.  0.
        1    1    3    3  502    0  0.54480047080E+03  0.10182514656E+04 -0.41925406148E+03  0.12285835617E+04  0.50400001928E-02 0.  1.
       -1    1    3    3    0  502 -0.54480047080E+03 -0.10182514656E+04  0.55753308633E+03  0.12823754296E+04  0.50400001928E-02 0. -1.
</event>
<event>
 5   0  0.3704241E-05  0.2520725E+04  0.7818609E-02  0.8395639E-01
        2   -1    0    0  501    0  0.00000000000E+00  0.00000000000E+00  0.21033399661E+04  0.21033399661E+04  0.25500000920E-02 0.  1.
       -2   -1    0    0    0  501  0.00000000000E+00  0.00000000000E+00 -0.75523365640E+03  0.75523365641E+03  0.25500000920E-02 0. -1.
    10030    2    1    2    0    0  0.00000000000E+00  0.00000000000E+00  0.13481063097E+04  0.28585736225E+04  0.25207246047E+04 0.  0.
        2    1    3    3  502    0  0.26617296241E+03  0.12269906364E+04  0.79910038621E+03  0.14882592163E+04  0.25500000920E-02 0. -1.
       -2    1    3    3    0  502 -0.26617296241E+03 -0.12269906364E+04  0.54900592347E+03  0.13703144062E+04  0.25500000920E-02 0.  1.
</event>
<event>
 5   0  0.1429483E-05  0.2492550E+04  0.7818609E-02  0.8405644E-01
       -1   -1    0    0    0  501  0.00000000000E+00  0.00000000000E+00  0.82213475100E+03  0.82213475101E+03  0.50400001928E-02 0. -1.
        1   -1    0    0  501    0  0.00000000000E+00  0.00000000000E+00 -0.18892303340E+04  0.18892303340E+04  0.50400001928E-02 0.  1.
    10030    2    1    2    0    0  0.00000000000E+00  0.00000000000E+00 -0.10670955830E+04  0.27113650850E+04  0.24925504289E+04 0.  0.
        2    1    3    3  502    0 -0.26437318828E+03  0.55327591525E+03  0.64668630134E+03  0.89118493784E+03  0.25500000920E-02 0. -1.
       -2    1    3    3    0  502  0.26437318828E+03 -0.55327591525E+03 -0.17137818843E+04  0.18201801471E+04  0.25500000920E-02 0.  1.
</event>
<event>
 5   0  0.3650620E-05  0.2539753E+04  0.7818609E-02  0.8388959E-01
        2   -1    0    0  501    0  0.00000000000E+00  0.00000000000E+00  0.12174404231E+04  0.12174404231E+04  0.25500000920E-02 0. -1.
       -2   -1    0    0    0  501  0.00000000000E+00  0.00000000000E+00 -0.13245713256E+04  0.13245713256E+04  0.25500000920E-02 0.  1.
    10030    2    1    2    0    0  0.00000000000E+00  0.00000000000E+00 -0.10713090247E+03  0.25420117487E+04  0.25397532755E+04 0.  0.
        3    1    3    3  502    0 -0.31995434986E+03 -0.39972551647E+03  0.11095502804E+04  0.12219873605E+04  0.10100000352E+00 0. -1.
       -3    1    3    3    0  502  0.31995434986E+03  0.39972551647E+03 -0.12166811828E+04  0.13200243882E+04  0.10100000352E+00 0.  1.
</event>
<event>
 5   0  0.3579097E-05  0.2523281E+04  0.7818609E-02  0.8394738E-01
       -2   -1    0    0    0  501  0.00000000000E+00  0.00000000000E+00  0.89548685602E+03  0.89548685603E+03  0.25500000920E-02 0.  1.
        2   -1    0    0  501    0  0.00000000000E+00  0.00000000000E+00 -0.17775095071E+04  0.17775095071E+04  0.25500000920E-02 0. -1.
    10030    2    1    2    0    0  0.00000000000E+00  0.00000000000E+00 -0.88202265109E+03  0.26729963631E+04  0.25232807217E+04 0.  0.
        5    1    3    3  502    0 -0.48375626226E+03  0.56777642667E+03 -0.15188926909E+04  0.16921723578E+04  0.46999998093E+01 0. -1.
       -5    1    3    3    0  502  0.48375626226E+03 -0.56777642667E+03  0.63687003979E+03  0.98082400538E+03  0.46999998093E+01 0.  1.
</event>
<event>
 5   0  0.1429483E-05  0.2536868E+04  0.7818609E-02  0.8389968E-01
        1   -1    0    0  501    0  0.00000000000E+00  0.00000000000E+00  0.25352698287E+04  0.25352698287E+04  0.50400001928E-02 0. -1.
       -1   -1    0    0    0  501  0.00000000000E+00  0.00000000000E+00 -0.63461682202E+03  0.63461682204E+03  0.50400001928E-02 0.  1.
    10030    2    1    2    0    0  0.00000000000E+00  0.00000000000E+00  0.19006530067E+04  0.31698866507E+04  0.25368680547E+04 0.  0.
        2    1    3    3  502    0  0.26048460499E+03 -0.12153978187E+04  0.63451277263E+03  0.13955825113E+04  0.25500000920E-02 0. -1.
       -2    1    3    3    0  502 -0.26048460499E+03  0.12153978187E+04  0.12661402340E+04  0.17743041395E+04  0.25500000920E-02 0.  1.
</event>
<event>
 5   0  0.3650620E-05  0.2438856E+04  0.7818609E-02  0.8425098E-01
       -2   -1    0    0    0  501  0.00000000000E+00  0.00000000000E+00  0.73009603215E+03  0.73009603216E+03  0.25500000920E-02 0. -1.
        2   -1    0    0  501    0  0.00000000000E+00  0.00000000000E+00 -0.20367251793E+04  0.20367251793E+04  0.25500000920E-02 0.  1.
    10030    2    1    2    0    0  0.00000000000E+00  0.00000000000E+00 -0.13066291471E+04  0.27668212115E+04  0.24388562664E+04 0.  0.
        3    1    3    3  502    0 -0.10765516584E+04  0.22573267263E+03 -0.12504906174E+04  0.16654265240E+04  0.10100000352E+00 0.  1.
       -3    1    3    3    0  502  0.10765516584E+04 -0.22573267263E+03 -0.56138529794E+02  0.11013946874E+04  0.10100000352E+00 0. -1.
</event>
<event>
 5   0  0.3581449E-05  0.2218006E+04  0.7818609E-02  0.8510971E-01
       -2   -1    0    0    0  501  0.00000000000E+00  0.00000000000E+00  0.14094952358E+04  0.14094952358E+04  0.25500000920E-02 0. -1.
        2   -1    0    0  501    0  0.00000000000E+00  0.00000000000E+00 -0.87257275245E+03  0.87257275245E+03  0.25500000920E-02 0.  1.
    10030    2    1    2    0    0  0.00000000000E+00  0.00000000000E+00  0.53692248334E+03  0.22820679882E+04  0.22180055342E+04 0.  0.
        1    1    3    3  502    0 -0.71796645082E+03 -0.31759175384E+03 -0.53745479535E+03  0.95141894225E+03  0.50400001928E-02 0.  1.
       -1    1    3    3    0  502  0.71796645082E+03  0.31759175384E+03  0.10743772787E+04  0.13306490460E+04  0.50400001928E-02 0. -1.
</event>
<event>
 5   0  0.1492639E-05  0.2503816E+04  0.7818609E-02  0.8401627E-01
        1   -1    0    0  501    0  0.00000000000E+00  0.00000000000E+00  0.11653625200E+04  0.11653625201E+04  0.50400001928E-02 0.  1.
       -1   -1    0    0    0  501  0.00000000000E+00  0.00000000000E+00 -0.13448805597E+04  0.13448805597E+04  0.50400001928E-02 0. -1.
    10030    2    1    2    0    0  0.00000000000E+00  0.00000000000E+00 -0.17951803965E+03  0.25102430798E+04  0.25038158065E+04 0.  0.
        5    1    3    3  502    0  0.65417080878E+03  0.10386887264E+04  0.15671263102E+03  0.12374953156E+04  0.46999998093E+01 0. -1.
       -5    1    3    3    0  502 -0.65417080878E+03 -0.10386887264E+04 -0.33623067067E+03  0.12727477642E+04  0.46999998093E+01 0.  1.
</event>
<event>
 5   0  0.3650620E-05  0.2530514E+04  0.7818609E-02  0.8392195E-01
       -2   -1    0    0    0  501  0.00000000000E+00  0.00000000000E+00  0.11466973338E+04  0.11466973338E+04  0.25500000920E-02 0.  1.
        2   -1    0    0  501    0  0.00000000000E+00  0.00000000000E+00 -0.13960751762E+04  0.13960751763E+04  0.25500000920E-02 0. -1.
    10030    2    1    2    0    0  0.00000000000E+00  0.00000000000E+00 -0.24937784247E+03  0.25427725100E+04  0.25305143211E+04 0.  0.
        3    1    3    3  502    0 -0.55227307264E+03 -0.61256883935E+03  0.83945343311E+03  0.11768297270E+04  0.10100000352E+00 0.  1.
       -3    1    3    3    0  502  0.55227307264E+03  0.61256883935E+03 -0.10888312756E+04  0.13659427831E+04  0.10100000352E+00 0. -1.
</event>
<event>
 5   0  0.1502886E-05  0.2543200E+04  0.7818609E-02  0.8387755E-01
       -1   -1    0    0    0  501  0.00000000000E+00  0.00000000000E+00  0.87780576945E+03  0.87780576947E+03  0.50400001928E-02 0.  1.
        1   -1    0    0  501    0  0.00000000000E+00  0.00000000000E+00 -0.18420545850E+04  0.18420545850E+04  0.50400001928E-02 0. -1.
    10030    2    1    2    0    0  0.00000000000E+00  0.00000000000E+00 -0.96424881554E+03  0.27198603545E+04  0.25431996716E+04 0.  0.
        4    1    3    3  502    0  0.11218438882E+04 -0.18661944871E+03 -0.10905018313E+04  0.15756130189E+04  0.12699999809E+01 0. -1.
       -4    1    3    3    0  502 -0.11218438882E+04  0.18661944871E+03  0.12625301580E+03  0.11442473356E+04  0.12699999809E+01 0.  1.
</event>
<event>
 5   0  0.1456876E-05  0.2566136E+04  0.7818609E-02  0.8379796E-01
       -1   -1    0    0    0  501  0.00000000000E+00  0.00000000000E+00  0.99848055047E+03  0.99848055048E+03  0.50400001928E-02 0.  1.
        1   -1    0    0  501    0  0.00000000000E+00  0.00000000000E+00 -0.16487686213E+04  0.16487686213E+04  0.50400001928E-02 0. -1.
    10030    2    1    2    0    0  0.00000000000E+00  0.00000000000E+00 -0.65028807085E+03  0.26472491718E+04  0.25661359283E+04 0.  0.
        1    1    3    3  502    0 -0.91061299771E+03  0.90016824321E+03 -0.40986485294E+03  0.13444359767E+04  0.50400001928E-02 0. -1.
       -1    1    3    3    0  502  0.91061299771E+03 -0.90016824321E+03 -0.24042321792E+03  0.13028131951E+04  0.50400001928E-02 0.  1.
</event>
<event>
 5   0  0.1421242E-05  0.2489189E+04  0.7818609E-02  0.8406847E-01
       -1   -1    0    0    0  501  0.00000000000E+00  0.00000000000E+00  0.71618640483E+03  0.71618640484E+03  0.50400001928E-02 0. -1.
        1   -1    0    0  501    0  0.00000000000E+00  0.00000000000E+00 -0.21628671081E+04  0.21628671081E+04  0.50400001928E-02 0.  1.
    10030    2    1    2    0    0  0.00000000000E+00  0.00000000000E+00 -0.14466807033E+04  0.28790535130E+04  0.24891894410E+04 0.  0.
        3    1    3    3  502    0 -0.97472329087E+03  0.74657450441E+03 -0.95912417476E+03  0.15580045498E+04  0.10100000352E+00 0. -1.
       -3    1    3    3    0  502  0.97472329087E+03 -0.74657450441E+03 -0.48755652855E+03  0.13210489632E+04  0.10100000352E+00 0.  1.
</event>
<event>
 5   0  0.3578670E-05  0.2499236E+04  0.7818609E-02  0.8403258E-01
       -2   -1    0    0    0  501  0.00000000000E+00  0.00000000000E+00  0.10525016502E+04  0.10525016502E+04  0.25500000920E-02 0. -1.
        2   -1    0    0  501    0  0.00000000000E+00  0.00000000000E+00 -0.14836514224E+04  0.14836514224E+04  0.25500000920E-02 0.  1.
    10030    2    1    2    0    0  0.00000000000E+00  0.00000000000E+00 -0.43114977223E+03  0.25361530726E+04  0.24992363397E+04 0.  0.
        4    1    3    3  502    0 -0.11010656596E+04 -0.94590263757E+02 -0.80750150983E+03  0.13687049375E+04  0.12699999809E+01 0.  1.
       -4    1    3    3    0  502  0.11010656596E+04  0.94590263757E+02  0.37635173760E+03  0.11674481351E+04  0.12699999809E+01 0. -1.
</event>
<event>
 5   0  0.3578670E-05  0.2505663E+04  0.7818609E-02  0.8400971E-01
        2   -1    0    0  501    0  0.00000000000E+00  0.00000000000E+00  0.11725998034E+04  0.11725998034E+04  0.25500000920E-02 0. -1.
       -2   -1    0    0    0  501  0.00000000000E+00  0.00000000000E+00 -0.13385525198E+04  0.13385525198E+04  0.25500000920E-02 0.  1.
    10030    2    1    2    0    0  0.00000000000E+00  0.00000000000E+00 -0.16595271633E+03  0.25111523232E+04  0.25056627240E+04 0.  0.
        4    1    3    3  502    0  0.78628418566E+03 -0.69446313662E+03 -0.76935854762E+03  0.13009366074E+04  0.12699999809E+01 0.  1.
       -4    1    3    3    0  502 -0.78628418566E+03  0.69446313662E+03  0.60340583129E+03  0.12102157158E+04  0.12699999809E+01 0. -1.
</event>
<event>
 5   0  0.1429483E-05  0.2504204E+04  0.7818609E-02  0.8401489E-01
        1   -1    0    0  501    0  0.00000000000E+00  0.00000000000E+00  0.98200704153E+03  0.98200704154E+03  0.50400001928E-02 0.  1.
       -1   -1    0    0    0  501  0.00000000000E+00  0.00000000000E+00 -0.15964848501E+04  0.15964848501E+04  0.50400001928E-02 0. -1.
    10030    2    1    2    0    0  0.00000000000E+00  0.00000000000E+00 -0.61447780857E+03  0.25784918916E+04  0.25042039570E+04 0.  0.
        2    1    3    3  502    0 -0.32607201721E+03  0.49508611390E+03 -0.14428276857E+04  0.15598669658E+04  0.25500000920E-02 0. -1.
       -2    1    3    3    0  502  0.32607201721E+03 -0.49508611390E+03  0.82834987710E+03  0.10186249258E+04  0.25500000920E-02 0.  1.
</event>
<event>
 5   0  0.1492639E-05  0.2476301E+04  0.7818609E-02  0.8411477E-01
        1   -1    0    0  501    0  0.00000000000E+00  0.00000000000E+00  0.83804899731E+03  0.83804899732E+03  0.50400001928E-02 0.  1.
       -1   -1    0    0    0  501  0.00000000000E+00  0.00000000000E+00 -0.18292691737E+04  0.18292691737E+04  0.50400001928E-02 0. -1.
    10030    2    1    2    0    0  0.00000000000E+00  0.00000000000E+00 -0.99122017642E+03  0.26673181711E+04  0.24763014331E+04 0.  0.
        5    1    3    3  502    0  0.11524268362E+04 -0.21647880501E+03 -0.92382412533E+03  0.14927906050E+04  0.46999998093E+01 0.  1.
       -5    1    3    3    0  502 -0.11524268362E+04  0.21647880501E+03 -0.67396051087E+02  0.11745275661E+04  0.46999998093E+01 0. -1.
</event>
<event>
 5   0  0.1492639E-05  0.2501891E+04  0.7818609E-02  0.8402312E-01
       -1   -1    0    0    0  501  0.00000000000E+00  0.00000000000E+00  0.83259086715E+03  0.83259086717E+03  0.50400001928E-02 0.  1.
        1   -1    0    0  501    0  0.00000000000E+00  0.00000000000E+00 -0.18795124716E+04  0.18795124716E+04  0.50400001928E-02 0. -1.
    10030    2    1    2    0    0  0.00000000000E+00  0.00000000000E+00 -0.10469216045E+04  0.27121033388E+04  0.25018912196E+04 0.  0.
        5    1    3    3  502    0 -0.71984102460E+03  0.95671907445E+03 -0.91634986869E+03  0.15077140511E+04  0.46999998093E+01 0. -1.
       -5    1    3    3    0  502  0.71984102460E+03 -0.95671907445E+03 -0.13057173579E+03  0.12043892877E+04  0.46999998093E+01 0.  1.
</event>
<event>
 5   0  0.3704241E-05  0.2477095E+04  0.7818609E-02  0.8411191E-01
       -2   -1    0    0    0  501  0.00000000000E+00  0.00000000000E+00  0.58315531870E+03  0.58315531871E+03  0.25500000920E-02 0.  1.
        2   -1    0    0  501    0  0.00000000000E+00  0.00000000000E+00 -0.26305169132E+04  0.26305169132E+04  0.25500000920E-02 0. -1.
    10030    2    1    2    0    0  0.00000000000E+00  0.00000000000E+00 -0.20473615945E+04  0.32136722319E+04  0.24770950155E+04 0.  0.
        2    1    3    3  502    0 -0.76027657712E+03 -0.96981348647E+03 -0.86246773215E+03  0.15041307328E+04  0.25500000920E-02 0. -1.
       -2    1    3    3    0  502  0.76027657712E+03  0.96981348647E+03 -0.11848938624E+04  0.17095414992E+04  0.25500000920E-02 0.  1.
</event>
<event>
 5   0  0.3579097E-05  0.2551722E+04  0.7818609E-02  0.8384788E-01
        2   -1    0    0  501    0  0.00000000000E+00  0.00000000000E+00  0.15406265302E+04  0.15406265302E+04  0.25500000920E-02 0. -1.
       -2   -1    0    0    0  501  0.00000000000E+00  0.00000000000E+00 -0.10565967321E+04  0.10565967321E+04  0.25500000920E-02 0.  1.
    10030    2    1    2    0    0  0.00000000000E+00  0.00000000000E+00  0.48402979814E+03  0.25972232622E+04  0.25517217381E+04 0.  0.
        5    1    3    3  502    0  0.69595415993E+03 -0.66196172567E+03  0.10967834774E+04  0.14579100128E+04  0.46999998093E+01 0. -1.
       -5    1    3    3    0  502 -0.69595415993E+03  0.66196172567E+03 -0.61275367928E+03  0.11393132495E+04  0.46999998093E+01 0.  1.
</event>
<event>
 5   0  0.3581449E-05  0.2583930E+04  0.7818609E-02  0.8373681E-01
       -2   -1    0    0    0  501  0.00000000000E+00  0.00000000000E+00  0.11472354508E+04  0.11472354508E+04  0.25500000920E-02 0.  1.
        2   -1    0    0  501    0  0.00000000000E+00  0.00000000000E+00 -0.14549524166E+04  0.14549524166E+04  0.25500000920E-02 0. -1.
    10030    2    1    2    0    0  0.00000000000E+00  0.00000000000E+00 -0.30771696586E+03  0.26021878674E+04  0.25839295590E+04 0.  0.
        1    1    3    3  502    0 -0.33213984512E+03  0.11073703924E+04 -0.73463703010E+03  0.13697728383E+04  0.50400001928E-02 0. -1.
       -1    1    3    3    0  502  0.33213984512E+03 -0.11073703924E+04  0.42692006424E+03  0.12324150291E+04  0.50400001928E-02 0.  1.
</event>
<event>
 5   0  0.3704241E-05  0.2573464E+04  0.7818609E-02  0.8377271E-01
        2   -1    0    0  501    0  0.00000000000E+00  0.00000000000E+00  0.24354041043E+04  0.24354041043E+04  0.25500000920E-02 0.  1.
       -2   -1    0    0    0  501  0.00000000000E+00  0.00000000000E+00 -0.67983769121E+03  0.67983769121E+03  0.25500000920E-02 0. -1.
    10030    2    1    2    0    0  0.00000000000E+00  0.00000000000E+00  0.17555664131E+04  0.31152417955E+04  0.25734642049E+04 0.  0.
        2    1    3    3  502    0 -0.64923449859E+03 -0.71315589236E+02  0.22198222348E+04  0.23139148864E+04  0.25500000920E-02 0.  1.
       -2    1    3    3    0  502  0.64923449859E+03  0.71315589236E+02 -0.46425582164E+03  0.80132690917E+03  0.25500000920E-02 0. -1.
</event>
<event>
 5   0  0.3650620E-05  0.2468817E+04  0.7818609E-02  0.8414180E-01
       -2   -1    0    0    0  501  0.00000000000E+00  0.00000000000E+00  0.60994107486E+03  0.60994107486E+03  0.25500000920E-02 0.  1.
        2   -1    0    0  501    0  0.00000000000E+00  0.00000000000E+00 -0.24982150962E+04  0.24982150962E+04  0.25500000920E-02 0. -1.
    10030    2    1    2    0    0  0.00000000000E+00  0.00000000000E+00 -0.18882740213E+04  0.31081561711E+04  0.24688167214E+04 0.  0.
        3    1    3    3  502    0 -0.54005406727E+03 -0.10223614232E+04 -0.39988686999E+03  0.12234340171E+04  0.10100000352E+00 0.  1.
       -3    1    3    3    0  502  0.54005406727E+03  0.10223614232E+04 -0.14883871513E+04  0.18847221540E+04  0.10100000352E+00 0. -1.
</event>
<event>
 5   0  0.1492639E-05  0.2498145E+04  0.7818609E-02  0.8403647E-01
        1   -1    0    0  501    0  0.00000000000E+00  0.00000000000E+00  0.15062651717E+04  0.15062651717E+04  0.50400001928E-02 0. -1.
       -1   -1    0    0    0  501  0.00000000000E+00  0.00000000000E+00 -0.10357951943E+04  0.10357951943E+04  0.50400001928E-02 0.  1.
    10030    2    1    2    0    0  0.00000000000E+00  0.00000000000E+00  0.47046997737E+03  0.25420603660E+04  0.24981450929E+04 0.  0.
        5    1    3    3  502    0  0.82735366904E+03 -0.86664948565E+03 -0.12390661221E+03  0.12045623119E+04  0.46999998093E+01 0.  1.
       -5    1    3    3    0  502 -0.82735366904E+03  0.86664948565E+03  0.59437658958E+03  0.13374980542E+04  0.46999998093E+01 0. -1.
</event>
<event>
 5   0  0.3579097E-05  0.2354201E+04  0.7818609E-02  0.8456852E-01
        2   -1    0    0  501    0  0.00000000000E+00  0.00000000000E+00  0.17075665223E+04  0.17075665223E+04  0.25500000920E-02 0.  1.
       -2   -1    0    0    0  501  0.00000000000E+00  0.00000000000E+00 -0.81142687317E+03  0.81142687318E+03  0.25500000920E-02 0. -1.
    10030    2    1    2    0    0  0.00000000000E+00  0.00000000000E+00  0.89613964912E+03  0.25189933955E+04  0.23542008104E+04 0.  0.
        5    1    3    3  502    0  0.59102208599E+03  0.58879048274E+03  0.13365958721E+04  0.15755925724E+04  0.46999998093E+01 0.  1.
       -5    1    3    3    0  502 -0.59102208599E+03 -0.58879048274E+03 -0.44045622299E+03  0.94340082312E+03  0.46999998093E+01 0. -1.
</event>
<event>
 5   0  0.1492639E-05  0.2697551E+04  0.7818609E-02  0.8335800E-01
        1   -1    0    0  501    0  0.00000000000E+00  0.00000000000E+00  0.15311441779E+04  0.15311441779E+04  0.50400001928E-02 0. -1.
       -1   -1    0    0    0  501  0.00000000000E+00  0.00000000000E+00 -0.11881283457E+04  0.11881283457E+04  0.50400001928E-02 0.  1.
    10030    2    1    2    0    0  0.00000000000E+00  0.00000000000E+00  0.34301583228E+03  0.27192725236E+04  0.26975513334E+04 0.  0.
        5    1    3    3  502    0 -0.53405865534E+03  0.65289932503E+03  0.12324451469E+04  0.14934655357E+04  0.46999998093E+01 0. -1.
       -5    1    3    3    0  502  0.53405865534E+03 -0.65289932503E+03 -0.88942931466E+03  0.12258069880E+04  0.46999998093E+01 0.  1.
</event>
<event>
 5   0  0.1421242E-05  0.2521336E+04  0.7818609E-02  0.8395424E-01
        1   -1    0    0  501    0  0.00000000000E+00  0.00000000000E+00  0.21165258917E+04  0.21165258917E+04  0.50400001928E-02 0. -1.
       -1   -1    0    0    0  501  0.00000000000E+00  0.00000000000E+00 -0.75089285347E+03  0.75089285349E+03  0.50400001928E-02 0.  1.
    10030    2    1    2    0    0  0.00000000000E+00  0.00000000000E+00  0.13656330382E+04  0.28674187452E+04  0.25213362856E+04 0.  0.
        3    1    3    3  502    0 -0.74754488479E+03  0.93454663225E+03  0.23207715942E+03  0.12190408446E+04  0.10100000352E+00 0.  1.
       -3    1    3    3    0  502  0.74754488479E+03 -0.93454663225E+03  0.11335558788E+04  0.16483779006E+04  0.10100000352E+00 0. -1.
</event>
<event>
 5   0  0.3650620E-05  0.2510702E+04  0.7818609E-02  0.8399183E-01
        2   -1    0    0  501    0  0.00000000000E+00  0.00000000000E+00  0.26930284798E+04  0.26930284798E+04  0.25500000920E-02 0.  1.
       -2   -1    0    0    0  501  0.00000000000E+00  0.00000000000E+00 -0.58518002598E+03  0.58518002598E+03  0.25500000920E-02 0. -1.
    10030    2    1    2    0    0  0.00000000000E+00  0.00000000000E+00  0.21078484538E+04  0.32782085058E+04  0.25107022729E+04 0.  0.
        3    1    3    3  502    0  0.70068235811E+03  0.51319055424E+03  0.22374232745E+04  0.24000798385E+04  0.10100000352E+00 0.  1.
       -3    1    3    3    0  502 -0.70068235811E+03 -0.51319055424E+03 -0.12957482065E+03  0.87812866726E+03  0.10100000352E+00 0. -1.
</event>
<event>
 5   0  0.1456876E-05  0.2497073E+04  0.7818609E-02  0.8404029E-01
       -1   -1    0    0    0  501  0.00000000000E+00  0.00000000000E+00  0.12934742398E+04  0.12934742398E+04  0.50400001928E-02 0. -1.
        1   -1    0    0  501    0  0.00000000000E+00  0.00000000000E+00 -0.12051600894E+04  0.12051600894E+04  0.50400001928E-02 0.  1.
    10030    2    1    2    0    0  0.00000000000E+00  0.00000000000E+00  0.88314150402E+02  0.24986343292E+04  0.24970731110E+04 0.  0.
        1    1    3    3  502    0 -0.32422415880E+03  0.58042935445E+03  0.11016167416E+04  0.12866930427E+04  0.50400001928E-02 0. -1.
       -1    1    3    3    0  502  0.32422415880E+03 -0.58042935445E+03 -0.10133025912E+04  0.12119412865E+04  0.50400001928E-02 0.  1.
</event>
<event>
 5   0  0.1421242E-05  0.2235614E+04  0.7818609E-02  0.8503749E-01
       -1   -1    0    0    0  501  0.00000000000E+00  0.00000000000E+00  0.78978225082E+03  0.78978225083E+03  0.50400001928E-02 0. -1.
        1   -1    0    0  501    0  0.00000000000E+00  0.00000000000E+00 -0.15820721784E+04  0.15820721784E+04  0.50400001928E-02 0.  1.
    10030    2    1    2    0    0  0.00000000000E+00  0.00000000000E+00 -0.79228992763E+03  0.23718544293E+04  0.22356140329E+04 0.  0.
        3    1    3    3  502    0  0.97554225259E+03 -0.54470922314E+03 -0.43135943758E+03  0.11976901932E+04  0.10100000352E+00 0.  1.
       -3    1    3    3    0  502 -0.97554225259E+03  0.54470922314E+03 -0.36093049004E+03  0.11741642361E+04  0.10100000352E+00 0. -1.
</event>
<event>
 5   0  0.1502886E-05  0.2491442E+04  0.7818609E-02  0.8406041E-01
        1   -1    0    0  501    0  0.00000000000E+00  0.00000000000E+00  0.11866124397E+04  0.11866124397E+04  0.50400001928E-02 0. -1.
       -1   -1    0    0    0  501  0.00000000000E+00  0.00000000000E+00 -0.13077740662E+04  0.13077740662E+04  0.50400001928E-02 0.  1.
    10030    2    1    2    0    0  0.00000000000E+00  0.00000000000E+00 -0.12116162655E+03  0.24943865059E+04  0.24914421328E+04 0.  0.
        4    1    3    3  502    0  0.18124520187E+03 -0.10306941511E+04 -0.73713018416E+03  0.12800557713E+04  0.12699999809E+01 0.  1.
       -4    1    3    3    0  502 -0.18124520187E+03  0.10306941511E+04  0.61596855761E+03  0.12143307346E+04  0.12699999809E+01 0. -1.
</event>
<event>
 5   0  0.1492639E-05  0.2395610E+04  0.7818609E-02  0.8441149E-01
       -1   -1    0    0    0  501  0.00000000000E+00  0.00000000000E+00  0.95557937272E+03  0.95557937273E+03  0.50400001928E-02 0. -1.
        1   -1    0    0  501    0  0.00000000000E+00  0.00000000000E+00 -0.15014319590E+04  0.15014319590E+04  0.50400001928E-02 0.  1.
    10030    2    1    2    0    0  0.00000000000E+00  0.00000000000E+00 -0.54585258625E+03  0.24570113317E+04  0.23956104939E+04 0.  0.
        5    1    3    3  502    0 -0.28605147886E+03  0.10506622975E+04 -0.78471348379E+03  0.13422049224E+04  0.46999998093E+01 0.  1.
       -5    1    3    3    0  502  0.28605147886E+03 -0.10506622975E+04  0.23886089754E+03  0.11148064094E+04  0.46999998093E+01 0. -1.
</event>
<event>
 5   0  0.3578670E-05  0.2358116E+04  0.7818609E-02  0.8455353E-01
        2   -1    0    0  501    0  0.00000000000E+00  0.00000000000E+00  0.14591500546E+04  0.14591500547E+04  0.25500000920E-02 0. -1.
       -2   -1    0    0    0  501  0.00000000000E+00  0.00000000000E+00 -0.95273085411E+03  0.95273085412E+03  0.25500000920E-02 0.  1.
    10030    2    1    2    0    0  0.00000000000E+00  0.00000000000E+00  0.50641920054E+03  0.24118809088E+04  0.23581155848E+04 0.  0.
        4    1    3    3  502    0  0.43213555723E+03  0.82174270107E+03  0.99653514536E+03  0.13620154608E+04  0.12699999809E+01 0. -1.
       -4    1    3    3    0  502 -0.43213555723E+03 -0.82174270107E+03 -0.49011594483E+03  0.10498654480E+04  0.12699999809E+01 0.  1.
</event>
<event>
 5   0  0.3581449E-05  0.2487446E+04  0.7818609E-02  0.8407471E-01
       -2   -1    0    0    0  501  0.00000000000E+00  0.00000000000E+00  0.18237441653E+04  0.18237441653E+04  0.25500000920E-02 0.  1.
        2   -1    0    0  501    0  0.00000000000E+00  0.00000000000E+00 -0.84817130682E+03  0.84817130683E+03  0.25500000920E-02 0. -1.
    10030    2    1    2    0    0  0.00000000000E+00  0.00000000000E+00  0.97557285848E+03  0.26719154721E+04  0.24874464593E+04 0.  0.
        1    1    3    3  502    0 -0.24811092259E+03  0.62053730040E+03 -0.63891570264E+03  0.92457495434E+03  0.50400001928E-02 0. -1.
       -1    1    3    3    0  502  0.24811092259E+03 -0.62053730040E+03  0.16144885611E+04  0.17473405178E+04  0.50400001928E-02 0.  1.
</event>
<event>
 5   0  0.1502886E-05  0.2504400E+04  0.7818609E-02  0.8401420E-01
        1   -1    0    0  501    0  0.00000000000E+00  0.00000000000E+00  0.11293747350E+04  0.11293747350E+04  0.50400001928E-02 0. -1.
       -1   -1    0    0    0  501  0.00000000000E+00  0.00000000000E+00 -0.13883833132E+04  0.13883833132E+04  0.50400001928E-02 0.  1.
    10030    2    1    2    0    0  0.00000000000E+00  0.00000000000E+00 -0.25900857818E+03  0.25177580482E+04  0.25044001569E+04 0.  0.
        4    1    3    3  502    0  0.59818786503E+03 -0.74764387415E+03 -0.94078019857E+03  0.13423371705E+04  0.12699999809E+01 0.  1.
       -4    1    3    3    0  502 -0.59818786503E+03  0.74764387415E+03  0.68177162038E+03  0.11754208777E+04  0.12699999809E+01 0. -1.
</event>
<event>
 5   0  0.3704241E-05  0.2506354E+04  0.7818609E-02  0.8400725E-01
        2   -1    0    0  501    0  0.00000000000E+00  0.00000000000E+00  0.75142901433E+03  0.75142901433E+03  0.25500000920E-02 0.  1.
       -2   -1    0    0    0  501  0.00000000000E+00  0.00000000000E+00 -0.20899548899E+04  0.20899548899E+04  0.25500000920E-02 0. -1.
    10030    2    1    2    0    0  0.00000000000E+00  0.00000000000E+00 -0.13385258756E+04  0.28413839043E+04  0.25063541194E+04 0.  0.
        2    1    3    3  502    0  0.62773897737E+03  0.65518815725E+03 -0.16491682632E+04  0.18823080793E+04  0.25500000920E-02 0. -1.
       -2    1    3    3    0  502 -0.62773897737E+03 -0.65518815725E+03  0.31064238756E+03  0.95907582498E+03  0.25500000920E-02 0.  1.
</event>
<event>
 5   0  0.1492639E-05  0.2480338E+04  0.7818609E-02  0.8410024E-01
       -1   -1    0    0    0  501  0.00000000000E+00  0.00000000000E+00  0.12038860208E+04  0.12038860208E+04  0.50400001928E-02 0. -1.
        1   -1    0    0  501    0  0.00000000000E+00  0.00000000000E+00 -0.12775453940E+04  0.12775453941E+04  0.50400001928E-02 0.  1.
    10030    2    1    2    0    0  0.00000000000E+00  0.00000000000E+00 -0.73659373250E+02  0.24814314149E+04  0.24803379132E+04 0.  0.
        5    1    3    3  502    0 -0.23030798985E+03  0.10628617029E+03 -0.12513082146E+04  0.12767665637E+04  0.46999998093E+01 0.  1.
       -5    1    3    3    0  502  0.23030798985E+03 -0.10628617029E+03  0.11776488413E+04  0.12046648512E+04  0.46999998093E+01 0. -1.
</event>
<event>
 5   0  0.3704241E-05  0.2531059E+04  0.7818609E-02  0.8392004E-01
       -2   -1    0    0    0  501  0.00000000000E+00  0.00000000000E+00  0.12857419197E+04  0.12857419197E+04  0.25500000920E-02 0. -1.
        2   -1    0    0  501    0  0.00000000000E+00  0.00000000000E+00 -0.12456344057E+04  0.12456344057E+04  0.25500000920E-02 0.  1.
    10030    2    1    2    0    0  0.00000000000E+00  0.00000000000E+00  0.40107514004E+02  0.25313763254E+04  0.25310585707E+04 0.  0.
        2    1    3    3  502    0  0.10486062453E+04  0.66983686075E+03  0.25096776669E+03  0.12693467996E+04  0.25500000920E-02 0.  1.
       -2    1    3    3    0  502 -0.10486062453E+04 -0.66983686075E+03 -0.21086025269E+03  0.12620295258E+04  0.25500000920E-02 0. -1.
</event>
<event>
 5   0  0.1502886E-05  0.2587423E+04  0.7818609E-02  0.8372486E-01
       -1   -1    0    0    0  501  0.00000000000E+00  0.00000000000E+00  0.99108990059E+03  0.99108990060E+03  0.50400001928E-02 0.  1.
        1   -1    0    0  501    0  0.00000000000E+00  0.00000000000E+00 -0.16887368898E+04  0.16887368899E+04  0.50400001928E-02 0. -1.
    10030    2    1    2    0    0  0.00000000000E+00  0.00000000000E+00 -0.69764698926E+03  0.26798267905E+04  0.25874234878E+04 0.  0.
        4    1    3    3  502    0 -0.35397573558E+03  0.60552277481E+03 -0.14747205195E+04  0.16330213947E+04  0.12699999809E+01 0. -1.
       -4    1    3    3    0  502  0.35397573558E+03 -0.60552277481E+03  0.77707353023E+03  0.10468053957E+04  0.12699999809E+01 0.  1.
</event>
<event>
 5   0  0.1502886E-05  0.2448236E+04  0.7818609E-02  0.8421662E-01
        1   -1    0    0  501    0  0.00000000000E+00  0.00000000000E+00  0.11338180306E+04  0.11338180306E+04  0.50400001928E-02 0. -1.
       -1   -1    0    0    0  501  0.00000000000E+00  0.00000000000E+00 -0.13216095779E+04  0.13216095779E+04  0.50400001928E-02 0.  1.
    10030    2    1    2    0    0  0.00000000000E+00  0.00000000000E+00 -0.18779154731E+03  0.24554276085E+04  0.24482359109E+04 0.  0.
        4    1    3    3  502    0  0.88837612154E+03  0.58693621097E+03 -0.69962096096E+03  0.12740397761E+04  0.12699999809E+01 0.  1.
       -4    1    3    3    0  502 -0.88837612154E+03 -0.58693621097E+03  0.51182941364E+03  0.11813878324E+04  0.12699999809E+01 0. -1.
</event>
<event>
 5   0  0.1502886E-05  0.2418242E+04  0.7818609E-02  0.8432705E-01
        1   -1    0    0  501    0  0.00000000000E+00  0.00000000000E+00  0.12293057510E+04  0.12293057510E+04  0.50400001928E-02 0. -1.
       -1   -1    0    0    0  501  0.00000000000E+00  0.00000000000E+00 -0.11892680593E+04  0.11892680593E+04  0.50400001928E-02 0.  1.
    10030    2    1    2    0    0  0.00000000000E+00  0.00000000000E+00  0.40037691735E+02  0.24185738103E+04  0.24182423905E+04 0.  0.
        4    1    3    3  502    0  0.50316499319E+03  0.77183738101E+03  0.80311050792E+03  0.12222504056E+04  0.12699999809E+01 0. -1.
       -4    1    3    3    0  502 -0.50316499319E+03 -0.77183738101E+03 -0.76307281618E+03  0.11963234048E+04  0.12699999809E+01 0.  1.
</event>
<event>
 5   0  0.3578670E-05  0.2495419E+04  0.7818609E-02  0.8404619E-01
       -2   -1    0    0    0  501  0.00000000000E+00  0.00000000000E+00  0.12864326169E+04  0.12864326169E+04  0.25500000920E-02 0.  1.
        2   -1    0    0  501    0  0.00000000000E+00  0.00000000000E+00 -0.12101519494E+04  0.12101519494E+04  0.25500000920E-02 0. -1.
    10030    2    1    2    0    0  0.00000000000E+00  0.00000000000E+00  0.76280667482E+02  0.24965845662E+04  0.24954189540E+04 0.  0.
        4    1    3    3  502    0 -0.92829981051E+03  0.79335543595E+03 -0.21815102490E+03  0.12404615546E+04  0.12699999809E+01 0. -1.
       -4    1    3    3    0  502  0.92829981051E+03 -0.79335543595E+03  0.29443169238E+03  0.12561230116E+04  0.12699999809E+01 0.  1.
</event>
<event>
 5   0  0.1201438E-05  0.2521976E+04  0.7818609E-02  0.8395198E-01
        3   -1    0    0  501    0  0.00000000000E+00  0.00000000000E+00  0.72787107232E+03  0.72787107932E+03  0.10100000352E+00 0. -1.
       -3   -1    0    0    0  501  0.00000000000E+00  0.00000000000E+00 -0.21845766240E+04  0.21845766263E+04  0.10100000352E+00 0.  1.
    10030    2    1    2    0    0  0.00000000000E+00  0.00000000000E+00 -0.14567055517E+04  0.29124477057E+04  0.25219755300E+04 0.  0.
        5    1    3    3  502    0  0.32597305228E+03  0.46588374154E+03 -0.20281175861E+04  0.21063212301E+04  0.46999998093E+01 0.  1.
       -5    1    3    3    0  502 -0.32597305228E+03 -0.46588374154E+03  0.57141203443E+03  0.80612647552E+03  0.46999998093E+01 0. -1.
</event>
<event>
 5   0  0.3579097E-05  0.2510191E+04  0.7818609E-02  0.8399364E-01
        2   -1    0    0  501    0  0.00000000000E+00  0.00000000000E+00  0.18160242965E+04  0.18160242965E+04  0.25500000920E-02 0. -1.
       -2   -1    0    0    0  501  0.00000000000E+00  0.00000000000E+00 -0.86742504159E+03  0.86742504160E+03  0.25500000920E-02 0.  1.
    10030    2    1    2    0    0  0.00000000000E+00  0.00000000000E+00  0.94859925491E+03  0.26834493381E+04  0.25101911887E+04 0.  0.
        5    1    3    3  502    0  0.10462019223E+04  0.13735669456E+03  0.12007922593E+04  0.15985397911E+04  0.46999998093E+01 0. -1.
       -5    1    3    3    0  502 -0.10462019223E+04 -0.13735669456E+03 -0.25219300437E+03  0.10849095470E+04  0.46999998093E+01 0.  1.
</event>
<event>
 5   0  0.3579097E-05  0.2519817E+04  0.7818609E-02  0.8395959E-01
        2   -1    0    0  501    0  0.00000000000E+00  0.00000000000E+00  0.22862550235E+04  0.22862550235E+04  0.25500000920E-02 0. -1.
       -2   -1    0    0    0  501  0.00000000000E+00  0.00000000000E+00 -0.69430993633E+03  0.69430993634E+03  0.25500000920E-02 0.  1.
    10030    2    1    2    0    0  0.00000000000E+00  0.00000000000E+00  0.15919450872E+04  0.29805649599E+04  0.25198171202E+04 0.  0.
        5    1    3    3  502    0  0.16995512515E+03  0.11764830288E+04  0.30207020968E+03  0.12264850440E+04  0.46999998093E+01 0. -1.
       -5    1    3    3    0  502 -0.16995512515E+03 -0.11764830288E+04  0.12898748775E+04  0.17540799159E+04  0.46999998093E+01 0.  1.
</event>
<event>
 5   0  0.3578670E-05  0.1795757E+04  0.7818609E-02  0.8708559E-01
       -2   -1    0    0    0  501  0.00000000000E+00  0.00000000000E+00  0.77371002942E+03  0.77371002943E+03  0.25500000920E-02 0.  1.
        2   -1    0    0  501    0  0.00000000000E+00  0.00000000000E+00 -0.10419745934E+04  0.10419745934E+04  0.25500000920E-02 0. -1.
    10030    2    1    2    0    0  0.00000000000E+00  0.00000000000E+00 -0.26826456400E+03  0.18156846228E+04  0.17957574372E+04 0.  0.
        4    1    3    3  502    0 -0.74633912634E+03  0.36817173621E+03  0.20667193665E+03  0.85748902101E+03  0.12699999809E+01 0.  1.
       -4    1    3    3    0  502  0.74633912634E+03 -0.36817173621E+03 -0.47493650065E+03  0.95819560184E+03  0.12699999809E+01 0. -1.
</event>
<event>
 5   0  0.1456876E-05  0.2486131E+04  0.7818609E-02  0.8407943E-01
        1   -1    0    0  501    0  0.00000000000E+00  0.00000000000E+00  0.23599049531E+04  0.23599049531E+04  0.50400001928E-02 0.  1.
       -1   -1    0    0    0  501  0.00000000000E+00  0.00000000000E+00 -0.65477696629E+03  0.65477696631E+03  0.50400001928E-02 0. -1.
    10030    2    1    2    0    0  0.00000000000E+00  0.00000000000E+00  0.17051279868E+04  0.30146819194E+04  0.24861306530E+04 0.  0.
        1    1    3    3  502    0  0.13941607238E+03 -0.79949421187E+03  0.19943307324E+04  0.21531332765E+04  0.50400001928E-02 0.  1.
       -1    1    3    3    0  502 -0.13941607238E+03  0.79949421187E+03 -0.28920274560E+03  0.86154864293E+03  0.50400001928E-02 0. -1.
</event>
<event>
 5   0  0.1429483E-05  0.2375490E+04  0.7818609E-02  0.8448737E-01
        1   -1    0    0  501    0  0.00000000000E+00  0.00000000000E+00  0.15362481249E+04  0.15362481249E+04  0.50400001928E-02 0.  1.
       -1   -1    0    0    0  501  0.00000000000E+00  0.00000000000E+00 -0.91830097727E+03  0.91830097728E+03  0.50400001928E-02 0. -1.
    10030    2    1    2    0    0  0.00000000000E+00  0.00000000000E+00  0.61794714766E+03  0.24545491022E+04  0.23754899743E+04 0.  0.
        2    1    3    3  502    0  0.87767731271E+03 -0.78069425708E+03  0.12723011559E+03  0.11815195684E+04  0.25500000920E-02 0. -1.
       -2    1    3    3    0  502 -0.87767731271E+03  0.78069425708E+03  0.49071703207E+03  0.12730295338E+04  0.25500000920E-02 0.  1.
</event>
<event>
 5   0  0.3704241E-05  0.2478050E+04  0.7818609E-02  0.8410847E-01
        2   -1    0    0  501    0  0.00000000000E+00  0.00000000000E+00  0.24584512725E+04  0.24584512725E+04  0.25500000920E-02 0. -1.
       -2   -1    0    0    0  501  0.00000000000E+00  0.00000000000E+00 -0.62445148041E+03  0.62445148042E+03  0.25500000920E-02 0.  1.
    10030    2    1    2    0    0  0.00000000000E+00  0.00000000000E+00  0.18339997921E+04  0.30829027529E+04  0.24780504730E+04 0.  0.
        2    1    3    3  502    0 -0.12459065750E+03 -0.77056840356E+03 -0.28009398597E+03  0.82930762536E+03  0.25500000920E-02 0.  1.
       -2    1    3    3    0  502  0.12459065750E+03  0.77056840356E+03  0.21140937781E+04  0.22535951276E+04  0.25500000920E-02 0. -1.
</event>
<event>
 5   0  0.1429483E-05  0.2497624E+04  0.7818609E-02  0.8403833E-01
        1   -1    0    0  501    0  0.00000000000E+00  0.00000000000E+00  0.17251469741E+04  0.17251469741E+04  0.50400001928E-02 0.  1.
       -1   -1    0    0    0  501  0.00000000000E+00  0.00000000000E+00 -0.90399906107E+03  0.90399906109E+03  0.50400001928E-02 0. -1.
    10030    2    1    2    0    0  0.00000000000E+00  0.00000000000E+00  0.82114791302E+03  0.26291460352E+04  0.24976238667E+04 0.  0.
        2    1    3    3  502    0 -0.14341852575E+03 -0.73069365098E+03 -0.64473913612E+03  0.98497240508E+03  0.25500000920E-02 0. -1.
       -2    1    3    3    0  502  0.14341852575E+03  0.73069365098E+03  0.14658870491E+04  0.16441736301E+04  0.25500000920E-02 0.  1.
</event>
<event>
 5   0  0.3650620E-05  0.2498676E+04  0.7818609E-02  0.8403457E-01
       -2   -1    0    0    0  501  0.00000000000E+00  0.00000000000E+00  0.65828219446E+03  0.65828219446E+03  0.25500000920E-02 0.  1.
        2   -1    0    0  501    0  0.00000000000E+00  0.00000000000E+00 -0.23710889958E+04  0.23710889958E+04  0.25500000920E-02 0. -1.
    10030    2    1    2    0    0  0.00000000000E+00  0.00000000000E+00 -0.17128068013E+04  0.30293711903E+04  0.24986761834E+04 0.  0.
        3    1    3    3  502    0 -0.18773510222E+03  0.42110655200E+03  0.55136438667E+03  0.71873353465E+03  0.10100000352E+00 0.  1.
       -3    1    3    3    0  502  0.18773510222E+03 -0.42110655200E+03 -0.22641711880E+04  0.23106376556E+04  0.10100000352E+00 0. -1.
</event>
<event>
 5   0  0.3579097E-05  0.2141295E+04  0.7818609E-02  0.8543268E-01
        2   -1    0    0  501    0  0.00000000000E+00  0.00000000000E+00  0.13510971654E+04  0.13510971654E+04  0.25500000920E-02 0.  1.
       -2   -1    0    0    0  501  0.00000000000E+00  0.00000000000E+00 -0.84841116843E+03  0.84841116843E+03  0.25500000920E-02 0. -1.
    10030    2    1    2    0    0  0.00000000000E+00  0.00000000000E+00  0.50268599699E+03  0.21995083338E+04  0.21412948650E+04 0.  0.
        5    1    3    3  502    0 -0.49754972282E+03  0.46139306644E+02  0.12239636430E+04  0.13220414713E+04  0.46999998093E+01 0.  1.
       -5    1    3    3    0  502  0.49754972282E+03 -0.46139306644E+02 -0.72127764602E+03  0.87746686259E+03  0.46999998093E+01 0. -1.
</event>
<event>
 5   0  0.1492639E-05  0.2503546E+04  0.7818609E-02  0.8401723E-01
       -1   -1    0    0    0  501  0.00000000000E+00  0.00000000000E+00  0.11618115494E+04  0.11618115494E+04  0.50400001928E-02 0. -1.
        1   -1    0    0  501    0  0.00000000000E+00  0.00000000000E+00 -0.13487004783E+04  0.13487004783E+04  0.50400001928E-02 0.  1.
    10030    2    1    2    0    0  0.00000000000E+00  0.00000000000E+00 -0.18688892892E+03  0.25105120277E+04  0.25035461189E+04 0.  0.
        5    1    3    3  502    0  0.29700452817E+03  0.11729268604E+04 -0.41518700013E+03  0.12792073501E+04  0.46999998093E+01 0.  1.
       -5    1    3    3    0  502 -0.29700452817E+03 -0.11729268604E+04  0.22829807121E+03  0.12313046775E+04  0.46999998093E+01 0. -1.
</event>
<event>
 5   0  0.1421242E-05  0.2136245E+04  0.7818609E-02  0.8545443E-01
       -1   -1    0    0    0  501  0.00000000000E+00  0.00000000000E+00  0.74092095147E+03  0.74092095149E+03  0.50400001928E-02 0.  1.
        1   -1    0    0  501    0  0.00000000000E+00  0.00000000000E+00 -0.15398215696E+04  0.15398215696E+04  0.50400001928E-02 0. -1.
    10030    2    1    2    0    0  0.00000000000E+00  0.00000000000E+00 -0.79890061810E+03  0.22807425211E+04  0.21362453627E+04 0.  0.
        3    1    3    3  502    0  0.77083236641E+03 -0.10589510751E+03 -0.11807195102E+04  0.14140349652E+04  0.10100000352E+00 0. -1.
       -3    1    3    3    0  502 -0.77083236641E+03  0.10589510751E+03  0.38181889205E+03  0.86670755589E+03  0.10100000352E+00 0.  1.
</event>
<event>
 5   0  0.3650620E-05  0.2473115E+04  0.7818609E-02  0.8412627E-01
        2   -1    0    0  501    0  0.00000000000E+00  0.00000000000E+00  0.17907037881E+04  0.17907037881E+04  0.25500000920E-02 0. -1.
       -2   -1    0    0    0  501  0.00000000000E+00  0.00000000000E+00 -0.85389552680E+03  0.85389552681E+03  0.25500000920E-02 0.  1.
    10030    2    1    2    0    0  0.00000000000E+00  0.00000000000E+00  0.93680826129E+03  0.26445993149E+04  0.24731145986E+04 0.  0.
        3    1    3    3  502    0  0.25374674909E+03 -0.87711572858E+03  0.13601041668E+04  0.16381705555E+04  0.10100000352E+00 0. -1.
       -3    1    3    3    0  502 -0.25374674909E+03  0.87711572858E+03 -0.42329590553E+03  0.10064287594E+04  0.10100000352E+00 0.  1.
</event>
<event>
 5   0  0.3581449E-05  0.2513302E+04  0.7818609E-02  0.8398262E-01
        2   -1    0    0  501    0  0.00000000000E+00  0.00000000000E+00  0.11880441346E+04  0.11880441346E+04  0.25500000920E-02 0.  1.
       -2   -1    0    0    0  501  0.00000000000E+00  0.00000000000E+00 -0.13292200925E+04  0.13292200925E+04  0.25500000920E-02 0. -1.
    10030    2    1    2    0    0  0.00000000000E+00  0.00000000000E+00 -0.14117595788E+03  0.25172642271E+04  0.25133023173E+04 0.  0.
        1    1    3    3  502    0  0.79407853050E+03  0.42050517745E+03  0.80931087217E+03  0.12092846665E+04  0.50400001928E-02 0.  1.
       -1    1    3    3    0  502 -0.79407853050E+03 -0.42050517745E+03 -0.95048683005E+03  0.13079795606E+04  0.50400001928E-02 0. -1.
</event>
<event>
 5   0  0.3581449E-05  0.2535804E+04  0.7818609E-02  0.8390340E-01
        2   -1    0    0  501    0  0.00000000000E+00  0.00000000000E+00  0.18112526452E+04  0.18112526452E+04  0.25500000920E-02 0. -1.
       -2   -1    0    0    0  501  0.00000000000E+00  0.00000000000E+00 -0.88754878829E+03  0.88754878829E+03  0.25500000920E-02 0.  1.
    10030    2    1    2    0    0  0.00000000000E+00  0.00000000000E+00  0.92370385688E+03  0.26988014335E+04  0.25358036915E+04 0.  0.
        1    1    3    3  502    0 -0.26044515048E+03  0.91785257900E+03 -0.42686210639E+03  0.10452254738E+04  0.50400001928E-02 0.  1.
       -1    1    3    3    0  502  0.26044515048E+03 -0.91785257900E+03  0.13505659633E+04  0.16535759597E+04  0.50400001928E-02 0. -1.
</event>
<event>
 5   0  0.3704241E-05  0.2465174E+04  0.7818609E-02  0.8415499E-01
       -2   -1    0    0    0  501  0.00000000000E+00  0.00000000000E+00  0.52710285036E+03  0.52710285036E+03  0.25500000920E-02 0. -1.
        2   -1    0    0  501    0  0.00000000000E+00  0.00000000000E+00 -0.28823037615E+04  0.28823037615E+04  0.25500000920E-02 0.  1.
    10030    2    1    2    0    0  0.00000000000E+00  0.00000000000E+00 -0.23552009111E+04  0.34094066119E+04  0.24651738505E+04 0.  0.
        2    1    3    3  502    0 -0.18282477866E+03 -0.17960488492E+03  0.48984589111E+03  0.55283977011E+03  0.25500000920E-02 0. -1.
       -2    1    3    3    0  502  0.18282477866E+03  0.17960488492E+03 -0.28450468022E+04  0.28565668417E+04  0.25500000920E-02 0.  1.
</event>
<event>
 5   0  0.1456876E-05  0.2499396E+04  0.7818609E-02  0.8403201E-01
        1   -1    0    0  501    0  0.00000000000E+00  0.00000000000E+00  0.14614483509E+04  0.14614483509E+04  0.50400001928E-02 0. -1.
       -1   -1    0    0    0  501  0.00000000000E+00  0.00000000000E+00 -0.10686285592E+04  0.10686285592E+04  0.50400001928E-02 0.  1.
    10030    2    1    2    0    0  0.00000000000E+00  0.00000000000E+00  0.39281979174E+03  0.25300769101E+04  0.24993962836E+04 0.  0.
        1    1    3    3  502    0 -0.33323502193E+03  0.10374557338E+04  0.81579120249E+03  0.13612036091E+04  0.50400001928E-02 0. -1.
       -1    1    3    3    0  502  0.33323502193E+03 -0.10374557338E+04 -0.42297141075E+03  0.11688733010E+04  0.50400001928E-02 0.  1.
</event>
<event>
 5   0  0.3581449E-05  0.2187038E+04  0.7818609E-02  0.8523843E-01
        2   -1    0    0  501    0  0.00000000000E+00  0.00000000000E+00  0.10189847483E+04  0.10189847483E+04  0.25500000920E-02 0. -1.
       -2   -1    0    0    0  501  0.00000000000E+00  0.00000000000E+00 -0.11735048049E+04  0.11735048049E+04  0.25500000920E-02 0.  1.
    10030    2    1    2    0    0  0.00000000000E+00  0.00000000000E+00 -0.15452005661E+03  0.21924895532E+04  0.21870377209E+04 0.  0.
        1    1    3    3  502    0 -0.27054386631E+03 -0.49948648048E+03  0.85946892114E+03  0.10302269431E+04  0.50400001928E-02 0. -1.
       -1    1    3    3    0  502  0.27054386631E+03  0.49948648048E+03 -0.10139889778E+04  0.11622626101E+04  0.50400001928E-02 0.  1.
</event>
<event>
 5   0  0.3578670E-05  0.2510296E+04  0.7818609E-02  0.8399327E-01
       -2   -1    0    0    0  501  0.00000000000E+00  0.00000000000E+00  0.12029046385E+04  0.12029046385E+04  0.25500000920E-02 0.  1.
        2   -1    0    0  501    0  0.00000000000E+00  0.00000000000E+00 -0.13096600326E+04  0.13096600326E+04  0.25500000920E-02 0. -1.
    10030    2    1    2    0    0  0.00000000000E+00  0.00000000000E+00 -0.10675539414E+03  0.25125646711E+04  0.25102957022E+04 0.  0.
        4    1    3    3  502    0  0.23605430600E+03  0.71928198739E+03 -0.10554350911E+04  0.12988583668E+04  0.12699999809E+01 0. -1.
       -4    1    3    3    0  502 -0.23605430600E+03 -0.71928198739E+03  0.94867969693E+03  0.12137063043E+04  0.12699999809E+01 0.  1.
</event>
<event>
 5   0  0.3650620E-05  0.2501642E+04  0.7818609E-02  0.8402401E-01
        2   -1    0    0  501    0  0.00000000000E+00  0.00000000000E+00  0.23274674722E+04  0.23274674722E+04  0.25500000920E-02 0.  1.
       -2   -1    0    0    0  501  0.00000000000E+00  0.00000000000E+00 -0.67221265464E+03  0.67221265464E+03  0.25500000920E-02 0. -1.
    10030    2    1    2    0    0  0.00000000000E+00  0.00000000000E+00  0.16552548175E+04  0.29996801268E+04  0.25016419313E+04 0.  0.
        3    1    3    3  502    0  0.10716503538E+04  0.57779261737E+03  0.11715667584E+04  0.16896293881E+04  0.10100000352E+00 0.  1.
       -3    1    3    3    0  502 -0.10716503538E+04 -0.57779261737E+03  0.48368805911E+03  0.13100507388E+04  0.10100000352E+00 0. -1.
</event>
<event>
 5   0  0.1492639E-05  0.2492993E+04  0.7818609E-02  0.8405486E-01
       -1   -1    0    0    0  501  0.00000000000E+00  0.00000000000E+00  0.98749467072E+03  0.98749467073E+03  0.50400001928E-02 0. -1.
        1   -1    0    0  501    0  0.00000000000E+00  0.00000000000E+00 -0.15734292888E+04  0.15734292888E+04  0.50400001928E-02 0.  1.
    10030    2    1    2    0    0  0.00000000000E+00  0.00000000000E+00 -0.58593461805E+03  0.25609239595E+04  0.24929926092E+04 0.  0.
        5    1    3    3  502    0  0.12286052771E+04  0.19293512169E+03 -0.37913420370E+03  0.13001768043E+04  0.46999998093E+01 0. -1.
       -5    1    3    3    0  502 -0.12286052771E+04 -0.19293512169E+03 -0.20680041435E+03  0.12607471552E+04  0.46999998093E+01 0.  1.
</event>
<event>
 5   0  0.1429483E-05  0.2410520E+04  0.7818609E-02  0.8435576E-01
       -1   -1    0    0    0  501  0.00000000000E+00  0.00000000000E+00  0.10739318532E+04  0.10739318532E+04  0.50400001928E-02 0.  1.
        1   -1    0    0  501    0  0.00000000000E+00  0.00000000000E+00 -0.13526478244E+04  0.13526478244E+04  0.50400001928E-02 0. -1.
    10030    2    1    2    0    0  0.00000000000E+00  0.00000000000E+00 -0.27871597123E+03  0.24265796776E+04  0.24105199313E+04 0.  0.
        2    1    3    3  502    0 -0.52798256382E+03 -0.10753145965E+04 -0.27284807799E+03  0.12286224574E+04  0.25500000920E-02 0. -1.
       -2    1    3    3    0  502  0.52798256382E+03  0.10753145965E+04 -0.58678932380E+01  0.11979572202E+04  0.25500000920E-02 0.  1.
</event>
<event>
 5   0  0.3581449E-05  0.2643094E+04  0.7818609E-02  0.8353709E-01
       -2   -1    0    0    0  501  0.00000000000E+00  0.00000000000E+00  0.10558775048E+04  0.10558775048E+04  0.25500000920E-02 0. -1.
        2   -1    0    0  501    0  0.00000000000E+00  0.00000000000E+00 -0.16540613076E+04  0.16540613076E+04  0.25500000920E-02 0.  1.
    10030    2    1    2    0    0  0.00000000000E+00  0.00000000000E+00 -0.59818380283E+03  0.27099388124E+04  0.26430937375E+04 0.  0.
        1    1    3    3  502    0 -0.53675217889E+03 -0.43498802025E+03 -0.14541573336E+04  0.16099351012E+04  0.50400001928E-02 0.  1.
       -1    1    3    3    0  502  0.53675217889E+03  0.43498802025E+03  0.85597353076E+03  0.11000037112E+04  0.50400001928E-02 0. -1.
</event>
<event>
 5   0  0.3578670E-05  0.2531228E+04  0.7818609E-02  0.8391944E-01
        2   -1    0    0  501    0  0.00000000000E+00  0.00000000000E+00  0.13458970353E+04  0.13458970353E+04  0.25500000920E-02 0. -1.
       -2   -1    0    0    0  501  0.00000000000E+00  0.00000000000E+00 -0.11901201649E+04  0.11901201649E+04  0.25500000920E-02 0.  1.
    10030    2    1    2    0    0  0.00000000000E+00  0.00000000000E+00  0.15577687045E+03  0.25360172002E+04  0.25312283197E+04 0.  0.
        4    1    3    3  502    0 -0.11676588257E+04 -0.10229260006E+03  0.55616636888E+03  0.12973872020E+04  0.12699999809E+01 0. -1.
       -4    1    3    3    0  502  0.11676588257E+04  0.10229260006E+03 -0.40038949843E+03  0.12386299982E+04  0.12699999809E+01 0.  1.
</event>
<event>
 5   0  0.3650620E-05  0.2424231E+04  0.7818609E-02  0.8430487E-01
        2   -1    0    0  501    0  0.00000000000E+00  0.00000000000E+00  0.15426687361E+04  0.15426687361E+04  0.25500000920E-02 0. -1.
       -2   -1    0    0    0  501  0.00000000000E+00  0.00000000000E+00 -0.95239080156E+03  0.95239080156E+03  0.25500000920E-02 0.  1.
    10030    2    1    2    0    0  0.00000000000E+00  0.00000000000E+00  0.59027793452E+03  0.24950595376E+04  0.24242306112E+04 0.  0.
        3    1    3    3  502    0  0.84432441551E+02 -0.84771449062E+03  0.11825812385E+04  0.14574797051E+04  0.10100000352E+00 0. -1.
       -3    1    3    3    0  502 -0.84432441551E+02  0.84771449062E+03 -0.59230330401E+03  0.10375798326E+04  0.10100000352E+00 0.  1.
</event>
<event>
 5   0  0.1421242E-05  0.2511378E+04  0.7818609E-02  0.8398943E-01
        1   -1    0    0  501    0  0.00000000000E+00  0.00000000000E+00  0.12852371400E+04  0.12852371401E+04  0.50400001928E-02 0. -1.
       -1   -1    0    0    0  501  0.00000000000E+00  0.00000000000E+00 -0.12268198085E+04  0.12268198085E+04  0.50400001928E-02 0.  1.
    10030    2    1    2    0    0  0.00000000000E+00  0.00000000000E+00  0.58417331589E+02  0.25120569485E+04  0.25113776156E+04 0.  0.
        3    1    3    3  502    0  0.19103181697E+03  0.95902167465E+03  0.81716450447E+03  0.12743522139E+04  0.10100000352E+00 0. -1.
       -3    1    3    3    0  502 -0.19103181697E+03 -0.95902167465E+03 -0.75874717288E+03  0.12377047346E+04  0.10100000352E+00 0.  1.
</event>
<event>
 5   0  0.3704241E-05  0.2572046E+04  0.7818609E-02  0.8377759E-01
       -2   -1    0    0    0  501  0.00000000000E+00  0.00000000000E+00  0.13289997948E+04  0.13289997948E+04  0.25500000920E-02 0.  1.
        2   -1    0    0  501    0  0.00000000000E+00  0.00000000000E+00 -0.12444361921E+04  0.12444361921E+04  0.25500000920E-02 0. -1.
    10030    2    1    2    0    0  0.00000000000E+00  0.00000000000E+00  0.84563602705E+02  0.25734359868E+04  0.25720462234E+04 0.  0.
        2    1    3    3  502    0  0.68285257987E+03 -0.59164601340E+03  0.95793900852E+03  0.13168066658E+04  0.25500000920E-02 0.  1.
       -2    1    3    3    0  502 -0.68285257987E+03  0.59164601340E+03 -0.87337540582E+03  0.12566293210E+04  0.25500000920E-02 0. -1.
</event>
<event>
 5   0  0.1456876E-05  0.2476788E+04  0.7818609E-02  0.8411302E-01
        1   -1    0    0  501    0  0.00000000000E+00  0.00000000000E+00  0.10589451457E+04  0.10589451458E+04  0.50400001928E-02 0.  1.
       -1   -1    0    0    0  501  0.00000000000E+00  0.00000000000E+00 -0.14482520513E+04  0.14482520513E+04  0.50400001928E-02 0. -1.
    10030    2    1    2    0    0  0.00000000000E+00  0.00000000000E+00 -0.38930690559E+03  0.25071971971E+04  0.24767878226E+04 0.  0.
        1    1    3    3  502    0 -0.53037789397E+02  0.12306673810E+04 -0.65556207661E+02  0.12335529280E+04  0.50400001928E-02 0.  1.
       -1    1    3    3    0  502  0.53037789397E+02 -0.12306673810E+04 -0.32375069793E+03  0.12736442691E+04  0.50400001928E-02 0. -1.
</event>
<event>
 5   0  0.1429483E-05  0.2515951E+04  0.7818609E-02  0.8397325E-01
       -1   -1    0    0    0  501  0.00000000000E+00  0.00000000000E+00  0.70431546742E+03  0.70431546744E+03  0.50400001928E-02 0. -1.
        1   -1    0    0  501    0  0.00000000000E+00  0.00000000000E+00 -0.22468666147E+04  0.22468666147E+04  0.50400001928E-02 0.  1.
    10030    2    1    2    0    0  0.00000000000E+00  0.00000000000E+00 -0.15425511472E+04  0.29511820821E+04  0.25159514383E+04 0.  0.
        2    1    3    3  502    0 -0.97417587868E+03 -0.39921190798E+03  0.36396740055E+02  0.10534294057E+04  0.25500000920E-02 0. -1.
       -2    1    3    3    0  502  0.97417587868E+03  0.39921190798E+03 -0.15789478873E+04  0.18977526764E+04  0.25500000920E-02 0.  1.
</event>
<event>
 5   0  0.3579097E-05  0.2432546E+04  0.7818609E-02  0.8427418E-01
       -2   -1    0    0    0  501  0.00000000000E+00  0.00000000000E+00  0.81832372608E+03  0.81832372608E+03  0.25500000920E-02 0. -1.
        2   -1    0    0  501    0  0.00000000000E+00  0.00000000000E+00 -0.18077441307E+04  0.18077441307E+04  0.25500000920E-02 0.  1.
    10030    2    1    2    0    0  0.00000000000E+00  0.00000000000E+00 -0.98942040461E+03  0.26260678568E+04  0.24325459197E+04 0.  0.
        5    1    3    3  502    0  0.29047999590E+03  0.13485573387E+03 -0.17613985566E+04  0.17902825649E+04  0.46999998093E+01 0.  1.
       -5    1    3    3    0  502 -0.29047999590E+03 -0.13485573387E+03  0.77197815199E+03  0.83578529188E+03  0.46999998093E+01 0. -1.
</event>
<event>
 5   0  0.1456876E-05  0.2501221E+04  0.7818609E-02  0.8402551E-01
        1   -1    0    0  501    0  0.00000000000E+00  0.00000000000E+00  0.13992356523E+04  0.13992356523E+04  0.50400001928E-02 0. -1.
       -1   -1    0    0    0  501  0.00000000000E+00  0.00000000000E+00 -0.11177718242E+04  0.11177718242E+04  0.50400001928E-02 0.  1.
    10030    2    1    2    0    0  0.00000000000E+00  0.00000000000E+00  0.28146382811E+03  0.25170074764E+04  0.25012206520E+04 0.  0.
        1    1    3    3  502    0  0.33443180025E+03  0.63002437396E+02 -0.10702805366E+04  0.11230825273E+04  0.50400001928E-02 0.  1.
       -1    1    3    3    0  502 -0.33443180025E+03 -0.63002437396E+02  0.13517443647E+04  0.13939249491E+04  0.50400001928E-02 0. -1.
</event>
<event>
 5   0  0.3578670E-05  0.2503188E+04  0.7818609E-02  0.8401851E-01
        2   -1    0    0  501    0  0.00000000000E+00  0.00000000000E+00  0.96050709853E+03  0.96050709853E+03  0.25500000920E-02 0.  1.
       -2   -1    0    0    0  501  0.00000000000E+00  0.00000000000E+00 -0.16308969957E+04  0.16308969957E+04  0.25500000920E-02 0. -1.
    10030    2    1    2    0    0  0.00000000000E+00  0.00000000000E+00 -0.67038989717E+03  0.25914040942E+04  0.25031884798E+04 0.  0.
        4    1    3    3  502    0 -0.75925791459E+03 -0.93911576783E+03  0.51389905723E+01  0.12076584900E+04  0.12699999809E+01 0. -1.
       -4    1    3    3    0  502  0.75925791459E+03  0.93911576783E+03 -0.67552888774E+03  0.13837456043E+04  0.12699999809E+01 0.  1.
</event>
<event>
 5   0  0.1201438E-05  0.2387205E+04  0.7818609E-02  0.8444310E-01
        3   -1    0    0  501    0  0.00000000000E+00  0.00000000000E+00  0.18385960357E+04  0.18385960385E+04  0.10100000352E+00 0. -1.
       -3   -1    0    0    0  501  0.00000000000E+00  0.00000000000E+00 -0.77487734373E+03  0.77487735031E+03  0.10100000352E+00 0.  1.
    10030    2    1    2    0    0  0.00000000000E+00  0.00000000000E+00  0.10637186920E+04  0.26134733888E+04  0.23872045782E+04 0.  0.
        5    1    3    3  502    0  0.15056321304E+03  0.81510570098E+03  0.14720982895E+04  0.16894265444E+04  0.46999998093E+01 0. -1.
       -5    1    3    3    0  502 -0.15056321304E+03 -0.81510570098E+03 -0.40837959756E+03  0.92404684437E+03  0.46999998093E+01 0.  1.
</event>
<event>
 5   0  0.3650620E-05  0.2488694E+04  0.7818609E-02  0.8407025E-01
        2   -1    0    0  501    0  0.00000000000E+00  0.00000000000E+00  0.15816105952E+04  0.15816105952E+04  0.25500000920E-02 0. -1.
       -2   -1    0    0    0  501  0.00000000000E+00  0.00000000000E+00 -0.97900145037E+03  0.97900145037E+03  0.25500000920E-02 0.  1.
    10030    2    1    2    0    0  0.00000000000E+00  0.00000000000E+00  0.60260914481E+03  0.25606120456E+04  0.24886936867E+04 0.  0.
        3    1    3    3  502    0 -0.31229173082E+03 -0.10852530025E+04 -0.23638581850E+03  0.11537670778E+04  0.10100000352E+00 0.  1.
       -3    1    3    3    0  502  0.31229173082E+03  0.10852530025E+04  0.83899496331E+03  0.14068449677E+04  0.10100000352E+00 0. -1.
</event>
<event>
 5   0  0.3579097E-05  0.2188140E+04  0.7818609E-02  0.8523381E-01
        2   -1    0    0  501    0  0.00000000000E+00  0.00000000000E+00  0.28575139361E+04  0.28575139361E+04  0.25500000920E-02 0. -1.
       -2   -1    0    0    0  501  0.00000000000E+00  0.00000000000E+00 -0.41889197305E+03  0.41889197305E+03  0.25500000920E-02 0.  1.
    10030    2    1    2    0    0  0.00000000000E+00  0.00000000000E+00  0.24386219630E+04  0.32764059091E+04  0.21881404440E+04 0.  0.
        5    1    3    3  502    0  0.17907257456E+03 -0.20279359936E+02  0.28351208725E+04  0.28408468264E+04  0.46999998093E+01 0. -1.
       -5    1    3    3    0  502 -0.17907257456E+03  0.20279359936E+02 -0.39649890943E+03  0.43555908276E+03  0.46999998093E+01 0.  1.
</event>
<event>
 5   0  0.1421242E-05  0.2498098E+04  0.7818609E-02  0.8403664E-01
        1   -1    0    0  501    0  0.00000000000E+00  0.00000000000E+00  0.25761532859E+04  0.25761532859E+04  0.50400001928E-02 0.  1.
       -1   -1    0    0    0  501  0.00000000000E+00  0.00000000000E+00 -0.60560181163E+03  0.60560181165E+03  0.50400001928E-02 0. -1.
    10030    2    1    2    0    0  0.00000000000E+00  0.00000000000E+00  0.19705514743E+04  0.31817550976E+04  0.24980977539E+04 0.  0.
        3    1    3    3  502    0 -0.34773240745E+03 -0.21267536462E+03 -0.51850572363E+03  0.65954289742E+03  0.10100000352E+00 0. -1.
       -3    1    3    3    0  502  0.34773240745E+03  0.21267536462E+03  0.24890571979E+04  0.25222122001E+04  0.10100000352E+00 0.  1.
</event>
<event>
 5   0  0.3704241E-05  0.2400231E+04  0.7818609E-02  0.8439417E-01
       -2   -1    0    0    0  501  0.00000000000E+00  0.00000000000E+00  0.13792398021E+04  0.13792398021E+04  0.25500000920E-02 0. -1.
        2   -1    0    0  501    0  0.00000000000E+00  0.00000000000E+00 -0.10442544407E+04  0.10442544407E+04  0.25500000920E-02 0.  1.
    10030    2    1    2    0    0  0.00000000000E+00  0.00000000000E+00  0.33498536144E+03  0.24234942428E+04  0.24002310624E+04 0.  0.
        2    1    3    3  502    0  0.75119304029E+03  0.76072665329E+03 -0.38302682275E+03  0.11356520470E+04  0.25500000920E-02 0.  1.
       -2    1    3    3    0  502 -0.75119304029E+03 -0.76072665329E+03  0.71801218419E+03  0.12878421959E+04  0.25500000920E-02 0. -1.
</event>
<event>
 5   0  0.3578670E-05  0.2530563E+04  0.7818609E-02  0.8392178E-01
        2   -1    0    0  501    0  0.00000000000E+00  0.00000000000E+00  0.13181371307E+04  0.13181371307E+04  0.25500000920E-02 0.  1.
       -2   -1    0    0    0  501  0.00000000000E+00  0.00000000000E+00 -0.12145453517E+04  0.12145453517E+04  0.25500000920E-02 0. -1.
    10030    2    1    2    0    0  0.00000000000E+00  0.00000000000E+00  0.10359177903E+03  0.25326824823E+04  0.25305630401E+04 0.  0.
        4    1    3    3  502    0 -0.71600446386E+03 -0.34403793460E+02 -0.99171329531E+03  0.12236596284E+04  0.12699999809E+01 0. -1.
       -4    1    3    3    0  502  0.71600446386E+03  0.34403793460E+02  0.10953050743E+04  0.13090228539E+04  0.12699999809E+01 0.  1.
</event>
<event>
 5   0  0.3578670E-05  0.2480166E+04  0.7818609E-02  0.8410086E-01
        2   -1    0    0  501    0  0.00000000000E+00  0.00000000000E+00  0.13728199723E+04  0.13728199723E+04  0.25500000920E-02 0.  1.
       -2   -1    0    0    0  501  0.00000000000E+00  0.00000000000E+00 -0.11201806509E+04  0.11201806509E+04  0.25500000920E-02 0. -1.
    10030    2    1    2    0    0  0.00000000000E+00  0.00000000000E+00  0.25263932138E+03  0.24930006232E+04  0.24801664219E+04 0.  0.
        4    1    3    3  502    0 -0.11456347983E+04  0.17935274210E+03  0.56809168061E+03  0.12912692468E+04  0.12699999809E+01 0. -1.
       -4    1    3    3    0  502  0.11456347983E+04 -0.17935274210E+03 -0.31545235924E+03  0.12017313764E+04  0.12699999809E+01 0.  1.
</event>
<event>
 5   0  0.1502886E-05  0.2504716E+04  0.7818609E-02  0.8401307E-01
        1   -1    0    0  501    0  0.00000000000E+00  0.00000000000E+00  0.16538553955E+04  0.16538553955E+04  0.50400001928E-02 0.  1.
       -1   -1    0    0    0  501  0.00000000000E+00  0.00000000000E+00 -0.94833011621E+03  0.94833011622E+03  0.50400001928E-02 0. -1.
    10030    2    1    2    0    0  0.00000000000E+00  0.00000000000E+00  0.70552527928E+03  0.26021855117E+04  0.25047162549E+04 0.  0.
        4    1    3    3  502    0  0.73897403803E+03 -0.30564169177E+03 -0.64853721594E+03  0.10296123571E+04  0.12699999809E+01 0. -1.
       -4    1    3    3    0  502 -0.73897403803E+03  0.30564169177E+03  0.13540624952E+04  0.15725731546E+04  0.12699999809E+01 0.  1.
</event>
<event>
 5   0  0.1492639E-05  0.2610382E+04  0.7818609E-02  0.8364683E-01
       -1   -1    0    0    0  501  0.00000000000E+00  0.00000000000E+00  0.84031658770E+03  0.84031658772E+03  0.50400001928E-02 0.  1.
        1   -1    0    0  501    0  0.00000000000E+00  0.00000000000E+00 -0.20272394244E+04  0.20272394244E+04  0.50400001928E-02 0. -1.
    10030    2    1    2    0    0  0.00000000000E+00  0.00000000000E+00 -0.11869228367E+04  0.28675560121E+04  0.26103815166E+04 0.  0.
        5    1    3    3  502    0 -0.15399417835E+03  0.27676297669E+03  0.79745255169E+03  0.85805863111E+03  0.46999998093E+01 0.  1.
       -5    1    3    3    0  502  0.15399417835E+03 -0.27676297669E+03 -0.19843753884E+04  0.20094973810E+04  0.46999998093E+01 0. -1.
</event>
<event>
 5   0  0.1456876E-05  0.2521610E+04  0.7818609E-02  0.8395327E-01
       -1   -1    0    0    0  501  0.00000000000E+00  0.00000000000E+00  0.13854521077E+04  0.13854521077E+04  0.50400001928E-02 0. -1.
        1   -1    0    0  501    0  0.00000000000E+00  0.00000000000E+00 -0.11473724519E+04  0.11473724519E+04  0.50400001928E-02 0.  1.
    10030    2    1    2    0    0  0.00000000000E+00  0.00000000000E+00  0.23807965581E+03  0.25328245597E+04  0.25216102648E+04 0.  0.
        1    1    3    3  502    0  0.23959982466E+03 -0.96733143715E+03 -0.65672348457E+03  0.11934923211E+04  0.50400001928E-02 0.  1.
       -1    1    3    3    0  502 -0.23959982466E+03  0.96733143715E+03  0.89480314038E+03  0.13393322386E+04  0.50400001928E-02 0. -1.
</event>
<event>
 5   0  0.1502886E-05  0.2450803E+04  0.7818609E-02  0.8420725E-01
       -1   -1    0    0    0  501  0.00000000000E+00  0.00000000000E+00  0.63941159171E+03  0.63941159173E+03  0.50400001928E-02 0. -1.
        1   -1    0    0  501    0  0.00000000000E+00  0.00000000000E+00 -0.23484226962E+04  0.23484226963E+04  0.50400001928E-02 0.  1.
    10030    2    1    2    0    0  0.00000000000E+00  0.00000000000E+00 -0.17090111045E+04  0.29878342880E+04  0.24508028842E+04 0.  0.
        4    1    3    3  502    0 -0.86999575746E+03  0.61351927420E+03 -0.11463791272E+03  0.10707203098E+04  0.12699999809E+01 0. -1.
       -4    1    3    3    0  502  0.86999575746E+03 -0.61351927420E+03 -0.15943731918E+04  0.19171139782E+04  0.12699999809E+01 0.  1.
</event>
<event>
 5   0  0.1456876E-05  0.2501837E+04  0.7818609E-02  0.8402331E-01
        1   -1    0    0  501    0  0.00000000000E+00  0.00000000000E+00  0.75809989925E+03  0.75809989926E+03  0.50400001928E-02 0. -1.
       -1   -1    0    0    0  501  0.00000000000E+00  0.00000000000E+00 -0.20641039881E+04  0.20641039881E+04  0.50400001928E-02 0.  1.
    10030    2    1    2    0    0  0.00000000000E+00  0.00000000000E+00 -0.13060040889E+04  0.28222038874E+04  0.25018369455E+04 0.  0.
        1    1    3    3  502    0  0.16263676673E+03 -0.22089512188E+03  0.72375455830E+03  0.77399356163E+03  0.50400001928E-02 0. -1.
       -1    1    3    3    0  502 -0.16263676673E+03  0.22089512188E+03 -0.20297586472E+04  0.20482103258E+04  0.50400001928E-02 0.  1.
</event>
<event>
 5   0  0.3704241E-05  0.2491870E+04  0.7818609E-02  0.8405888E-01
       -2   -1    0    0    0  501  0.00000000000E+00  0.00000000000E+00  0.82790218635E+03  0.82790218636E+03  0.25500000920E-02 0.  1.
        2   -1    0    0  501    0  0.00000000000E+00  0.00000000000E+00 -0.18750445952E+04  0.18750445952E+04  0.25500000920E-02 0. -1.
    10030    2    1    2    0    0  0.00000000000E+00  0.00000000000E+00 -0.10471424089E+04  0.27029467816E+04  0.24918695952E+04 0.  0.
        2    1    3    3  502    0  0.87003916490E+03  0.49474742870E+03  0.28131479017E+03  0.10396543550E+04  0.25500000920E-02 0.  1.
       -2    1    3    3    0  502 -0.87003916490E+03 -0.49474742870E+03 -0.13284571990E+04  0.16632924266E+04  0.25500000920E-02 0. -1.
</event>
<event>
 5   0  0.1502886E-05  0.2498553E+04  0.7818609E-02  0.8403501E-01
       -1   -1    0    0    0  501  0.00000000000E+00  0.00000000000E+00  0.77041604089E+03  0.77041604091E+03  0.50400001928E-02 0. -1.
        1   -1    0    0  501    0  0.00000000000E+00  0.00000000000E+00 -0.20257782713E+04  0.20257782713E+04  0.50400001928E-02 0.  1.
    10030    2    1    2    0    0  0.00000000000E+00  0.00000000000E+00 -0.12553622304E+04  0.27961943122E+04  0.24985532418E+04 0.  0.
        4    1    3    3  502    0 -0.24043131786E+03  0.11239224513E+04 -0.79787729248E+02  0.11521183055E+04  0.12699999809E+01 0. -1.
       -4    1    3    3    0  502  0.24043131786E+03 -0.11239224513E+04 -0.11755745012E+04  0.16440760067E+04  0.12699999809E+01 0.  1.
</event>
<event>
 5   0  0.3578670E-05  0.2425748E+04  0.7818609E-02  0.8429926E-01
       -2   -1    0    0    0  501  0.00000000000E+00  0.00000000000E+00  0.96072766066E+03  0.96072766066E+03  0.25500000920E-02 0. -1.
        2   -1    0    0  501    0  0.00000000000E+00  0.00000000000E+00 -0.15311966328E+04  0.15311966328E+04  0.25500000920E-02 0.  1.
    10030    2    1    2    0    0  0.00000000000E+00  0.00000000000E+00 -0.57046897216E+03  0.24919242935E+04  0.24257476860E+04 0.  0.
        4    1    3    3  502    0  0.34962397064E+03 -0.14001547309E+02 -0.14782205374E+04  0.15190689696E+04  0.12699999809E+01 0.  1.
       -4    1    3    3    0  502 -0.34962397064E+03  0.14001547309E+02  0.90775156525E+03  0.97285532392E+03  0.12699999809E+01 0. -1.
</event>
<event>
 5   0  0.1456876E-05  0.2508449E+04  0.7818609E-02  0.8399982E-01
        1   -1    0    0  501    0  0.00000000000E+00  0.00000000000E+00  0.17153321409E+04  0.17153321410E+04  0.50400001928E-02 0. -1.
       -1   -1    0    0    0  501  0.00000000000E+00  0.00000000000E+00 -0.91706959333E+03  0.91706959334E+03  0.50400001928E-02 0.  1.
    10030    2    1    2    0    0  0.00000000000E+00  0.00000000000E+00  0.79826254762E+03  0.26324017343E+04  0.25084488824E+04 0.  0.
        1    1    3    3  502    0  0.65861514237E+03 -0.75457311959E+03 -0.39310652148E+03  0.10759587519E+04  0.50400001928E-02 0.  1.
       -1    1    3    3    0  502 -0.65861514237E+03  0.75457311959E+03  0.11913690691E+04  0.15564429824E+04  0.50400001928E-02 0. -1.
</event>
<event>
 5   0  0.1421242E-05  0.2588870E+04  0.7818609E-02  0.8371992E-01
       -1   -1    0    0    0  501  0.00000000000E+00  0.00000000000E+00  0.92564644283E+03  0.92564644284E+03  0.50400001928E-02 0.  1.
        1   -1    0    0  501    0  0.00000000000E+00  0.00000000000E+00 -0.18101528534E+04  0.18101528534E+04  0.50400001928E-02 0. -1.
    10030    2    1    2    0    0  0.00000000000E+00  0.00000000000E+00 -0.88450641054E+03  0.27357992962E+04  0.25888696759E+04 0.  0.
        3    1    3    3  502    0  0.48881227753E+03 -0.11775868442E+04 -0.67834575341E+03  0.14442303105E+04  0.10100000352E+00 0.  1.
       -3    1    3    3    0  502 -0.48881227753E+03  0.11775868442E+04 -0.20616065713E+03  0.12915689858E+04  0.10100000352E+00 0. -1.
</event>
<event>
 5   0  0.3704241E-05  0.2529027E+04  0.7818609E-02  0.8392717E-01
        2   -1    0    0  501    0  0.00000000000E+00  0.00000000000E+00  0.10085833229E+04  0.10085833229E+04  0.25500000920E-02 0. -1.
       -2   -1    0    0    0  501  0.00000000000E+00  0.00000000000E+00 -0.15853860410E+04  0.15853860410E+04  0.25500000920E-02 0.  1.
    10030    2    1    2    0    0  0.00000000000E+00  0.00000000000E+00 -0.57680271818E+03  0.25939693639E+04  0.25290266280E+04 0.  0.
        2    1    3    3  502    0  0.10732414606E+04  0.59118169852E+03  0.32114511526E+02  0.12257138227E+04  0.25500000920E-02 0. -1.
       -2    1    3    3    0  502 -0.10732414606E+04 -0.59118169852E+03 -0.60891722971E+03  0.13682555412E+04  0.25500000920E-02 0.  1.
</event>
<event>
 5   0  0.3650620E-05  0.2468733E+04  0.7818609E-02  0.8414210E-01
        2   -1    0    0  501    0  0.00000000000E+00  0.00000000000E+00  0.15408414822E+04  0.15408414822E+04  0.25500000920E-02 0.  1.
       -2   -1    0    0    0  501  0.00000000000E+00  0.00000000000E+00 -0.98884949129E+03  0.98884949129E+03  0.25500000920E-02 0. -1.
    10030    2    1    2    0    0  0.00000000000E+00  0.00000000000E+00  0.55199199095E+03  0.25296909735E+04  0.24687327242E+04 0.  0.
        3    1    3    3  502    0 -0.74254258742E+03  0.28600329513E+03 -0.69096428335E+03  0.10538496240E+04  0.10100000352E+00 0. -1.
       -3    1    3    3    0  502  0.74254258742E+03 -0.28600329513E+03  0.12429562743E+04  0.14758413495E+04  0.10100000352E+00 0.  1.
</event>
<event>
 5   0  0.3579097E-05  0.2528591E+04  0.7818609E-02  0.8392870E-01
       -2   -1    0    0    0  501  0.00000000000E+00  0.00000000000E+00  0.10316817741E+04  0.10316817741E+04  0.25500000920E-02 0.  1.
        2   -1    0    0  501    0  0.00000000000E+00  0.00000000000E+00 -0.15493572696E+04  0.15493572696E+04  0.25500000920E-02 0. -1.
    10030    2    1    2    0    0  0.00000000000E+00  0.00000000000E+00 -0.51767549552E+03  0.25810390437E+04  0.25285914313E+04 0.  0.
        5    1    3    3  502    0 -0.21181829814E+03 -0.10798724970E+04  0.37651149448E+03  0.11630883873E+04  0.46999998093E+01 0.  1.
       -5    1    3    3    0  502  0.21181829814E+03  0.10798724970E+04 -0.89418699000E+03  0.14179506565E+04  0.46999998093E+01 0. -1.
</event>
<event>
 5   0  0.1502886E-05  0.2501498E+04  0.7818609E-02  0.8402452E-01
        1   -1    0    0  501    0  0.00000000000E+00  0.00000000000E+00  0.18920254008E+04  0.18920254008E+04  0.50400001928E-02 0. -1.
       -1   -1    0    0    0  501  0.00000000000E+00  0.00000000000E+00 -0.82682485089E+03  0.82682485091E+03  0.50400001928E-02 0.  1.
    10030    2    1    2    0    0  0.00000000000E+00  0.00000000000E+00  0.10652005499E+04  0.27188502517E+04  0.25014984469E+04 0.  0.
        4    1    3    3  502    0 -0.14626348810E+03  0.12199209452E+04  0.78696911003E+03  0.14590826273E+04  0.12699999809E+01 0. -1.
       -4    1    3    3    0  502  0.14626348810E+03 -0.12199209452E+04  0.27823143987E+03  0.12597676244E+04  0.12699999809E+01 0.  1.
</event>
<event>
 5   0  0.1456876E-05  0.2584397E+04  0.7818609E-02  0.8373521E-01
       -1   -1    0    0    0  501  0.00000000000E+00  0.00000000000E+00  0.12541130187E+04  0.12541130187E+04  0.50400001928E-02 0.  1.
        1   -1    0    0  501    0  0.00000000000E+00  0.00000000000E+00 -0.13314402014E+04  0.13314402014E+04  0.50400001928E-02 0. -1.
    10030    2    1    2    0    0  0.00000000000E+00  0.00000000000E+00 -0.77327182696E+02  0.25855532200E+04  0.25843966337E+04 0.  0.
        1    1    3    3  502    0  0.49479022295E+03  0.39035164697E+03 -0.11672574080E+04  0.13265299204E+04  0.50400001928E-02 0. -1.
       -1    1    3    3    0  502 -0.49479022295E+03 -0.39035164697E+03  0.10899302253E+04  0.12590232997E+04  0.50400001928E-02 0.  1.
</event>
<event>
 5   0  0.1492639E-05  0.2561418E+04  0.7818609E-02  0.8381426E-01
        1   -1    0    0  501    0  0.00000000000E+00  0.00000000000E+00  0.12985142384E+04  0.12985142384E+04  0.50400001928E-02 0.  1.
       -1   -1    0    0    0  501  0.00000000000E+00  0.00000000000E+00 -0.12631477256E+04  0.12631477256E+04  0.50400001928E-02 0. -1.
    10030    2    1    2    0    0  0.00000000000E+00  0.00000000000E+00  0.35366512787E+02  0.25616619640E+04  0.25614178159E+04 0.  0.
        5    1    3    3  502    0 -0.74617433092E+03  0.80203020310E+03 -0.64582902902E+03  0.12716704776E+04  0.46999998093E+01 0. -1.
       -5    1    3    3    0  502  0.74617433092E+03 -0.80203020310E+03  0.68119554180E+03  0.12899914864E+04  0.46999998093E+01 0.  1.
</event>
<event>
 5   0  0.3650620E-05  0.2459190E+04  0.7818609E-02  0.8417670E-01
        2   -1    0    0  501    0  0.00000000000E+00  0.00000000000E+00  0.19380600891E+04  0.19380600892E+04  0.25500000920E-02 0. -1.
       -2   -1    0    0    0  501  0.00000000000E+00  0.00000000000E+00 -0.78011226724E+03  0.78011226724E+03  0.25500000920E-02 0.  1.
    10030    2    1    2    0    0  0.00000000000E+00  0.00000000000E+00  0.11579478219E+04  0.27181723564E+04  0.24591904767E+04 0.  0.
        3    1    3    3  502    0 -0.10316886789E+03 -0.89792405100E+03  0.15004308515E+04  0.17516290038E+04  0.10100000352E+00 0. -1.
       -3    1    3    3    0  502  0.10316886789E+03  0.89792405100E+03 -0.34248302958E+03  0.96654335258E+03  0.10100000352E+00 0.  1.
</event>
<event>
 5   0  0.3704241E-05  0.2484509E+04  0.7818609E-02  0.8408525E-01
        2   -1    0    0  501    0  0.00000000000E+00  0.00000000000E+00  0.90461617806E+03  0.90461617806E+03  0.25500000920E-02 0.  1.
       -2   -1    0    0    0  501  0.00000000000E+00  0.00000000000E+00 -0.17059128457E+04  0.17059128457E+04  0.25500000920E-02 0. -1.
    10030    2    1    2    0    0  0.00000000000E+00  0.00000000000E+00 -0.80129666765E+03  0.26105290238E+04  0.24845090932E+04 0.  0.
        2    1    3    3  502    0  0.10842455350E+04 -0.59742598399E+03 -0.29201070315E+03  0.12719184082E+04  0.25500000920E-02 0. -1.
       -2    1    3    3    0  502 -0.10842455350E+04  0.59742598399E+03 -0.50928596450E+03  0.13386106156E+04  0.25500000920E-02 0.  1.
</event>
<event>
 5   0  0.1429483E-05  0.2464831E+04  0.7818609E-02  0.8415623E-01
       -1   -1    0    0    0  501  0.00000000000E+00  0.00000000000E+00  0.11049265747E+04  0.11049265747E+04  0.50400001928E-02 0.  1.
        1   -1    0    0  501    0  0.00000000000E+00  0.00000000000E+00 -0.13746138404E+04  0.13746138404E+04  0.50400001928E-02 0. -1.
    10030    2    1    2    0    0  0.00000000000E+00  0.00000000000E+00 -0.26968726575E+03  0.24795404151E+04  0.24648305112E+04 0.  0.
        2    1    3    3  502    0  0.29133689526E+03 -0.60832968260E+01  0.10697722513E+04  0.11087501354E+04  0.25500000920E-02 0.  1.
       -2    1    3    3    0  502 -0.29133689526E+03  0.60832968260E+01 -0.13394595171E+04  0.13707902797E+04  0.25500000920E-02 0. -1.
</event>
<event>
 5   0  0.1429483E-05  0.2513550E+04  0.7818609E-02  0.8398174E-01
        1   -1    0    0  501    0  0.00000000000E+00  0.00000000000E+00  0.75483872769E+03  0.75483872770E+03  0.50400001928E-02 0.  1.
       -1   -1    0    0    0  501  0.00000000000E+00  0.00000000000E+00 -0.20924784609E+04  0.20924784609E+04  0.50400001928E-02 0. -1.
    10030    2    1    2    0    0  0.00000000000E+00  0.00000000000E+00 -0.13376397332E+04  0.28473171886E+04  0.25135503012E+04 0.  0.
        2    1    3    3  502    0  0.74160449065E+03 -0.72774288543E+03  0.13209889974E+03  0.10473953633E+04  0.25500000920E-02 0.  1.
       -2    1    3    3    0  502 -0.74160449065E+03  0.72774288543E+03 -0.14697386330E+04  0.17999218253E+04  0.25500000920E-02 0. -1.
</event>
<event>
 5   0  0.3581449E-05  0.2501584E+04  0.7818609E-02  0.8402422E-01
        2   -1    0    0  501    0  0.00000000000E+00  0.00000000000E+00  0.13052914425E+04  0.13052914425E+04  0.25500000920E-02 0.  1.
       -2   -1    0    0    0  501  0.00000000000E+00  0.00000000000E+00 -0.11985676441E+04  0.11985676441E+04  0.25500000920E-02 0. -1.
    10030    2    1    2    0    0  0.00000000000E+00  0.00000000000E+00  0.10672379848E+03  0.25038590866E+04  0.25015835697E+04 0.  0.
        1    1    3    3  502    0 -0.68476629914E+03 -0.73993730496E+03  0.79435145493E+03  0.12835132776E+04  0.50400001928E-02 0. -1.
       -1    1    3    3    0  502  0.68476629914E+03  0.73993730496E+03 -0.68762765644E+03  0.12203458090E+04  0.50400001928E-02 0.  1.
</event>
<event>
 5   0  0.1421242E-05  0.2515451E+04  0.7818609E-02  0.8397502E-01
        1   -1    0    0  501    0  0.00000000000E+00  0.00000000000E+00  0.15012882020E+04  0.15012882020E+04  0.50400001928E-02 0. -1.
       -1   -1    0    0    0  501  0.00000000000E+00  0.00000000000E+00 -0.10536770802E+04  0.10536770802E+04  0.50400001928E-02 0.  1.
    10030    2    1    2    0    0  0.00000000000E+00  0.00000000000E+00  0.44761112188E+03  0.25549652822E+04  0.25154506310E+04 0.  0.
        3    1    3    3  502    0 -0.12312822408E+03 -0.12172169253E+04 -0.72487946592E+02  0.12255741983E+04  0.10100000352E+00 0. -1.
       -3    1    3    3    0  502  0.12312822408E+03  0.12172169253E+04  0.52009906847E+03  0.13293910839E+04  0.10100000352E+00 0.  1.
</event>
<event>
 5   0  0.3581449E-05  0.2519458E+04  0.7818609E-02  0.8396086E-01
        2   -1    0    0  501    0  0.00000000000E+00  0.00000000000E+00  0.15907862617E+04  0.15907862617E+04  0.25500000920E-02 0.  1.
       -2   -1    0    0    0  501  0.00000000000E+00  0.00000000000E+00 -0.99756815612E+03  0.99756815613E+03  0.25500000920E-02 0. -1.
    10030    2    1    2    0    0  0.00000000000E+00  0.00000000000E+00  0.59321810554E+03  0.25883544178E+04  0.25194584480E+04 0.  0.
        1    1    3    3  502    0 -0.73139601003E+03  0.30516112552E+02  0.13498493801E+04  0.15355665748E+04  0.50400001928E-02 0.  1.
       -1    1    3    3    0  502  0.73139601003E+03 -0.30516112552E+02 -0.75663127459E+03  0.10527878430E+04  0.50400001928E-02 0. -1.
</event>
<event>
 5   0  0.1429483E-05  0.2495131E+04  0.7818609E-02  0.8404722E-01
       -1   -1    0    0    0  501  0.00000000000E+00  0.00000000000E+00  0.70433480195E+03  0.70433480197E+03  0.50400001928E-02 0. -1.
        1   -1    0    0  501    0  0.00000000000E+00  0.00000000000E+00 -0.22097727920E+04  0.22097727920E+04  0.50400001928E-02 0.  1.
    10030    2    1    2    0    0  0.00000000000E+00  0.00000000000E+00 -0.15054379901E+04  0.29141075940E+04  0.24951311644E+04 0.  0.
        2    1    3    3  502    0 -0.59020640859E+03 -0.10640759526E+04 -0.10743072722E+04  0.16231874053E+04  0.25500000920E-02 0.  1.
       -2    1    3    3    0  502  0.59020640859E+03  0.10640759526E+04 -0.43113071791E+03  0.12909201887E+04  0.25500000920E-02 0. -1.
</event>
<event>
 5   0  0.1502886E-05  0.2511908E+04  0.7818609E-02  0.8398755E-01
        1   -1    0    0  501    0  0.00000000000E+00  0.00000000000E+00  0.19815877095E+04  0.19815877095E+04  0.50400001928E-02 0. -1.
       -1   -1    0    0    0  501  0.00000000000E+00  0.00000000000E+00 -0.79603867903E+03  0.79603867904E+03  0.50400001928E-02 0.  1.
    10030    2    1    2    0    0  0.00000000000E+00  0.00000000000E+00  0.11855490304E+04  0.27776263885E+04  0.25119080100E+04 0.  0.
        4    1    3    3  502    0 -0.33628758792E+03 -0.11513753904E+04  0.10045422400E+04  0.15645642704E+04  0.12699999809E+01 0. -1.
       -4    1    3    3    0  502  0.33628758792E+03  0.11513753904E+04  0.18100679039E+03  0.12130621181E+04  0.12699999809E+01 0.  1.
</event>
<event>
 5   0  0.3578670E-05  0.2498326E+04  0.7818609E-02  0.8403582E-01
       -2   -1    0    0    0  501  0.00000000000E+00  0.00000000000E+00  0.15372612768E+04  0.15372612768E+04  0.25500000920E-02 0. -1.
        2   -1    0    0  501    0  0.00000000000E+00  0.00000000000E+00 -0.10150576009E+04  0.10150576009E+04  0.25500000920E-02 0.  1.
    10030    2    1    2    0    0  0.00000000000E+00  0.00000000000E+00  0.52220367586E+03  0.25523188777E+04  0.24983264347E+04 0.  0.
        4    1    3    3  502    0  0.11180994166E+04 -0.52507725945E+03  0.71195572256E+02  0.12373046739E+04  0.12699999809E+01 0.  1.
       -4    1    3    3    0  502 -0.11180994166E+04  0.52507725945E+03  0.45100810361E+03  0.13150142038E+04  0.12699999809E+01 0. -1.
</event>
<event>
 5   0  0.3704241E-05  0.2494873E+04  0.7818609E-02  0.8404814E-01
        2   -1    0    0  501    0  0.00000000000E+00  0.00000000000E+00  0.19262153663E+04  0.19262153663E+04  0.25500000920E-02 0.  1.
       -2   -1    0    0    0  501  0.00000000000E+00  0.00000000000E+00 -0.80785245205E+03  0.80785245206E+03  0.25500000920E-02 0. -1.
    10030    2    1    2    0    0  0.00000000000E+00  0.00000000000E+00  0.11183629142E+04  0.27340678183E+04  0.24948729882E+04 0.  0.
        2    1    3    3  502    0 -0.55233156800E+03  0.86531038821E+03  0.13358353970E+04  0.16847220651E+04  0.25500000920E-02 0.  1.
       -2    1    3    3    0  502  0.55233156800E+03 -0.86531038821E+03 -0.21747248276E+03  0.10493457532E+04  0.25500000920E-02 0. -1.
</event>
<event>
 5   0  0.1492639E-05  0.2227826E+04  0.7818609E-02  0.8506935E-01
        1   -1    0    0  501    0  0.00000000000E+00  0.00000000000E+00  0.15582018946E+04  0.15582018946E+04  0.50400001928E-02 0.  1.
       -1   -1    0    0    0  501  0.00000000000E+00  0.00000000000E+00 -0.79630385076E+03  0.79630385077E+03  0.50400001928E-02 0. -1.
    10030    2    1    2    0    0  0.00000000000E+00  0.00000000000E+00  0.76189804382E+03  0.23545057454E+04  0.22278259976E+04 0.  0.
        5    1    3    3  502    0 -0.89818768871E+03 -0.62852172489E+03  0.17223701791E+03  0.11097154424E+04  0.46999998093E+01 0. -1.
       -5    1    3    3    0  502  0.89818768871E+03  0.62852172489E+03  0.58966102591E+03  0.12447903029E+04  0.46999998093E+01 0.  1.
</event>
<event>
 5   0  0.3579097E-05  0.2508161E+04  0.7818609E-02  0.8400084E-01
        2   -1    0    0  501    0  0.00000000000E+00  0.00000000000E+00  0.19278883335E+04  0.19278883335E+04  0.25500000920E-02 0. -1.
       -2   -1    0    0    0  501  0.00000000000E+00  0.00000000000E+00 -0.81577222405E+03  0.81577222405E+03  0.25500000920E-02 0.  1.
    10030    2    1    2    0    0  0.00000000000E+00  0.00000000000E+00  0.11121161095E+04  0.27436605576E+04  0.25081608829E+04 0.  0.
        5    1    3    3  502    0 -0.29793924057E+03 -0.57444333651E+03 -0.61902108462E+03  0.89552338391E+03  0.46999998093E+01 0.  1.
       -5    1    3    3    0  502  0.29793924057E+03  0.57444333651E+03  0.17311371941E+04  0.18481371737E+04  0.46999998093E+01 0. -1.
</event>
<event>
 5   0  0.3704241E-05  0.2487537E+04  0.7818609E-02  0.8407439E-01
        2   -1    0    0  501    0  0.00000000000E+00  0.00000000000E+00  0.19954853977E+04  0.19954853977E+04  0.25500000920E-02 0.  1.
       -2   -1    0    0    0  501  0.00000000000E+00  0.00000000000E+00 -0.77522993457E+03  0.77522993457E+03  0.25500000920E-02 0. -1.
    10030    2    1    2    0    0  0.00000000000E+00  0.00000000000E+00  0.12202554631E+04  0.27707153322E+04  0.24875369459E+04 0.  0.
        2    1    3    3  502    0 -0.58609496415E+03 -0.10636542376E+04  0.90919371615E+03  0.15170698263E+04  0.25500000920E-02 0.  1.
       -2    1    3    3    0  502  0.58609496415E+03  0.10636542376E+04  0.31106174695E+03  0.12536455060E+04  0.25500000920E-02 0. -1.
</event>
<event>
 5   0  0.1429483E-05  0.2520073E+04  0.7818609E-02  0.8395869E-01
        1   -1    0    0  501    0  0.00000000000E+00  0.00000000000E+00  0.14395853499E+04  0.14395853499E+04  0.50400001928E-02 0.  1.
       -1   -1    0    0    0  501  0.00000000000E+00  0.00000000000E+00 -0.11028813099E+04  0.11028813099E+04  0.50400001928E-02 0. -1.
    10030    2    1    2    0    0  0.00000000000E+00  0.00000000000E+00  0.33670404000E+03  0.25424666598E+04  0.25200728373E+04 0.  0.
        2    1    3    3  502    0  0.54778955864E+03 -0.51735025068E+03  0.11872606805E+04  0.14061694798E+04  0.25500000920E-02 0.  1.
       -2    1    3    3    0  502 -0.54778955864E+03  0.51735025068E+03 -0.85055664051E+03  0.11362971799E+04  0.25500000920E-02 0. -1.
</event>
<event>
 5   0  0.1421242E-05  0.2478818E+04  0.7818609E-02  0.8410571E-01
        1   -1    0    0  501    0  0.00000000000E+00  0.00000000000E+00  0.11784757808E+04  0.11784757808E+04  0.50400001928E-02 0.  1.
       -1   -1    0    0    0  501  0.00000000000E+00  0.00000000000E+00 -0.13034928144E+04  0.13034928144E+04  0.50400001928E-02 0. -1.
    10030    2    1    2    0    0  0.00000000000E+00  0.00000000000E+00 -0.12501703362E+03  0.24819685952E+04  0.24788180346E+04 0.  0.
        3    1    3    3  502    0 -0.11200552425E+04 -0.20151422182E+02  0.46845301586E+03  0.12142397063E+04  0.10100000352E+00 0.  1.
       -3    1    3    3    0  502  0.11200552425E+04  0.20151422182E+02 -0.59347004947E+03  0.12677288889E+04  0.10100000352E+00 0. -1.
</event>
<event>
 5   0  0.3581449E-05  0.2478196E+04  0.7818609E-02  0.8410795E-01
        2   -1    0    0  501    0  0.00000000000E+00  0.00000000000E+00  0.11830621557E+04  0.11830621557E+04  0.25500000920E-02 0.  1.
       -2   -1    0    0    0  501  0.00000000000E+00  0.00000000000E+00 -0.12977877608E+04  0.12977877608E+04  0.25500000920E-02 0. -1.
    10030    2    1    2    0    0  0.00000000000E+00  0.00000000000E+00 -0.11472560511E+03  0.24808499165E+04  0.24781957840E+04 0.  0.
        1    1    3    3  502    0 -0.78691256198E+03 -0.88507816281E+03 -0.42212764867E+03  0.12572933175E+04  0.50400001928E-02 0. -1.
       -1    1    3    3    0  502  0.78691256198E+03  0.88507816281E+03  0.30740204356E+03  0.12235565990E+04  0.50400001928E-02 0.  1.
</event>
<event>
 5   0  0.1421242E-05  0.2396115E+04  0.7818609E-02  0.8440959E-01
       -1   -1    0    0    0  501  0.00000000000E+00  0.00000000000E+00  0.10834501278E+04  0.10834501278E+04  0.50400001928E-02 0. -1.
        1   -1    0    0  501    0  0.00000000000E+00  0.00000000000E+00 -0.13247881005E+04  0.13247881005E+04  0.50400001928E-02 0.  1.
    10030    2    1    2    0    0  0.00000000000E+00  0.00000000000E+00 -0.24133797270E+03  0.24082382283E+04  0.23961150530E+04 0.  0.
        3    1    3    3  502    0  0.85487863089E+03  0.16337556076E+03  0.70680254688E+03  0.11211952987E+04  0.10100000352E+00 0. -1.
       -3    1    3    3    0  502 -0.85487863089E+03 -0.16337556076E+03 -0.94814051958E+03  0.12870429295E+04  0.10100000352E+00 0.  1.
</event>
<event>
 5   0  0.3704241E-05  0.2557638E+04  0.7818609E-02  0.8382735E-01
       -2   -1    0    0    0  501  0.00000000000E+00  0.00000000000E+00  0.14571795862E+04  0.14571795862E+04  0.25500000920E-02 0.  1.
        2   -1    0    0  501    0  0.00000000000E+00  0.00000000000E+00 -0.11222902147E+04  0.11222902147E+04  0.25500000920E-02 0. -1.
    10030    2    1    2    0    0  0.00000000000E+00  0.00000000000E+00  0.33488937150E+03  0.25794698010E+04  0.25576382784E+04 0.  0.
        2    1    3    3  502    0 -0.42048479822E+03  0.11908411580E+04 -0.35439688055E+02  0.12633946734E+04  0.25500000920E-02 0.  1.
       -2    1    3    3    0  502  0.42048479822E+03 -0.11908411580E+04  0.37032905956E+03  0.13160751276E+04  0.25500000920E-02 0. -1.
</event>
<event>
 5   0  0.3650620E-05  0.2561353E+04  0.7818609E-02  0.8381449E-01
        2   -1    0    0  501    0  0.00000000000E+00  0.00000000000E+00  0.17110964362E+04  0.17110964362E+04  0.25500000920E-02 0. -1.
       -2   -1    0    0    0  501  0.00000000000E+00  0.00000000000E+00 -0.95852689480E+03  0.95852689481E+03  0.25500000920E-02 0.  1.
    10030    2    1    2    0    0  0.00000000000E+00  0.00000000000E+00  0.75256954135E+03  0.26696233310E+04  0.25613527314E+04 0.  0.
        3    1    3    3  502    0  0.39505053070E+03 -0.17608724790E+03  0.16326688303E+04  0.16889876140E+04  0.10100000352E+00 0. -1.
       -3    1    3    3    0  502 -0.39505053070E+03  0.17608724790E+03 -0.88009928896E+03  0.98063571693E+03  0.10100000352E+00 0.  1.
</event>
<event>
 5   0  0.3581449E-05  0.2490197E+04  0.7818609E-02  0.8406486E-01
       -2   -1    0    0    0  501  0.00000000000E+00  0.00000000000E+00  0.85069440170E+03  0.85069440170E+03  0.25500000920E-02 0.  1.
        2   -1    0    0  501    0  0.00000000000E+00  0.00000000000E+00 -0.18223589582E+04  0.18223589582E+04  0.25500000920E-02 0. -1.
    10030    2    1    2    0    0  0.00000000000E+00  0.00000000000E+00 -0.97166455652E+03  0.26730533599E+04  0.24901972321E+04 0.  0.
        1    1    3    3  502    0  0.44751208201E+03 -0.57229727862E+03  0.59959604474E+03  0.94196956190E+03  0.50400001928E-02 0.  1.
       -1    1    3    3    0  502 -0.44751208201E+03  0.57229727862E+03 -0.15712606013E+04  0.17310837980E+04  0.50400001928E-02 0. -1.
</event>
<event>
 5   0  0.3579097E-05  0.2551581E+04  0.7818609E-02  0.8384836E-01
        2   -1    0    0  501    0  0.00000000000E+00  0.00000000000E+00  0.12658253924E+04  0.12658253924E+04  0.25500000920E-02 0. -1.
       -2   -1    0    0    0  501  0.00000000000E+00  0.00000000000E+00 -0.12858343806E+04  0.12858343806E+04  0.25500000920E-02 0.  1.
    10030    2    1    2    0    0  0.00000000000E+00  0.00000000000E+00 -0.20008988208E+02  0.25516597729E+04  0.25515813209E+04 0.  0.
        5    1    3    3  502    0 -0.76735201215E+03 -0.53510438186E+02  0.10078319097E+04  0.12678484632E+04  0.46999998093E+01 0. -1.
       -5    1    3    3    0  502  0.76735201215E+03  0.53510438186E+02 -0.10278408979E+04  0.12838113097E+04  0.46999998093E+01 0.  1.
</event>
<event>
 5   0  0.1502886E-05  0.2486242E+04  0.7818609E-02  0.8407903E-01
       -1   -1    0    0    0  501  0.00000000000E+00  0.00000000000E+00  0.11463383989E+04  0.11463383990E+04  0.50400001928E-02 0.  1.
        1   -1    0    0  501    0  0.00000000000E+00  0.00000000000E+00 -0.13480745819E+04  0.13480745819E+04  0.50400001928E-02 0. -1.
    10030    2    1    2    0    0  0.00000000000E+00  0.00000000000E+00 -0.20173618296E+03  0.24944129809E+04  0.24862418691E+04 0.  0.
        4    1    3    3  502    0 -0.70696268857E+02  0.14794698532E+03 -0.13371767575E+04  0.13471932180E+04  0.12699999809E+01 0. -1.
       -4    1    3    3    0  502  0.70696268857E+02 -0.14794698532E+03  0.11354405746E+04  0.11472197628E+04  0.12699999809E+01 0.  1.
</event>
<event>
 5   0  0.1492639E-05  0.2471358E+04  0.7818609E-02  0.8413261E-01
        1   -1    0    0  501    0  0.00000000000E+00  0.00000000000E+00  0.11042747492E+04  0.11042747492E+04  0.50400001928E-02 0.  1.
       -1   -1    0    0    0  501  0.00000000000E+00  0.00000000000E+00 -0.13827193711E+04  0.13827193711E+04  0.50400001928E-02 0. -1.
    10030    2    1    2    0    0  0.00000000000E+00  0.00000000000E+00 -0.27844462185E+03  0.24869941203E+04  0.24713575919E+04 0.  0.
        5    1    3    3  502    0 -0.43134332158E+03 -0.30090602989E+03  0.98601092012E+03  0.11175156037E+04  0.46999998093E+01 0.  1.
       -5    1    3    3    0  502  0.43134332158E+03  0.30090602989E+03 -0.12644555420E+04  0.13694785166E+04  0.46999998093E+01 0. -1.
</event>
<event>
 5   0  0.3578670E-05  0.2482539E+04  0.7818609E-02  0.8409233E-01
        2   -1    0    0  501    0  0.00000000000E+00  0.00000000000E+00  0.12400652711E+04  0.12400652711E+04  0.25500000920E-02 0.  1.
       -2   -1    0    0    0  501  0.00000000000E+00  0.00000000000E+00 -0.12424744285E+04  0.12424744285E+04  0.25500000920E-02 0. -1.
    10030    2    1    2    0    0  0.00000000000E+00  0.00000000000E+00 -0.24091573777E+01  0.24825396996E+04  0.24825385306E+04 0.  0.
        4    1    3    3  502    0 -0.11807992692E+04 -0.12251937502E+03  0.36135574529E+03  0.12409180065E+04  0.12699999809E+01 0. -1.
       -4    1    3    3    0  502  0.11807992692E+04  0.12251937502E+03 -0.36376490267E+03  0.12416216931E+04  0.12699999809E+01 0.  1.
</event>
<event>
 5   0  0.1502886E-05  0.2496475E+04  0.7818609E-02  0.8404243E-01
        1   -1    0    0  501    0  0.00000000000E+00  0.00000000000E+00  0.72352094624E+03  0.72352094626E+03  0.50400001928E-02 0.  1.
       -1   -1    0    0    0  501  0.00000000000E+00  0.00000000000E+00 -0.21534918469E+04  0.21534918469E+04  0.50400001928E-02 0. -1.
    10030    2    1    2    0    0  0.00000000000E+00  0.00000000000E+00 -0.14299709007E+04  0.28770127932E+04  0.24964746815E+04 0.  0.
        4    1    3    3  502    0  0.38449969512E+03 -0.11419285543E+04 -0.33933208285E+03  0.12517941979E+04  0.12699999809E+01 0. -1.
       -4    1    3    3    0  502 -0.38449969512E+03  0.11419285543E+04 -0.10906388178E+04  0.16252185953E+04  0.12699999809E+01 0.  1.
</event>
<event>
 5   0  0.1421242E-05  0.2554538E+04  0.7818609E-02  0.8383810E-01
       -1   -1    0    0    0  501  0.00000000000E+00  0.00000000000E+00  0.70595919266E+03  0.70595919268E+03  0.50400001928E-02 0. -1.
        1   -1    0    0  501    0  0.00000000000E+00  0.00000000000E+00 -0.23109219956E+04  0.23109219956E+04  0.50400001928E-02 0.  1.
    10030    2    1    2    0    0  0.00000000000E+00  0.00000000000E+00 -0.16049628029E+04  0.30168811883E+04  0.25545384134E+04 0.  0.
        3    1    3    3  502    0  0.96155881695E+03 -0.58211985354E+03 -0.86099282826E+02  0.11273295787E+04  0.10100000352E+00 0. -1.
       -3    1    3    3    0  502 -0.96155881695E+03  0.58211985354E+03 -0.15188635201E+04  0.18895516096E+04  0.10100000352E+00 0.  1.
</event>
<event>
 5   0  0.3581449E-05  0.2594455E+04  0.7818609E-02  0.8370087E-01
        2   -1    0    0  501    0  0.00000000000E+00  0.00000000000E+00  0.95150035566E+03  0.95150035566E+03  0.25500000920E-02 0. -1.
       -2   -1    0    0    0  501  0.00000000000E+00  0.00000000000E+00 -0.17685747969E+04  0.17685747969E+04  0.25500000920E-02 0.  1.
    10030    2    1    2    0    0  0.00000000000E+00  0.00000000000E+00 -0.81707444125E+03  0.27200751526E+04  0.25944552787E+04 0.  0.
        1    1    3    3  502    0 -0.75874434604E+03  0.24072112187E+03 -0.14824167337E+04  0.16826167162E+04  0.50400001928E-02 0.  1.
       -1    1    3    3    0  502  0.75874434604E+03 -0.24072112187E+03  0.66534229244E+03  0.10374584364E+04  0.50400001928E-02 0. -1.
</event>
<event>
 5   0  0.1492639E-05  0.2499776E+04  0.7818609E-02  0.8403065E-01
        1   -1    0    0  501    0  0.00000000000E+00  0.00000000000E+00  0.10829670148E+04  0.10829670148E+04  0.50400001928E-02 0.  1.
       -1   -1    0    0    0  501  0.00000000000E+00  0.00000000000E+00 -0.14425366149E+04  0.14425366149E+04  0.50400001928E-02 0. -1.
    10030    2    1    2    0    0  0.00000000000E+00  0.00000000000E+00 -0.35956960015E+03  0.25255036297E+04  0.24997756472E+04 0.  0.
        5    1    3    3  502    0  0.75673854800E+03  0.69109890538E+03  0.54306954025E+03  0.11598351360E+04  0.46999998093E+01 0.  1.
       -5    1    3    3    0  502 -0.75673854800E+03 -0.69109890538E+03 -0.90263914040E+03  0.13656684938E+04  0.46999998093E+01 0. -1.
</event>
<event>
 5   0  0.3578670E-05  0.2633409E+04  0.7818609E-02  0.8356941E-01
        2   -1    0    0  501    0  0.00000000000E+00  0.00000000000E+00  0.91520957030E+03  0.91520957031E+03  0.25500000920E-02 0.  1.
       -2   -1    0    0    0  501  0.00000000000E+00  0.00000000000E+00 -0.18943316157E+04  0.18943316157E+04  0.25500000920E-02 0. -1.
    10030    2    1    2    0    0  0.00000000000E+00  0.00000000000E+00 -0.97912204541E+03  0.28095411860E+04  0.26334087598E+04 0.  0.
        4    1    3    3  502    0  0.35968592600E+03 -0.27097817710E+03  0.83049190095E+03  0.94473358587E+03  0.12699999809E+01 0.  1.
       -4    1    3    3    0  502 -0.35968592600E+03  0.27097817710E+03 -0.18096139464E+04  0.18648076002E+04  0.12699999809E+01 0. -1.
</event>
<event>
 5   0  0.3581449E-05  0.2487197E+04  0.7818609E-02  0.8407561E-01
        2   -1    0    0  501    0  0.00000000000E+00  0.00000000000E+00  0.13923024742E+04  0.13923024742E+04  0.25500000920E-02 0.  1.
       -2   -1    0    0    0  501  0.00000000000E+00  0.00000000000E+00 -0.11107764605E+04  0.11107764605E+04  0.25500000920E-02 0. -1.
    10030    2    1    2    0    0  0.00000000000E+00  0.00000000000E+00  0.28152601375E+03  0.25030789347E+04  0.24871966663E+04 0.  0.
        1    1    3    3  502    0  0.70715187742E+03  0.10112032102E+04  0.29648017836E+03  0.12690532716E+04  0.50400001928E-02 0.  1.
       -1    1    3    3    0  502 -0.70715187742E+03 -0.10112032102E+04 -0.14954164606E+02  0.12340256631E+04  0.50400001928E-02 0. -1.
</event>
<event>
 5   0  0.3650620E-05  0.2503551E+04  0.7818609E-02  0.8401721E-01
        2   -1    0    0  501    0  0.00000000000E+00  0.00000000000E+00  0.10019913508E+04  0.10019913508E+04  0.25500000920E-02 0.  1.
       -2   -1    0    0    0  501  0.00000000000E+00  0.00000000000E+00 -0.15638282700E+04  0.15638282700E+04  0.25500000920E-02 0. -1.
    10030    2    1    2    0    0  0.00000000000E+00  0.00000000000E+00 -0.56183691916E+03  0.25658196208E+04  0.25035513981E+04 0.  0.
        3    1    3    3  502    0  0.70916911699E+03 -0.10283004281E+04 -0.36430414636E+03  0.13011687547E+04  0.10100000352E+00 0.  1.
       -3    1    3    3    0  502 -0.70916911699E+03  0.10283004281E+04 -0.19753277280E+03  0.12646508662E+04  0.10100000352E+00 0. -1.
</event>
<event>
 5   0  0.3704241E-05  0.2552453E+04  0.7818609E-02  0.8384533E-01
       -2   -1    0    0    0  501  0.00000000000E+00  0.00000000000E+00  0.10731300082E+04  0.10731300082E+04  0.25500000920E-02 0. -1.
        2   -1    0    0  501    0  0.00000000000E+00  0.00000000000E+00 -0.15177607385E+04  0.15177607385E+04  0.25500000920E-02 0.  1.
    10030    2    1    2    0    0  0.00000000000E+00  0.00000000000E+00 -0.44463073033E+03  0.25908907467E+04  0.25524534031E+04 0.  0.
        2    1    3    3  502    0 -0.67278772969E+03 -0.76696311685E+03 -0.10005941506E+04  0.14290081896E+04  0.25500000920E-02 0.  1.
       -2    1    3    3    0  502  0.67278772969E+03  0.76696311685E+03  0.55596342023E+03  0.11618825571E+04  0.25500000920E-02 0. -1.
</event>
<event>
 5   0  0.3581449E-05  0.2481426E+04  0.7818609E-02  0.8409633E-01
       -2   -1    0    0    0  501  0.00000000000E+00  0.00000000000E+00  0.13131600194E+04  0.13131600194E+04  0.25500000920E-02 0. -1.
        2   -1    0    0  501    0  0.00000000000E+00  0.00000000000E+00 -0.11722627861E+04  0.11722627861E+04  0.25500000920E-02 0.  1.
    10030    2    1    2    0    0  0.00000000000E+00  0.00000000000E+00  0.14089723324E+03  0.24854228055E+04  0.24814258989E+04 0.  0.
        1    1    3    3  502    0 -0.10000962826E+04 -0.31035358395E+03 -0.59609807737E+03  0.12049252423E+04  0.50400001928E-02 0.  1.
       -1    1    3    3    0  502  0.10000962826E+04  0.31035358395E+03  0.73699531061E+03  0.12804975633E+04  0.50400001928E-02 0. -1.
</event>
<event>
 5   0  0.3579097E-05  0.2524903E+04  0.7818609E-02  0.8394167E-01
        2   -1    0    0  501    0  0.00000000000E+00  0.00000000000E+00  0.13564867651E+04  0.13564867651E+04  0.25500000920E-02 0.  1.
       -2   -1    0    0    0  501  0.00000000000E+00  0.00000000000E+00 -0.11749349635E+04  0.11749349635E+04  0.25500000920E-02 0. -1.
    10030    2    1    2    0    0  0.00000000000E+00  0.00000000000E+00  0.18155180164E+03  0.25314217286E+04  0.25249029509E+04 0.  0.
        5    1    3    3  502    0  0.14918840726E+03  0.79929274689E+03  0.10589998021E+04  0.13351512075E+04  0.46999998093E+01 0.  1.
       -5    1    3    3    0  502 -0.14918840726E+03 -0.79929274689E+03 -0.87744800046E+03  0.11962705211E+04  0.46999998093E+01 0. -1.
</event>
<event>
 5   0  0.3704241E-05  0.2462698E+04  0.7818609E-02  0.8416396E-01
        2   -1    0    0  501    0  0.00000000000E+00  0.00000000000E+00  0.11355502517E+04  0.11355502517E+04  0.25500000920E-02 0.  1.
       -2   -1    0    0    0  501  0.00000000000E+00  0.00000000000E+00 -0.13352295243E+04  0.13352295243E+04  0.25500000920E-02 0. -1.
    10030    2    1    2    0    0  0.00000000000E+00  0.00000000000E+00 -0.19967927256E+03  0.24707797760E+04  0.24626978885E+04 0.  0.
        2    1    3    3  502    0 -0.10884385339E+04  0.46719361296E+03 -0.43747323995E+03  0.12626761857E+04  0.25500000920E-02 0. -1.
       -2    1    3    3    0  502  0.10884385339E+04 -0.46719361296E+03  0.23779396739E+03  0.12081035904E+04  0.25500000920E-02 0.  1.
</event>
<event>
 5   0  0.1421242E-05  0.2493143E+04  0.7818609E-02  0.8405433E-01
        1   -1    0    0  501    0  0.00000000000E+00  0.00000000000E+00  0.11435500976E+04  0.11435500976E+04  0.50400001928E-02 0.  1.
       -1   -1    0    0    0  501  0.00000000000E+00  0.00000000000E+00 -0.13588736534E+04  0.13588736534E+04  0.50400001928E-02 0. -1.
    10030    2    1    2    0    0  0.00000000000E+00  0.00000000000E+00 -0.21532355582E+03  0.25024237510E+04  0.24931426746E+04 0.  0.
        3    1    3    3  502    0 -0.40321048415E+03 -0.10986816368E+04 -0.53851497449E+03  0.12882850700E+04  0.10100000352E+00 0. -1.
       -3    1    3    3    0  502  0.40321048415E+03  0.10986816368E+04  0.32319141867E+03  0.12141386810E+04  0.10100000352E+00 0.  1.
</event>
<event>
 5   0  0.1456876E-05  0.2057458E+04  0.7818609E-02  0.8580219E-01
        1   -1    0    0  501    0  0.00000000000E+00  0.00000000000E+00  0.16484049064E+04  0.16484049064E+04  0.50400001928E-02 0. -1.
       -1   -1    0    0    0  501  0.00000000000E+00  0.00000000000E+00 -0.64200420692E+03  0.64200420694E+03  0.50400001928E-02 0.  1.
    10030    2    1    2    0    0  0.00000000000E+00  0.00000000000E+00  0.10064006994E+04  0.22904091133E+04  0.20574575423E+04 0.  0.
        1    1    3    3  502    0 -0.22949016788E+03 -0.85435335850E+03 -0.81318585268E+02  0.88836822921E+03  0.50400001928E-02 0.  1.
       -1    1    3    3    0  502  0.22949016788E+03  0.85435335850E+03  0.10877192847E+04  0.14020408841E+04  0.50400001928E-02 0. -1.
</event>
<event>
 5   0  0.3578670E-05  0.2460005E+04  0.7818609E-02  0.8417374E-01
       -2   -1    0    0    0  501  0.00000000000E+00  0.00000000000E+00  0.70189956444E+03  0.70189956445E+03  0.25500000920E-02 0. -1.
        2   -1    0    0  501    0  0.00000000000E+00  0.00000000000E+00 -0.21554460189E+04  0.21554460189E+04  0.25500000920E-02 0.  1.
    10030    2    1    2    0    0  0.00000000000E+00  0.00000000000E+00 -0.14535464544E+04  0.28573455833E+04  0.24600053836E+04 0.  0.
        4    1    3    3  502    0 -0.15089618985E+03  0.37690631174E+03  0.62182957739E+03  0.74263158037E+03  0.12699999809E+01 0. -1.
       -4    1    3    3    0  502  0.15089618985E+03 -0.37690631174E+03 -0.20753760318E+04  0.21147140030E+04  0.12699999809E+01 0.  1.
</event>
<event>
 5   0  0.3579097E-05  0.2514963E+04  0.7818609E-02  0.8397674E-01
       -2   -1    0    0    0  501  0.00000000000E+00  0.00000000000E+00  0.68633336620E+03  0.68633336621E+03  0.25500000920E-02 0. -1.
        2   -1    0    0  501    0  0.00000000000E+00  0.00000000000E+00 -0.23039236518E+04  0.23039236518E+04  0.25500000920E-02 0.  1.
    10030    2    1    2    0    0  0.00000000000E+00  0.00000000000E+00 -0.16175902856E+04  0.29902570181E+04  0.25149629623E+04 0.  0.
        5    1    3    3  502    0  0.23440943099E+03  0.50520498095E+03 -0.21492727487E+04  0.22202646897E+04  0.46999998093E+01 0.  1.
       -5    1    3    3    0  502 -0.23440943099E+03 -0.50520498095E+03  0.53168246308E+03  0.76999232831E+03  0.46999998093E+01 0. -1.
</event>
<event>
 5   0  0.3579097E-05  0.2504928E+04  0.7818609E-02  0.8401232E-01
        2   -1    0    0  501    0  0.00000000000E+00  0.00000000000E+00  0.12195902765E+04  0.12195902765E+04  0.25500000920E-02 0. -1.
       -2   -1    0    0    0  501  0.00000000000E+00  0.00000000000E+00 -0.12862235692E+04  0.12862235692E+04  0.25500000920E-02 0.  1.
    10030    2    1    2    0    0  0.00000000000E+00  0.00000000000E+00 -0.66633292774E+02  0.25058138457E+04  0.25049277502E+04 0.  0.
        5    1    3    3  502    0  0.68753759406E+03  0.22013306796E+03  0.99050870969E+03  0.12256818938E+04  0.46999998093E+01 0. -1.
       -5    1    3    3    0  502 -0.68753759406E+03 -0.22013306796E+03 -0.10571420025E+04  0.12801319519E+04  0.46999998093E+01 0.  1.
</event>
<event>
 5   0  0.1502886E-05  0.2500950E+04  0.7818609E-02  0.8402647E-01
        1   -1    0    0  501    0  0.00000000000E+00  0.00000000000E+00  0.16739152822E+04  0.16739152822E+04  0.50400001928E-02 0.  1.
       -1   -1    0    0    0  501  0.00000000000E+00  0.00000000000E+00 -0.93414950060E+03  0.93414950061E+03  0.50400001928E-02 0. -1.
    10030    2    1    2    0    0  0.00000000000E+00  0.00000000000E+00  0.73976578164E+03  0.26080647829E+04  0.25009495197E+04 0.  0.
        4    1    3    3  502    0  0.79680478922E+03 -0.36133680962E+03 -0.56181618116E+03  0.10397601629E+04  0.12699999809E+01 0. -1.
       -4    1    3    3    0  502 -0.79680478922E+03  0.36133680962E+03  0.13015819628E+04  0.15683046199E+04  0.12699999809E+01 0.  1.
</event>
<event>
 5   0  0.1201438E-05  0.2493395E+04  0.7818609E-02  0.8405343E-01
        3   -1    0    0  501    0  0.00000000000E+00  0.00000000000E+00  0.96814975439E+03  0.96814975966E+03  0.10100000352E+00 0. -1.
       -3   -1    0    0    0  501  0.00000000000E+00  0.00000000000E+00 -0.16053859745E+04  0.16053859777E+04  0.10100000352E+00 0.  1.
    10030    2    1    2    0    0  0.00000000000E+00  0.00000000000E+00 -0.63723622014E+03  0.25735357374E+04  0.24933945117E+04 0.  0.
        2    1    3    3  502    0  0.11667733989E+04  0.31474879200E+03 -0.24607420024E+01  0.12084837698E+04  0.25500000920E-02 0. -1.
       -2    1    3    3    0  502 -0.11667733989E+04 -0.31474879200E+03 -0.63477547814E+03  0.13650519676E+04  0.25500000920E-02 0.  1.
</event>
<event>
 5   0  0.3581449E-05  0.2483755E+04  0.7818609E-02  0.8408796E-01
        2   -1    0    0  501    0  0.00000000000E+00  0.00000000000E+00  0.16571333045E+04  0.16571333045E+04  0.25500000920E-02 0.  1.
       -2   -1    0    0    0  501  0.00000000000E+00  0.00000000000E+00 -0.93067927881E+03  0.93067927882E+03  0.25500000920E-02 0. -1.
    10030    2    1    2    0    0  0.00000000000E+00  0.00000000000E+00  0.72645402572E+03  0.25878125834E+04  0.24837549225E+04 0.  0.
        1    1    3    3  502    0 -0.21320400000E+03  0.77288852869E+03  0.13513519726E+04  0.15712939818E+04  0.50400001928E-02 0.  1.
       -1    1    3    3    0  502  0.21320400000E+03 -0.77288852869E+03 -0.62489794683E+03  0.10165186016E+04  0.50400001928E-02 0. -1.
</event>
<event>
 5   0  0.3578670E-05  0.2541309E+04  0.7818609E-02  0.8388415E-01
       -2   -1    0    0    0  501  0.00000000000E+00  0.00000000000E+00  0.12688376355E+04  0.12688376355E+04  0.25500000920E-02 0. -1.
        2   -1    0    0  501    0  0.00000000000E+00  0.00000000000E+00 -0.12724735108E+04  0.12724735108E+04  0.25500000920E-02 0.  1.
    10030    2    1    2    0    0  0.00000000000E+00  0.00000000000E+00 -0.36358753085E+01  0.25413111462E+04  0.25413085453E+04 0.  0.
        4    1    3    3  502    0 -0.87272320676E+03 -0.83911529235E+03 -0.38756487905E+03  0.12712074645E+04  0.12699999809E+01 0. -1.
       -4    1    3    3    0  502  0.87272320676E+03  0.83911529235E+03  0.38392900374E+03  0.12701036817E+04  0.12699999809E+01 0.  1.
</event>
<event>
 5   0  0.3704241E-05  0.2281356E+04  0.7818609E-02  0.8485309E-01
        2   -1    0    0  501    0  0.00000000000E+00  0.00000000000E+00  0.20754482968E+04  0.20754482968E+04  0.25500000920E-02 0. -1.
       -2   -1    0    0    0  501  0.00000000000E+00  0.00000000000E+00 -0.62692274489E+03  0.62692274490E+03  0.25500000920E-02 0.  1.
    10030    2    1    2    0    0  0.00000000000E+00  0.00000000000E+00  0.14485255519E+04  0.27023710417E+04  0.22813555121E+04 0.  0.
        2    1    3    3  502    0  0.27725981794E+02  0.10122957643E+04  0.10236552183E+03  0.10178360106E+04  0.25500000920E-02 0.  1.
       -2    1    3    3    0  502 -0.27725981794E+02 -0.10122957643E+04  0.13461600301E+04  0.16845350311E+04  0.25500000920E-02 0. -1.
</event>
<event>
 5   0  0.3704241E-05  0.2519586E+04  0.7818609E-02  0.8396041E-01
       -2   -1    0    0    0  501  0.00000000000E+00  0.00000000000E+00  0.57980362867E+03  0.57980362868E+03  0.25500000920E-02 0.  1.
        2   -1    0    0  501    0  0.00000000000E+00  0.00000000000E+00 -0.27372689465E+04  0.27372689465E+04  0.25500000920E-02 0. -1.
    10030    2    1    2    0    0  0.00000000000E+00  0.00000000000E+00 -0.21574653178E+04  0.33170725751E+04  0.25195860516E+04 0.  0.
        2    1    3    3  502    0  0.25645586227E+03 -0.19577975629E+02 -0.27023353321E+04  0.27145476886E+04  0.25500000920E-02 0. -1.
       -2    1    3    3    0  502 -0.25645586227E+03  0.19577975629E+02  0.54487001431E+03  0.60252488656E+03  0.25500000920E-02 0.  1.
</event>
<event>
 5   0  0.1429483E-05  0.2546773E+04  0.7818609E-02  0.8386509E-01
       -1   -1    0    0    0  501  0.00000000000E+00  0.00000000000E+00  0.67439681063E+03  0.67439681065E+03  0.50400001928E-02 0.  1.
        1   -1    0    0  501    0  0.00000000000E+00  0.00000000000E+00 -0.24043902612E+04  0.24043902612E+04  0.50400001928E-02 0. -1.
    10030    2    1    2    0    0  0.00000000000E+00  0.00000000000E+00 -0.17299934506E+04  0.30787870719E+04  0.25467729571E+04 0.  0.
        2    1    3    3  502    0  0.72868883259E+03 -0.55362300494E+03 -0.19354186871E+04  0.21408716311E+04  0.25500000920E-02 0. -1.
       -2    1    3    3    0  502 -0.72868883259E+03  0.55362300494E+03  0.20542523650E+03  0.93791544082E+03  0.25500000920E-02 0.  1.
</event>
<event>
 5   0  0.1421242E-05  0.2508024E+04  0.7818609E-02  0.8400132E-01
       -1   -1    0    0    0  501  0.00000000000E+00  0.00000000000E+00  0.72099041609E+03  0.72099041611E+03  0.50400001928E-02 0. -1.
        1   -1    0    0  501    0  0.00000000000E+00  0.00000000000E+00 -0.21810916336E+04  0.21810916336E+04  0.50400001928E-02 0.  1.
    10030    2    1    2    0    0  0.00000000000E+00  0.00000000000E+00 -0.14601012175E+04  0.29020820497E+04  0.25080240545E+04 0.  0.
        3    1    3    3  502    0 -0.16836640196E+03 -0.52154323612E+03 -0.20351820278E+04  0.21076813063E+04  0.10100000352E+00 0.  1.
       -3    1    3    3    0  502  0.16836640196E+03  0.52154323612E+03  0.57508081034E+03  0.79440074337E+03  0.10100000352E+00 0. -1.
</event>
<event>
 5   0  0.3579097E-05  0.2419217E+04  0.7818609E-02  0.8432344E-01
       -2   -1    0    0    0  501  0.00000000000E+00  0.00000000000E+00  0.87045957227E+03  0.87045957228E+03  0.25500000920E-02 0.  1.
        2   -1    0    0  501    0  0.00000000000E+00  0.00000000000E+00 -0.16808967133E+04  0.16808967133E+04  0.25500000920E-02 0. -1.
    10030    2    1    2    0    0  0.00000000000E+00  0.00000000000E+00 -0.81043714100E+03  0.25513562856E+04  0.24192169263E+04 0.  0.
        5    1    3    3  502    0  0.55348091265E+03 -0.25694008685E+03  0.69622723157E+03  0.92580439451E+03  0.46999998093E+01 0.  1.
       -5    1    3    3    0  502 -0.55348091265E+03  0.25694008685E+03 -0.15066643726E+04  0.16255518911E+04  0.46999998093E+01 0. -1.
</event>
<event>
 5   0  0.3581449E-05  0.2460373E+04  0.7818609E-02  0.8417240E-01
        2   -1    0    0  501    0  0.00000000000E+00  0.00000000000E+00  0.15067642894E+04  0.15067642894E+04  0.25500000920E-02 0. -1.
       -2   -1    0    0    0  501  0.00000000000E+00  0.00000000000E+00 -0.10043767314E+04  0.10043767314E+04  0.25500000920E-02 0.  1.
    10030    2    1    2    0    0  0.00000000000E+00  0.00000000000E+00  0.50238755796E+03  0.25111410208E+04  0.24603731359E+04 0.  0.
        1    1    3    3  502    0 -0.11998202082E+04 -0.26827505251E+03  0.20766452233E+03  0.12468618968E+04  0.50400001928E-02 0. -1.
       -1    1    3    3    0  502  0.11998202082E+04  0.26827505251E+03  0.29472303563E+03  0.12642791241E+04  0.50400001928E-02 0.  1.
</event>
<event>
 5   0  0.1502886E-05  0.2479283E+04  0.7818609E-02  0.8410403E-01
       -1   -1    0    0    0  501  0.00000000000E+00  0.00000000000E+00  0.88543026309E+03  0.88543026311E+03  0.50400001928E-02 0.  1.
        1   -1    0    0  501    0  0.00000000000E+00  0.00000000000E+00 -0.17355532797E+04  0.17355532797E+04  0.50400001928E-02 0. -1.
    10030    2    1    2    0    0  0.00000000000E+00  0.00000000000E+00 -0.85012301658E+03  0.26209835428E+04  0.24792832812E+04 0.  0.
        4    1    3    3  502    0 -0.62193972628E+03  0.63238970303E+03  0.49045071801E+03  0.10135429341E+04  0.12699999809E+01 0.  1.
       -4    1    3    3    0  502  0.62193972628E+03 -0.63238970303E+03 -0.13405737346E+04  0.16074406087E+04  0.12699999809E+01 0. -1.
</event>
<event>
 5   0  0.1421242E-05  0.2473340E+04  0.7818609E-02  0.8412545E-01
        1   -1    0    0  501    0  0.00000000000E+00  0.00000000000E+00  0.21333036900E+04  0.21333036900E+04  0.50400001928E-02 0. -1.
       -1   -1    0    0    0  501  0.00000000000E+00  0.00000000000E+00 -0.71689418035E+03  0.71689418037E+03  0.50400001928E-02 0.  1.
    10030    2    1    2    0    0  0.00000000000E+00  0.00000000000E+00  0.14164095096E+04  0.28501978703E+04  0.24733402518E+04 0.  0.
        3    1    3    3  502    0  0.91714655087E+03  0.73546551890E+03  0.26595114588E+03  0.12053204335E+04  0.10100000352E+00 0.  1.
       -3    1    3    3    0  502 -0.91714655087E+03 -0.73546551890E+03  0.11504583637E+04  0.16448774368E+04  0.10100000352E+00 0. -1.
</event>
<event>
 5   0  0.3579097E-05  0.2239652E+04  0.7818609E-02  0.8502103E-01
        2   -1    0    0  501    0  0.00000000000E+00  0.00000000000E+00  0.13730118933E+04  0.13730118933E+04  0.25500000920E-02 0.  1.
       -2   -1    0    0    0  501  0.00000000000E+00  0.00000000000E+00 -0.91332845192E+03  0.91332845193E+03  0.25500000920E-02 0. -1.
    10030    2    1    2    0    0  0.00000000000E+00  0.00000000000E+00  0.45968344141E+03  0.22863403453E+04  0.22396524972E+04 0.  0.
        5    1    3    3  502    0 -0.66367182507E+03  0.26425205958E+03 -0.65051549074E+03  0.96616868925E+03  0.46999998093E+01 0. -1.
       -5    1    3    3    0  502  0.66367182507E+03 -0.26425205958E+03  0.11101989322E+04  0.13201716560E+04  0.46999998093E+01 0.  1.
</event>
<event>
 5   0  0.1429483E-05  0.2489743E+04  0.7818609E-02  0.8406649E-01
        1   -1    0    0  501    0  0.00000000000E+00  0.00000000000E+00  0.12362183029E+04  0.12362183029E+04  0.50400001928E-02 0. -1.
       -1   -1    0    0    0  501  0.00000000000E+00  0.00000000000E+00 -0.12535853010E+04  0.12535853010E+04  0.50400001928E-02 0.  1.
    10030    2    1    2    0    0  0.00000000000E+00  0.00000000000E+00 -0.17366998095E+02  0.24898036040E+04  0.24897430337E+04 0.  0.
        2    1    3    3  502    0 -0.27049178734E+03  0.90586711739E+03  0.80123993435E+03  0.12392523850E+04  0.25500000920E-02 0. -1.
       -2    1    3    3    0  502  0.27049178734E+03 -0.90586711739E+03 -0.81860693245E+03  0.12505512190E+04  0.25500000920E-02 0.  1.
</event>
<event>
 5   0  0.3704241E-05  0.2520074E+04  0.7818609E-02  0.8395869E-01
       -2   -1    0    0    0  501  0.00000000000E+00  0.00000000000E+00  0.81407096806E+03  0.81407096807E+03  0.25500000920E-02 0. -1.
        2   -1    0    0  501    0  0.00000000000E+00  0.00000000000E+00 -0.19503136263E+04  0.19503136263E+04  0.25500000920E-02 0.  1.
    10030    2    1    2    0    0  0.00000000000E+00  0.00000000000E+00 -0.11362426582E+04  0.27643845943E+04  0.25200743654E+04 0.  0.
        2    1    3    3  502    0 -0.36548990849E+03  0.76478174507E+03 -0.15908251780E+04  0.18025533939E+04  0.25500000920E-02 0.  1.
       -2    1    3    3    0  502  0.36548990849E+03 -0.76478174507E+03  0.45458251983E+03  0.96183120044E+03  0.25500000920E-02 0. -1.
</event>
<event>
 5   0  0.3578670E-05  0.2581246E+04  0.7818609E-02  0.8374600E-01
       -2   -1    0    0    0  501  0.00000000000E+00  0.00000000000E+00  0.11911320778E+04  0.11911320778E+04  0.25500000920E-02 0. -1.
        2   -1    0    0  501    0  0.00000000000E+00  0.00000000000E+00 -0.13984240730E+04  0.13984240730E+04  0.25500000920E-02 0.  1.
    10030    2    1    2    0    0  0.00000000000E+00  0.00000000000E+00 -0.20729199524E+03  0.25895561508E+04  0.25812460337E+04 0.  0.
        4    1    3    3  502    0  0.21668140474E+03 -0.11450093694E+04  0.45285499023E+03  0.12502305957E+04  0.12699999809E+01 0. -1.
       -4    1    3    3    0  502 -0.21668140474E+03  0.11450093694E+04 -0.66014698547E+03  0.13393255551E+04  0.12699999809E+01 0.  1.
</event>
<event>
 5   0  0.1456876E-05  0.2515776E+04  0.7818609E-02  0.8397387E-01
       -1   -1    0    0    0  501  0.00000000000E+00  0.00000000000E+00  0.90481900256E+03  0.90481900258E+03  0.50400001928E-02 0. -1.
        1   -1    0    0  501    0  0.00000000000E+00  0.00000000000E+00 -0.17487280201E+04  0.17487280201E+04  0.50400001928E-02 0.  1.
    10030    2    1    2    0    0  0.00000000000E+00  0.00000000000E+00 -0.84390901752E+03  0.26535470227E+04  0.25157760973E+04 0.  0.
        1    1    3    3  502    0  0.12520433844E+04  0.35884136054E+01 -0.54964978283E+03  0.13673845095E+04  0.50400001928E-02 0.  1.
       -1    1    3    3    0  502 -0.12520433844E+04 -0.35884136054E+01 -0.29425923468E+03  0.12861625132E+04  0.50400001928E-02 0. -1.
</event>
<event>
 5   0  0.1456876E-05  0.2498824E+04  0.7818609E-02  0.8403405E-01
        1   -1    0    0  501    0  0.00000000000E+00  0.00000000000E+00  0.11118878299E+04  0.11118878300E+04  0.50400001928E-02 0.  1.
       -1   -1    0    0    0  501  0.00000000000E+00  0.00000000000E+00 -0.14039454476E+04  0.14039454476E+04  0.50400001928E-02 0. -1.
    10030    2    1    2    0    0  0.00000000000E+00  0.00000000000E+00 -0.29205761765E+03  0.25158332775E+04  0.24988236089E+04 0.  0.
        1    1    3    3  502    0  0.11352256380E+04 -0.38276767899E+03  0.21104225870E+03  0.12164650346E+04  0.50400001928E-02 0.  1.
       -1    1    3    3    0  502 -0.11352256380E+04  0.38276767899E+03 -0.50309987635E+03  0.12993682430E+04  0.50400001928E-02 0. -1.
</event>
<event>
 5   0  0.1492639E-05  0.2487830E+04  0.7818609E-02  0.8407334E-01
       -1   -1    0    0    0  501  0.00000000000E+00  0.00000000000E+00  0.10171616651E+04  0.10171616651E+04  0.50400001928E-02 0. -1.
        1   -1    0    0  501    0  0.00000000000E+00  0.00000000000E+00 -0.15212176619E+04  0.15212176619E+04  0.50400001928E-02 0.  1.
    10030    2    1    2    0    0  0.00000000000E+00  0.00000000000E+00 -0.50405599681E+03  0.25383793270E+04  0.24878298092E+04 0.  0.
        5    1    3    3  502    0 -0.56669026546E+03  0.11026709629E+04 -0.14857205430E+03  0.12486460085E+04  0.46999998093E+01 0. -1.
       -5    1    3    3    0  502  0.56669026546E+03 -0.11026709629E+04 -0.35548394251E+03  0.12897333184E+04  0.46999998093E+01 0.  1.
</event>
<event>
 5   0  0.3581449E-05  0.2514607E+04  0.7818609E-02  0.8397800E-01
        2   -1    0    0  501    0  0.00000000000E+00  0.00000000000E+00  0.23586083749E+04  0.23586083749E+04  0.25500000920E-02 0.  1.
       -2   -1    0    0    0  501  0.00000000000E+00  0.00000000000E+00 -0.67023085778E+03  0.67023085779E+03  0.25500000920E-02 0. -1.
    10030    2    1    2    0    0  0.00000000000E+00  0.00000000000E+00  0.16883775171E+04  0.30288392327E+04  0.25146070184E+04 0.  0.
        1    1    3    3  502    0  0.50666922464E+02 -0.70591491226E+03  0.20958987632E+04  0.22121651444E+04  0.50400001928E-02 0.  1.
       -1    1    3    3    0  502 -0.50666922464E+02  0.70591491226E+03 -0.40752124612E+03  0.81667408827E+03  0.50400001928E-02 0. -1.
</event>
<event>
 5   0  0.3578670E-05  0.2514033E+04  0.7818609E-02  0.8398003E-01
        2   -1    0    0  501    0  0.00000000000E+00  0.00000000000E+00  0.13192265994E+04  0.13192265994E+04  0.25500000920E-02 0.  1.
       -2   -1    0    0    0  501  0.00000000000E+00  0.00000000000E+00 -0.11977401476E+04  0.11977401476E+04  0.25500000920E-02 0. -1.
    10030    2    1    2    0    0  0.00000000000E+00  0.00000000000E+00  0.12148645177E+03  0.25169667470E+04  0.25140331437E+04 0.  0.
        4    1    3    3  502    0 -0.11424085718E+04  0.43531774045E+03  0.35347142901E+03  0.12726124878E+04  0.12699999809E+01 0.  1.
       -4    1    3    3    0  502  0.11424085718E+04 -0.43531774045E+03 -0.23198497723E+03  0.12443542593E+04  0.12699999809E+01 0. -1.
</event>
<event>
 5   0  0.1502886E-05  0.2490650E+04  0.7818609E-02  0.8406324E-01
       -1   -1    0    0    0  501  0.00000000000E+00  0.00000000000E+00  0.12856156901E+04  0.12856156901E+04  0.50400001928E-02 0. -1.
        1   -1    0    0  501    0  0.00000000000E+00  0.00000000000E+00 -0.12062974528E+04  0.12062974528E+04  0.50400001928E-02 0.  1.
    10030    2    1    2    0    0  0.00000000000E+00  0.00000000000E+00  0.79318237322E+02  0.24919131429E+04  0.24906504630E+04 0.  0.
        4    1    3    3  502    0 -0.56846879215E+03 -0.27946077481E+03  0.11123865403E+04  0.12801017616E+04  0.12699999809E+01 0. -1.
       -4    1    3    3    0  502  0.56846879215E+03  0.27946077481E+03 -0.10330683029E+04  0.12118113813E+04  0.12699999809E+01 0.  1.
</event>
<event>
 5   0  0.1492639E-05  0.2347734E+04  0.7818609E-02  0.8459334E-01
        1   -1    0    0  501    0  0.00000000000E+00  0.00000000000E+00  0.17079991444E+04  0.17079991444E+04  0.50400001928E-02 0. -1.
       -1   -1    0    0    0  501  0.00000000000E+00  0.00000000000E+00 -0.80677084661E+03  0.80677084662E+03  0.50400001928E-02 0.  1.
    10030    2    1    2    0    0  0.00000000000E+00  0.00000000000E+00  0.90122829782E+03  0.25147699911E+04  0.23477341551E+04 0.  0.
        5    1    3    3  502    0 -0.47846216215E+03  0.35993928751E+03  0.15321336097E+04  0.16449735011E+04  0.46999998093E+01 0. -1.
       -5    1    3    3    0  502  0.47846216215E+03 -0.35993928751E+03 -0.63090531192E+03  0.86979648994E+03  0.46999998093E+01 0.  1.
</event>
<event>
 5   0  0.3581449E-05  0.2500868E+04  0.7818609E-02  0.8402676E-01
        2   -1    0    0  501    0  0.00000000000E+00  0.00000000000E+00  0.13949569517E+04  0.13949569517E+04  0.25500000920E-02 0. -1.
       -2   -1    0    0    0  501  0.00000000000E+00  0.00000000000E+00 -0.11208845134E+04  0.11208845134E+04  0.25500000920E-02 0.  1.
    10030    2    1    2    0    0  0.00000000000E+00  0.00000000000E+00  0.27407243835E+03  0.25158414651E+04  0.25008683644E+04 0.  0.
        1    1    3    3  502    0  0.52797610327E+03  0.89832943839E+03  0.83242814464E+03  0.13336758083E+04  0.50400001928E-02 0. -1.
       -1    1    3    3    0  502 -0.52797610327E+03 -0.89832943839E+03 -0.55835570629E+03  0.11821656569E+04  0.50400001928E-02 0.  1.
</event>
<event>
 5   0  0.1421242E-05  0.2484141E+04  0.7818609E-02  0.8408657E-01
        1   -1    0    0  501    0  0.00000000000E+00  0.00000000000E+00  0.11407364472E+04  0.11407364472E+04  0.50400001928E-02 0. -1.
       -1   -1    0    0    0  501  0.00000000000E+00  0.00000000000E+00 -0.13524067775E+04  0.13524067776E+04  0.50400001928E-02 0.  1.
    10030    2    1    2    0    0  0.00000000000E+00  0.00000000000E+00 -0.21167033036E+03  0.24931432247E+04  0.24841414634E+04 0.  0.
        3    1    3    3  502    0 -0.10329993313E+04 -0.25861132665E+03 -0.74750498068E+03  0.13010500156E+04  0.10100000352E+00 0.  1.
       -3    1    3    3    0  502  0.10329993313E+04  0.25861132665E+03  0.53583465032E+03  0.11920932092E+04  0.10100000352E+00 0. -1.
</event>
<event>
 5   0  0.3704241E-05  0.2548119E+04  0.7818609E-02  0.8386041E-01
        2   -1    0    0  501    0  0.00000000000E+00  0.00000000000E+00  0.11502671687E+04  0.11502671687E+04  0.25500000920E-02 0.  1.
       -2   -1    0    0    0  501  0.00000000000E+00  0.00000000000E+00 -0.14111740394E+04  0.14111740394E+04  0.25500000920E-02 0. -1.
    10030    2    1    2    0    0  0.00000000000E+00  0.00000000000E+00 -0.26090687066E+03  0.25614412081E+04  0.25481186525E+04 0.  0.
        2    1    3    3  502    0 -0.15729170371E+03 -0.12328712593E+04  0.15121676981E+03  0.12520298453E+04  0.25500000920E-02 0.  1.
       -2    1    3    3    0  502  0.15729170371E+03  0.12328712593E+04 -0.41212364046E+03  0.13094113628E+04  0.25500000920E-02 0. -1.
</event>
<event>
 5   0  0.3704241E-05  0.2541218E+04  0.7818609E-02  0.8388447E-01
       -2   -1    0    0    0  501  0.00000000000E+00  0.00000000000E+00  0.96304103782E+03  0.96304103783E+03  0.25500000920E-02 0.  1.
        2   -1    0    0  501    0  0.00000000000E+00  0.00000000000E+00 -0.16764053199E+04  0.16764053199E+04  0.25500000920E-02 0. -1.
    10030    2    1    2    0    0  0.00000000000E+00  0.00000000000E+00 -0.71336428208E+03  0.26394463577E+04  0.25412179120E+04 0.  0.
        2    1    3    3  502    0 -0.11515496071E+04  0.48320763610E+03 -0.60002662780E+03  0.13854919961E+04  0.25500000920E-02 0. -1.
       -2    1    3    3    0  502  0.11515496071E+04 -0.48320763610E+03 -0.11333765428E+03  0.12539543616E+04  0.25500000920E-02 0.  1.
</event>
<event>
 5   0  0.3578670E-05  0.2322510E+04  0.7818609E-02  0.8469098E-01
       -2   -1    0    0    0  501  0.00000000000E+00  0.00000000000E+00  0.22508734252E+04  0.22508734252E+04  0.25500000920E-02 0. -1.
        2   -1    0    0  501    0  0.00000000000E+00  0.00000000000E+00 -0.59910636532E+03  0.59910636532E+03  0.25500000920E-02 0.  1.
    10030    2    1    2    0    0  0.00000000000E+00  0.00000000000E+00  0.16517670598E+04  0.28499797905E+04  0.23225095019E+04 0.  0.
        4    1    3    3  502    0  0.56607093724E+03 -0.72883772743E+03 -0.39095892273E+02  0.92367247475E+03  0.12699999809E+01 0.  1.
       -4    1    3    3    0  502 -0.56607093724E+03  0.72883772743E+03  0.16908629521E+04  0.19263073157E+04  0.12699999809E+01 0. -1.
</event>
<event>
 5   0  0.3579097E-05  0.2515166E+04  0.7818609E-02  0.8397602E-01
        2   -1    0    0  501    0  0.00000000000E+00  0.00000000000E+00  0.12006857968E+04  0.12006857968E+04  0.25500000920E-02 0. -1.
       -2   -1    0    0    0  501  0.00000000000E+00  0.00000000000E+00 -0.13171762758E+04  0.13171762758E+04  0.25500000920E-02 0.  1.
    10030    2    1    2    0    0  0.00000000000E+00  0.00000000000E+00 -0.11649047904E+03  0.25178620727E+04  0.25151658763E+04 0.  0.
        5    1    3    3  502    0  0.76453143320E+03  0.79061481767E+03 -0.66874539838E+03  0.12871762118E+04  0.46999998093E+01 0.  1.
       -5    1    3    3    0  502 -0.76453143320E+03 -0.79061481767E+03  0.55225491934E+03  0.12306858609E+04  0.46999998093E+01 0. -1.
</event>
<event>
 5   0  0.3581449E-05  0.2493205E+04  0.7818609E-02  0.8405410E-01
        2   -1    0    0  501    0  0.00000000000E+00  0.00000000000E+00  0.91166046358E+03  0.91166046359E+03  0.25500000920E-02 0.  1.
       -2   -1    0    0    0  501  0.00000000000E+00  0.00000000000E+00 -0.17046016633E+04  0.17046016633E+04  0.25500000920E-02 0. -1.
    10030    2    1    2    0    0  0.00000000000E+00  0.00000000000E+00 -0.79294119970E+03  0.26162621269E+04  0.24932051200E+04 0.  0.
        1    1    3    3  502    0 -0.31486039824E+03 -0.30005977700E+03 -0.16223984499E+04  0.16796873728E+04  0.50400001928E-02 0. -1.
       -1    1    3    3    0  502  0.31486039824E+03  0.30005977700E+03  0.82945725015E+03  0.93657475410E+03  0.50400001928E-02 0.  1.
</event>
<event>
 5   0  0.3579097E-05  0.2502024E+04  0.7818609E-02  0.8402265E-01
        2   -1    0    0  501    0  0.00000000000E+00  0.00000000000E+00  0.94647728893E+03  0.94647728893E+03  0.25500000920E-02 0.  1.
       -2   -1    0    0    0  501  0.00000000000E+00  0.00000000000E+00 -0.16535322763E+04  0.16535322763E+04  0.25500000920E-02 0. -1.
    10030    2    1    2    0    0  0.00000000000E+00  0.00000000000E+00 -0.70705498735E+03  0.26000095652E+04  0.25020237777E+04 0.  0.
        5    1    3    3  502    0 -0.11208162717E+03 -0.14367273570E+03 -0.16396584306E+04  0.16497593779E+04  0.46999998093E+01 0. -1.
       -5    1    3    3    0  502  0.11208162717E+03  0.14367273570E+03  0.93260344322E+03  0.95025018728E+03  0.46999998093E+01 0.  1.
</event>
<event>
 5   0  0.1502886E-05  0.2523872E+04  0.7818609E-02  0.8394530E-01
       -1   -1    0    0    0  501  0.00000000000E+00  0.00000000000E+00  0.15713940976E+04  0.15713940976E+04  0.50400001928E-02 0. -1.
        1   -1    0    0  501    0  0.00000000000E+00  0.00000000000E+00 -0.10134202692E+04  0.10134202692E+04  0.50400001928E-02 0.  1.
    10030    2    1    2    0    0  0.00000000000E+00  0.00000000000E+00  0.55797382835E+03  0.25848143668E+04  0.25238721279E+04 0.  0.
        4    1    3    3  502    0  0.94394228364E+03  0.82937958891E+03  0.15962451964E+03  0.12666408874E+04  0.12699999809E+01 0. -1.
       -4    1    3    3    0  502 -0.94394228364E+03 -0.82937958891E+03  0.39834930870E+03  0.13181734795E+04  0.12699999809E+01 0.  1.
</event>
<event>
 5   0  0.1492639E-05  0.2486765E+04  0.7818609E-02  0.8407716E-01
       -1   -1    0    0    0  501  0.00000000000E+00  0.00000000000E+00  0.15836281493E+04  0.15836281493E+04  0.50400001928E-02 0. -1.
        1   -1    0    0  501    0  0.00000000000E+00  0.00000000000E+00 -0.97623942542E+03  0.97623942543E+03  0.50400001928E-02 0.  1.
    10030    2    1    2    0    0  0.00000000000E+00  0.00000000000E+00  0.60738872386E+03  0.25598675747E+04  0.24867651554E+04 0.  0.
        5    1    3    3  502    0  0.20431984726E+03  0.94092773475E+03 -0.50612516672E+03  0.10877850782E+04  0.46999998093E+01 0.  1.
       -5    1    3    3    0  502 -0.20431984726E+03 -0.94092773475E+03  0.11135138906E+04  0.14720824965E+04  0.46999998093E+01 0. -1.
</event>
<event>
 5   0  0.3578670E-05  0.2490962E+04  0.7818609E-02  0.8406212E-01
        2   -1    0    0  501    0  0.00000000000E+00  0.00000000000E+00  0.15174277894E+04  0.15174277894E+04  0.25500000920E-02 0.  1.
       -2   -1    0    0    0  501  0.00000000000E+00  0.00000000000E+00 -0.10222714823E+04  0.10222714823E+04  0.25500000920E-02 0. -1.
    10030    2    1    2    0    0  0.00000000000E+00  0.00000000000E+00  0.49515630713E+03  0.25396992717E+04  0.24909621880E+04 0.  0.
        4    1    3    3  502    0 -0.39178414663E+03  0.10630981585E+04 -0.27979358187E+03  0.11670298084E+04  0.12699999809E+01 0. -1.
       -4    1    3    3    0  502  0.39178414663E+03 -0.10630981585E+04  0.77494988900E+03  0.13726694633E+04  0.12699999809E+01 0.  1.
</event>
<event>
 5   0  0.3704241E-05  0.2467979E+04  0.7818609E-02  0.8414483E-01
       -2   -1    0    0    0  501  0.00000000000E+00  0.00000000000E+00  0.60902415703E+03  0.60902415703E+03  0.25500000920E-02 0.  1.
        2   -1    0    0  501    0  0.00000000000E+00  0.00000000000E+00 -0.25002777526E+04  0.25002777526E+04  0.25500000920E-02 0. -1.
    10030    2    1    2    0    0  0.00000000000E+00  0.00000000000E+00 -0.18912535955E+04  0.31093019096E+04  0.24679785660E+04 0.  0.
        2    1    3    3  502    0 -0.27855176006E+02  0.11024484523E+04 -0.16431842732E+04  0.19789449352E+04  0.25500000920E-02 0. -1.
       -2    1    3    3    0  502  0.27855176006E+02 -0.11024484523E+04 -0.24806932230E+03  0.11303569744E+04  0.25500000920E-02 0.  1.
</event>
<event>
 5   0  0.1492639E-05  0.2489451E+04  0.7818609E-02  0.8406753E-01
        1   -1    0    0  501    0  0.00000000000E+00  0.00000000000E+00  0.15919788451E+04  0.15919788451E+04  0.50400001928E-02 0. -1.
       -1   -1    0    0    0  501  0.00000000000E+00  0.00000000000E+00 -0.97321763990E+03  0.97321763991E+03  0.50400001928E-02 0.  1.
    10030    2    1    2    0    0  0.00000000000E+00  0.00000000000E+00  0.61876120521E+03  0.25651964850E+04  0.24894512604E+04 0.  0.
        5    1    3    3  502    0 -0.10136246581E+04  0.70599506766E+03  0.15156776393E+03  0.12445315826E+04  0.46999998093E+01 0.  1.
       -5    1    3    3    0  502  0.10136246581E+04 -0.70599506766E+03  0.46719344128E+03  0.13206649024E+04  0.46999998093E+01 0. -1.
</event>
<event>
 5   0  0.1502886E-05  0.2499719E+04  0.7818609E-02  0.8403086E-01
        1   -1    0    0  501    0  0.00000000000E+00  0.00000000000E+00  0.25652533229E+04  0.25652533229E+04  0.50400001928E-02 0. -1.
       -1   -1    0    0    0  501  0.00000000000E+00  0.00000000000E+00 -0.60896488607E+03  0.60896488609E+03  0.50400001928E-02 0.  1.
    10030    2    1    2    0    0  0.00000000000E+00  0.00000000000E+00  0.19562884368E+04  0.31742182090E+04  0.24997193423E+04 0.  0.
        4    1    3    3  502    0 -0.98943131983E+03  0.27238222696E+03  0.72210579670E+02  0.10287771357E+04  0.12699999809E+01 0.  1.
       -4    1    3    3    0  502  0.98943131983E+03 -0.27238222696E+03  0.18840778572E+04  0.21454410733E+04  0.12699999809E+01 0. -1.
</event>
<event>
 5   0  0.3579097E-05  0.2526416E+04  0.7818609E-02  0.8393635E-01
       -2   -1    0    0    0  501  0.00000000000E+00  0.00000000000E+00  0.81504540408E+03  0.81504540408E+03  0.25500000920E-02 0.  1.
        2   -1    0    0  501    0  0.00000000000E+00  0.00000000000E+00 -0.19577979056E+04  0.19577979056E+04  0.25500000920E-02 0. -1.
    10030    2    1    2    0    0  0.00000000000E+00  0.00000000000E+00 -0.11427525016E+04  0.27728433097E+04  0.25264157893E+04 0.  0.
        5    1    3    3  502    0  0.32957631491E+03  0.41282500893E+03 -0.18307420363E+04  0.19054352597E+04  0.46999998093E+01 0. -1.
       -5    1    3    3    0  502 -0.32957631491E+03 -0.41282500893E+03  0.68798953475E+03  0.86740805004E+03  0.46999998093E+01 0.  1.
</event>
<event>
 5   0  0.1429483E-05  0.2537433E+04  0.7818609E-02  0.8389770E-01
       -1   -1    0    0    0  501  0.00000000000E+00  0.00000000000E+00  0.80054610435E+03  0.80054610436E+03  0.50400001928E-02 0.  1.
        1   -1    0    0  501    0  0.00000000000E+00  0.00000000000E+00 -0.20106791410E+04  0.20106791410E+04  0.50400001928E-02 0. -1.
    10030    2    1    2    0    0  0.00000000000E+00  0.00000000000E+00 -0.12101330367E+04  0.28112252454E+04  0.25374328393E+04 0.  0.
        2    1    3    3  502    0 -0.60595401497E+03 -0.10557983128E+04 -0.10010556402E+04  0.15760719338E+04  0.25500000920E-02 0. -1.
       -2    1    3    3    0  502  0.60595401497E+03  0.10557983128E+04 -0.20907739646E+03  0.12351533116E+04  0.25500000920E-02 0.  1.
</event>
<event>
 5   0  0.1421242E-05  0.2490827E+04  0.7818609E-02  0.8406261E-01
       -1   -1    0    0    0  501  0.00000000000E+00  0.00000000000E+00  0.91102573579E+03  0.91102573580E+03  0.50400001928E-02 0.  1.
        1   -1    0    0  501    0  0.00000000000E+00  0.00000000000E+00 -0.17025367080E+04  0.17025367080E+04  0.50400001928E-02 0. -1.
    10030    2    1    2    0    0  0.00000000000E+00  0.00000000000E+00 -0.79151097218E+03  0.26135624438E+04  0.24908269768E+04 0.  0.
        3    1    3    3  502    0 -0.12330846776E+04 -0.68648191690E+02 -0.56443880305E+03  0.13578665505E+04  0.10100000352E+00 0. -1.
       -3    1    3    3    0  502  0.12330846776E+04  0.68648191690E+02 -0.22707216913E+03  0.12556958933E+04  0.10100000352E+00 0.  1.
</event>
<event>
 5   0  0.1456876E-05  0.2465556E+04  0.7818609E-02  0.8415360E-01
       -1   -1    0    0    0  501  0.00000000000E+00  0.00000000000E+00  0.14333300387E+04  0.14333300387E+04  0.50400001928E-02 0.  1.
        1   -1    0    0  501    0  0.00000000000E+00  0.00000000000E+00 -0.10602874588E+04  0.10602874588E+04  0.50400001928E-02 0. -1.
    10030    2    1    2    0    0  0.00000000000E+00  0.00000000000E+00  0.37304257988E+03  0.24936174976E+04  0.24655562167E+04 0.  0.
        1    1    3    3  502    0 -0.84665410362E+03 -0.61389993575E+03  0.84667178055E+03  0.13455665745E+04  0.50400001928E-02 0.  1.
       -1    1    3    3    0  502  0.84665410362E+03  0.61389993575E+03 -0.47362920067E+03  0.11480509231E+04  0.50400001928E-02 0. -1.
</event>
<event>
 5   0  0.3581449E-05  0.2484349E+04  0.7818609E-02  0.8408583E-01
        2   -1    0    0  501    0  0.00000000000E+00  0.00000000000E+00  0.23460483243E+04  0.23460483243E+04  0.25500000920E-02 0. -1.
       -2   -1    0    0    0  501  0.00000000000E+00  0.00000000000E+00 -0.65770051788E+03  0.65770051789E+03  0.25500000920E-02 0.  1.
    10030    2    1    2    0    0  0.00000000000E+00  0.00000000000E+00  0.16883478064E+04  0.30037488422E+04  0.24843487661E+04 0.  0.
        1    1    3    3  502    0 -0.12225975800E+04  0.82594459854E+02  0.10902736650E+04  0.16402022290E+04  0.50400001928E-02 0.  1.
       -1    1    3    3    0  502  0.12225975800E+04 -0.82594459854E+02  0.59807414141E+03  0.13635466131E+04  0.50400001928E-02 0. -1.
</event>
<event>
 5   0  0.3650620E-05  0.2523460E+04  0.7818609E-02  0.8394675E-01
        2   -1    0    0  501    0  0.00000000000E+00  0.00000000000E+00  0.10245955492E+04  0.10245955492E+04  0.25500000920E-02 0. -1.
       -2   -1    0    0    0  501  0.00000000000E+00  0.00000000000E+00 -0.15537467689E+04  0.15537467689E+04  0.25500000920E-02 0.  1.
    10030    2    1    2    0    0  0.00000000000E+00  0.00000000000E+00 -0.52915121966E+03  0.25783423181E+04  0.25234595491E+04 0.  0.
        3    1    3    3  502    0  0.50006916595E+03  0.10849453392E+04 -0.67934336236E+03  0.13742936273E+04  0.10100000352E+00 0. -1.
       -3    1    3    3    0  502 -0.50006916595E+03 -0.10849453392E+04  0.15019214271E+03  0.12040486908E+04  0.10100000352E+00 0.  1.
</event>
<event>
 5   0  0.3579097E-05  0.2550510E+04  0.7818609E-02  0.8385209E-01
        2   -1    0    0  501    0  0.00000000000E+00  0.00000000000E+00  0.24793484696E+04  0.24793484696E+04  0.25500000920E-02 0.  1.
       -2   -1    0    0    0  501  0.00000000000E+00  0.00000000000E+00 -0.65592829740E+03  0.65592829740E+03  0.25500000920E-02 0. -1.
    10030    2    1    2    0    0  0.00000000000E+00  0.00000000000E+00  0.18234201722E+04  0.31352767670E+04  0.25505096121E+04 0.  0.
        5    1    3    3  502    0 -0.38100956808E+03  0.10912843197E+04  0.15739035389E+04  0.19527581000E+04  0.46999998093E+01 0.  1.
       -5    1    3    3    0  502  0.38100956808E+03 -0.10912843197E+04  0.24951663331E+03  0.11825186670E+04  0.46999998093E+01 0. -1.
</event>
<event>
 5   0  0.3578670E-05  0.2540158E+04  0.7818609E-02  0.8388817E-01
       -2   -1    0    0    0  501  0.00000000000E+00  0.00000000000E+00  0.31639884942E+04  0.31639884942E+04  0.25500000920E-02 0. -1.
        2   -1    0    0  501    0  0.00000000000E+00  0.00000000000E+00 -0.50983153279E+03  0.50983153280E+03  0.25500000920E-02 0.  1.
    10030    2    1    2    0    0  0.00000000000E+00  0.00000000000E+00  0.26541569614E+04  0.36738200270E+04  0.25401583445E+04 0.  0.
        4    1    3    3  502    0  0.12079252658E+04  0.39231008518E+03  0.13119897834E+04  0.18260091608E+04  0.12699999809E+01 0. -1.
       -4    1    3    3    0  502 -0.12079252658E+04 -0.39231008518E+03  0.13421671781E+04  0.18478108663E+04  0.12699999809E+01 0.  1.
</event>
<event>
 5   0  0.3581449E-05  0.2676629E+04  0.7818609E-02  0.8342628E-01
       -2   -1    0    0    0  501  0.00000000000E+00  0.00000000000E+00  0.11379315751E+04  0.11379315751E+04  0.25500000920E-02 0.  1.
        2   -1    0    0  501    0  0.00000000000E+00  0.00000000000E+00 -0.15739832536E+04  0.15739832536E+04  0.25500000920E-02 0. -1.
    10030    2    1    2    0    0  0.00000000000E+00  0.00000000000E+00 -0.43605167848E+03  0.27119148287E+04  0.26766286578E+04 0.  0.
        1    1    3    3  502    0 -0.12180821409E+04  0.42439389680E+03 -0.57945106266E+03  0.14140713616E+04  0.50400001928E-02 0. -1.
       -1    1    3    3    0  502  0.12180821409E+04 -0.42439389680E+03  0.14339938418E+03  0.12978434671E+04  0.50400001928E-02 0.  1.
</event>
<event>
 5   0  0.1502886E-05  0.2496878E+04  0.7818609E-02  0.8404099E-01
       -1   -1    0    0    0  501  0.00000000000E+00  0.00000000000E+00  0.11554402705E+04  0.11554402705E+04  0.50400001928E-02 0.  1.
        1   -1    0    0  501    0  0.00000000000E+00  0.00000000000E+00 -0.13489229406E+04  0.13489229406E+04  0.50400001928E-02 0. -1.
    10030    2    1    2    0    0  0.00000000000E+00  0.00000000000E+00 -0.19348267004E+03  0.25043632111E+04  0.24968779605E+04 0.  0.
        4    1    3    3  502    0 -0.24610276307E+03  0.11616627352E+04  0.28986378275E+03  0.12223131783E+04  0.12699999809E+01 0.  1.
       -4    1    3    3    0  502  0.24610276307E+03 -0.11616627352E+04 -0.48334645279E+03  0.12820500328E+04  0.12699999809E+01 0. -1.
</event>
<event>
 5   0  0.1421242E-05  0.1908488E+04  0.7818609E-02  0.8650643E-01
        1   -1    0    0  501    0  0.00000000000E+00  0.00000000000E+00  0.17281733331E+04  0.17281733331E+04  0.50400001928E-02 0.  1.
       -1   -1    0    0    0  501  0.00000000000E+00  0.00000000000E+00 -0.52690430494E+03  0.52690430496E+03  0.50400001928E-02 0. -1.
    10030    2    1    2    0    0  0.00000000000E+00  0.00000000000E+00  0.12012690281E+04  0.22550776380E+04  0.19084883745E+04 0.  0.
        3    1    3    3  502    0 -0.19628709236E+03 -0.67265363137E+03 -0.16475897910E+03  0.71981738089E+03  0.10100000352E+00 0. -1.
       -3    1    3    3    0  502  0.19628709236E+03  0.67265363137E+03  0.13660280072E+04  0.15352602571E+04  0.10100000352E+00 0.  1.
</event>
<event>
 5   0  0.3579097E-05  0.2551069E+04  0.7818609E-02  0.8385015E-01
        2   -1    0    0  501    0  0.00000000000E+00  0.00000000000E+00  0.80147321168E+03  0.80147321168E+03  0.25500000920E-02 0.  1.
       -2   -1    0    0    0  501  0.00000000000E+00  0.00000000000E+00 -0.20299963904E+04  0.20299963904E+04  0.25500000920E-02 0. -1.
    10030    2    1    2    0    0  0.00000000000E+00  0.00000000000E+00 -0.12285231787E+04  0.28314696021E+04  0.25510685814E+04 0.  0.
        5    1    3    3  502    0 -0.85913176976E+03  0.43515802553E+01  0.43214723748E+03  0.96171703682E+03  0.46999998093E+01 0.  1.
       -5    1    3    3    0  502  0.85913176976E+03 -0.43515802553E+01 -0.16606704162E+04  0.18697525653E+04  0.46999998093E+01 0. -1.
</event>
<event>
 5   0  0.3650620E-05  0.2497594E+04  0.7818609E-02  0.8403843E-01
       -2   -1    0    0    0  501  0.00000000000E+00  0.00000000000E+00  0.11175220503E+04  0.11175220503E+04  0.25500000920E-02 0.  1.
        2   -1    0    0  501    0  0.00000000000E+00  0.00000000000E+00 -0.13954930206E+04  0.13954930206E+04  0.25500000920E-02 0. -1.
    10030    2    1    2    0    0  0.00000000000E+00  0.00000000000E+00 -0.27797097031E+03  0.25130150710E+04  0.24975942197E+04 0.  0.
        3    1    3    3  502    0  0.91652790325E+03 -0.70260702658E+03  0.33914762342E+03  0.12036200197E+04  0.10100000352E+00 0.  1.
       -3    1    3    3    0  502 -0.91652790325E+03  0.70260702658E+03 -0.61711859373E+03  0.13093950512E+04  0.10100000352E+00 0. -1.
</event>
<event>
 5   0  0.1502886E-05  0.2489360E+04  0.7818609E-02  0.8406786E-01
        1   -1    0    0  501    0  0.00000000000E+00  0.00000000000E+00  0.17505939324E+04  0.17505939325E+04  0.50400001928E-02 0. -1.
       -1   -1    0    0    0  501  0.00000000000E+00  0.00000000000E+00 -0.88497331687E+03  0.88497331689E+03  0.50400001928E-02 0.  1.
    10030    2    1    2    0    0  0.00000000000E+00  0.00000000000E+00  0.86562061557E+03  0.26355672493E+04  0.24893604953E+04 0.  0.
        4    1    3    3  502    0 -0.80461598005E+03  0.94777241674E+03  0.49587271883E+03  0.13384957211E+04  0.12699999809E+01 0. -1.
       -4    1    3    3    0  502  0.80461598005E+03 -0.94777241674E+03  0.36974789674E+03  0.12970715282E+04  0.12699999809E+01 0.  1.
</event>
<event>
 5   0  0.1456876E-05  0.2501311E+04  0.7818609E-02  0.8402519E-01
        1   -1    0    0  501    0  0.00000000000E+00  0.00000000000E+00  0.10820474291E+04  0.10820474291E+04  0.50400001928E-02 0.  1.
       -1   -1    0    0    0  501  0.00000000000E+00  0.00000000000E+00 -0.14455364849E+04  0.14455364849E+04  0.50400001928E-02 0. -1.
    10030    2    1    2    0    0  0.00000000000E+00  0.00000000000E+00 -0.36348905579E+03  0.25275839140E+04  0.25013108860E+04 0.  0.
        1    1    3    3  502    0  0.26176324114E+03 -0.10267127565E+04  0.48967413067E+03  0.11672359800E+04  0.50400001928E-02 0.  1.
       -1    1    3    3    0  502 -0.26176324114E+03  0.10267127565E+04 -0.85316318647E+03  0.13603479340E+04  0.50400001928E-02 0. -1.
</event>
<event>
 5   0  0.3579097E-05  0.2540728E+04  0.7818609E-02  0.8388618E-01
        2   -1    0    0  501    0  0.00000000000E+00  0.00000000000E+00  0.10553287920E+04  0.10553287920E+04  0.25500000920E-02 0.  1.
       -2   -1    0    0    0  501  0.00000000000E+00  0.00000000000E+00 -0.15292149938E+04  0.15292149938E+04  0.25500000920E-02 0. -1.
    10030    2    1    2    0    0  0.00000000000E+00  0.00000000000E+00 -0.47388620173E+03  0.25845437858E+04  0.25407279368E+04 0.  0.
        5    1    3    3  502    0  0.11366020178E+04  0.25392187021E+03 -0.75310072933E+03  0.13869114109E+04  0.46999998093E+01 0. -1.
       -5    1    3    3    0  502 -0.11366020178E+04 -0.25392187021E+03  0.27921452760E+03  0.11976323749E+04  0.46999998093E+01 0.  1.
</event>
<event>
 5   0  0.1456876E-05  0.2516799E+04  0.7818609E-02  0.8397025E-01
        1   -1    0    0  501    0  0.00000000000E+00  0.00000000000E+00  0.21681243686E+04  0.21681243686E+04  0.50400001928E-02 0. -1.
       -1   -1    0    0    0  501  0.00000000000E+00  0.00000000000E+00 -0.73038692079E+03  0.73038692081E+03  0.50400001928E-02 0.  1.
    10030    2    1    2    0    0  0.00000000000E+00  0.00000000000E+00  0.14377374478E+04  0.28985112894E+04  0.25167993019E+04 0.  0.
        1    1    3    3  502    0  0.88383749275E+03  0.47233885937E+03  0.15954194217E+04  0.18840477284E+04  0.50400001928E-02 0. -1.
       -1    1    3    3    0  502 -0.88383749275E+03 -0.47233885937E+03 -0.15768197392E+03  0.10144635610E+04  0.50400001928E-02 0.  1.
</event>
<event>
 5   0  0.1456876E-05  0.2471996E+04  0.7818609E-02  0.8413030E-01
       -1   -1    0    0    0  501  0.00000000000E+00  0.00000000000E+00  0.91389967961E+03  0.91389967962E+03  0.50400001928E-02 0. -1.
        1   -1    0    0  501    0  0.00000000000E+00  0.00000000000E+00 -0.16716182104E+04  0.16716182104E+04  0.50400001928E-02 0.  1.
    10030    2    1    2    0    0  0.00000000000E+00  0.00000000000E+00 -0.75771853077E+03  0.25855178900E+04  0.24719962354E+04 0.  0.
        1    1    3    3  502    0  0.89054343127E+02  0.49840283825E+03  0.80046492772E+03  0.94714316011E+03  0.50400001928E-02 0. -1.
       -1    1    3    3    0  502 -0.89054343127E+02 -0.49840283825E+03 -0.15581834585E+04  0.16383747299E+04  0.50400001928E-02 0.  1.
</event>
<event>
 5   0  0.3578670E-05  0.2598406E+04  0.7818609E-02  0.8368743E-01
       -2   -1    0    0    0  501  0.00000000000E+00  0.00000000000E+00  0.12502037144E+04  0.12502037144E+04  0.25500000920E-02 0. -1.
        2   -1    0    0  501    0  0.00000000000E+00  0.00000000000E+00 -0.13501228828E+04  0.13501228828E+04  0.25500000920E-02 0.  1.
    10030    2    1    2    0    0  0.00000000000E+00  0.00000000000E+00 -0.99919168426E+02  0.26003265973E+04  0.25984061600E+04 0.  0.
        4    1    3    3  502    0 -0.65828548666E+03 -0.31357497259E+03  0.10261295186E+04  0.12588139049E+04  0.12699999809E+01 0. -1.
       -4    1    3    3    0  502  0.65828548666E+03  0.31357497259E+03 -0.11260486870E+04  0.13415126924E+04  0.12699999809E+01 0.  1.
</event>
<event>
 5   0  0.1421242E-05  0.2506585E+04  0.7818609E-02  0.8400643E-01
       -1   -1    0    0    0  501  0.00000000000E+00  0.00000000000E+00  0.11609477369E+04  0.11609477369E+04  0.50400001928E-02 0. -1.
        1   -1    0    0  501    0  0.00000000000E+00  0.00000000000E+00 -0.13529823095E+04  0.13529823095E+04  0.50400001928E-02 0.  1.
    10030    2    1    2    0    0  0.00000000000E+00  0.00000000000E+00 -0.19203457255E+03  0.25139300464E+04  0.25065847285E+04 0.  0.
        3    1    3    3  502    0  0.46222160748E+02 -0.39775382257E+02  0.11594589836E+04  0.11610614601E+04  0.10100000352E+00 0. -1.
       -3    1    3    3    0  502 -0.46222160748E+02  0.39775382257E+02 -0.13514935562E+04  0.13528685863E+04  0.10100000352E+00 0.  1.
</event>
<event>
 5   0  0.1421242E-05  0.2451940E+04  0.7818609E-02  0.8420310E-01
        1   -1    0    0  501    0  0.00000000000E+00  0.00000000000E+00  0.13234416035E+04  0.13234416035E+04  0.50400001928E-02 0. -1.
       -1   -1    0    0    0  501  0.00000000000E+00  0.00000000000E+00 -0.11356770245E+04  0.11356770245E+04  0.50400001928E-02 0.  1.
    10030    2    1    2    0    0  0.00000000000E+00  0.00000000000E+00  0.18776457899E+03  0.24591186280E+04  0.24519398217E+04 0.  0.
        3    1    3    3  502    0  0.30052244234E+03  0.74695845040E+03  0.10211114470E+04  0.13003573594E+04  0.10100000352E+00 0. -1.
       -3    1    3    3    0  502 -0.30052244234E+03 -0.74695845040E+03 -0.83334686796E+03  0.11587612686E+04  0.10100000352E+00 0.  1.
</event>
<event>
 5   0  0.1456876E-05  0.2522267E+04  0.7818609E-02  0.8395096E-01
        1   -1    0    0  501    0  0.00000000000E+00  0.00000000000E+00  0.16783279059E+04  0.16783279059E+04  0.50400001928E-02 0.  1.
       -1   -1    0    0    0  501  0.00000000000E+00  0.00000000000E+00 -0.94764407963E+03  0.94764407964E+03  0.50400001928E-02 0. -1.
    10030    2    1    2    0    0  0.00000000000E+00  0.00000000000E+00  0.73068382627E+03  0.26259719856E+04  0.25222668405E+04 0.  0.
        1    1    3    3  502    0  0.60285083340E+03  0.96737307326E+03 -0.19649200226E+03  0.11566541822E+04  0.50400001928E-02 0. -1.
       -1    1    3    3    0  502 -0.60285083340E+03 -0.96737307326E+03  0.92717582854E+03  0.14693178034E+04  0.50400001928E-02 0.  1.
</event>
<event>
 5   0  0.1492639E-05  0.1790396E+04  0.7818609E-02  0.8711423E-01
       -1   -1    0    0    0  501  0.00000000000E+00  0.00000000000E+00  0.14520128718E+04  0.14520128718E+04  0.50400001928E-02 0. -1.
        1   -1    0    0  501    0  0.00000000000E+00  0.00000000000E+00 -0.55190960780E+03  0.55190960782E+03  0.50400001928E-02 0.  1.
    10030    2    1    2    0    0  0.00000000000E+00  0.00000000000E+00  0.90010326395E+03  0.20039224796E+04  0.17903964417E+04 0.  0.
        5    1    3    3  502    0  0.12191092746E+03 -0.71548984524E+03 -0.13643493907E+03  0.73852865583E+03  0.46999998093E+01 0.  1.
       -5    1    3    3    0  502 -0.12191092746E+03  0.71548984524E+03  0.10365382030E+04  0.12653938238E+04  0.46999998093E+01 0. -1.
</event>
<event>
 5   0  0.1492639E-05  0.2542338E+04  0.7818609E-02  0.8388056E-01
        1   -1    0    0  501    0  0.00000000000E+00  0.00000000000E+00  0.11205515593E+04  0.11205515593E+04  0.50400001928E-02 0. -1.
       -1   -1    0    0    0  501  0.00000000000E+00  0.00000000000E+00 -0.14420314429E+04  0.14420314429E+04  0.50400001928E-02 0.  1.
    10030    2    1    2    0    0  0.00000000000E+00  0.00000000000E+00 -0.32147988354E+03  0.25625830022E+04  0.25423379649E+04 0.  0.
        5    1    3    3  502    0 -0.41713895786E+03  0.11324768304E+04  0.24161265285E+03  0.12308157643E+04  0.46999998093E+01 0. -1.
       -5    1    3    3    0  502  0.41713895786E+03 -0.11324768304E+04 -0.56309253639E+03  0.13317672379E+04  0.46999998093E+01 0.  1.
</event>
<event>
 5   0  0.1429483E-05  0.2511432E+04  0.7818609E-02  0.8398924E-01
       -1   -1    0    0    0  501  0.00000000000E+00  0.00000000000E+00  0.15144145848E+04  0.15144145848E+04  0.50400001928E-02 0. -1.
        1   -1    0    0  501    0  0.00000000000E+00  0.00000000000E+00 -0.10412097363E+04  0.10412097364E+04  0.50400001928E-02 0.  1.
    10030    2    1    2    0    0  0.00000000000E+00  0.00000000000E+00  0.47320484846E+03  0.25556243212E+04  0.25114324284E+04 0.  0.
        2    1    3    3  502    0  0.24810998427E+03  0.70157145824E+03 -0.79266095362E+03  0.10872315589E+04  0.25500000920E-02 0.  1.
       -2    1    3    3    0  502 -0.24810998427E+03 -0.70157145824E+03  0.12658658021E+04  0.14683927622E+04  0.25500000920E-02 0. -1.
</event>
<event>
 5   0  0.1429483E-05  0.2291436E+04  0.7818609E-02  0.8481305E-01
       -1   -1    0    0    0  501  0.00000000000E+00  0.00000000000E+00  0.15142419599E+04  0.15142419599E+04  0.50400001928E-02 0.  1.
        1   -1    0    0  501    0  0.00000000000E+00  0.00000000000E+00 -0.86688251986E+03  0.86688251988E+03  0.50400001928E-02 0. -1.
    10030    2    1    2    0    0  0.00000000000E+00  0.00000000000E+00  0.64735944000E+03  0.23811244797E+04  0.22914361312E+04 0.  0.
        2    1    3    3  502    0 -0.59466092576E+03  0.97477234572E+03  0.22582850886E+03  0.11639593026E+04  0.25500000920E-02 0.  1.
       -2    1    3    3    0  502  0.59466092576E+03 -0.97477234572E+03  0.42153093114E+03  0.12171651772E+04  0.25500000920E-02 0. -1.
</event>
<event>
 5   0  0.1429483E-05  0.2503923E+04  0.7818609E-02  0.8401589E-01
        1   -1    0    0  501    0  0.00000000000E+00  0.00000000000E+00  0.92651968495E+03  0.92651968497E+03  0.50400001928E-02 0.  1.
       -1   -1    0    0    0  501  0.00000000000E+00  0.00000000000E+00 -0.16917147546E+04  0.16917147546E+04  0.50400001928E-02 0. -1.
    10030    2    1    2    0    0  0.00000000000E+00  0.00000000000E+00 -0.76519506968E+03  0.26182344396E+04  0.25039225400E+04 0.  0.
        2    1    3    3  502    0 -0.24810567810E+03  0.10080880412E+04  0.34906763254E+03  0.10952835882E+04  0.25500000920E-02 0.  1.
       -2    1    3    3    0  502  0.24810567810E+03 -0.10080880412E+04 -0.11142627022E+04  0.15229508515E+04  0.25500000920E-02 0. -1.
</event>
<event>
 5   0  0.3579097E-05  0.2514383E+04  0.7818609E-02  0.8397880E-01
       -2   -1    0    0    0  501  0.00000000000E+00  0.00000000000E+00  0.72752953465E+03  0.72752953465E+03  0.25500000920E-02 0. -1.
        2   -1    0    0  501    0  0.00000000000E+00  0.00000000000E+00 -0.21724616409E+04  0.21724616409E+04  0.25500000920E-02 0.  1.
    10030    2    1    2    0    0  0.00000000000E+00  0.00000000000E+00 -0.14449321063E+04  0.28999911756E+04  0.25143826333E+04 0.  0.
        5    1    3    3  502    0  0.57177052318E+03 -0.10349365571E+04 -0.12151722973E+04  0.16954884283E+04  0.46999998093E+01 0.  1.
       -5    1    3    3    0  502 -0.57177052318E+03  0.10349365571E+04 -0.22975980901E+03  0.12045027473E+04  0.46999998093E+01 0. -1.
</event>
<event>
 5   0  0.1456876E-05  0.1865939E+04  0.7818609E-02  0.8671999E-01
        1   -1    0    0  501    0  0.00000000000E+00  0.00000000000E+00  0.56322163945E+03  0.56322163947E+03  0.50400001928E-02 0. -1.
       -1   -1    0    0    0  501  0.00000000000E+00  0.00000000000E+00 -0.15454521649E+04  0.15454521649E+04  0.50400001928E-02 0.  1.
    10030    2    1    2    0    0  0.00000000000E+00  0.00000000000E+00 -0.98223052546E+03  0.21086738044E+04  0.18659390151E+04 0.  0.
        1    1    3    3  502    0  0.44464071091E+03  0.45695886051E+03 -0.12608326980E+04  0.14128750314E+04  0.50400001928E-02 0.  1.
       -1    1    3    3    0  502 -0.44464071091E+03 -0.45695886051E+03  0.27860217249E+03  0.69579877302E+03  0.50400001928E-02 0. -1.
</event>
<event>
 5   0  0.3579097E-05  0.2479732E+04  0.7818609E-02  0.8410242E-01
       -2   -1    0    0    0  501  0.00000000000E+00  0.00000000000E+00  0.71569689031E+03  0.71569689032E+03  0.25500000920E-02 0.  1.
        2   -1    0    0  501    0  0.00000000000E+00  0.00000000000E+00 -0.21479319355E+04  0.21479319355E+04  0.25500000920E-02 0. -1.
    10030    2    1    2    0    0  0.00000000000E+00  0.00000000000E+00 -0.14322350452E+04  0.28636288258E+04  0.24797324104E+04 0.  0.
        5    1    3    3  502    0 -0.44291978610E+03  0.14114012336E+02  0.62110929658E+03  0.76300458095E+03  0.46999998093E+01 0.  1.
       -5    1    3    3    0  502  0.44291978610E+03 -0.14114012336E+02 -0.20533443418E+04  0.21006242449E+04  0.46999998093E+01 0. -1.
</event>
<event>
 5   0  0.1502886E-05  0.2519966E+04  0.7818609E-02  0.8395907E-01
       -1   -1    0    0    0  501  0.00000000000E+00  0.00000000000E+00  0.74318717701E+03  0.74318717703E+03  0.50400001928E-02 0.  1.
        1   -1    0    0  501    0  0.00000000000E+00  0.00000000000E+00 -0.21361473208E+04  0.21361473208E+04  0.50400001928E-02 0. -1.
    10030    2    1    2    0    0  0.00000000000E+00  0.00000000000E+00 -0.13929601438E+04  0.28793344978E+04  0.25199661086E+04 0.  0.
        4    1    3    3  502    0  0.87652117505E+03 -0.62656476331E+03  0.49882831592E+02  0.10785929180E+04  0.12699999809E+01 0.  1.
       -4    1    3    3    0  502 -0.87652117505E+03  0.62656476331E+03 -0.14428429754E+04  0.18007415799E+04  0.12699999809E+01 0. -1.
</event>
<event>
 5   0  0.3578670E-05  0.2499918E+04  0.7818609E-02  0.8403015E-01
       -2   -1    0    0    0  501  0.00000000000E+00  0.00000000000E+00  0.58254606216E+03  0.58254606216E+03  0.25500000920E-02 0.  1.
        2   -1    0    0  501    0  0.00000000000E+00  0.00000000000E+00 -0.26820160839E+04  0.26820160839E+04  0.25500000920E-02 0. -1.
    10030    2    1    2    0    0  0.00000000000E+00  0.00000000000E+00 -0.20994700217E+04  0.32645621461E+04  0.24999183253E+04 0.  0.
        4    1    3    3  502    0 -0.23499015126E+03 -0.12040543680E+04 -0.73679235832E+03  0.14310247672E+04  0.12699999809E+01 0.  1.
       -4    1    3    3    0  502  0.23499015126E+03  0.12040543680E+04 -0.13626776634E+04  0.18335373788E+04  0.12699999809E+01 0. -1.
</event>
<event>
 5   0  0.3581449E-05  0.2469138E+04  0.7818609E-02  0.8414064E-01
       -2   -1    0    0    0  501  0.00000000000E+00  0.00000000000E+00  0.84251427964E+03  0.84251427964E+03  0.25500000920E-02 0.  1.
        2   -1    0    0  501    0  0.00000000000E+00  0.00000000000E+00 -0.18090619395E+04  0.18090619395E+04  0.25500000920E-02 0. -1.
    10030    2    1    2    0    0  0.00000000000E+00  0.00000000000E+00 -0.96654765989E+03  0.26515762192E+04  0.24691379199E+04 0.  0.
        1    1    3    3  502    0  0.11212725336E+04  0.38957357182E+03 -0.11887792317E+03  0.11929591875E+04  0.50400001928E-02 0.  1.
       -1    1    3    3    0  502 -0.11212725336E+04 -0.38957357182E+03 -0.84766973672E+03  0.14586170317E+04  0.50400001928E-02 0. -1.
</event>
<event>
 5   0  0.1421242E-05  0.2509202E+04  0.7818609E-02  0.8399715E-01
       -1   -1    0    0    0  501  0.00000000000E+00  0.00000000000E+00  0.17437846020E+04  0.17437846020E+04  0.50400001928E-02 0. -1.
        1   -1    0    0  501    0  0.00000000000E+00  0.00000000000E+00 -0.90264784662E+03  0.90264784664E+03  0.50400001928E-02 0.  1.
    10030    2    1    2    0    0  0.00000000000E+00  0.00000000000E+00  0.84113675539E+03  0.26464324487E+04  0.25092017982E+04 0.  0.
        3    1    3    3  502    0 -0.12271607473E+04 -0.13064885726E+03  0.18231375528E+03  0.12474898554E+04  0.10100000352E+00 0.  1.
       -3    1    3    3    0  502  0.12271607473E+04  0.13064885726E+03  0.65882300011E+03  0.13989425933E+04  0.10100000352E+00 0. -1.
</event>
<event>
 5   0  0.3650620E-05  0.2522082E+04  0.7818609E-02  0.8395161E-01
       -2   -1    0    0    0  501  0.00000000000E+00  0.00000000000E+00  0.87558880166E+03  0.87558880166E+03  0.25500000920E-02 0. -1.
        2   -1    0    0  501    0  0.00000000000E+00  0.00000000000E+00 -0.18161775833E+04  0.18161775833E+04  0.25500000920E-02 0.  1.
    10030    2    1    2    0    0  0.00000000000E+00  0.00000000000E+00 -0.94058878161E+03  0.26917663849E+04  0.25220822776E+04 0.  0.
        3    1    3    3  502    0  0.58333009097E+03  0.76029954036E+03  0.40454621980E+03  0.10401860604E+04  0.10100000352E+00 0. -1.
       -3    1    3    3    0  502 -0.58333009097E+03 -0.76029954036E+03 -0.13451350014E+04  0.16515803245E+04  0.10100000352E+00 0.  1.
</event>
<event>
 5   0  0.1456876E-05  0.2400347E+04  0.7818609E-02  0.8439374E-01
       -1   -1    0    0    0  501  0.00000000000E+00  0.00000000000E+00  0.19254798482E+04  0.19254798482E+04  0.50400001928E-02 0. -1.
        1   -1    0    0  501    0  0.00000000000E+00  0.00000000000E+00 -0.74808180522E+03  0.74808180523E+03  0.50400001928E-02 0.  1.
    10030    2    1    2    0    0  0.00000000000E+00  0.00000000000E+00  0.11773980429E+04  0.26735616534E+04  0.24003470089E+04 0.  0.
        1    1    3    3  502    0 -0.15970281331E+03 -0.11816766742E+04  0.43699122184E+03  0.12699708969E+04  0.50400001928E-02 0. -1.
       -1    1    3    3    0  502  0.15970281331E+03  0.11816766742E+04  0.74040682110E+03  0.14035907565E+04  0.50400001928E-02 0.  1.
</event>
<event>
 5   0  0.3704241E-05  0.2507757E+04  0.7818609E-02  0.8400227E-01
        2   -1    0    0  501    0  0.00000000000E+00  0.00000000000E+00  0.13789334645E+04  0.13789334645E+04  0.25500000920E-02 0. -1.
       -2   -1    0    0    0  501  0.00000000000E+00  0.00000000000E+00 -0.11401646986E+04  0.11401646986E+04  0.25500000920E-02 0.  1.
    10030    2    1    2    0    0  0.00000000000E+00  0.00000000000E+00  0.23876876589E+03  0.25190981632E+04  0.25077569723E+04 0.  0.
        2    1    3    3  502    0 -0.68756921374E+03 -0.49912758112E+02 -0.93271492069E+03  0.11598275003E+04  0.25500000920E-02 0.  1.
       -2    1    3    3    0  502  0.68756921374E+03  0.49912758112E+02  0.11714836866E+04  0.13592706629E+04  0.25500000920E-02 0. -1.
</event>
<event>
 5   0  0.1502886E-05  0.2486293E+04  0.7818609E-02  0.8407885E-01
       -1   -1    0    0    0  501  0.00000000000E+00  0.00000000000E+00  0.10974289367E+04  0.10974289367E+04  0.50400001928E-02 0.  1.
        1   -1    0    0  501    0  0.00000000000E+00  0.00000000000E+00 -0.14082127523E+04  0.14082127523E+04  0.50400001928E-02 0. -1.
    10030    2    1    2    0    0  0.00000000000E+00  0.00000000000E+00 -0.31078381563E+03  0.25056416890E+04  0.24862931633E+04 0.  0.
        4    1    3    3  502    0  0.67727348555E+03  0.12675466244E+03  0.88738046722E+03  0.11234820093E+04  0.12699999809E+01 0.  1.
       -4    1    3    3    0  502 -0.67727348555E+03 -0.12675466244E+03 -0.11981642828E+04  0.13821596797E+04  0.12699999809E+01 0. -1.
</event>
<event>
 5   0  0.1456876E-05  0.2276886E+04  0.7818609E-02  0.8487091E-01
       -1   -1    0    0    0  501  0.00000000000E+00  0.00000000000E+00  0.98618450139E+03  0.98618450140E+03  0.50400001928E-02 0.  1.
        1   -1    0    0  501    0  0.00000000000E+00  0.00000000000E+00 -0.13142092929E+04  0.13142092929E+04  0.50400001928E-02 0. -1.
    10030    2    1    2    0    0  0.00000000000E+00  0.00000000000E+00 -0.32802479152E+03  0.23003937943E+04  0.22768863268E+04 0.  0.
        1    1    3    3  502    0 -0.78097558648E+03 -0.29421906070E+02  0.67234114236E+03  0.10309370141E+04  0.50400001928E-02 0.  1.
       -1    1    3    3    0  502  0.78097558648E+03  0.29421906070E+02 -0.10003659339E+04  0.12694567803E+04  0.50400001928E-02 0. -1.
</event>
<event>
 5   0  0.1429483E-05  0.2538260E+04  0.7818609E-02  0.8389480E-01
        1   -1    0    0  501    0  0.00000000000E+00  0.00000000000E+00  0.31524425268E+04  0.31524425268E+04  0.50400001928E-02 0. -1.
       -1   -1    0    0    0  501  0.00000000000E+00  0.00000000000E+00 -0.51093443217E+03  0.51093443219E+03  0.50400001928E-02 0.  1.
    10030    2    1    2    0    0  0.00000000000E+00  0.00000000000E+00  0.26415080946E+04  0.36633769589E+04  0.25382603747E+04 0.  0.
        2    1    3    3  502    0  0.81819860236E+03 -0.69637830568E+03  0.34583052738E+03  0.11287118548E+04  0.25500000920E-02 0.  1.
       -2    1    3    3    0  502 -0.81819860236E+03  0.69637830568E+03  0.22956775672E+04  0.25346651041E+04  0.25500000920E-02 0. -1.
</event>
<event>
 5   0  0.3704241E-05  0.2480876E+04  0.7818609E-02  0.8409830E-01
        2   -1    0    0  501    0  0.00000000000E+00  0.00000000000E+00  0.68029031855E+03  0.68029031856E+03  0.25500000920E-02 0.  1.
       -2   -1    0    0    0  501  0.00000000000E+00  0.00000000000E+00 -0.22618090890E+04  0.22618090890E+04  0.25500000920E-02 0. -1.
    10030    2    1    2    0    0  0.00000000000E+00  0.00000000000E+00 -0.15815187705E+04  0.29420994076E+04  0.24808763175E+04 0.  0.
        2    1    3    3  502    0  0.12131258997E+04  0.17484596793E+03 -0.56437370703E+03  0.13493566031E+04  0.25500000920E-02 0.  1.
       -2    1    3    3    0  502 -0.12131258997E+04 -0.17484596793E+03 -0.10171450634E+04  0.15927428045E+04  0.25500000920E-02 0. -1.
</event>
<event>
 5   0  0.3581449E-05  0.2498568E+04  0.7818609E-02  0.8403496E-01
       -2   -1    0    0    0  501  0.00000000000E+00  0.00000000000E+00  0.68923256499E+03  0.68923256499E+03  0.25500000920E-02 0.  1.
        2   -1    0    0  501    0  0.00000000000E+00  0.00000000000E+00 -0.22644181932E+04  0.22644181932E+04  0.25500000920E-02 0. -1.
    10030    2    1    2    0    0  0.00000000000E+00  0.00000000000E+00 -0.15751856282E+04  0.29536507582E+04  0.24985681976E+04 0.  0.
        1    1    3    3  502    0 -0.10107047618E+04  0.29519392680E+02 -0.16549266242E+04  0.19393755803E+04  0.50400001928E-02 0. -1.
       -1    1    3    3    0  502  0.10107047618E+04 -0.29519392680E+02  0.79740995961E+02  0.10142751779E+04  0.50400001928E-02 0.  1.
</event>
<event>
 5   0  0.1429483E-05  0.2565215E+04  0.7818609E-02  0.8380114E-01
       -1   -1    0    0    0  501  0.00000000000E+00  0.00000000000E+00  0.16007623582E+04  0.16007623582E+04  0.50400001928E-02 0.  1.
        1   -1    0    0  501    0  0.00000000000E+00  0.00000000000E+00 -0.10276866387E+04  0.10276866387E+04  0.50400001928E-02 0. -1.
    10030    2    1    2    0    0  0.00000000000E+00  0.00000000000E+00  0.57307571944E+03  0.26284489969E+04  0.25652150688E+04 0.  0.
        2    1    3    3  502    0 -0.74509060465E+03 -0.68985289211E+02  0.13539282345E+04  0.15469455852E+04  0.25500000920E-02 0.  1.
       -2    1    3    3    0  502  0.74509060465E+03  0.68985289211E+02 -0.78085251509E+03  0.10815034117E+04  0.25500000920E-02 0. -1.
</event>
<event>
 5   0  0.3581449E-05  0.2332852E+04  0.7818609E-02  0.8465080E-01
       -2   -1    0    0    0  501  0.00000000000E+00  0.00000000000E+00  0.10755779908E+04  0.10755779908E+04  0.25500000920E-02 0. -1.
        2   -1    0    0  501    0  0.00000000000E+00  0.00000000000E+00 -0.12649472392E+04  0.12649472392E+04  0.25500000920E-02 0.  1.
    10030    2    1    2    0    0  0.00000000000E+00  0.00000000000E+00 -0.18936924840E+03  0.23405252300E+04  0.23328518255E+04 0.  0.
        1    1    3    3  502    0 -0.10172032056E+04 -0.22028938315E+03  0.43365901477E+03  0.11275149289E+04  0.50400001928E-02 0. -1.
       -1    1    3    3    0  502  0.10172032056E+04  0.22028938315E+03 -0.62302826316E+03  0.12130103011E+04  0.50400001928E-02 0.  1.
</event>
<event>
 5   0  0.1456876E-05  0.2503140E+04  0.7818609E-02  0.8401868E-01
       -1   -1    0    0    0  501  0.00000000000E+00  0.00000000000E+00  0.12683571076E+04  0.12683571076E+04  0.50400001928E-02 0. -1.
        1   -1    0    0  501    0  0.00000000000E+00  0.00000000000E+00 -0.12350055134E+04  0.12350055134E+04  0.50400001928E-02 0.  1.
    10030    2    1    2    0    0  0.00000000000E+00  0.00000000000E+00  0.33351594189E+02  0.25033626210E+04  0.25031404442E+04 0.  0.
        1    1    3    3  502    0 -0.37922691089E+02  0.10226434136E+04  0.73728838981E+03  0.12612818288E+04  0.50400001928E-02 0. -1.
       -1    1    3    3    0  502  0.37922691089E+02 -0.10226434136E+04 -0.70393679563E+03  0.12420807921E+04  0.50400001928E-02 0.  1.
</event>
<event>
 5   0  0.3579097E-05  0.2524276E+04  0.7818609E-02  0.8394388E-01
       -2   -1    0    0    0  501  0.00000000000E+00  0.00000000000E+00  0.86523384579E+03  0.86523384579E+03  0.25500000920E-02 0.  1.
        2   -1    0    0  501    0  0.00000000000E+00  0.00000000000E+00 -0.18411113735E+04  0.18411113735E+04  0.25500000920E-02 0. -1.
    10030    2    1    2    0    0  0.00000000000E+00  0.00000000000E+00 -0.97587752775E+03  0.27063452193E+04  0.25242756381E+04 0.  0.
        5    1    3    3  502    0 -0.63984965374E+03 -0.79471135847E+03 -0.12844912688E+04  0.16404004488E+04  0.46999998093E+01 0. -1.
       -5    1    3    3    0  502  0.63984965374E+03  0.79471135847E+03  0.30861374108E+03  0.10659447705E+04  0.46999998093E+01 0.  1.
</event>
<event>
 5   0  0.3578670E-05  0.2459112E+04  0.7818609E-02  0.8417699E-01
        2   -1    0    0  501    0  0.00000000000E+00  0.00000000000E+00  0.12603452367E+04  0.12603452367E+04  0.25500000920E-02 0.  1.
       -2   -1    0    0    0  501  0.00000000000E+00  0.00000000000E+00 -0.11995185990E+04  0.11995185990E+04  0.25500000920E-02 0. -1.
    10030    2    1    2    0    0  0.00000000000E+00  0.00000000000E+00  0.60826637752E+02  0.24598638357E+04  0.24591116710E+04 0.  0.
        4    1    3    3  502    0 -0.12709725217E+03 -0.11968003913E+04  0.28212703190E+03  0.12361562050E+04  0.12699999809E+01 0.  1.
       -4    1    3    3    0  502  0.12709725217E+03  0.11968003913E+04 -0.22130039414E+03  0.12237076307E+04  0.12699999809E+01 0. -1.
</event>
<event>
 5   0  0.3578670E-05  0.2216663E+04  0.7818609E-02  0.8511525E-01
       -2   -1    0    0    0  501  0.00000000000E+00  0.00000000000E+00  0.70198524000E+03  0.70198524000E+03  0.25500000920E-02 0. -1.
        2   -1    0    0  501    0  0.00000000000E+00  0.00000000000E+00 -0.17498919774E+04  0.17498919774E+04  0.25500000920E-02 0.  1.
    10030    2    1    2    0    0  0.00000000000E+00  0.00000000000E+00 -0.10479067374E+04  0.24518772174E+04  0.22166626624E+04 0.  0.
        4    1    3    3  502    0  0.10627793200E+03  0.10717481866E+04 -0.23454585882E+03  0.11022488589E+04  0.12699999809E+01 0.  1.
       -4    1    3    3    0  502 -0.10627793200E+03 -0.10717481866E+04 -0.81336087860E+03  0.13496283585E+04  0.12699999809E+01 0. -1.
</event>
<event>
 5   0  0.1429483E-05  0.2523334E+04  0.7818609E-02  0.8394720E-01
        1   -1    0    0  501    0  0.00000000000E+00  0.00000000000E+00  0.14640519397E+04  0.14640519397E+04  0.50400001928E-02 0.  1.
       -1   -1    0    0    0  501  0.00000000000E+00  0.00000000000E+00 -0.10872590008E+04  0.10872590008E+04  0.50400001928E-02 0. -1.
    10030    2    1    2    0    0  0.00000000000E+00  0.00000000000E+00  0.37679293884E+03  0.25513109405E+04  0.25233340239E+04 0.  0.
        2    1    3    3  502    0  0.84591906435E+03 -0.81800601692E+03  0.64851422192E+03  0.13436084263E+04  0.25500000920E-02 0.  1.
       -2    1    3    3    0  502 -0.84591906435E+03  0.81800601692E+03 -0.27172128308E+03  0.12077025142E+04  0.25500000920E-02 0. -1.
</event>
<event>
 5   0  0.1421242E-05  0.2412599E+04  0.7818609E-02  0.8434802E-01
        1   -1    0    0  501    0  0.00000000000E+00  0.00000000000E+00  0.11866219423E+04  0.11866219423E+04  0.50400001928E-02 0.  1.
       -1   -1    0    0    0  501  0.00000000000E+00  0.00000000000E+00 -0.12263036226E+04  0.12263036226E+04  0.50400001928E-02 0. -1.
    10030    2    1    2    0    0  0.00000000000E+00  0.00000000000E+00 -0.39681680286E+02  0.24129255649E+04  0.24125992510E+04 0.  0.
        3    1    3    3  502    0 -0.92477833239E+03  0.30195185862E+03  0.69353600468E+03  0.11947309693E+04  0.10100000352E+00 0.  1.
       -3    1    3    3    0  502  0.92477833239E+03 -0.30195185862E+03 -0.73321768496E+03  0.12181945956E+04  0.10100000352E+00 0. -1.
</event>
<event>
 5   0  0.1492639E-05  0.2499249E+04  0.7818609E-02  0.8403253E-01
       -1   -1    0    0    0  501  0.00000000000E+00  0.00000000000E+00  0.86037991339E+03  0.86037991341E+03  0.50400001928E-02 0. -1.
        1   -1    0    0  501    0  0.00000000000E+00  0.00000000000E+00 -0.18149676429E+04  0.18149676429E+04  0.50400001928E-02 0.  1.
    10030    2    1    2    0    0  0.00000000000E+00  0.00000000000E+00 -0.95458772952E+03  0.26753475563E+04  0.24992492500E+04 0.  0.
        5    1    3    3  502    0 -0.85665806846E+03  0.19015505065E+02  0.49636334152E+03  0.99026425387E+03  0.46999998093E+01 0. -1.
       -5    1    3    3    0  502  0.85665806846E+03 -0.19015505065E+02 -0.14509510710E+04  0.16850833025E+04  0.46999998093E+01 0.  1.
</event>
<event>
 5   0  0.3578670E-05  0.2518516E+04  0.7818609E-02  0.8396419E-01
        2   -1    0    0  501    0  0.00000000000E+00  0.00000000000E+00  0.13079731102E+04  0.13079731102E+04  0.25500000920E-02 0.  1.
       -2   -1    0    0    0  501  0.00000000000E+00  0.00000000000E+00 -0.12123574384E+04  0.12123574384E+04  0.25500000920E-02 0. -1.
    10030    2    1    2    0    0  0.00000000000E+00  0.00000000000E+00  0.95615671757E+02  0.25203305486E+04  0.25185161738E+04 0.  0.
        4    1    3    3  502    0 -0.12386305482E+04  0.12896927291E+02  0.27459269999E+03  0.12687689819E+04  0.12699999809E+01 0.  1.
       -4    1    3    3    0  502  0.12386305482E+04 -0.12896927291E+02 -0.17897702823E+03  0.12515615667E+04  0.12699999809E+01 0. -1.
</event>
<event>
 5   0  0.3579097E-05  0.2550424E+04  0.7818609E-02  0.8385239E-01
        2   -1    0    0  501    0  0.00000000000E+00  0.00000000000E+00  0.14350384769E+04  0.14350384769E+04  0.25500000920E-02 0.  1.
       -2   -1    0    0    0  501  0.00000000000E+00  0.00000000000E+00 -0.11331861004E+04  0.11331861004E+04  0.25500000920E-02 0. -1.
    10030    2    1    2    0    0  0.00000000000E+00  0.00000000000E+00  0.30185237651E+03  0.25682245773E+04  0.25504240084E+04 0.  0.
        5    1    3    3  502    0  0.11320003874E+03 -0.11819773127E+04  0.61920839258E+03  0.13391511266E+04  0.46999998093E+01 0.  1.
       -5    1    3    3    0  502 -0.11320003874E+03  0.11819773127E+04 -0.31735601607E+03  0.12290734507E+04  0.46999998093E+01 0. -1.
</event>
<event>
 5   0  0.3581449E-05  0.2396510E+04  0.7818609E-02  0.8440811E-01
        2   -1    0    0  501    0  0.00000000000E+00  0.00000000000E+00  0.21357194884E+04  0.21357194884E+04  0.25500000920E-02 0. -1.
       -2   -1    0    0    0  501  0.00000000000E+00  0.00000000000E+00 -0.67228626402E+03  0.67228626402E+03  0.25500000920E-02 0.  1.
    10030    2    1    2    0    0  0.00000000000E+00  0.00000000000E+00  0.14634332244E+04  0.28080057524E+04  0.23965098588E+04 0.  0.
        1    1    3    3  502    0 -0.40122750325E+03  0.92838996446E+03  0.14846447746E+04  0.17964023887E+04  0.50400001928E-02 0. -1.
       -1    1    3    3    0  502  0.40122750325E+03 -0.92838996446E+03 -0.21211550256E+02  0.10116033637E+04  0.50400001928E-02 0.  1.
</event>
<event>
 5   0  0.3581449E-05  0.2568789E+04  0.7818609E-02  0.8378881E-01
        2   -1    0    0  501    0  0.00000000000E+00  0.00000000000E+00  0.20272347441E+04  0.20272347441E+04  0.25500000920E-02 0. -1.
       -2   -1    0    0    0  501  0.00000000000E+00  0.00000000000E+00 -0.81375364742E+03  0.81375364742E+03  0.25500000920E-02 0.  1.
    10030    2    1    2    0    0  0.00000000000E+00  0.00000000000E+00  0.12134810967E+04  0.28409883915E+04  0.25687893391E+04 0.  0.
        1    1    3    3  502    0  0.82598708821E+03  0.49544282146E+03  0.15464529380E+04  0.18218767655E+04  0.50400001928E-02 0. -1.
       -1    1    3    3    0  502 -0.82598708821E+03 -0.49544282146E+03 -0.33297184128E+03  0.10191116260E+04  0.50400001928E-02 0.  1.
</event>
<event>
 5   0  0.1201438E-05  0.2494116E+04  0.7818609E-02  0.8405085E-01
        3   -1    0    0  501    0  0.00000000000E+00  0.00000000000E+00  0.10489768840E+04  0.10489768889E+04  0.10100000352E+00 0.  1.
       -3   -1    0    0    0  501  0.00000000000E+00  0.00000000000E+00 -0.14825430945E+04  0.14825430979E+04  0.10100000352E+00 0. -1.
    10030    2    1    2    0    0  0.00000000000E+00  0.00000000000E+00 -0.43356621043E+03  0.25315199868E+04  0.24941158323E+04 0.  0.
        3    1    3    3  502    0 -0.71171859966E+03  0.74699421219E+03  0.49415667326E+03  0.11439993645E+04  0.10100000352E+00 0.  1.
       -3    1    3    3    0  502  0.71171859966E+03 -0.74699421219E+03 -0.92772288368E+03  0.13875206223E+04  0.10100000352E+00 0. -1.
</event>
<event>
 5   0  0.1201438E-05  0.2459944E+04  0.7818609E-02  0.8417396E-01
        3   -1    0    0  501    0  0.00000000000E+00  0.00000000000E+00  0.75404478008E+03  0.75404478685E+03  0.10100000352E+00 0. -1.
       -3   -1    0    0    0  501  0.00000000000E+00  0.00000000000E+00 -0.20062887043E+04  0.20062887068E+04  0.10100000352E+00 0.  1.
    10030    2    1    2    0    0  0.00000000000E+00  0.00000000000E+00 -0.12522439242E+04  0.27603334936E+04  0.24599443389E+04 0.  0.
        3    1    3    3  502    0  0.87789916634E+03 -0.83768485030E+03 -0.40055599870E+03  0.12778372248E+04  0.10100000352E+00 0. -1.
       -3    1    3    3    0  502 -0.87789916634E+03  0.83768485030E+03 -0.85168792547E+03  0.14824962689E+04  0.10100000352E+00 0.  1.
</event>
<event>
 5   0  0.3578670E-05  0.2488572E+04  0.7818609E-02  0.8407068E-01
       -2   -1    0    0    0  501  0.00000000000E+00  0.00000000000E+00  0.11132359318E+04  0.11132359318E+04  0.25500000920E-02 0.  1.
        2   -1    0    0  501    0  0.00000000000E+00  0.00000000000E+00 -0.13907629113E+04  0.13907629114E+04  0.25500000920E-02 0. -1.
    10030    2    1    2    0    0  0.00000000000E+00  0.00000000000E+00 -0.27752697958E+03  0.25039988431E+04  0.24885716751E+04 0.  0.
        4    1    3    3  502    0  0.33392834516E+03 -0.90437737650E+03 -0.93030341753E+03  0.13397285697E+04  0.12699999809E+01 0. -1.
       -4    1    3    3    0  502 -0.33392834516E+03  0.90437737650E+03  0.65277643795E+03  0.11642702735E+04  0.12699999809E+01 0.  1.
</event>
<event>
 5   0  0.1502886E-05  0.2446700E+04  0.7818609E-02  0.8422224E-01
        1   -1    0    0  501    0  0.00000000000E+00  0.00000000000E+00  0.19157599896E+04  0.19157599896E+04  0.50400001928E-02 0. -1.
       -1   -1    0    0    0  501  0.00000000000E+00  0.00000000000E+00 -0.78119667652E+03  0.78119667654E+03  0.50400001928E-02 0.  1.
    10030    2    1    2    0    0  0.00000000000E+00  0.00000000000E+00  0.11345633131E+04  0.26969566662E+04  0.24467000935E+04 0.  0.
        4    1    3    3  502    0 -0.63264243887E+03  0.10101460109E+04  0.87106482644E+03  0.14762746911E+04  0.12699999809E+01 0. -1.
       -4    1    3    3    0  502  0.63264243887E+03 -0.10101460109E+04  0.26349848667E+03  0.12206819751E+04  0.12699999809E+01 0.  1.
</event>
<event>
 5   0  0.3578670E-05  0.2502408E+04  0.7818609E-02  0.8402128E-01
        2   -1    0    0  501    0  0.00000000000E+00  0.00000000000E+00  0.21433771903E+04  0.21433771903E+04  0.25500000920E-02 0.  1.
       -2   -1    0    0    0  501  0.00000000000E+00  0.00000000000E+00 -0.73039466955E+03  0.73039466955E+03  0.25500000920E-02 0. -1.
    10030    2    1    2    0    0  0.00000000000E+00  0.00000000000E+00  0.14129825207E+04  0.28737718598E+04  0.25024078601E+04 0.  0.
        4    1    3    3  502    0  0.43879799424E+03 -0.36554553022E+03  0.19849592380E+04  0.20654859002E+04  0.12699999809E+01 0.  1.
       -4    1    3    3    0  502 -0.43879799424E+03  0.36554553022E+03 -0.57197671733E+03  0.80828595960E+03  0.12699999809E+01 0. -1.
</event>
<event>
 5   0  0.1421242E-05  0.2174936E+04  0.7818609E-02  0.8528933E-01
       -1   -1    0    0    0  501  0.00000000000E+00  0.00000000000E+00  0.83535371707E+03  0.83535371708E+03  0.50400001928E-02 0. -1.
        1   -1    0    0  501    0  0.00000000000E+00  0.00000000000E+00 -0.14156722525E+04  0.14156722525E+04  0.50400001928E-02 0.  1.
    10030    2    1    2    0    0  0.00000000000E+00  0.00000000000E+00 -0.58031853541E+03  0.22510259696E+04  0.21749363929E+04 0.  0.
        3    1    3    3  502    0  0.64373911836E+03 -0.31017189940E+03 -0.11385819110E+04  0.13442378651E+04  0.10100000352E+00 0.  1.
       -3    1    3    3    0  502 -0.64373911836E+03  0.31017189940E+03  0.55826337559E+03  0.90678810447E+03  0.10100000352E+00 0. -1.
</event>
<event>
 5   0  0.1502886E-05  0.2496956E+04  0.7818609E-02  0.8404071E-01
       -1   -1    0    0    0  501  0.00000000000E+00  0.00000000000E+00  0.15223135685E+04  0.15223135685E+04  0.50400001928E-02 0.  1.
        1   -1    0    0  501    0  0.00000000000E+00  0.00000000000E+00 -0.10239005777E+04  0.10239005777E+04  0.50400001928E-02 0. -1.
    10030    2    1    2    0    0  0.00000000000E+00  0.00000000000E+00  0.49841299081E+03  0.25462141462E+04  0.24969563411E+04 0.  0.
        4    1    3    3  502    0  0.78656762749E+03 -0.99077250847E+02 -0.73428382516E+03  0.10805920984E+04  0.12699999809E+01 0. -1.
       -4    1    3    3    0  502 -0.78656762749E+03  0.99077250847E+02  0.12326968160E+04  0.14656220479E+04  0.12699999809E+01 0.  1.
</event>
<event>
 5   0  0.1429483E-05  0.2486882E+04  0.7818609E-02  0.8407674E-01
       -1   -1    0    0    0  501  0.00000000000E+00  0.00000000000E+00  0.10229032797E+04  0.10229032797E+04  0.50400001928E-02 0. -1.
        1   -1    0    0  501    0  0.00000000000E+00  0.00000000000E+00 -0.15115268103E+04  0.15115268103E+04  0.50400001928E-02 0.  1.
    10030    2    1    2    0    0  0.00000000000E+00  0.00000000000E+00 -0.48862353063E+03  0.25344300900E+04  0.24868821698E+04 0.  0.
        2    1    3    3  502    0  0.33508407850E+03 -0.17664914222E+03 -0.14512949842E+04  0.14999144610E+04  0.25500000920E-02 0.  1.
       -2    1    3    3    0  502 -0.33508407850E+03  0.17664914222E+03  0.96267145358E+03  0.10345156290E+04  0.25500000920E-02 0. -1.
</event>
<event>
 5   0  0.3581449E-05  0.2370779E+04  0.7818609E-02  0.8450525E-01
        2   -1    0    0  501    0  0.00000000000E+00  0.00000000000E+00  0.11223099163E+04  0.11223099163E+04  0.25500000920E-02 0.  1.
       -2   -1    0    0    0  501  0.00000000000E+00  0.00000000000E+00 -0.12520149578E+04  0.12520149578E+04  0.25500000920E-02 0. -1.
    10030    2    1    2    0    0  0.00000000000E+00  0.00000000000E+00 -0.12970504147E+03  0.23743248740E+04  0.23707794519E+04 0.  0.
        1    1    3    3  502    0  0.61362971013E+03 -0.67476081288E+03  0.69344902004E+03  0.11457378056E+04  0.50400001928E-02 0.  1.
       -1    1    3    3    0  502 -0.61362971013E+03  0.67476081288E+03 -0.82315406150E+03  0.12285870684E+04  0.50400001928E-02 0. -1.
</event>
<event>
 5   0  0.1421242E-05  0.2530088E+04  0.7818609E-02  0.8392344E-01
       -1   -1    0    0    0  501  0.00000000000E+00  0.00000000000E+00  0.18697487818E+04  0.18697487818E+04  0.50400001928E-02 0. -1.
        1   -1    0    0  501    0  0.00000000000E+00  0.00000000000E+00 -0.85590972109E+03  0.85590972111E+03  0.50400001928E-02 0.  1.
    10030    2    1    2    0    0  0.00000000000E+00  0.00000000000E+00  0.10138390607E+04  0.27256585029E+04  0.25300878707E+04 0.  0.
        3    1    3    3  502    0  0.69790175298E+03 -0.75090811677E+03  0.13054337455E+04  0.16598455141E+04  0.10100000352E+00 0. -1.
       -3    1    3    3    0  502 -0.69790175298E+03  0.75090811677E+03 -0.29159468481E+03  0.10658129888E+04  0.10100000352E+00 0.  1.
</event>
<event>
 5   0  0.3650620E-05  0.2418732E+04  0.7818609E-02  0.8432524E-01
        2   -1    0    0  501    0  0.00000000000E+00  0.00000000000E+00  0.12955808789E+04  0.12955808789E+04  0.25500000920E-02 0.  1.
       -2   -1    0    0    0  501  0.00000000000E+00  0.00000000000E+00 -0.11288880222E+04  0.11288880222E+04  0.25500000920E-02 0. -1.
    10030    2    1    2    0    0  0.00000000000E+00  0.00000000000E+00  0.16669285669E+03  0.24244689011E+04  0.24187316808E+04 0.  0.
        3    1    3    3  502    0 -0.81383887319E+03 -0.61345362135E+03 -0.56927908677E+03  0.11673635877E+04  0.10100000352E+00 0. -1.
       -3    1    3    3    0  502  0.81383887319E+03  0.61345362135E+03  0.73597194346E+03  0.12571053133E+04  0.10100000352E+00 0.  1.
</event>
<event>
 5   0  0.3704241E-05  0.2484613E+04  0.7818609E-02  0.8408488E-01
       -2   -1    0    0    0  501  0.00000000000E+00  0.00000000000E+00  0.89528031314E+03  0.89528031314E+03  0.25500000920E-02 0.  1.
        2   -1    0    0  501    0  0.00000000000E+00  0.00000000000E+00 -0.17238456088E+04  0.17238456088E+04  0.25500000920E-02 0. -1.
    10030    2    1    2    0    0  0.00000000000E+00  0.00000000000E+00 -0.82856529563E+03  0.26191259219E+04  0.24846126752E+04 0.  0.
        2    1    3    3  502    0 -0.91538872076E+03 -0.40731887617E+02  0.47001921978E+03  0.10298124410E+04  0.25500000920E-02 0.  1.
       -2    1    3    3    0  502  0.91538872076E+03  0.40731887617E+02 -0.12985845154E+04  0.15893134809E+04  0.25500000920E-02 0. -1.
</event>
<event>
 5   0  0.3578670E-05  0.2480396E+04  0.7818609E-02  0.8410003E-01
       -2   -1    0    0    0  501  0.00000000000E+00  0.00000000000E+00  0.12101675740E+04  0.12101675740E+04  0.25500000920E-02 0.  1.
        2   -1    0    0  501    0  0.00000000000E+00  0.00000000000E+00 -0.12709731526E+04  0.12709731526E+04  0.25500000920E-02 0. -1.
    10030    2    1    2    0    0  0.00000000000E+00  0.00000000000E+00 -0.60805578609E+02  0.24811407267E+04  0.24803955304E+04 0.  0.
        4    1    3    3  502    0  0.11344979982E+04 -0.48206485056E+03 -0.16688664811E+03  0.12439151877E+04  0.12699999809E+01 0. -1.
       -4    1    3    3    0  502 -0.11344979982E+04  0.48206485056E+03  0.10608106950E+03  0.12372255390E+04  0.12699999809E+01 0.  1.
</event>
<event>
 5   0  0.1502886E-05  0.2495062E+04  0.7818609E-02  0.8404747E-01
        1   -1    0    0  501    0  0.00000000000E+00  0.00000000000E+00  0.17255353550E+04  0.17255353550E+04  0.50400001928E-02 0. -1.
       -1   -1    0    0    0  501  0.00000000000E+00  0.00000000000E+00 -0.90194252611E+03  0.90194252612E+03  0.50400001928E-02 0.  1.
    10030    2    1    2    0    0  0.00000000000E+00  0.00000000000E+00  0.82359282885E+03  0.26274778811E+04  0.24950620970E+04 0.  0.
        4    1    3    3  502    0  0.62230798894E+03 -0.15552445773E+03 -0.71497839169E+03  0.96054713759E+03  0.12699999809E+01 0.  1.
       -4    1    3    3    0  502 -0.62230798894E+03  0.15552445773E+03  0.15385712205E+04  0.16669307435E+04  0.12699999809E+01 0. -1.
</event>
<event>
 5   0  0.1456876E-05  0.2437227E+04  0.7818609E-02  0.8425696E-01
        1   -1    0    0  501    0  0.00000000000E+00  0.00000000000E+00  0.15605415121E+04  0.15605415121E+04  0.50400001928E-02 0.  1.
       -1   -1    0    0    0  501  0.00000000000E+00  0.00000000000E+00 -0.95160502428E+03  0.95160502430E+03  0.50400001928E-02 0. -1.
    10030    2    1    2    0    0  0.00000000000E+00  0.00000000000E+00  0.60893648785E+03  0.25121465364E+04  0.24372272307E+04 0.  0.
        1    1    3    3  502    0 -0.90026325652E+03  0.70661486651E+03  0.73595390285E+03  0.13606640466E+04  0.50400001928E-02 0.  1.
       -1    1    3    3    0  502  0.90026325652E+03 -0.70661486651E+03 -0.12701741500E+03  0.11514824898E+04  0.50400001928E-02 0. -1.
</event>
<event>
 5   0  0.3578670E-05  0.2561560E+04  0.7818609E-02  0.8381377E-01
       -2   -1    0    0    0  501  0.00000000000E+00  0.00000000000E+00  0.76969804515E+03  0.76969804515E+03  0.25500000920E-02 0.  1.
        2   -1    0    0  501    0  0.00000000000E+00  0.00000000000E+00 -0.21312225958E+04  0.21312225958E+04  0.25500000920E-02 0. -1.
    10030    2    1    2    0    0  0.00000000000E+00  0.00000000000E+00 -0.13615245507E+04  0.29009206410E+04  0.25615603571E+04 0.  0.
        4    1    3    3  502    0  0.27701897583E+03  0.39959108948E+03 -0.20226379736E+04  0.20802592475E+04  0.12699999809E+01 0. -1.
       -4    1    3    3    0  502 -0.27701897583E+03 -0.39959108948E+03  0.66111342295E+03  0.82066139343E+03  0.12699999809E+01 0.  1.
</event>
<event>
 5   0  0.3579097E-05  0.2501110E+04  0.7818609E-02  0.8402590E-01
       -2   -1    0    0    0  501  0.00000000000E+00  0.00000000000E+00  0.58369064313E+03  0.58369064313E+03  0.25500000920E-02 0.  1.
        2   -1    0    0  501    0  0.00000000000E+00  0.00000000000E+00 -0.26793104024E+04  0.26793104024E+04  0.25500000920E-02 0. -1.
    10030    2    1    2    0    0  0.00000000000E+00  0.00000000000E+00 -0.20956197592E+04  0.32630010455E+04  0.25011104829E+04 0.  0.
        5    1    3    3  502    0  0.79253020177E+03  0.95648146188E+03 -0.12364411656E+04  0.17526464999E+04  0.46999998093E+01 0. -1.
       -5    1    3    3    0  502 -0.79253020177E+03 -0.95648146188E+03 -0.85917859364E+03  0.15103545456E+04  0.46999998093E+01 0.  1.
</event>
<event>
 5   0  0.1429483E-05  0.2490018E+04  0.7818609E-02  0.8406550E-01
        1   -1    0    0  501    0  0.00000000000E+00  0.00000000000E+00  0.14029974238E+04  0.14029974238E+04  0.50400001928E-02 0. -1.
       -1   -1    0    0    0  501  0.00000000000E+00  0.00000000000E+00 -0.11048116982E+04  0.11048116982E+04  0.50400001928E-02 0.  1.
    10030    2    1    2    0    0  0.00000000000E+00  0.00000000000E+00  0.29818572557E+03  0.25078091220E+04  0.24900184468E+04 0.  0.
        2    1    3    3  502    0 -0.23998167248E+03 -0.40153350474E+03  0.13111248181E+04  0.13920735064E+04  0.25500000920E-02 0. -1.
       -2    1    3    3    0  502  0.23998167248E+03  0.40153350474E+03 -0.10129390926E+04  0.11157356155E+04  0.25500000920E-02 0.  1.
</event>
<event>
 5   0  0.1421242E-05  0.2520671E+04  0.7818609E-02  0.8395658E-01
        1   -1    0    0  501    0  0.00000000000E+00  0.00000000000E+00  0.19009920967E+04  0.19009920967E+04  0.50400001928E-02 0.  1.
       -1   -1    0    0    0  501  0.00000000000E+00  0.00000000000E+00 -0.83558764094E+03  0.83558764096E+03  0.50400001928E-02 0. -1.
    10030    2    1    2    0    0  0.00000000000E+00  0.00000000000E+00  0.10654044558E+04  0.27365797377E+04  0.25206709437E+04 0.  0.
        3    1    3    3  502    0 -0.59621309086E+03  0.92949672745E+03  0.11921976269E+04  0.16250444326E+04  0.10100000352E+00 0.  1.
       -3    1    3    3    0  502  0.59621309086E+03 -0.92949672745E+03 -0.12679317112E+03  0.11115353051E+04  0.10100000352E+00 0. -1.
</event>
<event>
 5   0  0.3704241E-05  0.2274445E+04  0.7818609E-02  0.8488066E-01
        2   -1    0    0  501    0  0.00000000000E+00  0.00000000000E+00  0.92156576580E+03  0.92156576581E+03  0.25500000920E-02 0. -1.
       -2   -1    0    0    0  501  0.00000000000E+00  0.00000000000E+00 -0.14033448659E+04  0.14033448659E+04  0.25500000920E-02 0.  1.
    10030    2    1    2    0    0  0.00000000000E+00  0.00000000000E+00 -0.48177910009E+03  0.23249106317E+04  0.22744446232E+04 0.  0.
        2    1    3    3  502    0  0.75377361858E+02  0.30708691833E+03 -0.13575058961E+04  0.13938458953E+04  0.25500000920E-02 0.  1.
       -2    1    3    3    0  502 -0.75377361858E+02 -0.30708691833E+03  0.87572679598E+03  0.93106473636E+03  0.25500000920E-02 0. -1.
</event>
<event>
 5   0  0.3578670E-05  0.2491485E+04  0.7818609E-02  0.8406025E-01
        2   -1    0    0  501    0  0.00000000000E+00  0.00000000000E+00  0.12351528675E+04  0.12351528675E+04  0.25500000920E-02 0.  1.
       -2   -1    0    0    0  501  0.00000000000E+00  0.00000000000E+00 -0.12564233881E+04  0.12564233881E+04  0.25500000920E-02 0. -1.
    10030    2    1    2    0    0  0.00000000000E+00  0.00000000000E+00 -0.21270520510E+02  0.24915762556E+04  0.24914854610E+04 0.  0.
        4    1    3    3  502    0  0.10829706819E+04  0.28438113705E+03  0.53543885689E+03  0.12411263075E+04  0.12699999809E+01 0.  1.
       -4    1    3    3    0  502 -0.10829706819E+04 -0.28438113705E+03 -0.55670937740E+03  0.12504499481E+04  0.12699999809E+01 0. -1.
</event>
<event>
 5   0  0.1456876E-05  0.2506160E+04  0.7818609E-02  0.8400794E-01
        1   -1    0    0  501    0  0.00000000000E+00  0.00000000000E+00  0.88889871230E+03  0.88889871231E+03  0.50400001928E-02 0.  1.
       -1   -1    0    0    0  501  0.00000000000E+00  0.00000000000E+00 -0.17664665675E+04  0.17664665675E+04  0.50400001928E-02 0. -1.
    10030    2    1    2    0    0  0.00000000000E+00  0.00000000000E+00 -0.87756785519E+03  0.26553652798E+04  0.25061602959E+04 0.  0.
        1    1    3    3  502    0 -0.66360688272E+03  0.60439203317E+03 -0.13652238179E+04  0.16338604278E+04  0.50400001928E-02 0. -1.
       -1    1    3    3    0  502  0.66360688272E+03 -0.60439203317E+03  0.48765596275E+03  0.10215048520E+04  0.50400001928E-02 0.  1.
</event>
<event>
 5   0  0.1456876E-05  0.2509043E+04  0.7818609E-02  0.8399771E-01
       -1   -1    0    0    0  501  0.00000000000E+00  0.00000000000E+00  0.98879734332E+03  0.98879734333E+03  0.50400001928E-02 0. -1.
        1   -1    0    0  501    0  0.00000000000E+00  0.00000000000E+00 -0.15916545162E+04  0.15916545162E+04  0.50400001928E-02 0.  1.
    10030    2    1    2    0    0  0.00000000000E+00  0.00000000000E+00 -0.60285717291E+03  0.25804518596E+04  0.25090426518E+04 0.  0.
        1    1    3    3  502    0 -0.34162492193E+03 -0.99631643913E+02 -0.15386586077E+04  0.15792733654E+04  0.50400001928E-02 0.  1.
       -1    1    3    3    0  502  0.34162492193E+03  0.99631643913E+02  0.93580143478E+03  0.10011784941E+04  0.50400001928E-02 0. -1.
</event>
<event>
 5   0  0.3650620E-05  0.2483803E+04  0.7818609E-02  0.8408779E-01
        2   -1    0    0  501    0  0.00000000000E+00  0.00000000000E+00  0.10437134371E+04  0.10437134371E+04  0.25500000920E-02 0.  1.
       -2   -1    0    0    0  501  0.00000000000E+00  0.00000000000E+00 -0.14777225381E+04  0.14777225381E+04  0.25500000920E-02 0. -1.
    10030    2    1    2    0    0  0.00000000000E+00  0.00000000000E+00 -0.43400910097E+03  0.25214359753E+04  0.24838026245E+04 0.  0.
        3    1    3    3  502    0  0.10650767496E+04 -0.48923589256E+03  0.19979966998E+03  0.11889744150E+04  0.10100000352E+00 0.  1.
       -3    1    3    3    0  502 -0.10650767496E+04  0.48923589256E+03 -0.63380877096E+03  0.13324615603E+04  0.10100000352E+00 0. -1.
</event>
<event>
 5   0  0.1456876E-05  0.2622814E+04  0.7818609E-02  0.8360493E-01
       -1   -1    0    0    0  501  0.00000000000E+00  0.00000000000E+00  0.95719939828E+03  0.95719939829E+03  0.50400001928E-02 0. -1.
        1   -1    0    0  501    0  0.00000000000E+00  0.00000000000E+00 -0.17966877287E+04  0.17966877287E+04  0.50400001928E-02 0.  1.
    10030    2    1    2    0    0  0.00000000000E+00  0.00000000000E+00 -0.83948833039E+03  0.27538871270E+04  0.26228140710E+04 0.  0.
        1    1    3    3  502    0  0.64429414234E+03 -0.63159572109E+03  0.57953141748E+03  0.10723267975E+04  0.50400001928E-02 0. -1.
       -1    1    3    3    0  502 -0.64429414234E+03  0.63159572109E+03 -0.14190197479E+04  0.16815603295E+04  0.50400001928E-02 0.  1.
</event>
<event>
 5   0  0.1421242E-05  0.2551806E+04  0.7818609E-02  0.8384758E-01
        1   -1    0    0  501    0  0.00000000000E+00  0.00000000000E+00  0.16691240081E+04  0.16691240081E+04  0.50400001928E-02 0.  1.
       -1   -1    0    0    0  501  0.00000000000E+00  0.00000000000E+00 -0.97531915908E+03  0.97531915910E+03  0.50400001928E-02 0. -1.
    10030    2    1    2    0    0  0.00000000000E+00  0.00000000000E+00  0.69380484904E+03  0.26444431672E+04  0.25518061243E+04 0.  0.
        3    1    3    3  502    0 -0.76821423043E+03  0.35239556648E+03 -0.64361681225E+03  0.10623456831E+04  0.10100000352E+00 0. -1.
       -3    1    3    3    0  502  0.76821423043E+03 -0.35239556648E+03  0.13374216613E+04  0.15820974842E+04  0.10100000352E+00 0.  1.
</event>
<event>
 5   0  0.1456876E-05  0.2487439E+04  0.7818609E-02  0.8407474E-01
        1   -1    0    0  501    0  0.00000000000E+00  0.00000000000E+00  0.89908326866E+03  0.89908326867E+03  0.50400001928E-02 0. -1.
       -1   -1    0    0    0  501  0.00000000000E+00  0.00000000000E+00 -0.17204609181E+04  0.17204609181E+04  0.50400001928E-02 0.  1.
    10030    2    1    2    0    0  0.00000000000E+00  0.00000000000E+00 -0.82137764944E+03  0.26195441868E+04  0.24874385427E+04 0.  0.
        1    1    3    3  502    0  0.99660025436E+03 -0.55968574476E+03 -0.92701032421E+03  0.14716685568E+04  0.50400001928E-02 0.  1.
       -1    1    3    3    0  502 -0.99660025436E+03  0.55968574476E+03  0.10563267477E+03  0.11478756300E+04  0.50400001928E-02 0. -1.
</event>
<event>
 5   0  0.1421242E-05  0.2533080E+04  0.7818609E-02  0.8391295E-01
       -1   -1    0    0    0  501  0.00000000000E+00  0.00000000000E+00  0.12707973962E+04  0.12707973962E+04  0.50400001928E-02 0.  1.
        1   -1    0    0  501    0  0.00000000000E+00  0.00000000000E+00 -0.12622964747E+04  0.12622964747E+04  0.50400001928E-02 0. -1.
    10030    2    1    2    0    0  0.00000000000E+00  0.00000000000E+00  0.85009214724E+01  0.25330938709E+04  0.25330796066E+04 0.  0.
        3    1    3    3  502    0  0.93175940218E+03  0.62838116156E+03 -0.57977730986E+03  0.12645869709E+04  0.10100000352E+00 0.  1.
       -3    1    3    3    0  502 -0.93175940218E+03 -0.62838116156E+03  0.58827823133E+03  0.12685069000E+04  0.10100000352E+00 0. -1.
</event>
<event>
 5   0  0.1429483E-05  0.2501146E+04  0.7818609E-02  0.8402577E-01
        1   -1    0    0  501    0  0.00000000000E+00  0.00000000000E+00  0.12232843410E+04  0.12232843411E+04  0.50400001928E-02 0. -1.
       -1   -1    0    0    0  501  0.00000000000E+00  0.00000000000E+00 -0.12784705198E+04  0.12784705198E+04  0.50400001928E-02 0.  1.
    10030    2    1    2    0    0  0.00000000000E+00  0.00000000000E+00 -0.55186178739E+02  0.25017548608E+04  0.25011461112E+04 0.  0.
        2    1    3    3  502    0 -0.23083421957E+03  0.11344306504E+04 -0.50069407498E+03  0.12613135591E+04  0.25500000920E-02 0.  1.
       -2    1    3    3    0  502  0.23083421957E+03 -0.11344306504E+04  0.44550789624E+03  0.12404413018E+04  0.25500000920E-02 0. -1.
</event>
<event>
 5   0  0.1502886E-05  0.2649008E+04  0.7818609E-02  0.8351742E-01
        1   -1    0    0  501    0  0.00000000000E+00  0.00000000000E+00  0.15080734853E+04  0.15080734854E+04  0.50400001928E-02 0.  1.
       -1   -1    0    0    0  501  0.00000000000E+00  0.00000000000E+00 -0.11632793183E+04  0.11632793183E+04  0.50400001928E-02 0. -1.
    10030    2    1    2    0    0  0.00000000000E+00  0.00000000000E+00  0.34479416709E+03  0.26713528036E+04  0.26490078867E+04 0.  0.
        4    1    3    3  502    0 -0.12357546464E+04 -0.40715370139E+03  0.42236984455E+03  0.13679406351E+04  0.12699999809E+01 0.  1.
       -4    1    3    3    0  502  0.12357546464E+04  0.40715370139E+03 -0.77575677460E+02  0.13034121686E+04  0.12699999809E+01 0. -1.
</event>
<event>
 5   0  0.1456876E-05  0.2497530E+04  0.7818609E-02  0.8403866E-01
       -1   -1    0    0    0  501  0.00000000000E+00  0.00000000000E+00  0.74617547415E+03  0.74617547416E+03  0.50400001928E-02 0.  1.
        1   -1    0    0  501    0  0.00000000000E+00  0.00000000000E+00 -0.20898764868E+04  0.20898764868E+04  0.50400001928E-02 0. -1.
    10030    2    1    2    0    0  0.00000000000E+00  0.00000000000E+00 -0.13437010127E+04  0.28360519610E+04  0.24975304430E+04 0.  0.
        1    1    3    3  502    0  0.48912193011E+03  0.10041102317E+04 -0.37635067946E+02  0.11175392692E+04  0.50400001928E-02 0.  1.
       -1    1    3    3    0  502 -0.48912193011E+03 -0.10041102317E+04 -0.13060659447E+04  0.17185126918E+04  0.50400001928E-02 0. -1.
</event>
<event>
 5   0  0.1421242E-05  0.2513271E+04  0.7818609E-02  0.8398273E-01
        1   -1    0    0  501    0  0.00000000000E+00  0.00000000000E+00  0.15690232479E+04  0.15690232479E+04  0.50400001928E-02 0.  1.
       -1   -1    0    0    0  501  0.00000000000E+00  0.00000000000E+00 -0.10064428893E+04  0.10064428893E+04  0.50400001928E-02 0. -1.
    10030    2    1    2    0    0  0.00000000000E+00  0.00000000000E+00  0.56258035860E+03  0.25754661372E+04  0.25132706110E+04 0.  0.
        3    1    3    3  502    0 -0.11525074857E+04  0.46358600277E+03  0.47557849101E+03  0.13301730706E+04  0.10100000352E+00 0.  1.
       -3    1    3    3    0  502  0.11525074857E+04 -0.46358600277E+03  0.87001867583E+02  0.12452930666E+04  0.10100000352E+00 0. -1.
</event>
<event>
 5   0  0.3579097E-05  0.2468082E+04  0.7818609E-02  0.8414445E-01
        2   -1    0    0  501    0  0.00000000000E+00  0.00000000000E+00  0.84633700898E+03  0.84633700899E+03  0.25500000920E-02 0.  1.
       -2   -1    0    0    0  501  0.00000000000E+00  0.00000000000E+00 -0.17993508758E+04  0.17993508758E+04  0.25500000920E-02 0. -1.
    10030    2    1    2    0    0  0.00000000000E+00  0.00000000000E+00 -0.95301386684E+03  0.26456878848E+04  0.24680820394E+04 0.  0.
        5    1    3    3  502    0 -0.47557621360E+03 -0.90863296460E+03  0.25921186382E+03  0.10578277174E+04  0.46999998093E+01 0.  1.
       -5    1    3    3    0  502  0.47557621360E+03  0.90863296460E+03 -0.12122257307E+04  0.15878601674E+04  0.46999998093E+01 0. -1.
</event>
<event>
 5   0  0.3578670E-05  0.2503228E+04  0.7818609E-02  0.8401836E-01
        2   -1    0    0  501    0  0.00000000000E+00  0.00000000000E+00  0.88537100825E+03  0.88537100826E+03  0.25500000920E-02 0.  1.
       -2   -1    0    0    0  501  0.00000000000E+00  0.00000000000E+00 -0.17693576099E+04  0.17693576099E+04  0.25500000920E-02 0. -1.
    10030    2    1    2    0    0  0.00000000000E+00  0.00000000000E+00 -0.88398660167E+03  0.26547286182E+04  0.25032282605E+04 0.  0.
        4    1    3    3  502    0 -0.11524913297E+04  0.40325841648E+03 -0.15023851118E+03  0.12302141434E+04  0.12699999809E+01 0.  1.
       -4    1    3    3    0  502  0.11524913297E+04 -0.40325841648E+03 -0.73374809049E+03  0.14245144747E+04  0.12699999809E+01 0. -1.
</event>
<event>
 5   0  0.1492639E-05  0.2436560E+04  0.7818609E-02  0.8425941E-01
       -1   -1    0    0    0  501  0.00000000000E+00  0.00000000000E+00  0.92168286986E+03  0.92168286987E+03  0.50400001928E-02 0. -1.
        1   -1    0    0  501    0  0.00000000000E+00  0.00000000000E+00 -0.16103222529E+04  0.16103222529E+04  0.50400001928E-02 0.  1.
    10030    2    1    2    0    0  0.00000000000E+00  0.00000000000E+00 -0.68863938308E+03  0.25320051228E+04  0.24365602275E+04 0.  0.
        5    1    3    3  502    0  0.75104249840E+03 -0.48485979948E+03  0.51576729934E+03  0.10320813227E+04  0.46999998093E+01 0. -1.
       -5    1    3    3    0  502 -0.75104249840E+03  0.48485979948E+03 -0.12044066824E+04  0.14999238001E+04  0.46999998093E+01 0.  1.
</event>
<event>
 5   0  0.3578670E-05  0.2505790E+04  0.7818609E-02  0.8400926E-01
       -2   -1    0    0    0  501  0.00000000000E+00  0.00000000000E+00  0.90198331576E+03  0.90198331577E+03  0.25500000920E-02 0. -1.
        2   -1    0    0  501    0  0.00000000000E+00  0.00000000000E+00 -0.17403272760E+04  0.17403272760E+04  0.25500000920E-02 0.  1.
    10030    2    1    2    0    0  0.00000000000E+00  0.00000000000E+00 -0.83834396024E+03  0.26423105918E+04  0.25057902282E+04 0.  0.
        4    1    3    3  502    0  0.97880632687E+03 -0.67991166747E+03 -0.82675736214E+03  0.14504726988E+04  0.12699999809E+01 0. -1.
       -4    1    3    3    0  502 -0.97880632687E+03  0.67991166747E+03 -0.11586598098E+02  0.11918378930E+04  0.12699999809E+01 0.  1.
</event>
<event>
 5   0  0.1492639E-05  0.2705238E+04  0.7818609E-02  0.8333307E-01
        1   -1    0    0  501    0  0.00000000000E+00  0.00000000000E+00  0.20900793174E+04  0.20900793174E+04  0.50400001928E-02 0. -1.
       -1   -1    0    0    0  501  0.00000000000E+00  0.00000000000E+00 -0.87536305637E+03  0.87536305638E+03  0.50400001928E-02 0.  1.
    10030    2    1    2    0    0  0.00000000000E+00  0.00000000000E+00  0.12147162610E+04  0.29654423738E+04  0.27052380445E+04 0.  0.
        5    1    3    3  502    0  0.11837496026E+03 -0.30727019507E+03  0.20454633213E+04  0.20718035362E+04  0.46999998093E+01 0. -1.
       -5    1    3    3    0  502 -0.11837496026E+03  0.30727019507E+03 -0.83074706022E+03  0.89363883760E+03  0.46999998093E+01 0.  1.
</event>
<event>
 5   0  0.3704241E-05  0.2472152E+04  0.7818609E-02  0.8412974E-01
        2   -1    0    0  501    0  0.00000000000E+00  0.00000000000E+00  0.25628518047E+04  0.25628518047E+04  0.25500000920E-02 0.  1.
       -2   -1    0    0    0  501  0.00000000000E+00  0.00000000000E+00 -0.59616553963E+03  0.59616553964E+03  0.25500000920E-02 0. -1.
    10030    2    1    2    0    0  0.00000000000E+00  0.00000000000E+00  0.19666862651E+04  0.31590173444E+04  0.24721520416E+04 0.  0.
        2    1    3    3  502    0 -0.96052405455E+03  0.69154157235E+03  0.52787260810E+03  0.12959497274E+04  0.25500000920E-02 0. -1.
       -2    1    3    3    0  502  0.96052405455E+03 -0.69154157235E+03  0.14388136570E+04  0.18630676169E+04  0.25500000920E-02 0.  1.
</event>
<event>
 5   0  0.3581449E-05  0.2470171E+04  0.7818609E-02  0.8413690E-01
        2   -1    0    0  501    0  0.00000000000E+00  0.00000000000E+00  0.12485693976E+04  0.12485693976E+04  0.25500000920E-02 0.  1.
       -2   -1    0    0    0  501  0.00000000000E+00  0.00000000000E+00 -0.12217472675E+04  0.12217472675E+04  0.25500000920E-02 0. -1.
    10030    2    1    2    0    0  0.00000000000E+00  0.00000000000E+00  0.26822130143E+02  0.24703166651E+04  0.24701710465E+04 0.  0.
        1    1    3    3  502    0  0.90100255853E+02  0.45889049430E+03 -0.11297826101E+04  0.12227457986E+04  0.50400001928E-02 0. -1.
       -1    1    3    3    0  502 -0.90100255853E+02 -0.45889049430E+03  0.11566047402E+04  0.12475708665E+04  0.50400001928E-02 0.  1.
</event>
<event>
 5   0  0.1502886E-05  0.2502444E+04  0.7818609E-02  0.8402115E-01
       -1   -1    0    0    0  501  0.00000000000E+00  0.00000000000E+00  0.11365936555E+04  0.11365936555E+04  0.50400001928E-02 0.  1.
        1   -1    0    0  501    0  0.00000000000E+00  0.00000000000E+00 -0.13774113351E+04  0.13774113351E+04  0.50400001928E-02 0. -1.
    10030    2    1    2    0    0  0.00000000000E+00  0.00000000000E+00 -0.24081767960E+03  0.25140049906E+04  0.25024443926E+04 0.  0.
        4    1    3    3  502    0  0.29465708997E+03 -0.91206151108E+03  0.68759298865E+03  0.11796036333E+04  0.12699999809E+01 0. -1.
       -4    1    3    3    0  502 -0.29465708997E+03  0.91206151108E+03 -0.92841066825E+03  0.13344013573E+04  0.12699999809E+01 0.  1.
</event>
<event>
 5   0  0.3581449E-05  0.2458075E+04  0.7818609E-02  0.8418076E-01
        2   -1    0    0  501    0  0.00000000000E+00  0.00000000000E+00  0.17066503037E+04  0.17066503037E+04  0.25500000920E-02 0.  1.
       -2   -1    0    0    0  501  0.00000000000E+00  0.00000000000E+00 -0.88508624347E+03  0.88508624347E+03  0.25500000920E-02 0. -1.
    10030    2    1    2    0    0  0.00000000000E+00  0.00000000000E+00  0.82156406024E+03  0.25917365472E+04  0.24580746174E+04 0.  0.
        1    1    3    3  502    0  0.73125589850E+03  0.84118131755E+03  0.95683464957E+03  0.14689634933E+04  0.50400001928E-02 0.  1.
       -1    1    3    3    0  502 -0.73125589850E+03 -0.84118131755E+03 -0.13527058933E+03  0.11227730539E+04  0.50400001928E-02 0. -1.
</event>
<event>
 5   0  0.1429483E-05  0.2463856E+04  0.7818609E-02  0.8415976E-01
       -1   -1    0    0    0  501  0.00000000000E+00  0.00000000000E+00  0.69453806504E+03  0.69453806506E+03  0.50400001928E-02 0.  1.
        1   -1    0    0  501    0  0.00000000000E+00  0.00000000000E+00 -0.21851172212E+04  0.21851172212E+04  0.50400001928E-02 0. -1.
    10030    2    1    2    0    0  0.00000000000E+00  0.00000000000E+00 -0.14905791562E+04  0.28796552863E+04  0.24638563974E+04 0.  0.
        2    1    3    3  502    0 -0.78520291018E+03  0.94875274682E+03 -0.78172230288E+03  0.14586861018E+04  0.25500000920E-02 0. -1.
       -2    1    3    3    0  502  0.78520291018E+03 -0.94875274682E+03 -0.70885685327E+03  0.14209691845E+04  0.25500000920E-02 0.  1.
</event>
<event>
 5   0  0.3578670E-05  0.2356568E+04  0.7818609E-02  0.8455945E-01
       -2   -1    0    0    0  501  0.00000000000E+00  0.00000000000E+00  0.73744425468E+03  0.73744425468E+03  0.25500000920E-02 0.  1.
        2   -1    0    0  501    0  0.00000000000E+00  0.00000000000E+00 -0.18826557947E+04  0.18826557947E+04  0.25500000920E-02 0. -1.
    10030    2    1    2    0    0  0.00000000000E+00  0.00000000000E+00 -0.11452115400E+04  0.26201000494E+04  0.23565684368E+04 0.  0.
        4    1    3    3  502    0 -0.65636379988E+03 -0.39312936424E+03  0.42369928364E+03  0.87457808724E+03  0.12699999809E+01 0.  1.
       -4    1    3    3    0  502  0.65636379988E+03  0.39312936424E+03 -0.15689108237E+04  0.17455219621E+04  0.12699999809E+01 0. -1.
</event>
<event>
 5   0  0.3650620E-05  0.2487885E+04  0.7818609E-02  0.8407314E-01
       -2   -1    0    0    0  501  0.00000000000E+00  0.00000000000E+00  0.93123471699E+03  0.93123471699E+03  0.25500000920E-02 0. -1.
        2   -1    0    0  501    0  0.00000000000E+00  0.00000000000E+00 -0.16616572794E+04  0.16616572794E+04  0.25500000920E-02 0.  1.
    10030    2    1    2    0    0  0.00000000000E+00  0.00000000000E+00 -0.73042256243E+03  0.25928919964E+04  0.24878850024E+04 0.  0.
        3    1    3    3  502    0 -0.63399790633E+03 -0.82335067754E+03 -0.10778351712E+04  0.14971934912E+04  0.10100000352E+00 0.  1.
       -3    1    3    3    0  502  0.63399790633E+03  0.82335067754E+03  0.34741260880E+03  0.10956985052E+04  0.10100000352E+00 0. -1.
</event>
<event>
 5   0  0.1429483E-05  0.2500591E+04  0.7818609E-02  0.8402775E-01
        1   -1    0    0  501    0  0.00000000000E+00  0.00000000000E+00  0.15136077389E+04  0.15136077389E+04  0.50400001928E-02 0.  1.
       -1   -1    0    0    0  501  0.00000000000E+00  0.00000000000E+00 -0.10327896782E+04  0.10327896782E+04  0.50400001928E-02 0. -1.
    10030    2    1    2    0    0  0.00000000000E+00  0.00000000000E+00  0.48081806069E+03  0.25463974172E+04  0.25005906900E+04 0.  0.
        2    1    3    3  502    0 -0.97583799297E+02  0.86484302689E+03 -0.67367699933E+03  0.11005983638E+04  0.25500000920E-02 0. -1.
       -2    1    3    3    0  502  0.97583799297E+02 -0.86484302689E+03  0.11544950600E+04  0.14457990534E+04  0.25500000920E-02 0.  1.
</event>
<event>
 5   0  0.1502886E-05  0.2635430E+04  0.7818609E-02  0.8356265E-01
        1   -1    0    0  501    0  0.00000000000E+00  0.00000000000E+00  0.17926439200E+04  0.17926439200E+04  0.50400001928E-02 0. -1.
       -1   -1    0    0    0  501  0.00000000000E+00  0.00000000000E+00 -0.96860974217E+03  0.96860974218E+03  0.50400001928E-02 0.  1.
    10030    2    1    2    0    0  0.00000000000E+00  0.00000000000E+00  0.82403417784E+03  0.27612536622E+04  0.26354296539E+04 0.  0.
        4    1    3    3  502    0 -0.87568026867E+03 -0.71793247304E+03 -0.29404665783E+03  0.11699179538E+04  0.12699999809E+01 0.  1.
       -4    1    3    3    0  502  0.87568026867E+03  0.71793247304E+03  0.11180808357E+04  0.15913357084E+04  0.12699999809E+01 0. -1.
</event>
<event>
 5   0  0.1421242E-05  0.2521082E+04  0.7818609E-02  0.8395513E-01
       -1   -1    0    0    0  501  0.00000000000E+00  0.00000000000E+00  0.12102626222E+04  0.12102626222E+04  0.50400001928E-02 0.  1.
        1   -1    0    0  501    0  0.00000000000E+00  0.00000000000E+00 -0.13129086147E+04  0.13129086147E+04  0.50400001928E-02 0. -1.
    10030    2    1    2    0    0  0.00000000000E+00  0.00000000000E+00 -0.10264599252E+03  0.25231712369E+04  0.25210824839E+04 0.  0.
        3    1    3    3  502    0  0.61811300559E+02  0.79758963972E+03 -0.10262935109E+04  0.13012487276E+04  0.10100000352E+00 0. -1.
       -3    1    3    3    0  502 -0.61811300559E+02 -0.79758963972E+03  0.92364751840E+03  0.12219225093E+04  0.10100000352E+00 0.  1.
</event>
<event>
 5   0  0.1421242E-05  0.2524624E+04  0.7818609E-02  0.8394265E-01
        1   -1    0    0  501    0  0.00000000000E+00  0.00000000000E+00  0.99088526393E+03  0.99088526395E+03  0.50400001928E-02 0. -1.
       -1   -1    0    0    0  501  0.00000000000E+00  0.00000000000E+00 -0.16080892527E+04  0.16080892527E+04  0.50400001928E-02 0.  1.
    10030    2    1    2    0    0  0.00000000000E+00  0.00000000000E+00 -0.61720398876E+03  0.25989745167E+04  0.25246242838E+04 0.  0.
        3    1    3    3  502    0 -0.84512240038E+03  0.72058816869E+03  0.30902748355E+03  0.11528127238E+04  0.10100000352E+00 0. -1.
       -3    1    3    3    0  502  0.84512240038E+03 -0.72058816869E+03 -0.92623147231E+03  0.14461617928E+04  0.10100000352E+00 0.  1.
</event>
<event>
 5   0  0.3650620E-05  0.2469699E+04  0.7818609E-02  0.8413860E-01
       -2   -1    0    0    0  501  0.00000000000E+00  0.00000000000E+00  0.13495852071E+04  0.13495852071E+04  0.25500000920E-02 0. -1.
        2   -1    0    0  501    0  0.00000000000E+00  0.00000000000E+00 -0.11298685037E+04  0.11298685037E+04  0.25500000920E-02 0.  1.
    10030    2    1    2    0    0  0.00000000000E+00  0.00000000000E+00  0.21971670344E+03  0.24794537108E+04  0.24696994300E+04 0.  0.
        3    1    3    3  502    0 -0.70382410313E+03  0.72054114623E+03  0.82703674470E+03  0.13032795935E+04  0.10100000352E+00 0. -1.
       -3    1    3    3    0  502  0.70382410313E+03 -0.72054114623E+03 -0.60732004127E+03  0.11761741173E+04  0.10100000352E+00 0.  1.
</event>
<event>
 5   0  0.3579097E-05  0.2525934E+04  0.7818609E-02  0.8393804E-01
       -2   -1    0    0    0  501  0.00000000000E+00  0.00000000000E+00  0.15207898628E+04  0.15207898628E+04  0.25500000920E-02 0. -1.
        2   -1    0    0  501    0  0.00000000000E+00  0.00000000000E+00 -0.10488537415E+04  0.10488537415E+04  0.25500000920E-02 0.  1.
    10030    2    1    2    0    0  0.00000000000E+00  0.00000000000E+00  0.47193612128E+03  0.25696436042E+04  0.25259343915E+04 0.  0.
        5    1    3    3  502    0  0.75261603437E+03 -0.92705670069E+03  0.65442401946E+03  0.13616746707E+04  0.46999998093E+01 0. -1.
       -5    1    3    3    0  502 -0.75261603437E+03  0.92705670069E+03 -0.18248789819E+03  0.12079689336E+04  0.46999998093E+01 0.  1.
</event>
<event>
 5   0  0.3704241E-05  0.2449037E+04  0.7818609E-02  0.8421370E-01
       -2   -1    0    0    0  501  0.00000000000E+00  0.00000000000E+00  0.82078137576E+03  0.82078137577E+03  0.25500000920E-02 0.  1.
        2   -1    0    0  501    0  0.00000000000E+00  0.00000000000E+00 -0.18268510280E+04  0.18268510280E+04  0.25500000920E-02 0. -1.
    10030    2    1    2    0    0  0.00000000000E+00  0.00000000000E+00 -0.10060696523E+04  0.26476324038E+04  0.24490367903E+04 0.  0.
        2    1    3    3  502    0  0.47934568580E+02 -0.40456995456E+03  0.74536621408E+03  0.84943826385E+03  0.25500000920E-02 0.  1.
       -2    1    3    3    0  502 -0.47934568580E+02  0.40456995456E+03 -0.17514358664E+04  0.17981941400E+04  0.25500000920E-02 0. -1.
</event>
<event>
 5   0  0.1421242E-05  0.2433339E+04  0.7818609E-02  0.8427126E-01
       -1   -1    0    0    0  501  0.00000000000E+00  0.00000000000E+00  0.97135255645E+03  0.97135255646E+03  0.50400001928E-02 0. -1.
        1   -1    0    0  501    0  0.00000000000E+00  0.00000000000E+00 -0.15239418112E+04  0.15239418112E+04  0.50400001928E-02 0.  1.
    10030    2    1    2    0    0  0.00000000000E+00  0.00000000000E+00 -0.55258925473E+03  0.24952943676E+04  0.24333390838E+04 0.  0.
        3    1    3    3  502    0  0.53165719941E+03  0.21895271738E+03  0.82323922488E+03  0.10041526287E+04  0.10100000352E+00 0. -1.
       -3    1    3    3    0  502 -0.53165719941E+03 -0.21895271738E+03 -0.13758284796E+04  0.14911417390E+04  0.10100000352E+00 0.  1.
</event>
<event>
 5   0  0.3704241E-05  0.2537421E+04  0.7818609E-02  0.8389774E-01
        2   -1    0    0  501    0  0.00000000000E+00  0.00000000000E+00  0.14326456539E+04  0.14326456539E+04  0.25500000920E-02 0. -1.
       -2   -1    0    0    0  501  0.00000000000E+00  0.00000000000E+00 -0.11235345340E+04  0.11235345340E+04  0.25500000920E-02 0.  1.
    10030    2    1    2    0    0  0.00000000000E+00  0.00000000000E+00  0.30911111983E+03  0.25561801879E+04  0.25374214212E+04 0.  0.
        2    1    3    3  502    0  0.77509038862E+02 -0.12238744732E+04 -0.17304154609E+03  0.12384747692E+04  0.25500000920E-02 0.  1.
       -2    1    3    3    0  502 -0.77509038862E+02  0.12238744732E+04  0.48215266592E+03  0.13177054187E+04  0.25500000920E-02 0. -1.
</event>
<event>
 5   0  0.1456876E-05  0.2499423E+04  0.7818609E-02  0.8403191E-01
        1   -1    0    0  501    0  0.00000000000E+00  0.00000000000E+00  0.22433854928E+04  0.22433854928E+04  0.50400001928E-02 0. -1.
       -1   -1    0    0    0  501  0.00000000000E+00  0.00000000000E+00 -0.69617067217E+03  0.69617067219E+03  0.50400001928E-02 0.  1.
    10030    2    1    2    0    0  0.00000000000E+00  0.00000000000E+00  0.15472148206E+04  0.29395561650E+04  0.24994232827E+04 0.  0.
        1    1    3    3  502    0  0.60743178183E+03 -0.86381199070E+02  0.20540619777E+04  0.21437363853E+04  0.50400001928E-02 0. -1.
       -1    1    3    3    0  502 -0.60743178183E+03  0.86381199070E+02 -0.50684715710E+03  0.79581977973E+03  0.50400001928E-02 0.  1.
</event>
<event>
 5   0  0.1492639E-05  0.2474800E+04  0.7818609E-02  0.8412019E-01
       -1   -1    0    0    0  501  0.00000000000E+00  0.00000000000E+00  0.78434109118E+03  0.78434109120E+03  0.50400001928E-02 0. -1.
        1   -1    0    0  501    0  0.00000000000E+00  0.00000000000E+00 -0.19521592074E+04  0.19521592074E+04  0.50400001928E-02 0.  1.
    10030    2    1    2    0    0  0.00000000000E+00  0.00000000000E+00 -0.11678181162E+04  0.27365002986E+04  0.24747999377E+04 0.  0.
        5    1    3    3  502    0 -0.54549986685E+03 -0.16256856403E+03  0.63097226419E+03  0.84979216925E+03  0.46999998093E+01 0. -1.
       -5    1    3    3    0  502  0.54549986685E+03  0.16256856403E+03 -0.17987903804E+04  0.18867081294E+04  0.46999998093E+01 0.  1.
</event>
<event>
 5   0  0.3578670E-05  0.2438078E+04  0.7818609E-02  0.8425384E-01
        2   -1    0    0  501    0  0.00000000000E+00  0.00000000000E+00  0.11535654915E+04  0.11535654915E+04  0.25500000920E-02 0. -1.
       -2   -1    0    0    0  501  0.00000000000E+00  0.00000000000E+00 -0.12882290199E+04  0.12882290199E+04  0.25500000920E-02 0.  1.
    10030    2    1    2    0    0  0.00000000000E+00  0.00000000000E+00 -0.13466352837E+03  0.24417945113E+04  0.24380783765E+04 0.  0.
        4    1    3    3  502    0  0.78960887015E+03 -0.77618749648E+03 -0.57811473765E+03  0.12490666357E+04  0.12699999809E+01 0.  1.
       -4    1    3    3    0  502 -0.78960887015E+03  0.77618749648E+03  0.44345120928E+03  0.11927278757E+04  0.12699999809E+01 0. -1.
</event>
<event>
 5   0  0.1421242E-05  0.2474470E+04  0.7818609E-02  0.8412138E-01
        1   -1    0    0  501    0  0.00000000000E+00  0.00000000000E+00  0.15272173933E+04  0.15272173933E+04  0.50400001928E-02 0.  1.
       -1   -1    0    0    0  501  0.00000000000E+00  0.00000000000E+00 -0.10023134846E+04  0.10023134846E+04  0.50400001928E-02 0. -1.
    10030    2    1    2    0    0  0.00000000000E+00  0.00000000000E+00  0.52490390868E+03  0.25295308779E+04  0.24744701148E+04 0.  0.
        3    1    3    3  502    0  0.39261107685E+03 -0.10294744571E+04  0.83781655057E+03  0.13841595638E+04  0.10100000352E+00 0. -1.
       -3    1    3    3    0  502 -0.39261107685E+03  0.10294744571E+04 -0.31291264189E+03  0.11453713141E+04  0.10100000352E+00 0.  1.
</event>
<event>
 5   0  0.1456876E-05  0.2523063E+04  0.7818609E-02  0.8394815E-01
        1   -1    0    0  501    0  0.00000000000E+00  0.00000000000E+00  0.11313811530E+04  0.11313811530E+04  0.50400001928E-02 0. -1.
       -1   -1    0    0    0  501  0.00000000000E+00  0.00000000000E+00 -0.14066540251E+04  0.14066540251E+04  0.50400001928E-02 0.  1.
    10030    2    1    2    0    0  0.00000000000E+00  0.00000000000E+00 -0.27527287202E+03  0.25380351781E+04  0.25230631009E+04 0.  0.
        1    1    3    3  502    0 -0.37847347295E+03  0.82230077224E+03 -0.10215091805E+04  0.13648815830E+04  0.50400001928E-02 0. -1.
       -1    1    3    3    0  502  0.37847347295E+03 -0.82230077224E+03  0.74623630843E+03  0.11731535951E+04  0.50400001928E-02 0.  1.
</event>
<event>
 5   0  0.1429483E-05  0.2506889E+04  0.7818609E-02  0.8400535E-01
       -1   -1    0    0    0  501  0.00000000000E+00  0.00000000000E+00  0.12706687579E+04  0.12706687579E+04  0.50400001928E-02 0.  1.
        1   -1    0    0  501    0  0.00000000000E+00  0.00000000000E+00 -0.12364540938E+04  0.12364540938E+04  0.50400001928E-02 0. -1.
    10030    2    1    2    0    0  0.00000000000E+00  0.00000000000E+00  0.34214664060E+02  0.25071228517E+04  0.25068893773E+04 0.  0.
        2    1    3    3  502    0  0.99402764590E+02 -0.37966603693E+03  0.12076367721E+04  0.12698085614E+04  0.25500000920E-02 0.  1.
       -2    1    3    3    0  502 -0.99402764590E+02  0.37966603693E+03 -0.11734221081E+04  0.12373142903E+04  0.25500000920E-02 0. -1.
</event>
<event>
 5   0  0.1502886E-05  0.2490853E+04  0.7818609E-02  0.8406252E-01
       -1   -1    0    0    0  501  0.00000000000E+00  0.00000000000E+00  0.10268252461E+04  0.10268252461E+04  0.50400001928E-02 0.  1.
        1   -1    0    0  501    0  0.00000000000E+00  0.00000000000E+00 -0.15105656013E+04  0.15105656014E+04  0.50400001928E-02 0. -1.
    10030    2    1    2    0    0  0.00000000000E+00  0.00000000000E+00 -0.48374035524E+03  0.25373908475E+04  0.24908527820E+04 0.  0.
        4    1    3    3  502    0 -0.84254490654E+03  0.24111370898E+03 -0.11433145266E+04  0.14405510959E+04  0.12699999809E+01 0. -1.
       -4    1    3    3    0  502  0.84254490654E+03 -0.24111370898E+03  0.65957417138E+03  0.10968397516E+04  0.12699999809E+01 0.  1.
</event>
<event>
 5   0  0.1201438E-05  0.2474259E+04  0.7818609E-02  0.8412214E-01
        3   -1    0    0  501    0  0.00000000000E+00  0.00000000000E+00  0.83779013788E+03  0.83779014397E+03  0.10100000352E+00 0.  1.
       -3   -1    0    0    0  501  0.00000000000E+00  0.00000000000E+00 -0.18268175883E+04  0.18268175911E+04  0.10100000352E+00 0. -1.
    10030    2    1    2    0    0  0.00000000000E+00  0.00000000000E+00 -0.98902745041E+03  0.26646077350E+04  0.24742593001E+04 0.  0.
        1    1    3    3  502    0  0.10546350192E+04  0.22530996297E+02 -0.11905540471E+04  0.15906544592E+04  0.50400001928E-02 0. -1.
       -1    1    3    3    0  502 -0.10546350192E+04 -0.22530996297E+02  0.20152659669E+03  0.10739532758E+04  0.50400001928E-02 0.  1.
</event>
<event>
 5   0  0.3581449E-05  0.2473515E+04  0.7818609E-02  0.8412482E-01
       -2   -1    0    0    0  501  0.00000000000E+00  0.00000000000E+00  0.81966956340E+03  0.81966956341E+03  0.25500000920E-02 0.  1.
        2   -1    0    0  501    0  0.00000000000E+00  0.00000000000E+00 -0.18660794141E+04  0.18660794141E+04  0.25500000920E-02 0. -1.
    10030    2    1    2    0    0  0.00000000000E+00  0.00000000000E+00 -0.10464098507E+04  0.26857489775E+04  0.24735145026E+04 0.  0.
        1    1    3    3  502    0 -0.57551818359E+02 -0.34099156940E+03 -0.18125156460E+04  0.18452101314E+04  0.50400001928E-02 0. -1.
       -1    1    3    3    0  502  0.57551818359E+02  0.34099156940E+03  0.76610579527E+03  0.84053884608E+03  0.50400001928E-02 0.  1.
</event>
<event>
 5   0  0.1429483E-05  0.2508866E+04  0.7818609E-02  0.8399834E-01
        1   -1    0    0  501    0  0.00000000000E+00  0.00000000000E+00  0.11740023863E+04  0.11740023863E+04  0.50400001928E-02 0. -1.
       -1   -1    0    0    0  501  0.00000000000E+00  0.00000000000E+00 -0.13403735992E+04  0.13403735992E+04  0.50400001928E-02 0.  1.
    10030    2    1    2    0    0  0.00000000000E+00  0.00000000000E+00 -0.16637121291E+03  0.25143759856E+04  0.25088657231E+04 0.  0.
        2    1    3    3  502    0 -0.51011135115E+03 -0.11458727869E+04 -0.10230024538E+03  0.12584527701E+04  0.25500000920E-02 0. -1.
       -2    1    3    3    0  502  0.51011135115E+03  0.11458727869E+04 -0.64070967527E+02  0.12559232155E+04  0.25500000920E-02 0.  1.
</event>
<event>
 5   0  0.3650620E-05  0.2520485E+04  0.7818609E-02  0.8395724E-01
       -2   -1    0    0    0  501  0.00000000000E+00  0.00000000000E+00  0.97272443341E+03  0.97272443341E+03  0.25500000920E-02 0.  1.
        2   -1    0    0  501    0  0.00000000000E+00  0.00000000000E+00 -0.16327456495E+04  0.16327456495E+04  0.25500000920E-02 0. -1.
    10030    2    1    2    0    0  0.00000000000E+00  0.00000000000E+00 -0.66002121606E+03  0.26054700829E+04  0.25204853396E+04 0.  0.
        3    1    3    3  502    0  0.49545912078E+03  0.30035980548E+03  0.82688327731E+03  0.10096691129E+04  0.10100000352E+00 0.  1.
       -3    1    3    3    0  502 -0.49545912078E+03 -0.30035980548E+03 -0.14869044934E+04  0.15958009700E+04  0.10100000352E+00 0. -1.
</event>
<event>
 5   0  0.1456876E-05  0.2474798E+04  0.7818609E-02  0.8412019E-01
       -1   -1    0    0    0  501  0.00000000000E+00  0.00000000000E+00  0.11280650199E+04  0.11280650200E+04  0.50400001928E-02 0.  1.
        1   -1    0    0  501    0  0.00000000000E+00  0.00000000000E+00 -0.13573300891E+04  0.13573300892E+04  0.50400001928E-02 0. -1.
    10030    2    1    2    0    0  0.00000000000E+00  0.00000000000E+00 -0.22926506920E+03  0.24853951091E+04  0.24747982496E+04 0.  0.
        1    1    3    3  502    0  0.33587969500E+03 -0.59534660480E+02  0.10799130072E+04  0.11325067984E+04  0.50400001928E-02 0.  1.
       -1    1    3    3    0  502 -0.33587969500E+03  0.59534660480E+02 -0.13091780764E+04  0.13528883107E+04  0.50400001928E-02 0. -1.
</event>
<event>
 5   0  0.3581449E-05  0.2587108E+04  0.7818609E-02  0.8372593E-01
        2   -1    0    0  501    0  0.00000000000E+00  0.00000000000E+00  0.20662118856E+04  0.20662118856E+04  0.25500000920E-02 0. -1.
       -2   -1    0    0    0  501  0.00000000000E+00  0.00000000000E+00 -0.80983084901E+03  0.80983084902E+03  0.25500000920E-02 0.  1.
    10030    2    1    2    0    0  0.00000000000E+00  0.00000000000E+00  0.12563810366E+04  0.28760427346E+04  0.25871081350E+04 0.  0.
        1    1    3    3  502    0 -0.15148997757E+03 -0.79920114673E+03 -0.48992687790E+03  0.94957887084E+03  0.50400001928E-02 0.  1.
       -1    1    3    3    0  502  0.15148997757E+03  0.79920114673E+03  0.17463079145E+04  0.19264638638E+04  0.50400001928E-02 0. -1.
</event>
<event>
 5   0  0.1421242E-05  0.2207919E+04  0.7818609E-02  0.8515139E-01
        1   -1    0    0  501    0  0.00000000000E+00  0.00000000000E+00  0.20121148137E+04  0.20121148137E+04  0.50400001928E-02 0.  1.
       -1   -1    0    0    0  501  0.00000000000E+00  0.00000000000E+00 -0.60569449650E+03  0.60569449652E+03  0.50400001928E-02 0. -1.
    10030    2    1    2    0    0  0.00000000000E+00  0.00000000000E+00  0.14064203172E+04  0.26178093102E+04  0.22079192639E+04 0.  0.
        3    1    3    3  502    0 -0.11665512422E+03 -0.41110286810E+03  0.19100742175E+04  0.19572934151E+04  0.10100000352E+00 0.  1.
       -3    1    3    3    0  502  0.11665512422E+03  0.41110286810E+03 -0.50365390034E+03  0.66051589511E+03  0.10100000352E+00 0. -1.
</event>
<event>
 5   0  0.3578670E-05  0.2499603E+04  0.7818609E-02  0.8403127E-01
        2   -1    0    0  501    0  0.00000000000E+00  0.00000000000E+00  0.17011785911E+04  0.17011785911E+04  0.25500000920E-02 0.  1.
       -2   -1    0    0    0  501  0.00000000000E+00  0.00000000000E+00 -0.91818954489E+03  0.91818954489E+03  0.25500000920E-02 0. -1.
    10030    2    1    2    0    0  0.00000000000E+00  0.00000000000E+00  0.78298904624E+03  0.26193681360E+04  0.24996034856E+04 0.  0.
        4    1    3    3  502    0  0.90573783930E+03  0.75156750536E+03 -0.49112943603E+02  0.11779764186E+04  0.12699999809E+01 0. -1.
       -4    1    3    3    0  502 -0.90573783930E+03 -0.75156750536E+03  0.83210198984E+03  0.14413917174E+04  0.12699999809E+01 0.  1.
</event>
<event>
 5   0  0.3578670E-05  0.2540220E+04  0.7818609E-02  0.8388796E-01
       -2   -1    0    0    0  501  0.00000000000E+00  0.00000000000E+00  0.91772832461E+03  0.91772832461E+03  0.25500000920E-02 0. -1.
        2   -1    0    0  501    0  0.00000000000E+00  0.00000000000E+00 -0.17577960407E+04  0.17577960407E+04  0.25500000920E-02 0.  1.
    10030    2    1    2    0    0  0.00000000000E+00  0.00000000000E+00 -0.84006771607E+03  0.26755243653E+04  0.25402198452E+04 0.  0.
        4    1    3    3  502    0  0.10994260690E+04  0.60743937073E+03 -0.61836487303E+03  0.14000346422E+04  0.12699999809E+01 0.  1.
       -4    1    3    3    0  502 -0.10994260690E+04 -0.60743937073E+03 -0.22170284304E+03  0.12754897231E+04  0.12699999809E+01 0. -1.
</event>
<event>
 5   0  0.3579097E-05  0.2487229E+04  0.7818609E-02  0.8407549E-01
        2   -1    0    0  501    0  0.00000000000E+00  0.00000000000E+00  0.12802208160E+04  0.12802208160E+04  0.25500000920E-02 0.  1.
       -2   -1    0    0    0  501  0.00000000000E+00  0.00000000000E+00 -0.12080548272E+04  0.12080548272E+04  0.25500000920E-02 0. -1.
    10030    2    1    2    0    0  0.00000000000E+00  0.00000000000E+00  0.72165988744E+02  0.24882756432E+04  0.24872289293E+04 0.  0.
        5    1    3    3  502    0 -0.10145571018E+04 -0.59885075858E+03  0.43450491313E+03  0.12556930172E+04  0.46999998093E+01 0. -1.
       -5    1    3    3    0  502  0.10145571018E+04  0.59885075858E+03 -0.36233892439E+03  0.12325826260E+04  0.46999998093E+01 0.  1.
</event>
<event>
 5   0  0.3704241E-05  0.2474330E+04  0.7818609E-02  0.8412188E-01
       -2   -1    0    0    0  501  0.00000000000E+00  0.00000000000E+00  0.10337179421E+04  0.10337179421E+04  0.25500000920E-02 0.  1.
        2   -1    0    0  501    0  0.00000000000E+00  0.00000000000E+00 -0.14806521303E+04  0.14806521303E+04  0.25500000920E-02 0. -1.
    10030    2    1    2    0    0  0.00000000000E+00  0.00000000000E+00 -0.44693418816E+03  0.25143700724E+04  0.24743295440E+04 0.  0.
        2    1    3    3  502    0 -0.72825789400E+02  0.57636132906E+02  0.10301705227E+04  0.10343485028E+04  0.25500000920E-02 0.  1.
       -2    1    3    3    0  502  0.72825789400E+02 -0.57636132906E+02 -0.14771047109E+04  0.14800215695E+04  0.25500000920E-02 0. -1.
</event>
<event>
 5   0  0.3650620E-05  0.2405981E+04  0.7818609E-02  0.8437268E-01
       -2   -1    0    0    0  501  0.00000000000E+00  0.00000000000E+00  0.20284684845E+04  0.20284684845E+04  0.25500000920E-02 0. -1.
        2   -1    0    0  501    0  0.00000000000E+00  0.00000000000E+00 -0.71343766089E+03  0.71343766089E+03  0.25500000920E-02 0.  1.
    10030    2    1    2    0    0  0.00000000000E+00  0.00000000000E+00  0.13150308236E+04  0.27419061454E+04  0.24059807238E+04 0.  0.
        3    1    3    3  502    0  0.55845117418E+03  0.92410262497E+03  0.12620007520E+04  0.16608670277E+04  0.10100000352E+00 0. -1.
       -3    1    3    3    0  502 -0.55845117418E+03 -0.92410262497E+03  0.53030071654E+02  0.10810391178E+04  0.10100000352E+00 0.  1.
</event>
<event>
 5   0  0.3650620E-05  0.2487612E+04  0.7818609E-02  0.8407412E-01
       -2   -1    0    0    0  501  0.00000000000E+00  0.00000000000E+00  0.12234599917E+04  0.12234599917E+04  0.25500000920E-02 0. -1.
        2   -1    0    0  501    0  0.00000000000E+00  0.00000000000E+00 -0.12644904383E+04  0.12644904383E+04  0.25500000920E-02 0.  1.
    10030    2    1    2    0    0  0.00000000000E+00  0.00000000000E+00 -0.41030446570E+02  0.24879504301E+04  0.24876120768E+04 0.  0.
        3    1    3    3  502    0 -0.91823712674E+03 -0.77820683754E+03 -0.33406727205E+03  0.12491462106E+04  0.10100000352E+00 0.  1.
       -3    1    3    3    0  502  0.91823712674E+03  0.77820683754E+03  0.29303682548E+03  0.12388042195E+04  0.10100000352E+00 0. -1.
</event>
<event>
 5   0  0.3704241E-05  0.2504037E+04  0.7818609E-02  0.8401549E-01
       -2   -1    0    0    0  501  0.00000000000E+00  0.00000000000E+00  0.29355373342E+04  0.29355373342E+04  0.25500000920E-02 0.  1.
        2   -1    0    0  501    0  0.00000000000E+00  0.00000000000E+00 -0.53399095768E+03  0.53399095769E+03  0.25500000920E-02 0. -1.
    10030    2    1    2    0    0  0.00000000000E+00  0.00000000000E+00  0.24015463765E+04  0.34695282919E+04  0.25040370544E+04 0.  0.
        2    1    3    3  502    0 -0.65770063728E+03  0.32893421818E+03  0.26047790483E+04  0.27065922742E+04  0.25500000920E-02 0.  1.
       -2    1    3    3    0  502  0.65770063728E+03 -0.32893421818E+03 -0.20323267182E+03  0.76293601767E+03  0.25500000920E-02 0. -1.
</event>
<event>
 5   0  0.1429483E-05  0.2497839E+04  0.7818609E-02  0.8403756E-01
        1   -1    0    0  501    0  0.00000000000E+00  0.00000000000E+00  0.14306341547E+04  0.14306341547E+04  0.50400001928E-02 0.  1.
       -1   -1    0    0    0  501  0.00000000000E+00  0.00000000000E+00 -0.10902852797E+04  0.10902852797E+04  0.50400001928E-02 0. -1.
    10030    2    1    2    0    0  0.00000000000E+00  0.00000000000E+00  0.34034887503E+03  0.25209194344E+04  0.24978385533E+04 0.  0.
        2    1    3    3  502    0  0.50942780747E+03 -0.97069286328E+03  0.77406630841E+03  0.13419910490E+04  0.25500000920E-02 0.  1.
       -2    1    3    3    0  502 -0.50942780747E+03  0.97069286328E+03 -0.43371743338E+03  0.11789283854E+04  0.25500000920E-02 0. -1.
</event>
<event>
 5   0  0.3650620E-05  0.2500925E+04  0.7818609E-02  0.8402656E-01
       -2   -1    0    0    0  501  0.00000000000E+00  0.00000000000E+00  0.58909036031E+03  0.58909036032E+03  0.25500000920E-02 0. -1.
        2   -1    0    0  501    0  0.00000000000E+00  0.00000000000E+00 -0.26543569726E+04  0.26543569726E+04  0.25500000920E-02 0.  1.
    10030    2    1    2    0    0  0.00000000000E+00  0.00000000000E+00 -0.20652666122E+04  0.32434473329E+04  0.25009247133E+04 0.  0.
        3    1    3    3  502    0 -0.48208162986E+03 -0.94861279860E+03 -0.18082898839E+03  0.10793368671E+04  0.10100000352E+00 0. -1.
       -3    1    3    3    0  502  0.48208162986E+03  0.94861279860E+03 -0.18844376239E+04  0.21641104657E+04  0.10100000352E+00 0.  1.
</event>
<event>
 5   0  0.1456876E-05  0.2519426E+04  0.7818609E-02  0.8396097E-01
       -1   -1    0    0    0  501  0.00000000000E+00  0.00000000000E+00  0.15668085759E+04  0.15668085759E+04  0.50400001928E-02 0. -1.
        1   -1    0    0  501    0  0.00000000000E+00  0.00000000000E+00 -0.10128087711E+04  0.10128087711E+04  0.50400001928E-02 0.  1.
    10030    2    1    2    0    0  0.00000000000E+00  0.00000000000E+00  0.55399980479E+03  0.25796173469E+04  0.25194264968E+04 0.  0.
        1    1    3    3  502    0  0.82178743405E+03 -0.71548766818E+03 -0.37025799050E+03  0.11508032715E+04  0.50400001928E-02 0.  1.
       -1    1    3    3    0  502 -0.82178743405E+03  0.71548766818E+03  0.92425779528E+03  0.14288140755E+04  0.50400001928E-02 0. -1.
</event>
<event>
 5   0  0.3581449E-05  0.2479095E+04  0.7818609E-02  0.8410471E-01
       -2   -1    0    0    0  501  0.00000000000E+00  0.00000000000E+00  0.10105894333E+04  0.10105894333E+04  0.25500000920E-02 0.  1.
        2   -1    0    0  501    0  0.00000000000E+00  0.00000000000E+00 -0.15203780096E+04  0.15203780096E+04  0.25500000920E-02 0. -1.
    10030    2    1    2    0    0  0.00000000000E+00  0.00000000000E+00 -0.50978857630E+03  0.25309674429E+04  0.24790949567E+04 0.  0.
        1    1    3    3  502    0 -0.72160531163E+03  0.27878078346E+03  0.73389837038E+03  0.10663206690E+04  0.50400001928E-02 0.  1.
       -1    1    3    3    0  502  0.72160531163E+03 -0.27878078346E+03 -0.12436869467E+04  0.14646467739E+04  0.50400001928E-02 0. -1.
</event>
<event>
 5   0  0.3704241E-05  0.2519643E+04  0.7818609E-02  0.8396021E-01
        2   -1    0    0  501    0  0.00000000000E+00  0.00000000000E+00  0.22145062840E+04  0.22145062840E+04  0.25500000920E-02 0. -1.
       -2   -1    0    0    0  501  0.00000000000E+00  0.00000000000E+00 -0.71670632024E+03  0.71670632024E+03  0.25500000920E-02 0.  1.
    10030    2    1    2    0    0  0.00000000000E+00  0.00000000000E+00  0.14977999637E+04  0.29312126042E+04  0.25196433477E+04 0.  0.
        2    1    3    3  502    0  0.38661722101E+03 -0.24606249771E+03  0.21140987221E+04  0.21631997216E+04  0.25500000920E-02 0. -1.
       -2    1    3    3    0  502 -0.38661722101E+03  0.24606249771E+03 -0.61629875839E+03  0.76801288268E+03  0.25500000920E-02 0.  1.
</event>
<event>
 5   0  0.1502886E-05  0.2546578E+04  0.7818609E-02  0.8386577E-01
       -1   -1    0    0    0  501  0.00000000000E+00  0.00000000000E+00  0.18585439865E+04  0.18585439865E+04  0.50400001928E-02 0. -1.
        1   -1    0    0  501    0  0.00000000000E+00  0.00000000000E+00 -0.87233072069E+03  0.87233072071E+03  0.50400001928E-02 0.  1.
    10030    2    1    2    0    0  0.00000000000E+00  0.00000000000E+00  0.98621326580E+03  0.27308747072E+04  0.25465781081E+04 0.  0.
        4    1    3    3  502    0  0.67317341476E+03  0.18967359578E+03 -0.64790991190E+03  0.95337683321E+03  0.12699999809E+01 0.  1.
       -4    1    3    3    0  502 -0.67317341476E+03 -0.18967359578E+03  0.16341231777E+04  0.17774978740E+04  0.12699999809E+01 0. -1.
</event>
<event>
 5   0  0.3579097E-05  0.2518172E+04  0.7818609E-02  0.8396540E-01
        2   -1    0    0  501    0  0.00000000000E+00  0.00000000000E+00  0.10560342394E+04  0.10560342394E+04  0.25500000920E-02 0.  1.
       -2   -1    0    0    0  501  0.00000000000E+00  0.00000000000E+00 -0.15011802290E+04  0.15011802291E+04  0.25500000920E-02 0. -1.
    10030    2    1    2    0    0  0.00000000000E+00  0.00000000000E+00 -0.44514598961E+03  0.25572144685E+04  0.25181721319E+04 0.  0.
        5    1    3    3  502    0  0.45800709322E+03  0.10995666169E+04  0.19174575086E+03  0.12064848799E+04  0.46999998093E+01 0.  1.
       -5    1    3    3    0  502 -0.45800709322E+03 -0.10995666169E+04 -0.63689174046E+03  0.13507295886E+04  0.46999998093E+01 0. -1.
</event>
<event>
 5   0  0.1421242E-05  0.2512166E+04  0.7818609E-02  0.8398664E-01
        1   -1    0    0  501    0  0.00000000000E+00  0.00000000000E+00  0.15626093054E+04  0.15626093054E+04  0.50400001928E-02 0.  1.
       -1   -1    0    0    0  501  0.00000000000E+00  0.00000000000E+00 -0.10096860693E+04  0.10096860694E+04  0.50400001928E-02 0. -1.
    10030    2    1    2    0    0  0.00000000000E+00  0.00000000000E+00  0.55292323605E+03  0.25722953748E+04  0.25121662744E+04 0.  0.
        3    1    3    3  502    0  0.10807331227E+04 -0.58598904740E+03  0.12656510309E+02  0.12294419236E+04  0.10100000352E+00 0.  1.
       -3    1    3    3    0  502 -0.10807331227E+04  0.58598904740E+03  0.54026672574E+03  0.13428534511E+04  0.10100000352E+00 0. -1.
</event>
<event>
 5   0  0.1421242E-05  0.2496349E+04  0.7818609E-02  0.8404287E-01
        1   -1    0    0  501    0  0.00000000000E+00  0.00000000000E+00  0.14387857632E+04  0.14387857632E+04  0.50400001928E-02 0.  1.
       -1   -1    0    0    0  501  0.00000000000E+00  0.00000000000E+00 -0.10828153633E+04  0.10828153633E+04  0.50400001928E-02 0. -1.
    10030    2    1    2    0    0  0.00000000000E+00  0.00000000000E+00  0.35597039990E+03  0.25216011265E+04  0.24963487968E+04 0.  0.
        3    1    3    3  502    0 -0.12206686825E+04 -0.52756279929E+01  0.44115757121E+03  0.12979521862E+04  0.10100000352E+00 0. -1.
       -3    1    3    3    0  502  0.12206686825E+04  0.52756279929E+01 -0.85187171310E+02  0.12236489403E+04  0.10100000352E+00 0.  1.
</event>
<event>
 5   0  0.1502886E-05  0.2444737E+04  0.7818609E-02  0.8422942E-01
       -1   -1    0    0    0  501  0.00000000000E+00  0.00000000000E+00  0.63744219193E+03  0.63744219195E+03  0.50400001928E-02 0.  1.
        1   -1    0    0  501    0  0.00000000000E+00  0.00000000000E+00 -0.23440309502E+04  0.23440309502E+04  0.50400001928E-02 0. -1.
    10030    2    1    2    0    0  0.00000000000E+00  0.00000000000E+00 -0.17065887583E+04  0.29814731422E+04  0.24447365722E+04 0.  0.
        4    1    3    3  502    0  0.64385542333E+03  0.12819185550E+03 -0.21107893179E+04  0.22105239459E+04  0.12699999809E+01 0. -1.
       -4    1    3    3    0  502 -0.64385542333E+03 -0.12819185550E+03  0.40420055960E+03  0.77094919628E+03  0.12699999809E+01 0.  1.
</event>
<event>
 5   0  0.3578670E-05  0.2351426E+04  0.7818609E-02  0.8457916E-01
       -2   -1    0    0    0  501  0.00000000000E+00  0.00000000000E+00  0.99572277644E+03  0.99572277645E+03  0.25500000920E-02 0.  1.
        2   -1    0    0  501    0  0.00000000000E+00  0.00000000000E+00 -0.13882391596E+04  0.13882391596E+04  0.25500000920E-02 0. -1.
    10030    2    1    2    0    0  0.00000000000E+00  0.00000000000E+00 -0.39251638316E+03  0.23839619361E+04  0.23514262484E+04 0.  0.
        4    1    3    3  502    0  0.11156753154E+04  0.15080067213E+03 -0.53980892673E+03  0.12485461715E+04  0.12699999809E+01 0. -1.
       -4    1    3    3    0  502 -0.11156753154E+04 -0.15080067213E+03  0.14729254357E+03  0.11354157645E+04  0.12699999809E+01 0.  1.
</event>
<event>
 5   0  0.3704241E-05  0.2501946E+04  0.7818609E-02  0.8402293E-01
        2   -1    0    0  501    0  0.00000000000E+00  0.00000000000E+00  0.15859255775E+04  0.15859255775E+04  0.25500000920E-02 0.  1.
       -2   -1    0    0    0  501  0.00000000000E+00  0.00000000000E+00 -0.98676362444E+03  0.98676362444E+03  0.25500000920E-02 0. -1.
    10030    2    1    2    0    0  0.00000000000E+00  0.00000000000E+00  0.59916195308E+03  0.25726892020E+04  0.25019461792E+04 0.  0.
        2    1    3    3  502    0 -0.22513705812E+03  0.47596610115E+03  0.14664369556E+04  0.15580974839E+04  0.25500000920E-02 0.  1.
       -2    1    3    3    0  502  0.22513705812E+03 -0.47596610115E+03 -0.86727500255E+03  0.10145917181E+04  0.25500000920E-02 0. -1.
</event>
<event>
 5   0  0.3578670E-05  0.2546292E+04  0.7818609E-02  0.8386677E-01
       -2   -1    0    0    0  501  0.00000000000E+00  0.00000000000E+00  0.90116610348E+03  0.90116610349E+03  0.25500000920E-02 0. -1.
        2   -1    0    0  501    0  0.00000000000E+00  0.00000000000E+00 -0.17986702712E+04  0.17986702712E+04  0.25500000920E-02 0.  1.
    10030    2    1    2    0    0  0.00000000000E+00  0.00000000000E+00 -0.89750416772E+03  0.26998363747E+04  0.25462919548E+04 0.  0.
        4    1    3    3  502    0  0.83971881599E+03 -0.78943210163E+03 -0.10222646071E+04  0.15405704375E+04  0.12699999809E+01 0.  1.
       -4    1    3    3    0  502 -0.83971881599E+03  0.78943210163E+03  0.12476043939E+03  0.11592659372E+04  0.12699999809E+01 0. -1.
</event>
<event>
 5   0  0.3581449E-05  0.2474808E+04  0.7818609E-02  0.8412016E-01
        2   -1    0    0  501    0  0.00000000000E+00  0.00000000000E+00  0.27003398700E+04  0.27003398700E+04  0.25500000920E-02 0. -1.
       -2   -1    0    0    0  501  0.00000000000E+00  0.00000000000E+00 -0.56702826316E+03  0.56702826316E+03  0.25500000920E-02 0.  1.
    10030    2    1    2    0    0  0.00000000000E+00  0.00000000000E+00  0.21333116069E+04  0.32673681332E+04  0.24748082968E+04 0.  0.
        1    1    3    3  502    0 -0.10596425790E+04 -0.21897849460E+03  0.18592189307E+04  0.21511599216E+04  0.50400001928E-02 0. -1.
       -1    1    3    3    0  502  0.10596425790E+04  0.21897849460E+03  0.27409267620E+03  0.11162082115E+04  0.50400001928E-02 0.  1.
</event>
<event>
 5   0  0.3650620E-05  0.2496867E+04  0.7818609E-02  0.8404103E-01
       -2   -1    0    0    0  501  0.00000000000E+00  0.00000000000E+00  0.80354863066E+03  0.80354863066E+03  0.25500000920E-02 0.  1.
        2   -1    0    0  501    0  0.00000000000E+00  0.00000000000E+00 -0.19396289517E+04  0.19396289517E+04  0.25500000920E-02 0. -1.
    10030    2    1    2    0    0  0.00000000000E+00  0.00000000000E+00 -0.11360803210E+04  0.27431775824E+04  0.24968669873E+04 0.  0.
        3    1    3    3  502    0  0.12186852038E+03  0.26844145933E+03  0.76475755430E+03  0.81961386055E+03  0.10100000352E+00 0.  1.
       -3    1    3    3    0  502 -0.12186852038E+03 -0.26844145933E+03 -0.19008378753E+04  0.19235637218E+04  0.10100000352E+00 0. -1.
</event>
<event>
 5   0  0.1456876E-05  0.2499239E+04  0.7818609E-02  0.8403257E-01
       -1   -1    0    0    0  501  0.00000000000E+00  0.00000000000E+00  0.18800369059E+04  0.18800369059E+04  0.50400001928E-02 0.  1.
        1   -1    0    0  501    0  0.00000000000E+00  0.00000000000E+00 -0.83059509117E+03  0.83059509119E+03  0.50400001928E-02 0. -1.
    10030    2    1    2    0    0  0.00000000000E+00  0.00000000000E+00  0.10494418147E+04  0.27106319971E+04  0.24992394245E+04 0.  0.
        1    1    3    3  502    0  0.37228983325E+03 -0.10857314310E+04 -0.11173800462E+02  0.11478402824E+04  0.50400001928E-02 0. -1.
       -1    1    3    3    0  502 -0.37228983325E+03  0.10857314310E+04  0.10606156152E+04  0.15627917146E+04  0.50400001928E-02 0.  1.
</event>
<event>
 5   0  0.3704241E-05  0.2744185E+04  0.7818609E-02  0.8320809E-01
       -2   -1    0    0    0  501  0.00000000000E+00  0.00000000000E+00  0.98814514513E+03  0.98814514513E+03  0.25500000920E-02 0.  1.
        2   -1    0    0  501    0  0.00000000000E+00  0.00000000000E+00 -0.19052243860E+04  0.19052243860E+04  0.25500000920E-02 0. -1.
    10030    2    1    2    0    0  0.00000000000E+00  0.00000000000E+00 -0.91707924084E+03  0.28933695311E+04  0.27441852907E+04 0.  0.
        2    1    3    3  502    0  0.11295975730E+04  0.23335744401E+03 -0.12420332494E+04  0.16950200489E+04  0.25500000920E-02 0. -1.
       -2    1    3    3    0  502 -0.11295975730E+04 -0.23335744401E+03  0.32495400857E+03  0.11983494822E+04  0.25500000920E-02 0.  1.
</event>
<event>
 5   0  0.1502886E-05  0.2478742E+04  0.7818609E-02  0.8410598E-01
        1   -1    0    0  501    0  0.00000000000E+00  0.00000000000E+00  0.21558863148E+04  0.21558863148E+04  0.50400001928E-02 0. -1.
       -1   -1    0    0    0  501  0.00000000000E+00  0.00000000000E+00 -0.71248701290E+03  0.71248701292E+03  0.50400001928E-02 0.  1.
    10030    2    1    2    0    0  0.00000000000E+00  0.00000000000E+00  0.14433993019E+04  0.28683733277E+04  0.24787424236E+04 0.  0.
        4    1    3    3  502    0  0.25320843718E+03  0.84236966379E+03  0.17320642565E+04  0.19426140544E+04  0.12699999809E+01 0. -1.
       -4    1    3    3    0  502 -0.25320843718E+03 -0.84236966379E+03 -0.28866495457E+03  0.92575927326E+03  0.12699999809E+01 0.  1.
</event>
<event>
 5   0  0.3578670E-05  0.2498763E+04  0.7818609E-02  0.8403426E-01
       -2   -1    0    0    0  501  0.00000000000E+00  0.00000000000E+00  0.63917513598E+03  0.63917513599E+03  0.25500000920E-02 0. -1.
        2   -1    0    0  501    0  0.00000000000E+00  0.00000000000E+00 -0.24421379847E+04  0.24421379847E+04  0.25500000920E-02 0.  1.
    10030    2    1    2    0    0  0.00000000000E+00  0.00000000000E+00 -0.18029628488E+04  0.30813131207E+04  0.24987627967E+04 0.  0.
        4    1    3    3  502    0  0.35274090145E+03  0.11113218445E+04 -0.34795619443E+03  0.12167734020E+04  0.12699999809E+01 0. -1.
       -4    1    3    3    0  502 -0.35274090145E+03 -0.11113218445E+04 -0.14550066543E+04  0.18645397187E+04  0.12699999809E+01 0.  1.
</event>
<event>
 5   0  0.3578670E-05  0.2474322E+04  0.7818609E-02  0.8412191E-01
       -2   -1    0    0    0  501  0.00000000000E+00  0.00000000000E+00  0.81546786677E+03  0.81546786678E+03  0.25500000920E-02 0.  1.
        2   -1    0    0  501    0  0.00000000000E+00  0.00000000000E+00 -0.18769193997E+04  0.18769193997E+04  0.25500000920E-02 0. -1.
    10030    2    1    2    0    0  0.00000000000E+00  0.00000000000E+00 -0.10614515330E+04  0.26923872665E+04  0.24743220963E+04 0.  0.
        4    1    3    3  502    0 -0.44359647841E+03 -0.38812207036E+03 -0.17143151589E+04  0.18128140153E+04  0.12699999809E+01 0. -1.
       -4    1    3    3    0  502  0.44359647841E+03  0.38812207036E+03  0.65286362597E+03  0.87957325117E+03  0.12699999809E+01 0.  1.
</event>
<event>
 5   0  0.1456876E-05  0.2514938E+04  0.7818609E-02  0.8397683E-01
       -1   -1    0    0    0  501  0.00000000000E+00  0.00000000000E+00  0.11715345961E+04  0.11715345962E+04  0.50400001928E-02 0. -1.
        1   -1    0    0  501    0  0.00000000000E+00  0.00000000000E+00 -0.13497071528E+04  0.13497071528E+04  0.50400001928E-02 0.  1.
    10030    2    1    2    0    0  0.00000000000E+00  0.00000000000E+00 -0.17817255669E+03  0.25212417490E+04  0.25149382690E+04 0.  0.
        1    1    3    3  502    0 -0.11234769802E+04  0.40839933389E+03  0.30206865684E+03  0.12329785134E+04  0.50400001928E-02 0. -1.
       -1    1    3    3    0  502  0.11234769802E+04 -0.40839933389E+03 -0.48024121353E+03  0.12882632356E+04  0.50400001928E-02 0.  1.
</event>
<event>
 5   0  0.1492639E-05  0.2480124E+04  0.7818609E-02  0.8410101E-01
        1   -1    0    0  501    0  0.00000000000E+00  0.00000000000E+00  0.22165973784E+04  0.22165973784E+04  0.50400001928E-02 0. -1.
       -1   -1    0    0    0  501  0.00000000000E+00  0.00000000000E+00 -0.69374511532E+03  0.69374511534E+03  0.50400001928E-02 0.  1.
    10030    2    1    2    0    0  0.00000000000E+00  0.00000000000E+00  0.15228522630E+04  0.29103424937E+04  0.24801238710E+04 0.  0.
        5    1    3    3  502    0 -0.96347901059E+03 -0.31703518449E+03  0.15985680175E+04  0.18932102125E+04  0.46999998093E+01 0. -1.
       -5    1    3    3    0  502  0.96347901059E+03  0.31703518449E+03 -0.75715754464E+02  0.10171322812E+04  0.46999998093E+01 0.  1.
</event>
<event>
 5   0  0.3650620E-05  0.2481841E+04  0.7818609E-02  0.8409483E-01
        2   -1    0    0  501    0  0.00000000000E+00  0.00000000000E+00  0.11367840257E+04  0.11367840258E+04  0.25500000920E-02 0.  1.
       -2   -1    0    0    0  501  0.00000000000E+00  0.00000000000E+00 -0.13545970459E+04  0.13545970459E+04  0.25500000920E-02 0. -1.
    10030    2    1    2    0    0  0.00000000000E+00  0.00000000000E+00 -0.21781302017E+03  0.24913810717E+04  0.24818414801E+04 0.  0.
        3    1    3    3  502    0 -0.22376181743E+02  0.82505343987E+03 -0.10391130060E+04  0.13270153434E+04  0.10100000352E+00 0. -1.
       -3    1    3    3    0  502  0.22376181743E+02 -0.82505343987E+03  0.82129998587E+03  0.11643657283E+04  0.10100000352E+00 0.  1.
</event>
<event>
 5   0  0.1492639E-05  0.2428283E+04  0.7818609E-02  0.8428990E-01
       -1   -1    0    0    0  501  0.00000000000E+00  0.00000000000E+00  0.67936247519E+03  0.67936247521E+03  0.50400001928E-02 0. -1.
        1   -1    0    0  501    0  0.00000000000E+00  0.00000000000E+00 -0.21698864960E+04  0.21698864960E+04  0.50400001928E-02 0.  1.
    10030    2    1    2    0    0  0.00000000000E+00  0.00000000000E+00 -0.14905240208E+04  0.28492489712E+04  0.24282829002E+04 0.  0.
        5    1    3    3  502    0  0.66851971788E+03 -0.96763749190E+03 -0.39154432385E+03  0.12395845984E+04  0.46999998093E+01 0. -1.
       -5    1    3    3    0  502 -0.66851971788E+03  0.96763749190E+03 -0.10989796970E+04  0.16096643729E+04  0.46999998093E+01 0.  1.
</event>
<event>
 5   0  0.1502886E-05  0.2459301E+04  0.7818609E-02  0.8417630E-01
       -1   -1    0    0    0  501  0.00000000000E+00  0.00000000000E+00  0.24770193059E+04  0.24770193059E+04  0.50400001928E-02 0. -1.
        1   -1    0    0  501    0  0.00000000000E+00  0.00000000000E+00 -0.61042714184E+03  0.61042714187E+03  0.50400001928E-02 0.  1.
    10030    2    1    2    0    0  0.00000000000E+00  0.00000000000E+00  0.18665921640E+04  0.30874464477E+04  0.24593005633E+04 0.  0.
        4    1    3    3  502    0 -0.67663616858E+03  0.51965323841E+03  0.20450042040E+04  0.22158338837E+04  0.12699999809E+01 0. -1.
       -4    1    3    3    0  502  0.67663616858E+03 -0.51965323841E+03 -0.17841204002E+03  0.87161256401E+03  0.12699999809E+01 0.  1.
</event>
<event>
 5   0  0.3578670E-05  0.2496789E+04  0.7818609E-02  0.8404130E-01
       -2   -1    0    0    0  501  0.00000000000E+00  0.00000000000E+00  0.10750016900E+04  0.10750016900E+04  0.25500000920E-02 0. -1.
        2   -1    0    0  501    0  0.00000000000E+00  0.00000000000E+00 -0.14497548556E+04  0.14497548556E+04  0.25500000920E-02 0.  1.
    10030    2    1    2    0    0  0.00000000000E+00  0.00000000000E+00 -0.37475316566E+03  0.25247565456E+04  0.24967890738E+04 0.  0.
        4    1    3    3  502    0 -0.86133119729E+03 -0.29308088987E+03  0.67700806940E+03  0.11340764429E+04  0.12699999809E+01 0. -1.
       -4    1    3    3    0  502  0.86133119729E+03  0.29308088987E+03 -0.10517612351E+04  0.13906801027E+04  0.12699999809E+01 0.  1.
</event>
<event>
 5   0  0.3581449E-05  0.2519732E+04  0.7818609E-02  0.8395989E-01
        2   -1    0    0  501    0  0.00000000000E+00  0.00000000000E+00  0.19400654355E+04  0.19400654355E+04  0.25500000920E-02 0. -1.
       -2   -1    0    0    0  501  0.00000000000E+00  0.00000000000E+00 -0.81814909096E+03  0.81814909097E+03  0.25500000920E-02 0.  1.
    10030    2    1    2    0    0  0.00000000000E+00  0.00000000000E+00  0.11219163445E+04  0.27582145265E+04  0.25197323449E+04 0.  0.
        1    1    3    3  502    0 -0.11664481717E+04  0.59899978774E+02  0.43949829810E+02  0.11688117608E+04  0.50400001928E-02 0.  1.
       -1    1    3    3    0  502  0.11664481717E+04 -0.59899978774E+02  0.10779665147E+04  0.15894027657E+04  0.50400001928E-02 0. -1.
</event>
<event>
 5   0  0.1429483E-05  0.2272204E+04  0.7818609E-02  0.8488962E-01
        1   -1    0    0  501    0  0.00000000000E+00  0.00000000000E+00  0.13996768670E+04  0.13996768670E+04  0.50400001928E-02 0.  1.
       -1   -1    0    0    0  501  0.00000000000E+00  0.00000000000E+00 -0.92216113351E+03  0.92216113352E+03  0.50400001928E-02 0. -1.
    10030    2    1    2    0    0  0.00000000000E+00  0.00000000000E+00  0.47751573347E+03  0.23218380005E+04  0.22722038696E+04 0.  0.
        2    1    3    3  502    0  0.51074311193E+03  0.23069443094E+03 -0.77108525096E+03  0.95323182443E+03  0.25500000920E-02 0. -1.
       -2    1    3    3    0  502 -0.51074311193E+03 -0.23069443094E+03  0.12486009844E+04  0.13686061761E+04  0.25500000920E-02 0.  1.
</event>
<event>
 5   0  0.3704241E-05  0.2456527E+04  0.7818609E-02  0.8418639E-01
        2   -1    0    0  501    0  0.00000000000E+00  0.00000000000E+00  0.12325426478E+04  0.12325426478E+04  0.25500000920E-02 0.  1.
       -2   -1    0    0    0  501  0.00000000000E+00  0.00000000000E+00 -0.12239995944E+04  0.12239995944E+04  0.25500000920E-02 0. -1.
    10030    2    1    2    0    0  0.00000000000E+00  0.00000000000E+00  0.85430534287E+01  0.24565422422E+04  0.24565273872E+04 0.  0.
        2    1    3    3  502    0  0.88911655692E+03 -0.17464869697E+03  0.83349381173E+03  0.12311548860E+04  0.25500000920E-02 0.  1.
       -2    1    3    3    0  502 -0.88911655692E+03  0.17464869697E+03 -0.82495075830E+03  0.12253873562E+04  0.25500000920E-02 0. -1.
</event>
<event>
 5   0  0.3581449E-05  0.2503648E+04  0.7818609E-02  0.8401687E-01
        2   -1    0    0  501    0  0.00000000000E+00  0.00000000000E+00  0.14520606762E+04  0.14520606762E+04  0.25500000920E-02 0.  1.
       -2   -1    0    0    0  501  0.00000000000E+00  0.00000000000E+00 -0.10791997985E+04  0.10791997985E+04  0.25500000920E-02 0. -1.
    10030    2    1    2    0    0  0.00000000000E+00  0.00000000000E+00  0.37286087767E+03  0.25312604748E+04  0.25036482095E+04 0.  0.
        1    1    3    3  502    0 -0.10420778185E+04  0.69217520340E+03  0.23199293535E+03  0.12723417049E+04  0.50400001928E-02 0. -1.
       -1    1    3    3    0  502  0.10420778185E+04 -0.69217520340E+03  0.14086794232E+03  0.12589187699E+04  0.50400001928E-02 0.  1.
</event>
<event>
 5   0  0.3650620E-05  0.2489117E+04  0.7818609E-02  0.8406873E-01
        2   -1    0    0  501    0  0.00000000000E+00  0.00000000000E+00  0.15997392093E+04  0.15997392093E+04  0.25500000920E-02 0. -1.
       -2   -1    0    0    0  501  0.00000000000E+00  0.00000000000E+00 -0.96823667233E+03  0.96823667234E+03  0.25500000920E-02 0.  1.
    10030    2    1    2    0    0  0.00000000000E+00  0.00000000000E+00  0.63150253695E+03  0.25679758816E+04  0.24891172480E+04 0.  0.
        3    1    3    3  502    0 -0.10561827855E+04  0.35315156130E+03 -0.25744783149E+03  0.11430299636E+04  0.10100000352E+00 0. -1.
       -3    1    3    3    0  502  0.10561827855E+04 -0.35315156130E+03  0.88895036844E+03  0.14249459180E+04  0.10100000352E+00 0.  1.
</event>
<event>
 5   0  0.3704241E-05  0.2491372E+04  0.7818609E-02  0.8406066E-01
        2   -1    0    0  501    0  0.00000000000E+00  0.00000000000E+00  0.97844338940E+03  0.97844338940E+03  0.25500000920E-02 0. -1.
       -2   -1    0    0    0  501  0.00000000000E+00  0.00000000000E+00 -0.15859209762E+04  0.15859209762E+04  0.25500000920E-02 0.  1.
    10030    2    1    2    0    0  0.00000000000E+00  0.00000000000E+00 -0.60747758680E+03  0.25643643656E+04  0.24913722285E+04 0.  0.
        2    1    3    3  502    0  0.73965268141E+03 -0.53857104662E+03  0.56636144545E+03  0.10760623348E+04  0.25500000920E-02 0. -1.
       -2    1    3    3    0  502 -0.73965268141E+03  0.53857104662E+03 -0.11738390322E+04  0.14883020308E+04  0.25500000920E-02 0.  1.
</event>
<event>
 5   0  0.1492639E-05  0.2382972E+04  0.7818609E-02  0.8445906E-01
        1   -1    0    0  501    0  0.00000000000E+00  0.00000000000E+00  0.17923375891E+04  0.17923375891E+04  0.50400001928E-02 0. -1.
       -1   -1    0    0    0  501  0.00000000000E+00  0.00000000000E+00 -0.79205997618E+03  0.79205997620E+03  0.50400001928E-02 0.  1.
    10030    2    1    2    0    0  0.00000000000E+00  0.00000000000E+00  0.10002776130E+04  0.25843975653E+04  0.23829719832E+04 0.  0.
        5    1    3    3  502    0 -0.10350208140E+03  0.10470428508E+04  0.11065100554E+04  0.15268916154E+04  0.46999998093E+01 0.  1.
       -5    1    3    3    0  502  0.10350208140E+03 -0.10470428508E+04 -0.10623244248E+03  0.10575059500E+04  0.46999998093E+01 0. -1.
</event>
<event>
 5   0  0.3578670E-05  0.2472947E+04  0.7818609E-02  0.8412687E-01
       -2   -1    0    0    0  501  0.00000000000E+00  0.00000000000E+00  0.10549625194E+04  0.10549625194E+04  0.25500000920E-02 0. -1.
        2   -1    0    0  501    0  0.00000000000E+00  0.00000000000E+00 -0.14492141959E+04  0.14492141959E+04  0.25500000920E-02 0.  1.
    10030    2    1    2    0    0  0.00000000000E+00  0.00000000000E+00 -0.39425167644E+03  0.25041767153E+04  0.24729469540E+04 0.  0.
        4    1    3    3  502    0 -0.27054221796E+03 -0.40318547850E+02 -0.14181922934E+04  0.14443301807E+04  0.12699999809E+01 0.  1.
       -4    1    3    3    0  502  0.27054221796E+03  0.40318547850E+02  0.10239406169E+04  0.10598465346E+04  0.12699999809E+01 0. -1.
</event>
<event>
 5   0  0.1421242E-05  0.2517379E+04  0.7818609E-02  0.8396820E-01
        1   -1    0    0  501    0  0.00000000000E+00  0.00000000000E+00  0.12697446097E+04  0.12697446097E+04  0.50400001928E-02 0.  1.
       -1   -1    0    0    0  501  0.00000000000E+00  0.00000000000E+00 -0.12477304958E+04  0.12477304958E+04  0.50400001928E-02 0. -1.
    10030    2    1    2    0    0  0.00000000000E+00  0.00000000000E+00  0.22014113865E+02  0.25174751055E+04  0.25173788523E+04 0.  0.
        3    1    3    3  502    0 -0.77070102982E+03  0.82353659127E+03 -0.54767920054E+03  0.12538521091E+04  0.10100000352E+00 0. -1.
       -3    1    3    3    0  502  0.77070102982E+03 -0.82353659127E+03  0.56969331441E+03  0.12636229965E+04  0.10100000352E+00 0.  1.
</event>
<event>
 5   0  0.1421242E-05  0.2496586E+04  0.7818609E-02  0.8404203E-01
        1   -1    0    0  501    0  0.00000000000E+00  0.00000000000E+00  0.22639940941E+04  0.22639940941E+04  0.50400001928E-02 0. -1.
       -1   -1    0    0    0  501  0.00000000000E+00  0.00000000000E+00 -0.68826808113E+03  0.68826808115E+03  0.50400001928E-02 0.  1.
    10030    2    1    2    0    0  0.00000000000E+00  0.00000000000E+00  0.15757260129E+04  0.29522621752E+04  0.24965855650E+04 0.  0.
        3    1    3    3  502    0 -0.46569282790E+03  0.11443888672E+04  0.57719127740E+03  0.13636881866E+04  0.10100000352E+00 0.  1.
       -3    1    3    3    0  502  0.46569282790E+03 -0.11443888672E+04  0.99853473554E+03  0.15885739887E+04  0.10100000352E+00 0. -1.
</event>
<event>
 5   0  0.3650620E-05  0.2460803E+04  0.7818609E-02  0.8417084E-01
       -2   -1    0    0    0  501  0.00000000000E+00  0.00000000000E+00  0.11419946006E+04  0.11419946006E+04  0.25500000920E-02 0. -1.
        2   -1    0    0  501    0  0.00000000000E+00  0.00000000000E+00 -0.13256521661E+04  0.13256521661E+04  0.25500000920E-02 0.  1.
    10030    2    1    2    0    0  0.00000000000E+00  0.00000000000E+00 -0.18365756551E+03  0.24676467668E+04  0.24608028089E+04 0.  0.
        3    1    3    3  502    0 -0.12116068663E+04  0.57484169271E+02 -0.29878099882E+03  0.12492260499E+04  0.10100000352E+00 0.  1.
       -3    1    3    3    0  502  0.12116068663E+04 -0.57484169271E+02  0.11512343331E+03  0.12184207169E+04  0.10100000352E+00 0. -1.
</event>
<event>
 5   0  0.1421242E-05  0.2495265E+04  0.7818609E-02  0.8404674E-01
       -1   -1    0    0    0  501  0.00000000000E+00  0.00000000000E+00  0.13435896686E+04  0.13435896687E+04  0.50400001928E-02 0. -1.
        1   -1    0    0  501    0  0.00000000000E+00  0.00000000000E+00 -0.11585285524E+04  0.11585285524E+04  0.50400001928E-02 0.  1.
    10030    2    1    2    0    0  0.00000000000E+00  0.00000000000E+00  0.18506111623E+03  0.25021182211E+04  0.24952651113E+04 0.  0.
        3    1    3    3  502    0  0.56684984970E+03 -0.38643683708E+03  0.11374745352E+04  0.13283450266E+04  0.10100000352E+00 0. -1.
       -3    1    3    3    0  502 -0.56684984970E+03  0.38643683708E+03 -0.95241341902E+03  0.11737731945E+04  0.10100000352E+00 0.  1.
</event>
<event>
 5   0  0.1502886E-05  0.2523010E+04  0.7818609E-02  0.8394834E-01
       -1   -1    0    0    0  501  0.00000000000E+00  0.00000000000E+00  0.14188864977E+04  0.14188864977E+04  0.50400001928E-02 0.  1.
        1   -1    0    0  501    0  0.00000000000E+00  0.00000000000E+00 -0.11215798258E+04  0.11215798258E+04  0.50400001928E-02 0. -1.
    10030    2    1    2    0    0  0.00000000000E+00  0.00000000000E+00  0.29730667189E+03  0.25404663235E+04  0.25230096876E+04 0.  0.
        4    1    3    3  502    0 -0.11392401229E+04  0.49276499565E+03  0.37539454080E+03  0.12967683188E+04  0.12699999809E+01 0.  1.
       -4    1    3    3    0  502  0.11392401229E+04 -0.49276499565E+03 -0.78087868910E+02  0.12436980046E+04  0.12699999809E+01 0. -1.
</event>
<event>
 5   0  0.1492639E-05  0.2577594E+04  0.7818609E-02  0.8375852E-01
       -1   -1    0    0    0  501  0.00000000000E+00  0.00000000000E+00  0.17209319946E+04  0.17209319946E+04  0.50400001928E-02 0.  1.
        1   -1    0    0  501    0  0.00000000000E+00  0.00000000000E+00 -0.96517363412E+03  0.96517363414E+03  0.50400001928E-02 0. -1.
    10030    2    1    2    0    0  0.00000000000E+00  0.00000000000E+00  0.75575836045E+03  0.26861056287E+04  0.25775943725E+04 0.  0.
        5    1    3    3  502    0  0.93226663926E+03 -0.66039234093E+03  0.99942480085E+03  0.15179298907E+04  0.46999998093E+01 0.  1.
       -5    1    3    3    0  502 -0.93226663926E+03  0.66039234093E+03 -0.24366644040E+03  0.11681757380E+04  0.46999998093E+01 0. -1.
</event>
<event>
 5   0  0.1502886E-05  0.2432821E+04  0.7818609E-02  0.8427317E-01
       -1   -1    0    0    0  501  0.00000000000E+00  0.00000000000E+00  0.78335625059E+03  0.78335625061E+03  0.50400001928E-02 0. -1.
        1   -1    0    0  501    0  0.00000000000E+00  0.00000000000E+00 -0.18888655328E+04  0.18888655328E+04  0.50400001928E-02 0.  1.
    10030    2    1    2    0    0  0.00000000000E+00  0.00000000000E+00 -0.11055092822E+04  0.26722217834E+04  0.24328210963E+04 0.  0.
        4    1    3    3  502    0 -0.34481301933E+03 -0.18128498059E+03  0.71298338040E+03  0.81246980012E+03  0.12699999809E+01 0. -1.
       -4    1    3    3    0  502  0.34481301933E+03  0.18128498059E+03 -0.18184926626E+04  0.18597519833E+04  0.12699999809E+01 0.  1.
</event>
<event>
 5   0  0.3650620E-05  0.2482550E+04  0.7818609E-02  0.8409229E-01
       -2   -1    0    0    0  501  0.00000000000E+00  0.00000000000E+00  0.93576411245E+03  0.93576411246E+03  0.25500000920E-02 0. -1.
        2   -1    0    0  501    0  0.00000000000E+00  0.00000000000E+00 -0.16465300977E+04  0.16465300977E+04  0.25500000920E-02 0.  1.
    10030    2    1    2    0    0  0.00000000000E+00  0.00000000000E+00 -0.71076598520E+03  0.25822942101E+04  0.24825501207E+04 0.  0.
        3    1    3    3  502    0 -0.29475648544E+03 -0.10712877137E+04  0.22022660647E+03  0.11327129026E+04  0.10100000352E+00 0. -1.
       -3    1    3    3    0  502  0.29475648544E+03  0.10712877137E+04 -0.93099259167E+03  0.14495813075E+04  0.10100000352E+00 0.  1.
</event>
<event>
 5   0  0.1456876E-05  0.2485832E+04  0.7818609E-02  0.8408050E-01
        1   -1    0    0  501    0  0.00000000000E+00  0.00000000000E+00  0.95730691443E+03  0.95730691445E+03  0.50400001928E-02 0.  1.
       -1   -1    0    0    0  501  0.00000000000E+00  0.00000000000E+00 -0.16137361310E+04  0.16137361310E+04  0.50400001928E-02 0. -1.
    10030    2    1    2    0    0  0.00000000000E+00  0.00000000000E+00 -0.65642921659E+03  0.25710430455E+04  0.24858324612E+04 0.  0.
        1    1    3    3  502    0 -0.65079299771E+03  0.45325456615E+03  0.66160100019E+03  0.10328054566E+04  0.50400001928E-02 0.  1.
       -1    1    3    3    0  502  0.65079299771E+03 -0.45325456615E+03 -0.13180302168E+04  0.15382375889E+04  0.50400001928E-02 0. -1.
</event>
<event>
 5   0  0.3650620E-05  0.2620791E+04  0.7818609E-02  0.8361173E-01
        2   -1    0    0  501    0  0.00000000000E+00  0.00000000000E+00  0.20103444425E+04  0.20103444425E+04  0.25500000920E-02 0.  1.
       -2   -1    0    0    0  501  0.00000000000E+00  0.00000000000E+00 -0.85415051945E+03  0.85415051946E+03  0.25500000920E-02 0. -1.
    10030    2    1    2    0    0  0.00000000000E+00  0.00000000000E+00  0.11561939230E+04  0.28644949619E+04  0.26207912926E+04 0.  0.
        3    1    3    3  502    0  0.21209116645E+03  0.43981731077E+03  0.19071975088E+04  0.19687113241E+04  0.10100000352E+00 0.  1.
       -3    1    3    3    0  502 -0.21209116645E+03 -0.43981731077E+03 -0.75100358580E+03  0.89578363784E+03  0.10100000352E+00 0. -1.
</event>
<event>
 5   0  0.3578670E-05  0.2525734E+04  0.7818609E-02  0.8393875E-01
       -2   -1    0    0    0  501  0.00000000000E+00  0.00000000000E+00  0.11555143933E+04  0.11555143933E+04  0.25500000920E-02 0. -1.
        2   -1    0    0  501    0  0.00000000000E+00  0.00000000000E+00 -0.13801930983E+04  0.13801930983E+04  0.25500000920E-02 0.  1.
    10030    2    1    2    0    0  0.00000000000E+00  0.00000000000E+00 -0.22467870501E+03  0.25357074916E+04  0.25257339453E+04 0.  0.
        4    1    3    3  502    0 -0.23286513431E+00 -0.47841382592E+03 -0.12856937298E+04  0.13718198944E+04  0.12699999809E+01 0.  1.
       -4    1    3    3    0  502  0.23286513431E+00  0.47841382592E+03  0.10610150248E+04  0.11638875971E+04  0.12699999809E+01 0. -1.
</event>
<event>
 5   0  0.1456876E-05  0.1880717E+04  0.7818609E-02  0.8664515E-01
       -1   -1    0    0    0  501  0.00000000000E+00  0.00000000000E+00  0.11911292438E+04  0.11911292439E+04  0.50400001928E-02 0. -1.
        1   -1    0    0  501    0  0.00000000000E+00  0.00000000000E+00 -0.74238326384E+03  0.74238326386E+03  0.50400001928E-02 0.  1.
    10030    2    1    2    0    0  0.00000000000E+00  0.00000000000E+00  0.44874598000E+03  0.19335125077E+04  0.18807173267E+04 0.  0.
        1    1    3    3  502    0  0.32097553727E+03  0.42629944783E+03  0.10203940132E+04  0.11515035636E+04  0.50400001928E-02 0. -1.
       -1    1    3    3    0  502 -0.32097553727E+03 -0.42629944783E+03 -0.57164803322E+03  0.78200894411E+03  0.50400001928E-02 0.  1.
</event>
<event>
 5   0  0.1456876E-05  0.2513751E+04  0.7818609E-02  0.8398103E-01
        1   -1    0    0  501    0  0.00000000000E+00  0.00000000000E+00  0.19432133030E+04  0.19432133030E+04  0.50400001928E-02 0.  1.
       -1   -1    0    0    0  501  0.00000000000E+00  0.00000000000E+00 -0.81295069266E+03  0.81295069268E+03  0.50400001928E-02 0. -1.
    10030    2    1    2    0    0  0.00000000000E+00  0.00000000000E+00  0.11302626104E+04  0.27561639957E+04  0.25137514600E+04 0.  0.
        1    1    3    3  502    0 -0.71014686384E+03  0.53513948073E+03  0.15390798622E+04  0.17774840799E+04  0.50400001928E-02 0.  1.
       -1    1    3    3    0  502  0.71014686384E+03 -0.53513948073E+03 -0.40881725189E+03  0.97867991577E+03  0.50400001928E-02 0. -1.
</event>
<event>
 5   0  0.3704241E-05  0.2537556E+04  0.7818609E-02  0.8389727E-01
        2   -1    0    0  501    0  0.00000000000E+00  0.00000000000E+00  0.21964739519E+04  0.21964739519E+04  0.25500000920E-02 0.  1.
       -2   -1    0    0    0  501  0.00000000000E+00  0.00000000000E+00 -0.73290112934E+03  0.73290112934E+03  0.25500000920E-02 0. -1.
    10030    2    1    2    0    0  0.00000000000E+00  0.00000000000E+00  0.14635728226E+04  0.29293750813E+04  0.25375564939E+04 0.  0.
        2    1    3    3  502    0 -0.44016360166E+03 -0.74822906024E+03  0.17999770838E+04  0.19983763972E+04  0.25500000920E-02 0.  1.
       -2    1    3    3    0  502  0.44016360166E+03  0.74822906024E+03 -0.33640426117E+03  0.93099868408E+03  0.25500000920E-02 0. -1.
</event>
<event>
 5   0  0.3650620E-05  0.2481482E+04  0.7818609E-02  0.8409613E-01
       -2   -1    0    0    0  501  0.00000000000E+00  0.00000000000E+00  0.12332597652E+04  0.12332597652E+04  0.25500000920E-02 0. -1.
        2   -1    0    0  501    0  0.00000000000E+00  0.00000000000E+00 -0.12482673341E+04  0.12482673341E+04  0.25500000920E-02 0.  1.
    10030    2    1    2    0    0  0.00000000000E+00  0.00000000000E+00 -0.15007568900E+02  0.24815270992E+04  0.24814817181E+04 0.  0.
        3    1    3    3  502    0 -0.36364250143E+03  0.11516298114E+04 -0.29202748929E+03  0.12424842679E+04  0.10100000352E+00 0.  1.
       -3    1    3    3    0  502  0.36364250143E+03 -0.11516298114E+04  0.27701992039E+03  0.12390428313E+04  0.10100000352E+00 0. -1.
</event>
<event>
 5   0  0.1502886E-05  0.2508026E+04  0.7818609E-02  0.8400132E-01
       -1   -1    0    0    0  501  0.00000000000E+00  0.00000000000E+00  0.16216632953E+04  0.16216632953E+04  0.50400001928E-02 0.  1.
        1   -1    0    0  501    0  0.00000000000E+00  0.00000000000E+00 -0.96971351228E+03  0.96971351229E+03  0.50400001928E-02 0. -1.
    10030    2    1    2    0    0  0.00000000000E+00  0.00000000000E+00  0.65194978299E+03  0.25913768076E+04  0.25080261640E+04 0.  0.
        4    1    3    3  502    0 -0.73258902261E+03 -0.89172058714E+03 -0.18093639707E+03  0.11681574698E+04  0.12699999809E+01 0.  1.
       -4    1    3    3    0  502  0.73258902261E+03  0.89172058714E+03  0.83288618006E+03  0.14232193378E+04  0.12699999809E+01 0. -1.
</event>
<event>
 5   0  0.1429483E-05  0.2081299E+04  0.7818609E-02  0.8569526E-01
        1   -1    0    0  501    0  0.00000000000E+00  0.00000000000E+00  0.92279612491E+03  0.92279612493E+03  0.50400001928E-02 0. -1.
       -1   -1    0    0    0  501  0.00000000000E+00  0.00000000000E+00 -0.11735547194E+04  0.11735547194E+04  0.50400001928E-02 0.  1.
    10030    2    1    2    0    0  0.00000000000E+00  0.00000000000E+00 -0.25075859444E+03  0.20963508443E+04  0.20812993513E+04 0.  0.
        2    1    3    3  502    0 -0.14759349747E+03 -0.23710397912E+03  0.88434210526E+03  0.92739586831E+03  0.25500000920E-02 0. -1.
       -2    1    3    3    0  502  0.14759349747E+03  0.23710397912E+03 -0.11351006997E+04  0.11689549760E+04  0.25500000920E-02 0.  1.
</event>
<event>
 5   0  0.1456876E-05  0.2490082E+04  0.7818609E-02  0.8406527E-01
        1   -1    0    0  501    0  0.00000000000E+00  0.00000000000E+00  0.18570197326E+04  0.18570197326E+04  0.50400001928E-02 0.  1.
       -1   -1    0    0    0  501  0.00000000000E+00  0.00000000000E+00 -0.83473926999E+03  0.83473927000E+03  0.50400001928E-02 0. -1.
    10030    2    1    2    0    0  0.00000000000E+00  0.00000000000E+00  0.10222804626E+04  0.26917590026E+04  0.24900821641E+04 0.  0.
        1    1    3    3  502    0  0.98454547298E+02 -0.53423999932E+03 -0.69987080378E+03  0.88595982797E+03  0.50400001928E-02 0. -1.
       -1    1    3    3    0  502 -0.98454547298E+02  0.53423999932E+03  0.17221512664E+04  0.18057991746E+04  0.50400001928E-02 0.  1.
</event>
<event>
 5   0  0.3704241E-05  0.2749496E+04  0.7818609E-02  0.8319122E-01
       -2   -1    0    0    0  501  0.00000000000E+00  0.00000000000E+00  0.14396233329E+04  0.14396233329E+04  0.25500000920E-02 0.  1.
        2   -1    0    0  501    0  0.00000000000E+00  0.00000000000E+00 -0.13127959707E+04  0.13127959707E+04  0.25500000920E-02 0. -1.
    10030    2    1    2    0    0  0.00000000000E+00  0.00000000000E+00  0.12682736216E+03  0.27524193036E+04  0.27494957434E+04 0.  0.
        2    1    3    3  502    0 -0.92374875046E+03  0.53014842871E+03 -0.80674161873E+03  0.13361141979E+04  0.25500000920E-02 0. -1.
       -2    1    3    3    0  502  0.92374875046E+03 -0.53014842871E+03  0.93356898089E+03  0.14163051057E+04  0.25500000920E-02 0.  1.
</event>
<event>
 5   0  0.1492639E-05  0.2484929E+04  0.7818609E-02  0.8408374E-01
       -1   -1    0    0    0  501  0.00000000000E+00  0.00000000000E+00  0.83097712871E+03  0.83097712872E+03  0.50400001928E-02 0.  1.
        1   -1    0    0  501    0  0.00000000000E+00  0.00000000000E+00 -0.18577149263E+04  0.18577149263E+04  0.50400001928E-02 0. -1.
    10030    2    1    2    0    0  0.00000000000E+00  0.00000000000E+00 -0.10267377976E+04  0.26886920551E+04  0.24849294682E+04 0.  0.
        5    1    3    3  502    0 -0.10498769642E+04 -0.56338140304E+03 -0.89446664034E+03  0.14898768090E+04  0.46999998093E+01 0. -1.
       -5    1    3    3    0  502  0.10498769642E+04  0.56338140304E+03 -0.13227115728E+03  0.11988152461E+04  0.46999998093E+01 0.  1.
</event>
<event>
 5   0  0.1421242E-05  0.2469324E+04  0.7818609E-02  0.8413996E-01
       -1   -1    0    0    0  501  0.00000000000E+00  0.00000000000E+00  0.17162551603E+04  0.17162551603E+04  0.50400001928E-02 0.  1.
        1   -1    0    0  501    0  0.00000000000E+00  0.00000000000E+00 -0.88820725723E+03  0.88820725725E+03  0.50400001928E-02 0. -1.
    10030    2    1    2    0    0  0.00000000000E+00  0.00000000000E+00  0.82804790310E+03  0.26044624176E+04  0.24693240279E+04 0.  0.
        3    1    3    3  502    0  0.11057614145E+04  0.54879471522E+03  0.43775725955E+03  0.13097768412E+04  0.10100000352E+00 0.  1.
       -3    1    3    3    0  502 -0.11057614145E+04 -0.54879471522E+03  0.39029064356E+03  0.12946855764E+04  0.10100000352E+00 0. -1.
</event>
<event>
 5   0  0.3650620E-05  0.2534167E+04  0.7818609E-02  0.8390914E-01
        2   -1    0    0  501    0  0.00000000000E+00  0.00000000000E+00  0.16514619556E+04  0.16514619556E+04  0.25500000920E-02 0.  1.
       -2   -1    0    0    0  501  0.00000000000E+00  0.00000000000E+00 -0.97216905767E+03  0.97216905768E+03  0.25500000920E-02 0. -1.
    10030    2    1    2    0    0  0.00000000000E+00  0.00000000000E+00  0.67929289796E+03  0.26236310133E+04  0.25341666979E+04 0.  0.
        3    1    3    3  502    0 -0.75680174449E+01  0.12572127932E+04  0.17641316750E+03  0.12695522432E+04  0.10100000352E+00 0. -1.
       -3    1    3    3    0  502  0.75680174449E+01 -0.12572127932E+04  0.50287973046E+03  0.13540787701E+04  0.10100000352E+00 0.  1.
</event>
<event>
 5   0  0.3650620E-05  0.2378089E+04  0.7818609E-02  0.8447753E-01
       -2   -1    0    0    0  501  0.00000000000E+00  0.00000000000E+00  0.75587487892E+03  0.75587487892E+03  0.25500000920E-02 0.  1.
        2   -1    0    0  501    0  0.00000000000E+00  0.00000000000E+00 -0.18704508283E+04  0.18704508283E+04  0.25500000920E-02 0. -1.
    10030    2    1    2    0    0  0.00000000000E+00  0.00000000000E+00 -0.11145759494E+04  0.26263257072E+04  0.23780889751E+04 0.  0.
        3    1    3    3  502    0 -0.71317002615E+03  0.62891243657E+03 -0.13457325593E+04  0.16477677234E+04  0.10100000352E+00 0. -1.
       -3    1    3    3    0  502  0.71317002615E+03 -0.62891243657E+03  0.23115660994E+03  0.97855798376E+03  0.10100000352E+00 0.  1.
</event>
<event>
 5   0  0.1456876E-05  0.2536599E+04  0.7818609E-02  0.8390062E-01
        1   -1    0    0  501    0  0.00000000000E+00  0.00000000000E+00  0.13418687300E+04  0.13418687300E+04  0.50400001928E-02 0. -1.
       -1   -1    0    0    0  501  0.00000000000E+00  0.00000000000E+00 -0.11987635170E+04  0.11987635170E+04  0.50400001928E-02 0.  1.
    10030    2    1    2    0    0  0.00000000000E+00  0.00000000000E+00  0.14310521304E+03  0.25406322470E+04  0.25365987291E+04 0.  0.
        1    1    3    3  502    0  0.44197499507E+03 -0.14937516453E+03  0.12528042600E+04  0.13368520300E+04  0.50400001928E-02 0. -1.
       -1    1    3    3    0  502 -0.44197499507E+03  0.14937516453E+03 -0.11096990470E+04  0.12037802171E+04  0.50400001928E-02 0.  1.
</event>
<event>
 5   0  0.3581449E-05  0.2458966E+04  0.7818609E-02  0.8417752E-01
       -2   -1    0    0    0  501  0.00000000000E+00  0.00000000000E+00  0.11210489448E+04  0.11210489448E+04  0.25500000920E-02 0.  1.
        2   -1    0    0  501    0  0.00000000000E+00  0.00000000000E+00 -0.13484052986E+04  0.13484052986E+04  0.25500000920E-02 0. -1.
    10030    2    1    2    0    0  0.00000000000E+00  0.00000000000E+00 -0.22735635386E+03  0.24694542434E+04  0.24589659104E+04 0.  0.
        1    1    3    3  502    0  0.19821865689E+03 -0.55412723887E+03  0.97040786586E+03  0.11349180847E+04  0.50400001928E-02 0.  1.
       -1    1    3    3    0  502 -0.19821865689E+03  0.55412723887E+03 -0.11977642197E+04  0.13345361587E+04  0.50400001928E-02 0. -1.
</event>
<event>
 5   0  0.1502886E-05  0.2475943E+04  0.7818609E-02  0.8411606E-01
        1   -1    0    0  501    0  0.00000000000E+00  0.00000000000E+00  0.13682793158E+04  0.13682793158E+04  0.50400001928E-02 0.  1.
       -1   -1    0    0    0  501  0.00000000000E+00  0.00000000000E+00 -0.11200734005E+04  0.11200734005E+04  0.50400001928E-02 0. -1.
    10030    2    1    2    0    0  0.00000000000E+00  0.00000000000E+00  0.24820591529E+03  0.24883527163E+04  0.24759428637E+04 0.  0.
        4    1    3    3  502    0 -0.46904320157E+03 -0.50075324957E+02 -0.10262135295E+04  0.11294356485E+04  0.12699999809E+01 0. -1.
       -4    1    3    3    0  502  0.46904320157E+03  0.50075324957E+02  0.12744194447E+04  0.13589170678E+04  0.12699999809E+01 0.  1.
</event>
<event>
 5   0  0.1456876E-05  0.2505760E+04  0.7818609E-02  0.8400936E-01
        1   -1    0    0  501    0  0.00000000000E+00  0.00000000000E+00  0.85112595876E+03  0.85112595877E+03  0.50400001928E-02 0. -1.
       -1   -1    0    0    0  501  0.00000000000E+00  0.00000000000E+00 -0.18442731438E+04  0.18442731438E+04  0.50400001928E-02 0.  1.
    10030    2    1    2    0    0  0.00000000000E+00  0.00000000000E+00 -0.99314718505E+03  0.26953991026E+04  0.25057603619E+04 0.  0.
        1    1    3    3  502    0 -0.63976262559E+03 -0.55161422151E+03  0.49872751698E+03  0.98097074507E+03  0.50400001928E-02 0. -1.
       -1    1    3    3    0  502  0.63976262559E+03  0.55161422151E+03 -0.14918747020E+04  0.17144283575E+04  0.50400001928E-02 0.  1.
</event>
<event>
 5   0  0.1429483E-05  0.2686752E+04  0.7818609E-02  0.8339316E-01
        1   -1    0    0  501    0  0.00000000000E+00  0.00000000000E+00  0.11367386004E+04  0.11367386004E+04  0.50400001928E-02 0. -1.
       -1   -1    0    0    0  501  0.00000000000E+00  0.00000000000E+00 -0.15875759360E+04  0.15875759360E+04  0.50400001928E-02 0.  1.
    10030    2    1    2    0    0  0.00000000000E+00  0.00000000000E+00 -0.45083733563E+03  0.27243145364E+04  0.26867518288E+04 0.  0.
        2    1    3    3  502    0  0.12476447271E+04 -0.14378097017E+03  0.25807952720E+03  0.12821448338E+04  0.25500000920E-02 0. -1.
       -2    1    3    3    0  502 -0.12476447271E+04  0.14378097017E+03 -0.70891686283E+03  0.14421697025E+04  0.25500000920E-02 0.  1.
</event>
<event>
 5   0  0.3650620E-05  0.2503666E+04  0.7818609E-02  0.8401681E-01
       -2   -1    0    0    0  501  0.00000000000E+00  0.00000000000E+00  0.12495636090E+04  0.12495636090E+04  0.25500000920E-02 0.  1.
        2   -1    0    0  501    0  0.00000000000E+00  0.00000000000E+00 -0.12541061345E+04  0.12541061345E+04  0.25500000920E-02 0. -1.
    10030    2    1    2    0    0  0.00000000000E+00  0.00000000000E+00 -0.45425255441E+01  0.25036697435E+04  0.25036656226E+04 0.  0.
        3    1    3    3  502    0  0.78181769863E+03  0.56015317557E+03 -0.80356833434E+03  0.12532887026E+04  0.10100000352E+00 0. -1.
       -3    1    3    3    0  502 -0.78181769863E+03 -0.56015317557E+03  0.79902580879E+03  0.12503810408E+04  0.10100000352E+00 0.  1.
</event>
<event>
 5   0  0.1502886E-05  0.2508054E+04  0.7818609E-02  0.8400122E-01
        1   -1    0    0  501    0  0.00000000000E+00  0.00000000000E+00  0.13477117066E+04  0.13477117067E+04  0.50400001928E-02 0.  1.
       -1   -1    0    0    0  501  0.00000000000E+00  0.00000000000E+00 -0.11668544627E+04  0.11668544627E+04  0.50400001928E-02 0. -1.
    10030    2    1    2    0    0  0.00000000000E+00  0.00000000000E+00  0.18085724396E+03  0.25145661693E+04  0.25080537628E+04 0.  0.
        4    1    3    3  502    0 -0.26893349775E+03  0.93799210591E+03 -0.69928877885E+03  0.12004835801E+04  0.12699999809E+01 0. -1.
       -4    1    3    3    0  502  0.26893349775E+03 -0.93799210591E+03  0.88014602281E+03  0.13140825892E+04  0.12699999809E+01 0.  1.
</event>
<event>
 5   0  0.1429483E-05  0.2500137E+04  0.7818609E-02  0.8402937E-01
       -1   -1    0    0    0  501  0.00000000000E+00  0.00000000000E+00  0.72919892507E+03  0.72919892509E+03  0.50400001928E-02 0.  1.
        1   -1    0    0  501    0  0.00000000000E+00  0.00000000000E+00 -0.21429980158E+04  0.21429980158E+04  0.50400001928E-02 0. -1.
    10030    2    1    2    0    0  0.00000000000E+00  0.00000000000E+00 -0.14137990907E+04  0.28721969409E+04  0.25001374759E+04 0.  0.
        2    1    3    3  502    0 -0.90527887770E+03 -0.76837230646E+03 -0.25791101081E+03  0.12150900943E+04  0.25500000920E-02 0.  1.
       -2    1    3    3    0  502  0.90527887770E+03  0.76837230646E+03 -0.11558880799E+04  0.16571068466E+04  0.25500000920E-02 0. -1.
</event>
<event>
 5   0  0.3704241E-05  0.2518161E+04  0.7818609E-02  0.8396544E-01
        2   -1    0    0  501    0  0.00000000000E+00  0.00000000000E+00  0.12361295692E+04  0.12361295692E+04  0.25500000920E-02 0.  1.
       -2   -1    0    0    0  501  0.00000000000E+00  0.00000000000E+00 -0.12824570978E+04  0.12824570978E+04  0.25500000920E-02 0. -1.
    10030    2    1    2    0    0  0.00000000000E+00  0.00000000000E+00 -0.46327528623E+02  0.25185866669E+04  0.25181605507E+04 0.  0.
        2    1    3    3  502    0 -0.29669697216E+03 -0.94798771894E+03 -0.79696989393E+03  0.12735269217E+04  0.25500000920E-02 0. -1.
       -2    1    3    3    0  502  0.29669697216E+03  0.94798771894E+03  0.75064236531E+03  0.12450597452E+04  0.25500000920E-02 0.  1.
</event>
<event>
 5   0  0.1421242E-05  0.2268926E+04  0.7818609E-02  0.8490275E-01
        1   -1    0    0  501    0  0.00000000000E+00  0.00000000000E+00  0.12159080685E+04  0.12159080685E+04  0.50400001928E-02 0. -1.
       -1   -1    0    0    0  501  0.00000000000E+00  0.00000000000E+00 -0.10584731623E+04  0.10584731623E+04  0.50400001928E-02 0.  1.
    10030    2    1    2    0    0  0.00000000000E+00  0.00000000000E+00  0.15743490625E+03  0.22743812308E+04  0.22689257884E+04 0.  0.
        3    1    3    3  502    0 -0.38549932576E+03 -0.42321118548E+03  0.10605052178E+04  0.12051509303E+04  0.10100000352E+00 0. -1.
       -3    1    3    3    0  502  0.38549932576E+03  0.42321118548E+03 -0.90307031155E+03  0.10692303005E+04  0.10100000352E+00 0.  1.
</event>
<event>
 5   0  0.3579097E-05  0.2529888E+04  0.7818609E-02  0.8392414E-01
        2   -1    0    0  501    0  0.00000000000E+00  0.00000000000E+00  0.18128181441E+04  0.18128181441E+04  0.25500000920E-02 0. -1.
       -2   -1    0    0    0  501  0.00000000000E+00  0.00000000000E+00 -0.88264984544E+03  0.88264984545E+03  0.25500000920E-02 0.  1.
    10030    2    1    2    0    0  0.00000000000E+00  0.00000000000E+00  0.93016829868E+03  0.26954679896E+04  0.25298882621E+04 0.  0.
        5    1    3    3  502    0 -0.28424202266E+03 -0.38076431955E+03 -0.78394188236E+03  0.91671258277E+03  0.46999998093E+01 0.  1.
       -5    1    3    3    0  502  0.28424202266E+03  0.38076431955E+03  0.17141101810E+04  0.17787554068E+04  0.46999998093E+01 0. -1.
</event>
<event>
 5   0  0.1421242E-05  0.2549561E+04  0.7818609E-02  0.8385539E-01
        1   -1    0    0  501    0  0.00000000000E+00  0.00000000000E+00  0.14769503008E+04  0.14769503008E+04  0.50400001928E-02 0.  1.
       -1   -1    0    0    0  501  0.00000000000E+00  0.00000000000E+00 -0.11002845081E+04  0.11002845082E+04  0.50400001928E-02 0. -1.
    10030    2    1    2    0    0  0.00000000000E+00  0.00000000000E+00  0.37666579266E+03  0.25772348090E+04  0.25495611664E+04 0.  0.
        3    1    3    3  502    0  0.10644224737E+03 -0.11882344633E+04  0.64246916000E+03  0.13549899349E+04  0.10100000352E+00 0.  1.
       -3    1    3    3    0  502 -0.10644224737E+03  0.11882344633E+04 -0.26580336735E+03  0.12222448741E+04  0.10100000352E+00 0. -1.
</event>
<event>
 5   0  0.3704241E-05  0.2439160E+04  0.7818609E-02  0.8424986E-01
       -2   -1    0    0    0  501  0.00000000000E+00  0.00000000000E+00  0.10220219535E+04  0.10220219535E+04  0.25500000920E-02 0. -1.
        2   -1    0    0  501    0  0.00000000000E+00  0.00000000000E+00 -0.14553267101E+04  0.14553267101E+04  0.25500000920E-02 0.  1.
    10030    2    1    2    0    0  0.00000000000E+00  0.00000000000E+00 -0.43330475660E+03  0.24773486637E+04  0.24391603861E+04 0.  0.
        2    1    3    3  502    0 -0.61768880227E+03 -0.16312036623E+03  0.83847138775E+03  0.10541261682E+04  0.25500000920E-02 0. -1.
       -2    1    3    3    0  502  0.61768880227E+03  0.16312036623E+03 -0.12717761444E+04  0.14232224955E+04  0.25500000920E-02 0.  1.
</event>
<event>
 5   0  0.3578670E-05  0.2440311E+04  0.7818609E-02  0.8424564E-01
       -2   -1    0    0    0  501  0.00000000000E+00  0.00000000000E+00  0.11046993923E+04  0.11046993923E+04  0.25500000920E-02 0. -1.
        2   -1    0    0  501    0  0.00000000000E+00  0.00000000000E+00 -0.13476787861E+04  0.13476787861E+04  0.25500000920E-02 0.  1.
    10030    2    1    2    0    0  0.00000000000E+00  0.00000000000E+00 -0.24297939371E+03  0.24523781784E+04  0.24403114031E+04 0.  0.
        4    1    3    3  502    0  0.27545037998E+03  0.60143811528E+03  0.90884955163E+03  0.11241040160E+04  0.12699999809E+01 0. -1.
       -4    1    3    3    0  502 -0.27545037998E+03 -0.60143811528E+03 -0.11518289453E+04  0.13282741624E+04  0.12699999809E+01 0.  1.
</event>
<event>
 5   0  0.1456876E-05  0.2455726E+04  0.7818609E-02  0.8418930E-01
        1   -1    0    0  501    0  0.00000000000E+00  0.00000000000E+00  0.13782628817E+04  0.13782628817E+04  0.50400001928E-02 0. -1.
       -1   -1    0    0    0  501  0.00000000000E+00  0.00000000000E+00 -0.10938752482E+04  0.10938752482E+04  0.50400001928E-02 0.  1.
    10030    2    1    2    0    0  0.00000000000E+00  0.00000000000E+00  0.28438763347E+03  0.24721381299E+04  0.24557260855E+04 0.  0.
        1    1    3    3  502    0  0.29375521914E+03  0.10435950688E+04 -0.43808272383E+03  0.11693157269E+04  0.50400001928E-02 0.  1.
       -1    1    3    3    0  502 -0.29375521914E+03 -0.10435950688E+04  0.72247035730E+03  0.13028224029E+04  0.50400001928E-02 0. -1.
</event>
<event>
 5   0  0.3650620E-05  0.2555220E+04  0.7818609E-02  0.8383573E-01
        2   -1    0    0  501    0  0.00000000000E+00  0.00000000000E+00  0.28472406605E+04  0.28472406605E+04  0.25500000920E-02 0.  1.
       -2   -1    0    0    0  501  0.00000000000E+00  0.00000000000E+00 -0.57328754219E+03  0.57328754219E+03  0.25500000920E-02 0. -1.
    10030    2    1    2    0    0  0.00000000000E+00  0.00000000000E+00  0.22739531183E+04  0.34205282027E+04  0.25552202256E+04 0.  0.
        3    1    3    3  502    0 -0.90550481274E+03  0.42975873662E+03  0.76439864557E+02  0.10052236570E+04  0.10100000352E+00 0. -1.
       -3    1    3    3    0  502  0.90550481274E+03 -0.42975873662E+03  0.21975132538E+04  0.24153045457E+04  0.10100000352E+00 0.  1.
</event>
<event>
 5   0  0.3704241E-05  0.2499856E+04  0.7818609E-02  0.8403037E-01
       -2   -1    0    0    0  501  0.00000000000E+00  0.00000000000E+00  0.11705984327E+04  0.11705984327E+04  0.25500000920E-02 0.  1.
        2   -1    0    0  501    0  0.00000000000E+00  0.00000000000E+00 -0.13346332793E+04  0.13346332793E+04  0.25500000920E-02 0. -1.
    10030    2    1    2    0    0  0.00000000000E+00  0.00000000000E+00 -0.16403484665E+03  0.25052317120E+04  0.24998556958E+04 0.  0.
        2    1    3    3  502    0 -0.82491613003E+03 -0.71307398561E+03  0.53032729891E+03  0.12125214120E+04  0.25500000920E-02 0.  1.
       -2    1    3    3    0  502  0.82491613003E+03  0.71307398561E+03 -0.69436214556E+03  0.12927103000E+04  0.25500000920E-02 0. -1.
</event>
<event>
 5   0  0.1421242E-05  0.2588446E+04  0.7818609E-02  0.8372136E-01
        1   -1    0    0  501    0  0.00000000000E+00  0.00000000000E+00  0.12703600296E+04  0.12703600296E+04  0.50400001928E-02 0. -1.
       -1   -1    0    0    0  501  0.00000000000E+00  0.00000000000E+00 -0.13185342941E+04  0.13185342941E+04  0.50400001928E-02 0.  1.
    10030    2    1    2    0    0  0.00000000000E+00  0.00000000000E+00 -0.48174264464E+02  0.25888943238E+04  0.25884460705E+04 0.  0.
        3    1    3    3  502    0  0.12761668562E+03  0.11505195828E+04  0.55483252879E+03  0.12836745982E+04  0.10100000352E+00 0. -1.
       -3    1    3    3    0  502 -0.12761668562E+03 -0.11505195828E+04 -0.60300679325E+03  0.13052197255E+04  0.10100000352E+00 0.  1.
</event>
<event>
 5   0  0.1492639E-05  0.2507876E+04  0.7818609E-02  0.8400185E-01
        1   -1    0    0  501    0  0.00000000000E+00  0.00000000000E+00  0.17249585244E+04  0.17249585244E+04  0.50400001928E-02 0. -1.
       -1   -1    0    0    0  501  0.00000000000E+00  0.00000000000E+00 -0.91153497589E+03  0.91153497591E+03  0.50400001928E-02 0.  1.
    10030    2    1    2    0    0  0.00000000000E+00  0.00000000000E+00  0.81342354854E+03  0.26364935003E+04  0.25078756165E+04 0.  0.
        5    1    3    3  502    0 -0.12226082129E+03 -0.45383778083E+03 -0.81541461985E+03  0.94119048657E+03  0.46999998093E+01 0.  1.
       -5    1    3    3    0  502  0.12226082129E+03  0.45383778083E+03  0.16288381684E+04  0.16953030138E+04  0.46999998093E+01 0. -1.
</event>
<event>
 5   0  0.1502886E-05  0.2514076E+04  0.7818609E-02  0.8397988E-01
       -1   -1    0    0    0  501  0.00000000000E+00  0.00000000000E+00  0.13147688647E+04  0.13147688647E+04  0.50400001928E-02 0.  1.
        1   -1    0    0  501    0  0.00000000000E+00  0.00000000000E+00 -0.12018421593E+04  0.12018421593E+04  0.50400001928E-02 0. -1.
    10030    2    1    2    0    0  0.00000000000E+00  0.00000000000E+00  0.11292670535E+03  0.25166110240E+04  0.25140760938E+04 0.  0.
        4    1    3    3  502    0  0.98727654824E+03  0.77772280926E+03  0.80472693101E+02  0.12593828719E+04  0.12699999809E+01 0.  1.
       -4    1    3    3    0  502 -0.98727654824E+03 -0.77772280926E+03  0.32454012248E+02  0.12572281522E+04  0.12699999809E+01 0. -1.
</event>
<event>
 5   0  0.3650620E-05  0.2505262E+04  0.7818609E-02  0.8401113E-01
        2   -1    0    0  501    0  0.00000000000E+00  0.00000000000E+00  0.15650330452E+04  0.15650330452E+04  0.25500000920E-02 0.  1.
       -2   -1    0    0    0  501  0.00000000000E+00  0.00000000000E+00 -0.10025889133E+04  0.10025889133E+04  0.25500000920E-02 0. -1.
    10030    2    1    2    0    0  0.00000000000E+00  0.00000000000E+00  0.56244413192E+03  0.25676219585E+04  0.25052622857E+04 0.  0.
        3    1    3    3  502    0 -0.70264959051E+03 -0.32217134675E+03 -0.72899758136E+03  0.10625197916E+04  0.10100000352E+00 0. -1.
       -3    1    3    3    0  502  0.70264959051E+03  0.32217134675E+03  0.12914417133E+04  0.15051021669E+04  0.10100000352E+00 0.  1.
</event>
<event>
 5   0  0.3704241E-05  0.2524225E+04  0.7818609E-02  0.8394406E-01
       -2   -1    0    0    0  501  0.00000000000E+00  0.00000000000E+00  0.94914601113E+03  0.94914601113E+03  0.25500000920E-02 0. -1.
        2   -1    0    0  501    0  0.00000000000E+00  0.00000000000E+00 -0.16782744842E+04  0.16782744842E+04  0.25500000920E-02 0.  1.
    10030    2    1    2    0    0  0.00000000000E+00  0.00000000000E+00 -0.72912847312E+03  0.26274204954E+04  0.25242246590E+04 0.  0.
        2    1    3    3  502    0 -0.20660903503E+03  0.79290894512E+03 -0.13637762507E+04  0.15909989160E+04  0.25500000920E-02 0.  1.
       -2    1    3    3    0  502  0.20660903503E+03 -0.79290894512E+03  0.63464777760E+03  0.10364215794E+04  0.25500000920E-02 0. -1.
</event>
<event>
 5   0  0.3578670E-05  0.2523867E+04  0.7818609E-02  0.8394532E-01
       -2   -1    0    0    0  501  0.00000000000E+00  0.00000000000E+00  0.76406101433E+03  0.76406101433E+03  0.25500000920E-02 0.  1.
        2   -1    0    0  501    0  0.00000000000E+00  0.00000000000E+00 -0.20842268772E+04  0.20842268772E+04  0.25500000920E-02 0. -1.
    10030    2    1    2    0    0  0.00000000000E+00  0.00000000000E+00 -0.13201658629E+04  0.28482878915E+04  0.25238672722E+04 0.  0.
        4    1    3    3  502    0  0.93089322891E+03 -0.75956437889E+03 -0.10956685610E+04  0.16260355032E+04  0.12699999809E+01 0.  1.
       -4    1    3    3    0  502 -0.93089322891E+03  0.75956437889E+03 -0.22449730190E+03  0.12222523883E+04  0.12699999809E+01 0. -1.
</event>
<event>
 5   0  0.1429483E-05  0.2350958E+04  0.7818609E-02  0.8458096E-01
        1   -1    0    0  501    0  0.00000000000E+00  0.00000000000E+00  0.16363683113E+04  0.16363683113E+04  0.50400001928E-02 0. -1.
       -1   -1    0    0    0  501  0.00000000000E+00  0.00000000000E+00 -0.84440077503E+03  0.84440077505E+03  0.50400001928E-02 0.  1.
    10030    2    1    2    0    0  0.00000000000E+00  0.00000000000E+00  0.79196753631E+03  0.24807690864E+04  0.23509578221E+04 0.  0.
        2    1    3    3  502    0  0.16012776056E+03  0.11518380207E+04  0.57685087829E+03  0.12981250562E+04  0.25500000920E-02 0.  1.
       -2    1    3    3    0  502 -0.16012776056E+03 -0.11518380207E+04  0.21511665802E+03  0.11826440302E+04  0.25500000920E-02 0. -1.
</event>
<event>
 5   0  0.3650620E-05  0.2488792E+04  0.7818609E-02  0.8406989E-01
        2   -1    0    0  501    0  0.00000000000E+00  0.00000000000E+00  0.17965013322E+04  0.17965013322E+04  0.25500000920E-02 0.  1.
       -2   -1    0    0    0  501  0.00000000000E+00  0.00000000000E+00 -0.86196476579E+03  0.86196476580E+03  0.25500000920E-02 0. -1.
    10030    2    1    2    0    0  0.00000000000E+00  0.00000000000E+00  0.93453656636E+03  0.26584660980E+04  0.24887915542E+04 0.  0.
        3    1    3    3  502    0  0.12837183236E+03 -0.38734587243E+03  0.17230014355E+04  0.17706637482E+04  0.10100000352E+00 0.  1.
       -3    1    3    3    0  502 -0.12837183236E+03  0.38734587243E+03 -0.78846486912E+03  0.88780234978E+03  0.10100000352E+00 0. -1.
</event>
<event>
 5   0  0.3704241E-05  0.2447447E+04  0.7818609E-02  0.8421951E-01
        2   -1    0    0  501    0  0.00000000000E+00  0.00000000000E+00  0.13861336238E+04  0.13861336239E+04  0.25500000920E-02 0. -1.
       -2   -1    0    0    0  501  0.00000000000E+00  0.00000000000E+00 -0.10803423365E+04  0.10803423365E+04  0.25500000920E-02 0.  1.
    10030    2    1    2    0    0  0.00000000000E+00  0.00000000000E+00  0.30579128738E+03  0.24664759603E+04  0.24474467004E+04 0.  0.
        2    1    3    3  502    0  0.10730619301E+04 -0.58272983617E+03  0.71878606151E+02  0.12231935668E+04  0.25500000920E-02 0. -1.
       -2    1    3    3    0  502 -0.10730619301E+04  0.58272983617E+03  0.23391268123E+03  0.12432823936E+04  0.25500000920E-02 0.  1.
</event>
<event>
 5   0  0.1456876E-05  0.2318184E+04  0.7818609E-02  0.8470786E-01
        1   -1    0    0  501    0  0.00000000000E+00  0.00000000000E+00  0.10480356465E+04  0.10480356465E+04  0.50400001928E-02 0.  1.
       -1   -1    0    0    0  501  0.00000000000E+00  0.00000000000E+00 -0.12819163979E+04  0.12819163979E+04  0.50400001928E-02 0. -1.
    10030    2    1    2    0    0  0.00000000000E+00  0.00000000000E+00 -0.23388075139E+03  0.23299520444E+04  0.23181838415E+04 0.  0.
        1    1    3    3  502    0  0.28784821842E+03  0.64410327678E+03 -0.10412656939E+04  0.12577598632E+04  0.50400001928E-02 0. -1.
       -1    1    3    3    0  502 -0.28784821842E+03 -0.64410327678E+03  0.80738494253E+03  0.10721921812E+04  0.50400001928E-02 0.  1.
</event>
<event>
 5   0  0.1492639E-05  0.2534923E+04  0.7818609E-02  0.8390649E-01
       -1   -1    0    0    0  501  0.00000000000E+00  0.00000000000E+00  0.10489354108E+04  0.10489354108E+04  0.50400001928E-02 0. -1.
        1   -1    0    0  501    0  0.00000000000E+00  0.00000000000E+00 -0.15315134005E+04  0.15315134005E+04  0.50400001928E-02 0.  1.
    10030    2    1    2    0    0  0.00000000000E+00  0.00000000000E+00 -0.48257798970E+03  0.25804488114E+04  0.25349229874E+04 0.  0.
        5    1    3    3  502    0  0.95811746510E+03  0.39507151784E+03  0.50144896545E+03  0.11513226030E+04  0.46999998093E+01 0. -1.
       -5    1    3    3    0  502 -0.95811746510E+03 -0.39507151784E+03 -0.98402695515E+03  0.14291262084E+04  0.46999998093E+01 0.  1.
</event>
<event>
 5   0  0.1502886E-05  0.1941650E+04  0.7818609E-02  0.8634398E-01
       -1   -1    0    0    0  501  0.00000000000E+00  0.00000000000E+00  0.55054916044E+03  0.55054916047E+03  0.50400001928E-02 0. -1.
        1   -1    0    0  501    0  0.00000000000E+00  0.00000000000E+00 -0.17119283568E+04  0.17119283568E+04  0.50400001928E-02 0.  1.
    10030    2    1    2    0    0  0.00000000000E+00  0.00000000000E+00 -0.11613791963E+04  0.22624775173E+04  0.19416495251E+04 0.  0.
        4    1    3    3  502    0 -0.73057107304E+03  0.60620838836E+03 -0.81742562671E+03  0.12527605402E+04  0.12699999809E+01 0.  1.
       -4    1    3    3    0  502  0.73057107304E+03 -0.60620838836E+03 -0.34395356963E+03  0.10097169771E+04  0.12699999809E+01 0. -1.
</event>
<event>
 5   0  0.1421242E-05  0.2469727E+04  0.7818609E-02  0.8413851E-01
        1   -1    0    0  501    0  0.00000000000E+00  0.00000000000E+00  0.12069607890E+04  0.12069607890E+04  0.50400001928E-02 0. -1.
       -1   -1    0    0    0  501  0.00000000000E+00  0.00000000000E+00 -0.12634111925E+04  0.12634111925E+04  0.50400001928E-02 0.  1.
    10030    2    1    2    0    0  0.00000000000E+00  0.00000000000E+00 -0.56450403504E+02  0.24703719814E+04  0.24697269239E+04 0.  0.
        3    1    3    3  502    0  0.10214654970E+04 -0.16906305774E+03  0.64493919168E+03  0.12198035293E+04  0.10100000352E+00 0. -1.
       -3    1    3    3    0  502 -0.10214654970E+04  0.16906305774E+03 -0.70138959519E+03  0.12505684521E+04  0.10100000352E+00 0.  1.
</event>
<event>
 5   0  0.3579097E-05  0.2499846E+04  0.7818609E-02  0.8403040E-01
        2   -1    0    0  501    0  0.00000000000E+00  0.00000000000E+00  0.11172345328E+04  0.11172345329E+04  0.25500000920E-02 0.  1.
       -2   -1    0    0    0  501  0.00000000000E+00  0.00000000000E+00 -0.13983701846E+04  0.13983701846E+04  0.25500000920E-02 0. -1.
    10030    2    1    2    0    0  0.00000000000E+00  0.00000000000E+00 -0.28113565178E+03  0.25156047175E+04  0.24998459632E+04 0.  0.
        5    1    3    3  502    0 -0.86398646258E+03 -0.44600768389E+03  0.64980679121E+03  0.11694727092E+04  0.46999998093E+01 0.  1.
       -5    1    3    3    0  502  0.86398646258E+03  0.44600768389E+03 -0.93094244299E+03  0.13461320083E+04  0.46999998093E+01 0. -1.
</event>
<event>
 5   0  0.1502886E-05  0.2487707E+04  0.7818609E-02  0.8407378E-01
        1   -1    0    0  501    0  0.00000000000E+00  0.00000000000E+00  0.15933271339E+04  0.15933271339E+04  0.50400001928E-02 0.  1.
       -1   -1    0    0    0  501  0.00000000000E+00  0.00000000000E+00 -0.97103187851E+03  0.97103187853E+03  0.50400001928E-02 0. -1.
    10030    2    1    2    0    0  0.00000000000E+00  0.00000000000E+00  0.62229525538E+03  0.25643590124E+04  0.24877069280E+04 0.  0.
        4    1    3    3  502    0 -0.64119102750E+03 -0.88507068564E+03 -0.30103148582E+03  0.11336214627E+04  0.12699999809E+01 0. -1.
       -4    1    3    3    0  502  0.64119102750E+03  0.88507068564E+03  0.92332674120E+03  0.14307375497E+04  0.12699999809E+01 0.  1.
</event>
<event>
 5   0  0.3581449E-05  0.2523279E+04  0.7818609E-02  0.8394739E-01
       -2   -1    0    0    0  501  0.00000000000E+00  0.00000000000E+00  0.12246772496E+04  0.12246772496E+04  0.25500000920E-02 0. -1.
        2   -1    0    0  501    0  0.00000000000E+00  0.00000000000E+00 -0.12997173947E+04  0.12997173947E+04  0.25500000920E-02 0.  1.
    10030    2    1    2    0    0  0.00000000000E+00  0.00000000000E+00 -0.75040145106E+02  0.25243946444E+04  0.25232790764E+04 0.  0.
        1    1    3    3  502    0 -0.21274705277E+03  0.11638229766E+04  0.40083924715E+03  0.12491666548E+04  0.50400001928E-02 0. -1.
       -1    1    3    3    0  502  0.21274705277E+03 -0.11638229766E+04 -0.47587939226E+03  0.12752279896E+04  0.50400001928E-02 0.  1.
</event>
<event>
 5   0  0.1429483E-05  0.1965353E+04  0.7818609E-02  0.8622993E-01
       -1   -1    0    0    0  501  0.00000000000E+00  0.00000000000E+00  0.34408112061E+03  0.34408112065E+03  0.50400001928E-02 0.  1.
        1   -1    0    0  501    0  0.00000000000E+00  0.00000000000E+00 -0.28064706141E+04  0.28064706141E+04  0.50400001928E-02 0. -1.
    10030    2    1    2    0    0  0.00000000000E+00  0.00000000000E+00 -0.24623894935E+04  0.31505517347E+04  0.19653534582E+04 0.  0.
        2    1    3    3  502    0  0.81769169525E+03 -0.35755145364E+03 -0.57181694151E+03  0.10599232826E+04  0.25500000920E-02 0.  1.
       -2    1    3    3    0  502 -0.81769169525E+03  0.35755145364E+03 -0.18905725520E+04  0.20906284521E+04  0.25500000920E-02 0. -1.
</event>
<event>
 5   0  0.1421242E-05  0.2536425E+04  0.7818609E-02  0.8390123E-01
       -1   -1    0    0    0  501  0.00000000000E+00  0.00000000000E+00  0.86838233804E+03  0.86838233806E+03  0.50400001928E-02 0. -1.
        1   -1    0    0  501    0  0.00000000000E+00  0.00000000000E+00 -0.18521375218E+04  0.18521375218E+04  0.50400001928E-02 0.  1.
    10030    2    1    2    0    0  0.00000000000E+00  0.00000000000E+00 -0.98375518372E+03  0.27205198598E+04  0.25364254466E+04 0.  0.
        3    1    3    3  502    0  0.11934650211E+04 -0.62851455199E+02 -0.94700366499E+03  0.15248360612E+04  0.10100000352E+00 0.  1.
       -3    1    3    3    0  502 -0.11934650211E+04  0.62851455199E+02 -0.36751518724E+02  0.11956837986E+04  0.10100000352E+00 0. -1.
</event>
<event>
 5   0  0.3581449E-05  0.2505570E+04  0.7818609E-02  0.8401004E-01
       -2   -1    0    0    0  501  0.00000000000E+00  0.00000000000E+00  0.57923308363E+03  0.57923308363E+03  0.25500000920E-02 0.  1.
        2   -1    0    0  501    0  0.00000000000E+00  0.00000000000E+00 -0.27095656678E+04  0.27095656678E+04  0.25500000920E-02 0. -1.
    10030    2    1    2    0    0  0.00000000000E+00  0.00000000000E+00 -0.21303325841E+04  0.32887987514E+04  0.25055698570E+04 0.  0.
        1    1    3    3  502    0  0.32450570963E+03 -0.94646884582E+03 -0.75602894361E+02  0.10034057152E+04  0.50400001928E-02 0.  1.
       -1    1    3    3    0  502 -0.32450570963E+03  0.94646884582E+03 -0.20547296898E+04  0.22853930362E+04  0.50400001928E-02 0. -1.
</event>
<event>
 5   0  0.1502886E-05  0.2716778E+04  0.7818609E-02  0.8329581E-01
       -1   -1    0    0    0  501  0.00000000000E+00  0.00000000000E+00  0.14535243635E+04  0.14535243635E+04  0.50400001928E-02 0. -1.
        1   -1    0    0  501    0  0.00000000000E+00  0.00000000000E+00 -0.12694805695E+04  0.12694805696E+04  0.50400001928E-02 0.  1.
    10030    2    1    2    0    0  0.00000000000E+00  0.00000000000E+00  0.18404379395E+03  0.27230049331E+04  0.27167781925E+04 0.  0.
        4    1    3    3  502    0  0.88139593713E+02 -0.93801544821E+03  0.10728237324E+04  0.14277933824E+04  0.12699999809E+01 0. -1.
       -4    1    3    3    0  502 -0.88139593713E+02  0.93801544821E+03 -0.88877993846E+03  0.12952115507E+04  0.12699999809E+01 0.  1.
</event>
<event>
 5   0  0.3704241E-05  0.2466828E+04  0.7818609E-02  0.8414899E-01
       -2   -1    0    0    0  501  0.00000000000E+00  0.00000000000E+00  0.79961009599E+03  0.79961009599E+03  0.25500000920E-02 0.  1.
        2   -1    0    0  501    0  0.00000000000E+00  0.00000000000E+00 -0.19025653456E+04  0.19025653456E+04  0.25500000920E-02 0. -1.
    10030    2    1    2    0    0  0.00000000000E+00  0.00000000000E+00 -0.11029552496E+04  0.27021754416E+04  0.24668282945E+04 0.  0.
        2    1    3    3  502    0  0.12279302840E+04 -0.11580192871E+03 -0.56172944645E+03  0.13552722383E+04  0.25500000920E-02 0. -1.
       -2    1    3    3    0  502 -0.12279302840E+04  0.11580192871E+03 -0.54122580318E+03  0.13469032033E+04  0.25500000920E-02 0.  1.
</event>
<event>
 5   0  0.1492639E-05  0.2556213E+04  0.7818609E-02  0.8383229E-01
       -1   -1    0    0    0  501  0.00000000000E+00  0.00000000000E+00  0.16512388791E+04  0.16512388791E+04  0.50400001928E-02 0. -1.
        1   -1    0    0  501    0  0.00000000000E+00  0.00000000000E+00 -0.98929130108E+03  0.98929130109E+03  0.50400001928E-02 0.  1.
    10030    2    1    2    0    0  0.00000000000E+00  0.00000000000E+00  0.66194757802E+03  0.26405301802E+04  0.25562130264E+04 0.  0.
        5    1    3    3  502    0 -0.83450441079E+03  0.93382991495E+03  0.59453332870E+03  0.13863361391E+04  0.46999998093E+01 0. -1.
       -5    1    3    3    0  502  0.83450441079E+03 -0.93382991495E+03  0.67414249318E+02  0.12541940411E+04  0.46999998093E+01 0.  1.
</event>
<event>
 5   0  0.3650620E-05  0.2528448E+04  0.7818609E-02  0.8392920E-01
       -2   -1    0    0    0  501  0.00000000000E+00  0.00000000000E+00  0.77316361081E+03  0.77316361081E+03  0.25500000920E-02 0. -1.
        2   -1    0    0  501    0  0.00000000000E+00  0.00000000000E+00 -0.20671717086E+04  0.20671717086E+04  0.25500000920E-02 0.  1.
    10030    2    1    2    0    0  0.00000000000E+00  0.00000000000E+00 -0.12940080978E+04  0.28403353194E+04  0.25284476996E+04 0.  0.
        3    1    3    3  502    0 -0.10577247171E+04 -0.28236533649E+03  0.63243868529E+02  0.10965908798E+04  0.10100000352E+00 0. -1.
       -3    1    3    3    0  502  0.10577247171E+04  0.28236533649E+03 -0.13572519663E+04  0.17437444396E+04  0.10100000352E+00 0.  1.
</event>
<event>
 5   0  0.1429483E-05  0.2483280E+04  0.7818609E-02  0.8408966E-01
       -1   -1    0    0    0  501  0.00000000000E+00  0.00000000000E+00  0.52890505588E+03  0.52890505591E+03  0.50400001928E-02 0.  1.
        1   -1    0    0  501    0  0.00000000000E+00  0.00000000000E+00 -0.29148325622E+04  0.29148325622E+04  0.50400001928E-02 0. -1.
    10030    2    1    2    0    0  0.00000000000E+00  0.00000000000E+00 -0.23859275063E+04  0.34437376181E+04  0.24832798306E+04 0.  0.
        2    1    3    3  502    0  0.72250589029E+03 -0.98064346353E+03 -0.15269229143E+04  0.19532460035E+04  0.25500000920E-02 0. -1.
       -2    1    3    3    0  502 -0.72250589029E+03  0.98064346353E+03 -0.85900459205E+03  0.14904916146E+04  0.25500000920E-02 0.  1.
</event>
<event>
 5   0  0.3704241E-05  0.2498191E+04  0.7818609E-02  0.8403630E-01
        2   -1    0    0  501    0  0.00000000000E+00  0.00000000000E+00  0.71716438986E+03  0.71716438987E+03  0.25500000920E-02 0. -1.
       -2   -1    0    0    0  501  0.00000000000E+00  0.00000000000E+00 -0.21755679218E+04  0.21755679218E+04  0.25500000920E-02 0.  1.
    10030    2    1    2    0    0  0.00000000000E+00  0.00000000000E+00 -0.14584035319E+04  0.28927323117E+04  0.24981912187E+04 0.  0.
        2    1    3    3  502    0 -0.11344553094E+04 -0.29760102340E+02 -0.12489357571E+03  0.11416973845E+04  0.25500000920E-02 0. -1.
       -2    1    3    3    0  502  0.11344553094E+04  0.29760102340E+02 -0.13335099562E+04  0.17510349271E+04  0.25500000920E-02 0.  1.
</event>
<event>
 5   0  0.3581449E-05  0.2485577E+04  0.7818609E-02  0.8408142E-01
       -2   -1    0    0    0  501  0.00000000000E+00  0.00000000000E+00  0.91947232739E+03  0.91947232739E+03  0.25500000920E-02 0.  1.
        2   -1    0    0  501    0  0.00000000000E+00  0.00000000000E+00 -0.16797934451E+04  0.16797934451E+04  0.25500000920E-02 0. -1.
    10030    2    1    2    0    0  0.00000000000E+00  0.00000000000E+00 -0.76032111775E+03  0.25992657725E+04  0.24855772678E+04 0.  0.
        1    1    3    3  502    0  0.47923474815E+02  0.44433409376E+03 -0.15928548245E+04  0.16543626985E+04  0.50400001928E-02 0. -1.
       -1    1    3    3    0  502 -0.47923474815E+02 -0.44433409376E+03  0.83253370676E+03  0.94490307399E+03  0.50400001928E-02 0.  1.
</event>
<event>
 5   0  0.1421242E-05  0.2942367E+04  0.7818609E-02  0.8260383E-01
        1   -1    0    0  501    0  0.00000000000E+00  0.00000000000E+00  0.78085940508E+03  0.78085940510E+03  0.50400001928E-02 0.  1.
       -1   -1    0    0    0  501  0.00000000000E+00  0.00000000000E+00 -0.27717929881E+04  0.27717929881E+04  0.50400001928E-02 0. -1.
    10030    2    1    2    0    0  0.00000000000E+00  0.00000000000E+00 -0.19909335830E+04  0.35526523932E+04  0.29423668185E+04 0.  0.
        3    1    3    3  502    0  0.90579964361E+03  0.49161785107E+02 -0.23939258012E+04  0.25600333254E+04  0.10100000352E+00 0. -1.
       -3    1    3    3    0  502 -0.90579964361E+03 -0.49161785107E+02  0.40299221821E+03  0.99261906773E+03  0.10100000352E+00 0.  1.
</event>
<event>
 5   0  0.1502886E-05  0.2514036E+04  0.7818609E-02  0.8398002E-01
       -1   -1    0    0    0  501  0.00000000000E+00  0.00000000000E+00  0.11090511138E+04  0.11090511138E+04  0.50400001928E-02 0.  1.
        1   -1    0    0  501    0  0.00000000000E+00  0.00000000000E+00 -0.14247257406E+04  0.14247257406E+04  0.50400001928E-02 0. -1.
    10030    2    1    2    0    0  0.00000000000E+00  0.00000000000E+00 -0.31567462682E+03  0.25337768544E+04  0.25140355363E+04 0.  0.
        4    1    3    3  502    0 -0.10624659852E+04 -0.10212427299E+03 -0.82700027230E+03  0.13502571607E+04  0.12699999809E+01 0. -1.
       -4    1    3    3    0  502  0.10624659852E+04  0.10212427299E+03  0.51132564547E+03  0.11835196937E+04  0.12699999809E+01 0.  1.
</event>
<event>
 5   0  0.3704241E-05  0.2372105E+04  0.7818609E-02  0.8450021E-01
        2   -1    0    0  501    0  0.00000000000E+00  0.00000000000E+00  0.22349314983E+04  0.22349314983E+04  0.25500000920E-02 0. -1.
       -2   -1    0    0    0  501  0.00000000000E+00  0.00000000000E+00 -0.62942460896E+03  0.62942460897E+03  0.25500000920E-02 0.  1.
    10030    2    1    2    0    0  0.00000000000E+00  0.00000000000E+00  0.16055068893E+04  0.28643561073E+04  0.23721052965E+04 0.  0.
        2    1    3    3  502    0 -0.83349094850E+03 -0.17722607354E+03 -0.19343270727E+03  0.87380344164E+03  0.25500000920E-02 0.  1.
       -2    1    3    3    0  502  0.83349094850E+03  0.17722607354E+03  0.17989395966E+04  0.19905526656E+04  0.25500000920E-02 0. -1.
</event>
<event>
 5   0  0.3578670E-05  0.2491166E+04  0.7818609E-02  0.8406139E-01
       -2   -1    0    0    0  501  0.00000000000E+00  0.00000000000E+00  0.78669389553E+03  0.78669389554E+03  0.25500000920E-02 0. -1.
        2   -1    0    0  501    0  0.00000000000E+00  0.00000000000E+00 -0.19721487481E+04  0.19721487481E+04  0.25500000920E-02 0.  1.
    10030    2    1    2    0    0  0.00000000000E+00  0.00000000000E+00 -0.11854548526E+04  0.27588426436E+04  0.24911662981E+04 0.  0.
        4    1    3    3  502    0 -0.19246179757E+03 -0.41175185643E+03  0.69157806873E+03  0.82756448259E+03  0.12699999809E+01 0. -1.
       -4    1    3    3    0  502  0.19246179757E+03  0.41175185643E+03 -0.18770329213E+04  0.19312781610E+04  0.12699999809E+01 0.  1.
</event>
<event>
 5   0  0.3650620E-05  0.2517396E+04  0.7818609E-02  0.8396814E-01
        2   -1    0    0  501    0  0.00000000000E+00  0.00000000000E+00  0.13519620386E+04  0.13519620386E+04  0.25500000920E-02 0. -1.
       -2   -1    0    0    0  501  0.00000000000E+00  0.00000000000E+00 -0.11718680300E+04  0.11718680300E+04  0.25500000920E-02 0.  1.
    10030    2    1    2    0    0  0.00000000000E+00  0.00000000000E+00  0.18009400864E+03  0.25238300686E+04  0.25173963461E+04 0.  0.
        3    1    3    3  502    0 -0.76736571394E+03 -0.77812288716E+02 -0.90718915817E+03  0.11907548321E+04  0.10100000352E+00 0.  1.
       -3    1    3    3    0  502  0.76736571394E+03  0.77812288716E+02  0.10872831668E+04  0.13330752365E+04  0.10100000352E+00 0. -1.
</event>
<event>
 5   0  0.3579097E-05  0.2470161E+04  0.7818609E-02  0.8413694E-01
        2   -1    0    0  501    0  0.00000000000E+00  0.00000000000E+00  0.14171760707E+04  0.14171760707E+04  0.25500000920E-02 0.  1.
       -2   -1    0    0    0  501  0.00000000000E+00  0.00000000000E+00 -0.10763823190E+04  0.10763823190E+04  0.25500000920E-02 0. -1.
    10030    2    1    2    0    0  0.00000000000E+00  0.00000000000E+00  0.34079375172E+03  0.24935583897E+04  0.24701605336E+04 0.  0.
        5    1    3    3  502    0  0.11002705483E+04 -0.83122307564E+02  0.73053714352E+03  0.13233333690E+04  0.46999998093E+01 0.  1.
       -5    1    3    3    0  502 -0.11002705483E+04  0.83122307564E+02 -0.38974339180E+03  0.11702250207E+04  0.46999998093E+01 0. -1.
</event>
<event>
 5   0  0.1502886E-05  0.2489434E+04  0.7818609E-02  0.8406759E-01
        1   -1    0    0  501    0  0.00000000000E+00  0.00000000000E+00  0.17722638543E+04  0.17722638544E+04  0.50400001928E-02 0.  1.
       -1   -1    0    0    0  501  0.00000000000E+00  0.00000000000E+00 -0.87420399878E+03  0.87420399879E+03  0.50400001928E-02 0. -1.
    10030    2    1    2    0    0  0.00000000000E+00  0.00000000000E+00  0.89805985557E+03  0.26464678531E+04  0.24894337897E+04 0.  0.
        4    1    3    3  502    0  0.75196916305E+03 -0.18198965500E+03  0.14855962175E+04  0.16749852510E+04  0.12699999809E+01 0.  1.
       -4    1    3    3    0  502 -0.75196916305E+03  0.18198965500E+03 -0.58753636196E+03  0.97148260212E+03  0.12699999809E+01 0. -1.
</event>
<event>
 5   0  0.1492639E-05  0.2513077E+04  0.7818609E-02  0.8398342E-01
       -1   -1    0    0    0  501  0.00000000000E+00  0.00000000000E+00  0.10627663939E+04  0.10627663939E+04  0.50400001928E-02 0.  1.
        1   -1    0    0  501    0  0.00000000000E+00  0.00000000000E+00 -0.14856403680E+04  0.14856403680E+04  0.50400001928E-02 0. -1.
    10030    2    1    2    0    0  0.00000000000E+00  0.00000000000E+00 -0.42287397407E+03  0.25484067619E+04  0.25130767251E+04 0.  0.
        5    1    3    3  502    0  0.65399641186E+03  0.33489733614E+03 -0.12450799985E+04  0.14457225962E+04  0.46999998093E+01 0. -1.
       -5    1    3    3    0  502 -0.65399641186E+03 -0.33489733614E+03  0.82220602447E+03  0.11026841656E+04  0.46999998093E+01 0.  1.
</event>
<event>
 5   0  0.1456876E-05  0.2494318E+04  0.7818609E-02  0.8405012E-01
       -1   -1    0    0    0  501  0.00000000000E+00  0.00000000000E+00  0.11796496953E+04  0.11796496953E+04  0.50400001928E-02 0.  1.
        1   -1    0    0  501    0  0.00000000000E+00  0.00000000000E+00 -0.13185320396E+04  0.13185320396E+04  0.50400001928E-02 0. -1.
    10030    2    1    2    0    0  0.00000000000E+00  0.00000000000E+00 -0.13888234432E+03  0.24981817349E+04  0.24943182786E+04 0.  0.
        1    1    3    3  502    0  0.37826201967E+02 -0.58953186508E+02  0.11776781023E+04  0.11797593028E+04  0.50400001928E-02 0.  1.
       -1    1    3    3    0  502 -0.37826201967E+02  0.58953186508E+02 -0.13165604467E+04  0.13184224321E+04  0.50400001928E-02 0. -1.
</event>
<event>
 5   0  0.3578670E-05  0.2500961E+04  0.7818609E-02  0.8402643E-01
        2   -1    0    0  501    0  0.00000000000E+00  0.00000000000E+00  0.12124874260E+04  0.12124874260E+04  0.25500000920E-02 0.  1.
       -2   -1    0    0    0  501  0.00000000000E+00  0.00000000000E+00 -0.12896644648E+04  0.12896644648E+04  0.25500000920E-02 0. -1.
    10030    2    1    2    0    0  0.00000000000E+00  0.00000000000E+00 -0.77177038770E+02  0.25021518908E+04  0.25009613730E+04 0.  0.
        4    1    3    3  502    0 -0.76127202138E+03  0.67452416468E+03 -0.76638404163E+03  0.12735242642E+04  0.12699999809E+01 0. -1.
       -4    1    3    3    0  502  0.76127202138E+03 -0.67452416468E+03  0.68920700286E+03  0.12286276266E+04  0.12699999809E+01 0.  1.
</event>
<event>
 5   0  0.3578670E-05  0.2493486E+04  0.7818609E-02  0.8405310E-01
        2   -1    0    0  501    0  0.00000000000E+00  0.00000000000E+00  0.16991991072E+04  0.16991991073E+04  0.25500000920E-02 0.  1.
       -2   -1    0    0    0  501  0.00000000000E+00  0.00000000000E+00 -0.91476489789E+03  0.91476489790E+03  0.25500000920E-02 0. -1.
    10030    2    1    2    0    0  0.00000000000E+00  0.00000000000E+00  0.78443420936E+03  0.26139640051E+04  0.24934856710E+04 0.  0.
        4    1    3    3  502    0 -0.58250759901E+03 -0.71630950203E+03  0.12705240860E+04  0.15705564210E+04  0.12699999809E+01 0.  1.
       -4    1    3    3    0  502  0.58250759901E+03  0.71630950203E+03 -0.48608987662E+03  0.10434075841E+04  0.12699999809E+01 0. -1.
</event>
<event>
 5   0  0.1201438E-05  0.2562794E+04  0.7818609E-02  0.8380950E-01
       -3   -1    0    0    0  501  0.00000000000E+00  0.00000000000E+00  0.15938474410E+04  0.15938474442E+04  0.10100000352E+00 0.  1.
        3   -1    0    0  501    0  0.00000000000E+00  0.00000000000E+00 -0.10301975495E+04  0.10301975544E+04  0.10100000352E+00 0. -1.
    10030    2    1    2    0    0  0.00000000000E+00  0.00000000000E+00  0.56364989148E+03  0.26240449986E+04  0.25627935840E+04 0.  0.
        5    1    3    3  502    0  0.31923475175E+03 -0.96491571679E+03 -0.51719946948E+03  0.11403905245E+04  0.46999998093E+01 0. -1.
       -5    1    3    3    0  502 -0.31923475175E+03  0.96491571679E+03  0.10808493610E+04  0.14836544740E+04  0.46999998093E+01 0.  1.
</event>
<event>
 5   0  0.3704241E-05  0.2483040E+04  0.7818609E-02  0.8409052E-01
       -2   -1    0    0    0  501  0.00000000000E+00  0.00000000000E+00  0.56746933700E+03  0.56746933700E+03  0.25500000920E-02 0. -1.
        2   -1    0    0  501    0  0.00000000000E+00  0.00000000000E+00 -0.27162215681E+04  0.27162215681E+04  0.25500000920E-02 0.  1.
    10030    2    1    2    0    0  0.00000000000E+00  0.00000000000E+00 -0.21487522311E+04  0.32836909051E+04  0.24830404365E+04 0.  0.
        2    1    3    3  502    0  0.97450170554E+03  0.28863583724E+03 -0.13143458339E+03  0.10248118219E+04  0.25500000920E-02 0. -1.
       -2    1    3    3    0  502 -0.97450170554E+03 -0.28863583724E+03 -0.20173176477E+04  0.22588790831E+04  0.25500000920E-02 0.  1.
</event>
<event>
 5   0  0.1429483E-05  0.2498769E+04  0.7818609E-02  0.8403424E-01
       -1   -1    0    0    0  501  0.00000000000E+00  0.00000000000E+00  0.14021525926E+04  0.14021525927E+04  0.50400001928E-02 0.  1.
        1   -1    0    0  501    0  0.00000000000E+00  0.00000000000E+00 -0.11132605846E+04  0.11132605846E+04  0.50400001928E-02 0. -1.
    10030    2    1    2    0    0  0.00000000000E+00  0.00000000000E+00  0.28889200803E+03  0.25154131773E+04  0.24987686688E+04 0.  0.
        2    1    3    3  502    0  0.10961002476E+04  0.17322948341E+02  0.74779248610E+03  0.13270001657E+04  0.25500000920E-02 0.  1.
       -2    1    3    3    0  502 -0.10961002476E+04 -0.17322948341E+02 -0.45890047807E+03  0.11884130116E+04  0.25500000920E-02 0. -1.
</event>
<event>
 5   0  0.1421242E-05  0.2482848E+04  0.7818609E-02  0.8409122E-01
        1   -1    0    0  501    0  0.00000000000E+00  0.00000000000E+00  0.13111664276E+04  0.13111664276E+04  0.50400001928E-02 0. -1.
       -1   -1    0    0    0  501  0.00000000000E+00  0.00000000000E+00 -0.11753910042E+04  0.11753910042E+04  0.50400001928E-02 0.  1.
    10030    2    1    2    0    0  0.00000000000E+00  0.00000000000E+00  0.13577542336E+03  0.24865574318E+04  0.24828477392E+04 0.  0.
        3    1    3    3  502    0  0.42616019549E+03 -0.11659696682E+04  0.61926140294E+02  0.12429531916E+04  0.10100000352E+00 0. -1.
       -3    1    3    3    0  502 -0.42616019549E+03  0.11659696682E+04  0.73849283062E+02  0.12436042402E+04  0.10100000352E+00 0.  1.
</event>
<event>
 5   0  0.3579097E-05  0.2505893E+04  0.7818609E-02  0.8400889E-01
       -2   -1    0    0    0  501  0.00000000000E+00  0.00000000000E+00  0.11343280198E+04  0.11343280198E+04  0.25500000920E-02 0.  1.
        2   -1    0    0  501    0  0.00000000000E+00  0.00000000000E+00 -0.13839691915E+04  0.13839691915E+04  0.25500000920E-02 0. -1.
    10030    2    1    2    0    0  0.00000000000E+00  0.00000000000E+00 -0.24964117171E+03  0.25182972113E+04  0.25058930803E+04 0.  0.
        5    1    3    3  502    0 -0.89818586692E+03 -0.48174201090E+03 -0.85715248743E+03  0.13317453560E+04  0.46999998093E+01 0. -1.
       -5    1    3    3    0  502  0.89818586692E+03  0.48174201090E+03  0.60751131572E+03  0.11865518553E+04  0.46999998093E+01 0.  1.
</event>
<event>
 5   0  0.3581449E-05  0.2485208E+04  0.7818609E-02  0.8408274E-01
        2   -1    0    0  501    0  0.00000000000E+00  0.00000000000E+00  0.69452007422E+03  0.69452007422E+03  0.25500000920E-02 0. -1.
       -2   -1    0    0    0  501  0.00000000000E+00  0.00000000000E+00 -0.22232101741E+04  0.22232101741E+04  0.25500000920E-02 0.  1.
    10030    2    1    2    0    0  0.00000000000E+00  0.00000000000E+00 -0.15286900999E+04  0.29177302484E+04  0.24852075126E+04 0.  0.
        1    1    3    3  502    0 -0.43550938854E+03  0.18014870249E+03  0.58551485917E+03  0.75163131444E+03  0.50400001928E-02 0. -1.
       -1    1    3    3    0  502  0.43550938854E+03 -0.18014870249E+03 -0.21142049591E+04  0.21660989339E+04  0.50400001928E-02 0.  1.
</event>
<event>
 5   0  0.1502886E-05  0.2513054E+04  0.7818609E-02  0.8398350E-01
        1   -1    0    0  501    0  0.00000000000E+00  0.00000000000E+00  0.15662722523E+04  0.15662722523E+04  0.50400001928E-02 0. -1.
       -1   -1    0    0    0  501  0.00000000000E+00  0.00000000000E+00 -0.10080364458E+04  0.10080364458E+04  0.50400001928E-02 0.  1.
    10030    2    1    2    0    0  0.00000000000E+00  0.00000000000E+00  0.55823580653E+03  0.25743086981E+04  0.25130535326E+04 0.  0.
        4    1    3    3  502    0 -0.15923049021E+03 -0.16098857814E+03 -0.98696385534E+03  0.10126060122E+04  0.12699999809E+01 0.  1.
       -4    1    3    3    0  502  0.15923049021E+03  0.16098857814E+03  0.15451996619E+04  0.15617026859E+04  0.12699999809E+01 0. -1.
</event>
<event>
 5   0  0.1502886E-05  0.2459876E+04  0.7818609E-02  0.8417421E-01
        1   -1    0    0  501    0  0.00000000000E+00  0.00000000000E+00  0.11680054354E+04  0.11680054354E+04  0.50400001928E-02 0. -1.
       -1   -1    0    0    0  501  0.00000000000E+00  0.00000000000E+00 -0.12951548936E+04  0.12951548936E+04  0.50400001928E-02 0.  1.
    10030    2    1    2    0    0  0.00000000000E+00  0.00000000000E+00 -0.12714945821E+03  0.24631603290E+04  0.24598763834E+04 0.  0.
        4    1    3    3  502    0  0.11150509445E+04 -0.46377250405E+03  0.16980894079E+03  0.12195327931E+04  0.12699999809E+01 0.  1.
       -4    1    3    3    0  502 -0.11150509445E+04  0.46377250405E+03 -0.29695839900E+03  0.12436275358E+04  0.12699999809E+01 0. -1.
</event>
<event>
 5   0  0.1492639E-05  0.2412570E+04  0.7818609E-02  0.8434812E-01
       -1   -1    0    0    0  501  0.00000000000E+00  0.00000000000E+00  0.76774524613E+03  0.76774524614E+03  0.50400001928E-02 0.  1.
        1   -1    0    0  501    0  0.00000000000E+00  0.00000000000E+00 -0.18953209657E+04  0.18953209657E+04  0.50400001928E-02 0. -1.
    10030    2    1    2    0    0  0.00000000000E+00  0.00000000000E+00 -0.11275757195E+04  0.26630662118E+04  0.24125701327E+04 0.  0.
        5    1    3    3  502    0 -0.39029206786E+03 -0.92541160805E+03 -0.13012806866E+04  0.16437968421E+04  0.46999998093E+01 0. -1.
       -5    1    3    3    0  502  0.39029206786E+03  0.92541160805E+03  0.17370496708E+03  0.10192693698E+04  0.46999998093E+01 0.  1.
</event>
<event>
 5   0  0.3578670E-05  0.2536373E+04  0.7818609E-02  0.8390141E-01
        2   -1    0    0  501    0  0.00000000000E+00  0.00000000000E+00  0.51064223307E+03  0.51064223307E+03  0.25500000920E-02 0.  1.
       -2   -1    0    0    0  501  0.00000000000E+00  0.00000000000E+00 -0.31495585445E+04  0.31495585445E+04  0.25500000920E-02 0. -1.
    10030    2    1    2    0    0  0.00000000000E+00  0.00000000000E+00 -0.26389163114E+04  0.36602007776E+04  0.25363734807E+04 0.  0.
        4    1    3    3  502    0  0.94011050954E+03  0.83414058319E+03 -0.10749939114E+04  0.16538475762E+04  0.12699999809E+01 0.  1.
       -4    1    3    3    0  502 -0.94011050954E+03 -0.83414058319E+03 -0.15639224000E+04  0.20063532014E+04  0.12699999809E+01 0. -1.
</event>
<event>
 5   0  0.1201438E-05  0.2332965E+04  0.7818609E-02  0.8465036E-01
       -3   -1    0    0    0  501  0.00000000000E+00  0.00000000000E+00  0.21177897571E+04  0.21177897595E+04  0.10100000352E+00 0. -1.
        3   -1    0    0  501    0  0.00000000000E+00  0.00000000000E+00 -0.64250095196E+03  0.64250095990E+03  0.10100000352E+00 0.  1.
    10030    2    1    2    0    0  0.00000000000E+00  0.00000000000E+00  0.14752888051E+04  0.27602907194E+04  0.23329654513E+04 0.  0.
        2    1    3    3  502    0  0.41178077805E+03  0.98164711309E+03  0.17332462266E+03  0.10785341388E+04  0.25500000920E-02 0.  1.
       -2    1    3    3    0  502 -0.41178077805E+03 -0.98164711309E+03  0.13019641825E+04  0.16817565805E+04  0.25500000920E-02 0. -1.
</event>
<event>
 5   0  0.3650620E-05  0.2473472E+04  0.7818609E-02  0.8412497E-01
       -2   -1    0    0    0  501  0.00000000000E+00  0.00000000000E+00  0.10361721328E+04  0.10361721329E+04  0.25500000920E-02 0.  1.
        2   -1    0    0  501    0  0.00000000000E+00  0.00000000000E+00 -0.14761219921E+04  0.14761219921E+04  0.25500000920E-02 0. -1.
    10030    2    1    2    0    0  0.00000000000E+00  0.00000000000E+00 -0.43994985921E+03  0.25122941249E+04  0.24734724360E+04 0.  0.
        3    1    3    3  502    0 -0.10577086244E+03 -0.19363075642E+02  0.10314151897E+04  0.10370051629E+04  0.10100000352E+00 0.  1.
       -3    1    3    3    0  502  0.10577086244E+03  0.19363075642E+02 -0.14713650489E+04  0.14752889620E+04  0.10100000352E+00 0. -1.
</event>
<event>
 5   0  0.3650620E-05  0.2502518E+04  0.7818609E-02  0.8402089E-01
       -2   -1    0    0    0  501  0.00000000000E+00  0.00000000000E+00  0.95206533647E+03  0.95206533647E+03  0.25500000920E-02 0. -1.
        2   -1    0    0  501    0  0.00000000000E+00  0.00000000000E+00 -0.16444766595E+04  0.16444766595E+04  0.25500000920E-02 0.  1.
    10030    2    1    2    0    0  0.00000000000E+00  0.00000000000E+00 -0.69241132303E+03  0.25965419960E+04  0.25025181111E+04 0.  0.
        3    1    3    3  502    0 -0.53310428871E+03 -0.14400069652E+03  0.81879509765E+03  0.98760407319E+03  0.10100000352E+00 0. -1.
       -3    1    3    3    0  502  0.53310428871E+03  0.14400069652E+03 -0.15112064207E+04  0.16089379228E+04  0.10100000352E+00 0.  1.
</event>
<event>
 5   0  0.1492639E-05  0.2469186E+04  0.7818609E-02  0.8414046E-01
        1   -1    0    0  501    0  0.00000000000E+00  0.00000000000E+00  0.11227010237E+04  0.11227010237E+04  0.50400001928E-02 0. -1.
       -1   -1    0    0    0  501  0.00000000000E+00  0.00000000000E+00 -0.13576361189E+04  0.13576361190E+04  0.50400001928E-02 0.  1.
    10030    2    1    2    0    0  0.00000000000E+00  0.00000000000E+00 -0.23493509526E+03  0.24803371426E+04  0.24691856638E+04 0.  0.
        5    1    3    3  502    0 -0.57158737790E+03 -0.10522331371E+04  0.18437356724E+03  0.12115784777E+04  0.46999998093E+01 0. -1.
       -5    1    3    3    0  502  0.57158737790E+03  0.10522331371E+04 -0.41930866250E+03  0.12687586649E+04  0.46999998093E+01 0.  1.
</event>
<event>
 5   0  0.3650620E-05  0.1795443E+04  0.7818609E-02  0.8708726E-01
        2   -1    0    0  501    0  0.00000000000E+00  0.00000000000E+00  0.22237133826E+04  0.22237133826E+04  0.25500000920E-02 0.  1.
       -2   -1    0    0    0  501  0.00000000000E+00  0.00000000000E+00 -0.36241365504E+03  0.36241365505E+03  0.25500000920E-02 0. -1.
    10030    2    1    2    0    0  0.00000000000E+00  0.00000000000E+00  0.18612997275E+04  0.25861270376E+04  0.17954432264E+04 0.  0.
        3    1    3    3  502    0 -0.85780108326E+02 -0.38442379782E+03  0.20926067258E+04  0.21293526722E+04  0.10100000352E+00 0.  1.
       -3    1    3    3    0  502  0.85780108326E+02  0.38442379782E+03 -0.23130699827E+03  0.45677436548E+03  0.10100000352E+00 0. -1.
</event>
<event>
 5   0  0.3704241E-05  0.2504191E+04  0.7818609E-02  0.8401494E-01
        2   -1    0    0  501    0  0.00000000000E+00  0.00000000000E+00  0.18598643931E+04  0.18598643931E+04  0.25500000920E-02 0.  1.
       -2   -1    0    0    0  501  0.00000000000E+00  0.00000000000E+00 -0.84293389677E+03  0.84293389677E+03  0.25500000920E-02 0. -1.
    10030    2    1    2    0    0  0.00000000000E+00  0.00000000000E+00  0.10169304964E+04  0.27027982899E+04  0.25041906799E+04 0.  0.
        2    1    3    3  502    0 -0.85266914426E+03  0.85225458764E+03  0.87345752262E+03  0.14887278447E+04  0.25500000920E-02 0.  1.
       -2    1    3    3    0  502  0.85266914426E+03 -0.85225458764E+03  0.14347297375E+03  0.12140704452E+04  0.25500000920E-02 0. -1.
</event>
<event>
 5   0  0.3581449E-05  0.2529816E+04  0.7818609E-02  0.8392440E-01
        2   -1    0    0  501    0  0.00000000000E+00  0.00000000000E+00  0.13398337945E+04  0.13398337945E+04  0.25500000920E-02 0. -1.
       -2   -1    0    0    0  501  0.00000000000E+00  0.00000000000E+00 -0.11941723729E+04  0.11941723729E+04  0.25500000920E-02 0.  1.
    10030    2    1    2    0    0  0.00000000000E+00  0.00000000000E+00  0.14566142164E+03  0.25340061674E+04  0.25298162002E+04 0.  0.
        1    1    3    3  502    0 -0.50682588037E+03  0.75039404994E+03 -0.81182445269E+03  0.12161507494E+04  0.50400001928E-02 0.  1.
       -1    1    3    3    0  502  0.50682588037E+03 -0.75039404994E+03  0.95748587433E+03  0.13178554180E+04  0.50400001928E-02 0. -1.
</event>
<event>
 5   0  0.1421242E-05  0.2499104E+04  0.7818609E-02  0.8403305E-01
        1   -1    0    0  501    0  0.00000000000E+00  0.00000000000E+00  0.14698283497E+04  0.14698283497E+04  0.50400001928E-02 0. -1.
       -1   -1    0    0    0  501  0.00000000000E+00  0.00000000000E+00 -0.10622876150E+04  0.10622876150E+04  0.50400001928E-02 0.  1.
    10030    2    1    2    0    0  0.00000000000E+00  0.00000000000E+00  0.40754073469E+03  0.25321159647E+04  0.24991042012E+04 0.  0.
        3    1    3    3  502    0 -0.38100750954E+03 -0.10800934809E+02 -0.10019476127E+04  0.10719992590E+04  0.10100000352E+00 0.  1.
       -3    1    3    3    0  502  0.38100750954E+03  0.10800934809E+02  0.14094883474E+04  0.14601167057E+04  0.10100000352E+00 0. -1.
</event>
<event>
 5   0  0.3578670E-05  0.2495521E+04  0.7818609E-02  0.8404583E-01
       -2   -1    0    0    0  501  0.00000000000E+00  0.00000000000E+00  0.91689081514E+03  0.91689081515E+03  0.25500000920E-02 0. -1.
        2   -1    0    0  501    0  0.00000000000E+00  0.00000000000E+00 -0.16980281430E+04  0.16980281430E+04  0.25500000920E-02 0.  1.
    10030    2    1    2    0    0  0.00000000000E+00  0.00000000000E+00 -0.78113732785E+03  0.26149189581E+04  0.24955211145E+04 0.  0.
        4    1    3    3  502    0  0.49671530734E+03 -0.22490392474E+03 -0.15665834456E+04  0.16587625438E+04  0.12699999809E+01 0.  1.
       -4    1    3    3    0  502 -0.49671530734E+03  0.22490392474E+03  0.78544611773E+03  0.95615641433E+03  0.12699999809E+01 0. -1.
</event>
<event>
 5   0  0.3578670E-05  0.2567078E+04  0.7818609E-02  0.8379471E-01
        2   -1    0    0  501    0  0.00000000000E+00  0.00000000000E+00  0.13975528420E+04  0.13975528420E+04  0.25500000920E-02 0. -1.
       -2   -1    0    0    0  501  0.00000000000E+00  0.00000000000E+00 -0.11788266807E+04  0.11788266807E+04  0.25500000920E-02 0.  1.
    10030    2    1    2    0    0  0.00000000000E+00  0.00000000000E+00  0.21872616121E+03  0.25763795227E+04  0.25670781662E+04 0.  0.
        4    1    3    3  502    0  0.55525701993E+03 -0.49997317334E+03  0.11567859611E+04  0.13771125244E+04  0.12699999809E+01 0. -1.
       -4    1    3    3    0  502 -0.55525701993E+03  0.49997317334E+03 -0.93805979985E+03  0.11992669983E+04  0.12699999809E+01 0.  1.
</event>
<event>
 5   0  0.3579097E-05  0.2485513E+04  0.7818609E-02  0.8408165E-01
       -2   -1    0    0    0  501  0.00000000000E+00  0.00000000000E+00  0.85653584529E+03  0.85653584529E+03  0.25500000920E-02 0.  1.
        2   -1    0    0  501    0  0.00000000000E+00  0.00000000000E+00 -0.18031285286E+04  0.18031285286E+04  0.25500000920E-02 0. -1.
    10030    2    1    2    0    0  0.00000000000E+00  0.00000000000E+00 -0.94659268327E+03  0.26596643738E+04  0.24855134024E+04 0.  0.
        5    1    3    3  502    0 -0.11371132776E+04 -0.19209222699E+03 -0.96888393466E+03  0.15062151900E+04  0.46999998093E+01 0. -1.
       -5    1    3    3    0  502  0.11371132776E+04  0.19209222699E+03  0.22291251386E+02  0.11534491838E+04  0.46999998093E+01 0.  1.
</event>
<event>
 5   0  0.1502886E-05  0.2527650E+04  0.7818609E-02  0.8393201E-01
       -1   -1    0    0    0  501  0.00000000000E+00  0.00000000000E+00  0.16813425295E+04  0.16813425295E+04  0.50400001928E-02 0.  1.
        1   -1    0    0  501    0  0.00000000000E+00  0.00000000000E+00 -0.94998706982E+03  0.94998706983E+03  0.50400001928E-02 0. -1.
    10030    2    1    2    0    0  0.00000000000E+00  0.00000000000E+00  0.73135545971E+03  0.26313295994E+04  0.25276500256E+04 0.  0.
        4    1    3    3  502    0 -0.11782452877E+04  0.40211164901E+03  0.13928005790E+03  0.12527395115E+04  0.12699999809E+01 0.  1.
       -4    1    3    3    0  502  0.11782452877E+04 -0.40211164901E+03  0.59207540181E+03  0.13785900879E+04  0.12699999809E+01 0. -1.
</event>
<event>
 5   0  0.1429483E-05  0.2610556E+04  0.7818609E-02  0.8364625E-01
        1   -1    0    0  501    0  0.00000000000E+00  0.00000000000E+00  0.19977357971E+04  0.19977357971E+04  0.50400001928E-02 0.  1.
       -1   -1    0    0    0  501  0.00000000000E+00  0.00000000000E+00 -0.85284055536E+03  0.85284055537E+03  0.50400001928E-02 0. -1.
    10030    2    1    2    0    0  0.00000000000E+00  0.00000000000E+00  0.11448952417E+04  0.28505763525E+04  0.26105555782E+04 0.  0.
        2    1    3    3  502    0 -0.60935881644E+03  0.53932844238E+02  0.18315112902E+04  0.19309739835E+04  0.25500000920E-02 0.  1.
       -2    1    3    3    0  502  0.60935881644E+03 -0.53932844238E+02 -0.68661604850E+03  0.91960236892E+03  0.25500000920E-02 0. -1.
</event>
<event>
 5   0  0.3650620E-05  0.2481699E+04  0.7818609E-02  0.8409535E-01
       -2   -1    0    0    0  501  0.00000000000E+00  0.00000000000E+00  0.98678239217E+03  0.98678239217E+03  0.25500000920E-02 0.  1.
        2   -1    0    0  501    0  0.00000000000E+00  0.00000000000E+00 -0.15603308724E+04  0.15603308724E+04  0.25500000920E-02 0. -1.
    10030    2    1    2    0    0  0.00000000000E+00  0.00000000000E+00 -0.57354848019E+03  0.25471132645E+04  0.24816986367E+04 0.  0.
        3    1    3    3  502    0 -0.10957008943E+04 -0.57766409861E+03 -0.21099892574E+03  0.12564938589E+04  0.10100000352E+00 0.  1.
       -3    1    3    3    0  502  0.10957008943E+04  0.57766409861E+03 -0.36254955445E+03  0.12906194056E+04  0.10100000352E+00 0. -1.
</event>
<event>
 5   0  0.3581449E-05  0.2360479E+04  0.7818609E-02  0.8454450E-01
       -2   -1    0    0    0  501  0.00000000000E+00  0.00000000000E+00  0.76929311668E+03  0.76929311669E+03  0.25500000920E-02 0.  1.
        2   -1    0    0  501    0  0.00000000000E+00  0.00000000000E+00 -0.18107074656E+04  0.18107074656E+04  0.25500000920E-02 0. -1.
    10030    2    1    2    0    0  0.00000000000E+00  0.00000000000E+00 -0.10414143490E+04  0.25800005823E+04  0.23604785868E+04 0.  0.
        1    1    3    3  502    0  0.10773595092E+04  0.16249437435E+03 -0.24797699065E+02  0.10898269862E+04  0.50400001928E-02 0. -1.
       -1    1    3    3    0  502 -0.10773595092E+04 -0.16249437435E+03 -0.10166166499E+04  0.14901735962E+04  0.50400001928E-02 0.  1.
</event>
<event>
 5   0  0.3578670E-05  0.2524758E+04  0.7818609E-02  0.8394218E-01
        2   -1    0    0  501    0  0.00000000000E+00  0.00000000000E+00  0.24597115180E+04  0.24597115180E+04  0.25500000920E-02 0. -1.
       -2   -1    0    0    0  501  0.00000000000E+00  0.00000000000E+00 -0.64788121558E+03  0.64788121559E+03  0.25500000920E-02 0.  1.
    10030    2    1    2    0    0  0.00000000000E+00  0.00000000000E+00  0.18118303024E+04  0.31075927336E+04  0.25247581178E+04 0.  0.
        4    1    3    3  502    0 -0.71856904143E+03 -0.80310083694E+03  0.17151793618E+04  0.20256244167E+04  0.12699999809E+01 0. -1.
       -4    1    3    3    0  502  0.71856904143E+03  0.80310083694E+03  0.96650940684E+02  0.10819683169E+04  0.12699999809E+01 0.  1.
</event>
<event>
 5   0  0.1421242E-05  0.2516541E+04  0.7818609E-02  0.8397116E-01
       -1   -1    0    0    0  501  0.00000000000E+00  0.00000000000E+00  0.69266229700E+03  0.69266229702E+03  0.50400001928E-02 0.  1.
        1   -1    0    0  501    0  0.00000000000E+00  0.00000000000E+00 -0.22857384542E+04  0.22857384542E+04  0.50400001928E-02 0. -1.
    10030    2    1    2    0    0  0.00000000000E+00  0.00000000000E+00 -0.15930761572E+04  0.29784007513E+04  0.25165411565E+04 0.  0.
        3    1    3    3  502    0 -0.35903113815E+03  0.10800959776E+04 -0.16168269497E+03  0.11496312379E+04  0.10100000352E+00 0.  1.
       -3    1    3    3    0  502  0.35903113815E+03 -0.10800959776E+04 -0.14313934623E+04  0.18287695134E+04  0.10100000352E+00 0. -1.
</event>
<event>
 5   0  0.1456876E-05  0.2479629E+04  0.7818609E-02  0.8410279E-01
       -1   -1    0    0    0  501  0.00000000000E+00  0.00000000000E+00  0.10396134286E+04  0.10396134286E+04  0.50400001928E-02 0.  1.
        1   -1    0    0  501    0  0.00000000000E+00  0.00000000000E+00 -0.14785683018E+04  0.14785683018E+04  0.50400001928E-02 0. -1.
    10030    2    1    2    0    0  0.00000000000E+00  0.00000000000E+00 -0.43895487318E+03  0.25181817303E+04  0.24796285702E+04 0.  0.
        1    1    3    3  502    0  0.88390598222E+03  0.96333443811E+02  0.65799921956E+03  0.11061342101E+04  0.50400001928E-02 0.  1.
       -1    1    3    3    0  502 -0.88390598222E+03 -0.96333443811E+02 -0.10969540927E+04  0.14120475202E+04  0.50400001928E-02 0. -1.
</event>
<event>
 5   0  0.1502886E-05  0.2517357E+04  0.7818609E-02  0.8396828E-01
       -1   -1    0    0    0  501  0.00000000000E+00  0.00000000000E+00  0.79501754359E+03  0.79501754361E+03  0.50400001928E-02 0.  1.
        1   -1    0    0  501    0  0.00000000000E+00  0.00000000000E+00 -0.19927502146E+04  0.19927502146E+04  0.50400001928E-02 0. -1.
    10030    2    1    2    0    0  0.00000000000E+00  0.00000000000E+00 -0.11977326710E+04  0.27877677582E+04  0.25173568524E+04 0.  0.
        4    1    3    3  502    0 -0.12494750179E+04  0.14779008778E+03 -0.63786315507E+03  0.14106384185E+04  0.12699999809E+01 0.  1.
       -4    1    3    3    0  502  0.12494750179E+04 -0.14779008778E+03 -0.55986951593E+03  0.13771293397E+04  0.12699999809E+01 0. -1.
</event>
<event>
 5   0  0.3581449E-05  0.2466734E+04  0.7818609E-02  0.8414933E-01
        2   -1    0    0  501    0  0.00000000000E+00  0.00000000000E+00  0.19102805066E+04  0.19102805066E+04  0.25500000920E-02 0.  1.
       -2   -1    0    0    0  501  0.00000000000E+00  0.00000000000E+00 -0.79632001691E+03  0.79632001692E+03  0.25500000920E-02 0. -1.
    10030    2    1    2    0    0  0.00000000000E+00  0.00000000000E+00  0.11139604896E+04  0.27066005235E+04  0.24667343637E+04 0.  0.
        1    1    3    3  502    0 -0.52434900293E+03 -0.17342723669E+02  0.17817442831E+04  0.18573786198E+04  0.50400001928E-02 0.  1.
       -1    1    3    3    0  502  0.52434900293E+03  0.17342723669E+02 -0.66778379342E+03  0.84922190370E+03  0.50400001928E-02 0. -1.
</event>
<event>
 5   0  0.3578670E-05  0.2783180E+04  0.7818609E-02  0.8308510E-01
        2   -1    0    0  501    0  0.00000000000E+00  0.00000000000E+00  0.15117807455E+04  0.15117807455E+04  0.25500000920E-02 0. -1.
       -2   -1    0    0    0  501  0.00000000000E+00  0.00000000000E+00 -0.12809543337E+04  0.12809543337E+04  0.25500000920E-02 0.  1.
    10030    2    1    2    0    0  0.00000000000E+00  0.00000000000E+00  0.23082641176E+03  0.27927350792E+04  0.27831795469E+04 0.  0.
        4    1    3    3  502    0 -0.29531857007E+03 -0.63051747657E+03  0.13244379852E+04  0.14962964064E+04  0.12699999809E+01 0. -1.
       -4    1    3    3    0  502  0.29531857007E+03  0.63051747657E+03 -0.10936115734E+04  0.12964386729E+04  0.12699999809E+01 0.  1.
</event>
<event>
 5   0  0.1492639E-05  0.2514310E+04  0.7818609E-02  0.8397905E-01
        1   -1    0    0  501    0  0.00000000000E+00  0.00000000000E+00  0.10912312937E+04  0.10912312937E+04  0.50400001928E-02 0.  1.
       -1   -1    0    0    0  501  0.00000000000E+00  0.00000000000E+00 -0.14483076678E+04  0.14483076678E+04  0.50400001928E-02 0. -1.
    10030    2    1    2    0    0  0.00000000000E+00  0.00000000000E+00 -0.35707637410E+03  0.25395389614E+04  0.25143099649E+04 0.  0.
        5    1    3    3  502    0  0.64626984308E+03 -0.90589512279E+03  0.41222895274E+03  0.11867036206E+04  0.46999998093E+01 0.  1.
       -5    1    3    3    0  502 -0.64626984308E+03  0.90589512279E+03 -0.76930532684E+03  0.13528353409E+04  0.46999998093E+01 0. -1.
</event>
<event>
 5   0  0.3581449E-05  0.2502554E+04  0.7818609E-02  0.8402076E-01
       -2   -1    0    0    0  501  0.00000000000E+00  0.00000000000E+00  0.69600599482E+03  0.69600599482E+03  0.25500000920E-02 0.  1.
        2   -1    0    0  501    0  0.00000000000E+00  0.00000000000E+00 -0.22495415579E+04  0.22495415579E+04  0.25500000920E-02 0. -1.
    10030    2    1    2    0    0  0.00000000000E+00  0.00000000000E+00 -0.15535355630E+04  0.29455475527E+04  0.25025542231E+04 0.  0.
        1    1    3    3  502    0 -0.20577086745E+03  0.26066009942E+03  0.64318885260E+03  0.72386272003E+03  0.50400001928E-02 0.  1.
       -1    1    3    3    0  502  0.20577086745E+03 -0.26066009942E+03 -0.21967244156E+04  0.22216848326E+04  0.50400001928E-02 0. -1.
</event>
<event>
 5   0  0.1421242E-05  0.2087404E+04  0.7818609E-02  0.8566813E-01
       -1   -1    0    0    0  501  0.00000000000E+00  0.00000000000E+00  0.75617640252E+03  0.75617640254E+03  0.50400001928E-02 0.  1.
        1   -1    0    0  501    0  0.00000000000E+00  0.00000000000E+00 -0.14405546575E+04  0.14405546575E+04  0.50400001928E-02 0. -1.
    10030    2    1    2    0    0  0.00000000000E+00  0.00000000000E+00 -0.68437825493E+03  0.21967310600E+04  0.20874035916E+04 0.  0.
        3    1    3    3  502    0  0.13343982304E+03 -0.10351272030E+04 -0.33761212675E+03  0.10969395932E+04  0.10100000352E+00 0. -1.
       -3    1    3    3    0  502 -0.13343982304E+03  0.10351272030E+04 -0.34676612819E+03  0.10997914669E+04  0.10100000352E+00 0.  1.
</event>
<event>
 5   0  0.1201438E-05  0.2502084E+04  0.7818609E-02  0.8402244E-01
        3   -1    0    0  501    0  0.00000000000E+00  0.00000000000E+00  0.13312786034E+04  0.13312786073E+04  0.10100000352E+00 0.  1.
       -3   -1    0    0    0  501  0.00000000000E+00  0.00000000000E+00 -0.11756410789E+04  0.11756410832E+04  0.10100000352E+00 0. -1.
    10030    2    1    2    0    0  0.00000000000E+00  0.00000000000E+00  0.15563752458E+03  0.25069196905E+04  0.25020837906E+04 0.  0.
        1    1    3    3  502    0  0.99029552156E+03 -0.42488835185E+01  0.84375853842E+03  0.13010118156E+04  0.50400001928E-02 0.  1.
       -1    1    3    3    0  502 -0.99029552156E+03  0.42488835185E+01 -0.68812101384E+03  0.12059078749E+04  0.50400001928E-02 0. -1.
</event>
<event>
 5   0  0.1492639E-05  0.2278082E+04  0.7818609E-02  0.8486613E-01
        1   -1    0    0  501    0  0.00000000000E+00  0.00000000000E+00  0.21474497736E+04  0.21474497736E+04  0.50400001928E-02 0.  1.
       -1   -1    0    0    0  501  0.00000000000E+00  0.00000000000E+00 -0.60416527649E+03  0.60416527651E+03  0.50400001928E-02 0. -1.
    10030    2    1    2    0    0  0.00000000000E+00  0.00000000000E+00  0.15432844971E+04  0.27516150501E+04  0.22780821638E+04 0.  0.
        5    1    3    3  502    0 -0.85315864514E+03  0.72541784628E+03  0.10229297006E+04  0.15167458547E+04  0.46999998093E+01 0.  1.
       -5    1    3    3    0  502  0.85315864514E+03 -0.72541784628E+03  0.52035479655E+03  0.12348691954E+04  0.46999998093E+01 0. -1.
</event>
<event>
 5   0  0.1429483E-05  0.2456317E+04  0.7818609E-02  0.8418715E-01
        1   -1    0    0  501    0  0.00000000000E+00  0.00000000000E+00  0.73275556735E+03  0.73275556737E+03  0.50400001928E-02 0.  1.
       -1   -1    0    0    0  501  0.00000000000E+00  0.00000000000E+00 -0.20584936957E+04  0.20584936957E+04  0.50400001928E-02 0. -1.
    10030    2    1    2    0    0  0.00000000000E+00  0.00000000000E+00 -0.13257381284E+04  0.27912492631E+04  0.24563165235E+04 0.  0.
        2    1    3    3  502    0  0.62045207826E+03 -0.55432885305E+03  0.36371460339E+03  0.90803610692E+03  0.25500000920E-02 0.  1.
       -2    1    3    3    0  502 -0.62045207826E+03  0.55432885305E+03 -0.16894527318E+04  0.18832131562E+04  0.25500000920E-02 0. -1.
</event>
<event>
 5   0  0.3579097E-05  0.2493059E+04  0.7818609E-02  0.8405462E-01
       -2   -1    0    0    0  501  0.00000000000E+00  0.00000000000E+00  0.16919334110E+04  0.16919334110E+04  0.25500000920E-02 0. -1.
        2   -1    0    0  501    0  0.00000000000E+00  0.00000000000E+00 -0.91837885516E+03  0.91837885516E+03  0.25500000920E-02 0.  1.
    10030    2    1    2    0    0  0.00000000000E+00  0.00000000000E+00  0.77355455579E+03  0.26103122661E+04  0.24930590598E+04 0.  0.
        5    1    3    3  502    0  0.62204265107E+03  0.68772300918E+02  0.15155082620E+04  0.16396505942E+04  0.46999998093E+01 0. -1.
       -5    1    3    3    0  502 -0.62204265107E+03 -0.68772300918E+02 -0.74195370618E+03  0.97066167187E+03  0.46999998093E+01 0.  1.
</event>
<event>
 5   0  0.3578670E-05  0.2586149E+04  0.7818609E-02  0.8372921E-01
        2   -1    0    0  501    0  0.00000000000E+00  0.00000000000E+00  0.72400817257E+03  0.72400817257E+03  0.25500000920E-02 0.  1.
       -2   -1    0    0    0  501  0.00000000000E+00  0.00000000000E+00 -0.23094243297E+04  0.23094243297E+04  0.25500000920E-02 0. -1.
    10030    2    1    2    0    0  0.00000000000E+00  0.00000000000E+00 -0.15854161572E+04  0.30334325023E+04  0.25861493295E+04 0.  0.
        4    1    3    3  502    0  0.10753817453E+04  0.70955672273E+03 -0.66355619536E+03  0.14492153319E+04  0.12699999809E+01 0.  1.
       -4    1    3    3    0  502 -0.10753817453E+04 -0.70955672273E+03 -0.92185996181E+03  0.15842171704E+04  0.12699999809E+01 0. -1.
</event>
<event>
 5   0  0.1456876E-05  0.2504549E+04  0.7818609E-02  0.8401367E-01
        1   -1    0    0  501    0  0.00000000000E+00  0.00000000000E+00  0.70111480258E+03  0.70111480259E+03  0.50400001928E-02 0.  1.
       -1   -1    0    0    0  501  0.00000000000E+00  0.00000000000E+00 -0.22367117716E+04  0.22367117716E+04  0.50400001928E-02 0. -1.
    10030    2    1    2    0    0  0.00000000000E+00  0.00000000000E+00 -0.15355969690E+04  0.29378265742E+04  0.25045492466E+04 0.  0.
        1    1    3    3  502    0 -0.31640181534E+03  0.62195692435E+03  0.45192077693E+03  0.83136809727E+03  0.50400001928E-02 0.  1.
       -1    1    3    3    0  502  0.31640181534E+03 -0.62195692435E+03 -0.19875177459E+04  0.21064584769E+04  0.50400001928E-02 0. -1.
</event>
<event>
 5   0  0.3579097E-05  0.2538916E+04  0.7818609E-02  0.8389251E-01
        2   -1    0    0  501    0  0.00000000000E+00  0.00000000000E+00  0.15225562763E+04  0.15225562763E+04  0.25500000920E-02 0.  1.
       -2   -1    0    0    0  501  0.00000000000E+00  0.00000000000E+00 -0.10584326861E+04  0.10584326861E+04  0.25500000920E-02 0. -1.
    10030    2    1    2    0    0  0.00000000000E+00  0.00000000000E+00  0.46412359022E+03  0.25809889624E+04  0.25389157759E+04 0.  0.
        5    1    3    3  502    0  0.12290977558E+02 -0.87436279350E+03 -0.70342681289E+03  0.11222712390E+04  0.46999998093E+01 0. -1.
       -5    1    3    3    0  502 -0.12290977558E+02  0.87436279350E+03  0.11675504031E+04  0.14587177234E+04  0.46999998093E+01 0.  1.
</event>
<event>
 5   0  0.1492639E-05  0.2005120E+04  0.7818609E-02  0.8604231E-01
        1   -1    0    0  501    0  0.00000000000E+00  0.00000000000E+00  0.21420361272E+04  0.21420361272E+04  0.50400001928E-02 0. -1.
       -1   -1    0    0    0  501  0.00000000000E+00  0.00000000000E+00 -0.46923861616E+03  0.46923861618E+03  0.50400001928E-02 0.  1.
    10030    2    1    2    0    0  0.00000000000E+00  0.00000000000E+00  0.16727975110E+04  0.26112747433E+04  0.20051195157E+04 0.  0.
        5    1    3    3  502    0  0.72690233414E+03  0.52626027501E+03  0.14184675063E+04  0.16785139371E+04  0.46999998093E+01 0. -1.
       -5    1    3    3    0  502 -0.72690233414E+03 -0.52626027501E+03  0.25433000466E+03  0.93276080627E+03  0.46999998093E+01 0.  1.
</event>
<event>
 5   0  0.3650620E-05  0.2458730E+04  0.7818609E-02  0.8417837E-01
        2   -1    0    0  501    0  0.00000000000E+00  0.00000000000E+00  0.17140756481E+04  0.17140756481E+04  0.25500000920E-02 0.  1.
       -2   -1    0    0    0  501  0.00000000000E+00  0.00000000000E+00 -0.88172216448E+03  0.88172216448E+03  0.25500000920E-02 0. -1.
    10030    2    1    2    0    0  0.00000000000E+00  0.00000000000E+00  0.83235348360E+03  0.25957978126E+04  0.24587301523E+04 0.  0.
        3    1    3    3  502    0  0.38607072140E+03  0.11268216328E+04  0.73737541835E+03  0.14008926125E+04  0.10100000352E+00 0.  1.
       -3    1    3    3    0  502 -0.38607072140E+03 -0.11268216328E+04  0.94978065248E+02  0.11949052000E+04  0.10100000352E+00 0. -1.
</event>
<event>
 5   0  0.3579097E-05  0.2501477E+04  0.7818609E-02  0.8402459E-01
       -2   -1    0    0    0  501  0.00000000000E+00  0.00000000000E+00  0.10115710590E+04  0.10115710590E+04  0.25500000920E-02 0. -1.
        2   -1    0    0  501    0  0.00000000000E+00  0.00000000000E+00 -0.15464532640E+04  0.15464532640E+04  0.25500000920E-02 0.  1.
    10030    2    1    2    0    0  0.00000000000E+00  0.00000000000E+00 -0.53488220506E+03  0.25580243230E+04  0.25014774562E+04 0.  0.
        5    1    3    3  502    0 -0.64341291185E+03 -0.70893568562E+03 -0.10904671157E+04  0.14511066818E+04  0.46999998093E+01 0.  1.
       -5    1    3    3    0  502  0.64341291185E+03  0.70893568562E+03  0.55558491067E+03  0.11069176412E+04  0.46999998093E+01 0. -1.
</event>
<event>
 5   0  0.1502886E-05  0.2580505E+04  0.7818609E-02  0.8374854E-01
       -1   -1    0    0    0  501  0.00000000000E+00  0.00000000000E+00  0.83136724780E+03  0.83136724781E+03  0.50400001928E-02 0.  1.
        1   -1    0    0  501    0  0.00000000000E+00  0.00000000000E+00 -0.20024253718E+04  0.20024253718E+04  0.50400001928E-02 0. -1.
    10030    2    1    2    0    0  0.00000000000E+00  0.00000000000E+00 -0.11710581240E+04  0.28337926196E+04  0.25805045013E+04 0.  0.
        4    1    3    3  502    0  0.34122730053E+03 -0.55371586636E+03  0.63816786688E+03  0.91120643682E+03  0.12699999809E+01 0.  1.
       -4    1    3    3    0  502 -0.34122730053E+03  0.55371586636E+03 -0.18092259909E+04  0.19225861828E+04  0.12699999809E+01 0. -1.
</event>
<event>
 5   0  0.3650620E-05  0.2544683E+04  0.7818609E-02  0.8387238E-01
        2   -1    0    0  501    0  0.00000000000E+00  0.00000000000E+00  0.15603235966E+04  0.15603235966E+04  0.25500000920E-02 0.  1.
       -2   -1    0    0    0  501  0.00000000000E+00  0.00000000000E+00 -0.10375112670E+04  0.10375112670E+04  0.25500000920E-02 0. -1.
    10030    2    1    2    0    0  0.00000000000E+00  0.00000000000E+00  0.52281232963E+03  0.25978348636E+04  0.25446833293E+04 0.  0.
        3    1    3    3  502    0  0.11881438651E+04  0.11130766430E+03  0.71196116672E+03  0.13895912900E+04  0.10100000352E+00 0.  1.
       -3    1    3    3    0  502 -0.11881438651E+04 -0.11130766430E+03 -0.18914883709E+03  0.12082435735E+04  0.10100000352E+00 0. -1.
</event>
<event>
 5   0  0.3704241E-05  0.2444496E+04  0.7818609E-02  0.8423030E-01
        2   -1    0    0  501    0  0.00000000000E+00  0.00000000000E+00  0.13343302826E+04  0.13343302826E+04  0.25500000920E-02 0. -1.
       -2   -1    0    0    0  501  0.00000000000E+00  0.00000000000E+00 -0.11195803797E+04  0.11195803797E+04  0.25500000920E-02 0.  1.
    10030    2    1    2    0    0  0.00000000000E+00  0.00000000000E+00  0.21474990292E+03  0.24539106623E+04  0.24444958616E+04 0.  0.
        2    1    3    3  502    0 -0.13300721502E+03  0.25448168397E+02  0.13267761672E+04  0.13336691968E+04  0.25500000920E-02 0. -1.
       -2    1    3    3    0  502  0.13300721502E+03 -0.25448168397E+02 -0.11120262643E+04  0.11202414655E+04  0.25500000920E-02 0.  1.
</event>
<event>
 5   0  0.3578670E-05  0.2471088E+04  0.7818609E-02  0.8413359E-01
        2   -1    0    0  501    0  0.00000000000E+00  0.00000000000E+00  0.19801905002E+04  0.19801905002E+04  0.25500000920E-02 0.  1.
       -2   -1    0    0    0  501  0.00000000000E+00  0.00000000000E+00 -0.77092019535E+03  0.77092019535E+03  0.25500000920E-02 0. -1.
    10030    2    1    2    0    0  0.00000000000E+00  0.00000000000E+00  0.12092703049E+04  0.27511106956E+04  0.24710878959E+04 0.  0.
        4    1    3    3  502    0  0.11110254894E+04  0.53911677209E+03  0.64836328597E+03  0.13947763604E+04  0.12699999809E+01 0. -1.
       -4    1    3    3    0  502 -0.11110254894E+04 -0.53911677209E+03  0.56090701891E+03  0.13563343352E+04  0.12699999809E+01 0.  1.
</event>
<event>
 5   0  0.3579097E-05  0.2540074E+04  0.7818609E-02  0.8388846E-01
       -2   -1    0    0    0  501  0.00000000000E+00  0.00000000000E+00  0.73818481367E+03  0.73818481367E+03  0.25500000920E-02 0.  1.
        2   -1    0    0  501    0  0.00000000000E+00  0.00000000000E+00 -0.21850821105E+04  0.21850821105E+04  0.25500000920E-02 0. -1.
    10030    2    1    2    0    0  0.00000000000E+00  0.00000000000E+00 -0.14468972968E+04  0.29232669241E+04  0.25400743537E+04 0.  0.
        5    1    3    3  502    0 -0.11967211771E+04 -0.17292963437E+03 -0.27634910412E+03  0.12403375152E+04  0.46999998093E+01 0.  1.
       -5    1    3    3    0  502  0.11967211771E+04  0.17292963437E+03 -0.11705481927E+04  0.16829294090E+04  0.46999998093E+01 0. -1.
</event>
<event>
 5   0  0.3581449E-05  0.2577630E+04  0.7818609E-02  0.8375840E-01
       -2   -1    0    0    0  501  0.00000000000E+00  0.00000000000E+00  0.11306840680E+04  0.11306840680E+04  0.25500000920E-02 0.  1.
        2   -1    0    0  501    0  0.00000000000E+00  0.00000000000E+00 -0.14690607790E+04  0.14690607790E+04  0.25500000920E-02 0. -1.
    10030    2    1    2    0    0  0.00000000000E+00  0.00000000000E+00 -0.33837671097E+03  0.25997448470E+04  0.25776296226E+04 0.  0.
        1    1    3    3  502    0  0.27977105933E+03 -0.48550510928E+02 -0.14371196798E+04  0.14649034002E+04  0.50400001928E-02 0. -1.
       -1    1    3    3    0  502 -0.27977105933E+03  0.48550510928E+02  0.10987429689E+04  0.11348414468E+04  0.50400001928E-02 0.  1.
</event>
<event>
 5   0  0.3581449E-05  0.2500190E+04  0.7818609E-02  0.8402918E-01
        2   -1    0    0  501    0  0.00000000000E+00  0.00000000000E+00  0.17136507726E+04  0.17136507726E+04  0.25500000920E-02 0. -1.
       -2   -1    0    0    0  501  0.00000000000E+00  0.00000000000E+00 -0.91193438350E+03  0.91193438350E+03  0.25500000920E-02 0.  1.
    10030    2    1    2    0    0  0.00000000000E+00  0.00000000000E+00  0.80171638914E+03  0.26255851561E+04  0.25001896415E+04 0.  0.
        1    1    3    3  502    0  0.80942822647E+02 -0.50587682149E+03  0.15983445946E+04  0.16784422964E+04  0.50400001928E-02 0. -1.
       -1    1    3    3    0  502 -0.80942822647E+02  0.50587682149E+03 -0.79662820548E+03  0.94714285978E+03  0.50400001928E-02 0.  1.
</event>
<event>
 5   0  0.1456876E-05  0.2496890E+04  0.7818609E-02  0.8404094E-01
       -1   -1    0    0    0  501  0.00000000000E+00  0.00000000000E+00  0.15493328148E+04  0.15493328149E+04  0.50400001928E-02 0.  1.
        1   -1    0    0  501    0  0.00000000000E+00  0.00000000000E+00 -0.10059911587E+04  0.10059911587E+04  0.50400001928E-02 0. -1.
    10030    2    1    2    0    0  0.00000000000E+00  0.00000000000E+00  0.54334165613E+03  0.25553239736E+04  0.24968901567E+04 0.  0.
        1    1    3    3  502    0 -0.21531757384E+03  0.10272127181E+04  0.96357539750E+03  0.14247825001E+04  0.50400001928E-02 0.  1.
       -1    1    3    3    0  502  0.21531757384E+03 -0.10272127181E+04 -0.42023374137E+03  0.11305414735E+04  0.50400001928E-02 0. -1.
</event>
<event>
 5   0  0.1429483E-05  0.2447270E+04  0.7818609E-02  0.8422016E-01
       -1   -1    0    0    0  501  0.00000000000E+00  0.00000000000E+00  0.14137601875E+04  0.14137601875E+04  0.50400001928E-02 0.  1.
        1   -1    0    0  501    0  0.00000000000E+00  0.00000000000E+00 -0.10590778476E+04  0.10590778476E+04  0.50400001928E-02 0. -1.
    10030    2    1    2    0    0  0.00000000000E+00  0.00000000000E+00  0.35468233995E+03  0.24728380351E+04  0.24472695777E+04 0.  0.
        2    1    3    3  502    0 -0.94766237356E+02 -0.75936875446E+03 -0.78744360644E+03  0.10980386962E+04  0.25500000920E-02 0. -1.
       -2    1    3    3    0  502  0.94766237356E+02  0.75936875446E+03  0.11421259464E+04  0.13747993390E+04  0.25500000920E-02 0.  1.
</event>
<event>
 5   0  0.3581449E-05  0.2515821E+04  0.7818609E-02  0.8397371E-01
       -2   -1    0    0    0  501  0.00000000000E+00  0.00000000000E+00  0.13879033366E+04  0.13879033366E+04  0.25500000920E-02 0.  1.
        2   -1    0    0  501    0  0.00000000000E+00  0.00000000000E+00 -0.11400930522E+04  0.11400930522E+04  0.25500000920E-02 0. -1.
    10030    2    1    2    0    0  0.00000000000E+00  0.00000000000E+00  0.24781028436E+03  0.25279963889E+04  0.25158210996E+04 0.  0.
        1    1    3    3  502    0  0.19170685820E+03 -0.75044757770E+03  0.11198708323E+04  0.13616290858E+04  0.50400001928E-02 0.  1.
       -1    1    3    3    0  502 -0.19170685820E+03  0.75044757770E+03 -0.87206054791E+03  0.11663673030E+04  0.50400001928E-02 0. -1.
</event>
<event>
 5   0  0.1492639E-05  0.2491872E+04  0.7818609E-02  0.8405887E-01
        1   -1    0    0  501    0  0.00000000000E+00  0.00000000000E+00  0.15873650035E+04  0.15873650035E+04  0.50400001928E-02 0. -1.
       -1   -1    0    0    0  501  0.00000000000E+00  0.00000000000E+00 -0.97794564111E+03  0.97794564112E+03  0.50400001928E-02 0.  1.
    10030    2    1    2    0    0  0.00000000000E+00  0.00000000000E+00  0.60941936237E+03  0.25653106446E+04  0.24918721364E+04 0.  0.
        5    1    3    3  502    0  0.54402746599E+03  0.43548740236E+03  0.13679692825E+04  0.15352449997E+04  0.46999998093E+01 0. -1.
       -5    1    3    3    0  502 -0.54402746599E+03 -0.43548740236E+03 -0.75854992014E+03  0.10300656449E+04  0.46999998093E+01 0.  1.
</event>
<event>
 5   0  0.3579097E-05  0.2518860E+04  0.7818609E-02  0.8396297E-01
        2   -1    0    0  501    0  0.00000000000E+00  0.00000000000E+00  0.15541979400E+04  0.15541979400E+04  0.25500000920E-02 0. -1.
       -2   -1    0    0    0  501  0.00000000000E+00  0.00000000000E+00 -0.10205671169E+04  0.10205671169E+04  0.25500000920E-02 0.  1.
    10030    2    1    2    0    0  0.00000000000E+00  0.00000000000E+00  0.53363082312E+03  0.25747650569E+04  0.25188595123E+04 0.  0.
        5    1    3    3  502    0  0.62612785413E+03 -0.94776646083E+03  0.82280280685E+03  0.14026132407E+04  0.46999998093E+01 0. -1.
       -5    1    3    3    0  502 -0.62612785413E+03  0.94776646083E+03 -0.28917198373E+03  0.11721518162E+04  0.46999998093E+01 0.  1.
</event>
<event>
 5   0  0.1421242E-05  0.2411465E+04  0.7818609E-02  0.8435224E-01
        1   -1    0    0  501    0  0.00000000000E+00  0.00000000000E+00  0.23422077958E+04  0.23422077958E+04  0.50400001928E-02 0.  1.
       -1   -1    0    0    0  501  0.00000000000E+00  0.00000000000E+00 -0.62069261859E+03  0.62069261861E+03  0.50400001928E-02 0. -1.
    10030    2    1    2    0    0  0.00000000000E+00  0.00000000000E+00  0.17215151772E+04  0.29629004144E+04  0.24114651896E+04 0.  0.
        3    1    3    3  502    0  0.80104315508E+03  0.76697102585E+03  0.14421109721E+04  0.18192302650E+04  0.10100000352E+00 0.  1.
       -3    1    3    3    0  502 -0.80104315508E+03 -0.76697102585E+03  0.27940420511E+03  0.11436701495E+04  0.10100000352E+00 0. -1.
</event>
<event>
 5   0  0.3704241E-05  0.2470205E+04  0.7818609E-02  0.8413678E-01
       -2   -1    0    0    0  501  0.00000000000E+00  0.00000000000E+00  0.76974597294E+03  0.76974597295E+03  0.25500000920E-02 0.  1.
        2   -1    0    0  501    0  0.00000000000E+00  0.00000000000E+00 -0.19817940785E+04  0.19817940785E+04  0.25500000920E-02 0. -1.
    10030    2    1    2    0    0  0.00000000000E+00  0.00000000000E+00 -0.12120481055E+04  0.27515400514E+04  0.24702048588E+04 0.  0.
        2    1    3    3  502    0  0.44627910294E+03  0.53986444174E+03  0.52711584886E+03  0.87662407639E+03  0.25500000920E-02 0.  1.
       -2    1    3    3    0  502 -0.44627910294E+03 -0.53986444174E+03 -0.17391639544E+04  0.18749159751E+04  0.25500000920E-02 0. -1.
</event>
<event>
 5   0  0.1502886E-05  0.2422794E+04  0.7818609E-02  0.8431019E-01
        1   -1    0    0  501    0  0.00000000000E+00  0.00000000000E+00  0.12559735207E+04  0.12559735208E+04  0.50400001928E-02 0.  1.
       -1   -1    0    0    0  501  0.00000000000E+00  0.00000000000E+00 -0.11684026462E+04  0.11684026462E+04  0.50400001928E-02 0. -1.
    10030    2    1    2    0    0  0.00000000000E+00  0.00000000000E+00  0.87570874588E+02  0.24243761669E+04  0.24227940772E+04 0.  0.
        4    1    3    3  502    0  0.66859212158E+03 -0.82119366264E+03 -0.54490708016E+03  0.11909239252E+04  0.12699999809E+01 0. -1.
       -4    1    3    3    0  502 -0.66859212158E+03  0.82119366264E+03  0.63247795475E+03  0.12334522418E+04  0.12699999809E+01 0.  1.
</event>
<event>
 5   0  0.1492639E-05  0.1935893E+04  0.7818609E-02  0.8637193E-01
        1   -1    0    0  501    0  0.00000000000E+00  0.00000000000E+00  0.98024380375E+03  0.98024380377E+03  0.50400001928E-02 0. -1.
       -1   -1    0    0    0  501  0.00000000000E+00  0.00000000000E+00 -0.95580384583E+03  0.95580384584E+03  0.50400001928E-02 0.  1.
    10030    2    1    2    0    0  0.00000000000E+00  0.00000000000E+00  0.24439957928E+02  0.19360476496E+04  0.19358933829E+04 0.  0.
        5    1    3    3  502    0 -0.20235833183E+01  0.31538729132E+03 -0.90296248331E+03  0.95647089589E+03  0.46999998093E+01 0.  1.
       -5    1    3    3    0  502  0.20235833183E+01 -0.31538729132E+03  0.92740244124E+03  0.97957675372E+03  0.46999998093E+01 0. -1.
</event>
<event>
 5   0  0.1421242E-05  0.2419858E+04  0.7818609E-02  0.8432106E-01
       -1   -1    0    0    0  501  0.00000000000E+00  0.00000000000E+00  0.14895824213E+04  0.14895824214E+04  0.50400001928E-02 0. -1.
        1   -1    0    0  501    0  0.00000000000E+00  0.00000000000E+00 -0.98277718239E+03  0.98277718240E+03  0.50400001928E-02 0.  1.
    10030    2    1    2    0    0  0.00000000000E+00  0.00000000000E+00  0.50680523896E+03  0.24723596038E+04  0.24198575289E+04 0.  0.
        3    1    3    3  502    0 -0.17199664737E+03 -0.90009528643E+03  0.10605900902E+04  0.14016439351E+04  0.10100000352E+00 0. -1.
       -3    1    3    3    0  502  0.17199664737E+03  0.90009528643E+03 -0.55378485121E+03  0.10707156686E+04  0.10100000352E+00 0.  1.
</event>
<event>
 5   0  0.1429483E-05  0.2360494E+04  0.7818609E-02  0.8454444E-01
        1   -1    0    0  501    0  0.00000000000E+00  0.00000000000E+00  0.13466047544E+04  0.13466047544E+04  0.50400001928E-02 0.  1.
       -1   -1    0    0    0  501  0.00000000000E+00  0.00000000000E+00 -0.10344412762E+04  0.10344412763E+04  0.50400001928E-02 0. -1.
    10030    2    1    2    0    0  0.00000000000E+00  0.00000000000E+00  0.31216347818E+03  0.23810460307E+04  0.23604944743E+04 0.  0.
        2    1    3    3  502    0  0.51877682875E+03  0.74409392661E+01 -0.91324168507E+03  0.10503309674E+04  0.25500000920E-02 0. -1.
       -2    1    3    3    0  502 -0.51877682875E+03 -0.74409392661E+01  0.12254051633E+04  0.13307150633E+04  0.25500000920E-02 0.  1.
</event>
<event>
 5   0  0.3650620E-05  0.2506788E+04  0.7818609E-02  0.8400571E-01
        2   -1    0    0  501    0  0.00000000000E+00  0.00000000000E+00  0.14237057721E+04  0.14237057721E+04  0.25500000920E-02 0. -1.
       -2   -1    0    0    0  501  0.00000000000E+00  0.00000000000E+00 -0.11034560788E+04  0.11034560788E+04  0.25500000920E-02 0.  1.
    10030    2    1    2    0    0  0.00000000000E+00  0.00000000000E+00  0.32024969334E+03  0.25271618509E+04  0.25067882149E+04 0.  0.
        3    1    3    3  502    0  0.30805212342E+03 -0.39601821982E+03 -0.99780512457E+03  0.11168444914E+04  0.10100000352E+00 0.  1.
       -3    1    3    3    0  502 -0.30805212342E+03  0.39601821982E+03  0.13180548179E+04  0.14103173595E+04  0.10100000352E+00 0. -1.
</event>
<event>
 5   0  0.3581449E-05  0.2502696E+04  0.7818609E-02  0.8402026E-01
        2   -1    0    0  501    0  0.00000000000E+00  0.00000000000E+00  0.13061502625E+04  0.13061502625E+04  0.25500000920E-02 0. -1.
       -2   -1    0    0    0  501  0.00000000000E+00  0.00000000000E+00 -0.11988446883E+04  0.11988446883E+04  0.25500000920E-02 0.  1.
    10030    2    1    2    0    0  0.00000000000E+00  0.00000000000E+00  0.10730557427E+03  0.25049949508E+04  0.25026955902E+04 0.  0.
        1    1    3    3  502    0  0.11814534834E+04 -0.27715349974E+03 -0.25195527632E+03  0.12394062519E+04  0.50400001928E-02 0.  1.
       -1    1    3    3    0  502 -0.11814534834E+04  0.27715349974E+03  0.35926085059E+03  0.12655886989E+04  0.50400001928E-02 0. -1.
</event>
<event>
 5   0  0.1429483E-05  0.2499096E+04  0.7818609E-02  0.8403308E-01
        1   -1    0    0  501    0  0.00000000000E+00  0.00000000000E+00  0.15117972298E+04  0.15117972298E+04  0.50400001928E-02 0. -1.
       -1   -1    0    0    0  501  0.00000000000E+00  0.00000000000E+00 -0.10327909388E+04  0.10327909388E+04  0.50400001928E-02 0.  1.
    10030    2    1    2    0    0  0.00000000000E+00  0.00000000000E+00  0.47900629103E+03  0.25445881686E+04  0.24990962208E+04 0.  0.
        2    1    3    3  502    0 -0.52023398566E+03  0.41544826540E+03 -0.83716196682E+03  0.10696171370E+04  0.25500000920E-02 0.  1.
       -2    1    3    3    0  502  0.52023398566E+03 -0.41544826540E+03  0.13161682579E+04  0.14749710316E+04  0.25500000920E-02 0. -1.
</event>
<event>
 5   0  0.1502886E-05  0.2523661E+04  0.7818609E-02  0.8394605E-01
       -1   -1    0    0    0  501  0.00000000000E+00  0.00000000000E+00  0.62655802764E+03  0.62655802766E+03  0.50400001928E-02 0. -1.
        1   -1    0    0  501    0  0.00000000000E+00  0.00000000000E+00 -0.25412101139E+04  0.25412101139E+04  0.50400001928E-02 0.  1.
    10030    2    1    2    0    0  0.00000000000E+00  0.00000000000E+00 -0.19146520862E+04  0.31677681415E+04  0.25236605135E+04 0.  0.
        4    1    3    3  502    0 -0.97770279369E+03 -0.21628778936E+03  0.64490810970E+01  0.10013622542E+04  0.12699999809E+01 0. -1.
       -4    1    3    3    0  502  0.97770279369E+03  0.21628778936E+03 -0.19211011673E+04  0.21664058873E+04  0.12699999809E+01 0.  1.
</event>
<event>
 5   0  0.1421242E-05  0.2479477E+04  0.7818609E-02  0.8410334E-01
       -1   -1    0    0    0  501  0.00000000000E+00  0.00000000000E+00  0.73374074482E+03  0.73374074484E+03  0.50400001928E-02 0.  1.
        1   -1    0    0  501    0  0.00000000000E+00  0.00000000000E+00 -0.20946793574E+04  0.20946793574E+04  0.50400001928E-02 0. -1.
    10030    2    1    2    0    0  0.00000000000E+00  0.00000000000E+00 -0.13609386126E+04  0.28284201023E+04  0.24794770351E+04 0.  0.
        3    1    3    3  502    0  0.58741228851E+02  0.11416174009E+04 -0.12277960056E+04  0.16775648612E+04  0.10100000352E+00 0. -1.
       -3    1    3    3    0  502 -0.58741228851E+02 -0.11416174009E+04 -0.13314260704E+03  0.11508552411E+04  0.10100000352E+00 0.  1.
</event>
<event>
 5   0  0.1502886E-05  0.2510379E+04  0.7818609E-02  0.8399297E-01
       -1   -1    0    0    0  501  0.00000000000E+00  0.00000000000E+00  0.10659826048E+04  0.10659826048E+04  0.50400001928E-02 0.  1.
        1   -1    0    0  501    0  0.00000000000E+00  0.00000000000E+00 -0.14779791811E+04  0.14779791811E+04  0.50400001928E-02 0. -1.
    10030    2    1    2    0    0  0.00000000000E+00  0.00000000000E+00 -0.41199657629E+03  0.25439617859E+04  0.25103785350E+04 0.  0.
        4    1    3    3  502    0 -0.57077508369E+03 -0.98982195331E+03 -0.73253243450E+03  0.13572535047E+04  0.12699999809E+01 0. -1.
       -4    1    3    3    0  502  0.57077508369E+03  0.98982195331E+03  0.32053585821E+03  0.11867082812E+04  0.12699999809E+01 0.  1.
</event>
<event>
 5   0  0.3704241E-05  0.2490023E+04  0.7818609E-02  0.8406549E-01
       -2   -1    0    0    0  501  0.00000000000E+00  0.00000000000E+00  0.18756517607E+04  0.18756517607E+04  0.25500000920E-02 0. -1.
        2   -1    0    0  501    0  0.00000000000E+00  0.00000000000E+00 -0.82640782964E+03  0.82640782964E+03  0.25500000920E-02 0.  1.
    10030    2    1    2    0    0  0.00000000000E+00  0.00000000000E+00  0.10492439311E+04  0.27020595903E+04  0.24900227314E+04 0.  0.
        2    1    3    3  502    0  0.79675747163E+02  0.11654592550E+04  0.57362664922E+02  0.11695870960E+04  0.25500000920E-02 0.  1.
       -2    1    3    3    0  502 -0.79675747163E+02 -0.11654592550E+04  0.99188126614E+03  0.15324724943E+04  0.25500000920E-02 0. -1.
</event>
<event>
 5   0  0.3581449E-05  0.2471556E+04  0.7818609E-02  0.8413190E-01
        2   -1    0    0  501    0  0.00000000000E+00  0.00000000000E+00  0.19511176332E+04  0.19511176332E+04  0.25500000920E-02 0. -1.
       -2   -1    0    0    0  501  0.00000000000E+00  0.00000000000E+00 -0.78270370849E+03  0.78270370849E+03  0.25500000920E-02 0.  1.
    10030    2    1    2    0    0  0.00000000000E+00  0.00000000000E+00  0.11684139247E+04  0.27338213417E+04  0.24715557912E+04 0.  0.
        1    1    3    3  502    0 -0.54871737037E+03 -0.80321167940E+03  0.14272565311E+04  0.17272234829E+04  0.50400001928E-02 0. -1.
       -1    1    3    3    0  502  0.54871737037E+03  0.80321167940E+03 -0.25884260632E+03  0.10065978588E+04  0.50400001928E-02 0.  1.
</event>
<event>
 5   0  0.1456876E-05  0.2513707E+04  0.7818609E-02  0.8398119E-01
        1   -1    0    0  501    0  0.00000000000E+00  0.00000000000E+00  0.83027290278E+03  0.83027290280E+03  0.50400001928E-02 0.  1.
       -1   -1    0    0    0  501  0.00000000000E+00  0.00000000000E+00 -0.19026043228E+04  0.19026043228E+04  0.50400001928E-02 0. -1.
    10030    2    1    2    0    0  0.00000000000E+00  0.00000000000E+00 -0.10723314200E+04  0.27328772256E+04  0.25137070744E+04 0.  0.
        1    1    3    3  502    0 -0.34308856094E+02 -0.12036714375E+04 -0.92767306335E+03  0.15200589922E+04  0.50400001928E-02 0. -1.
       -1    1    3    3    0  502  0.34308856094E+02  0.12036714375E+04 -0.14465835666E+03  0.12128182334E+04  0.50400001928E-02 0.  1.
</event>
<event>
 5   0  0.3704241E-05  0.2490382E+04  0.7818609E-02  0.8406420E-01
        2   -1    0    0  501    0  0.00000000000E+00  0.00000000000E+00  0.22923484053E+04  0.22923484053E+04  0.25500000920E-02 0. -1.
       -2   -1    0    0    0  501  0.00000000000E+00  0.00000000000E+00 -0.67638073752E+03  0.67638073752E+03  0.25500000920E-02 0.  1.
    10030    2    1    2    0    0  0.00000000000E+00  0.00000000000E+00  0.16159676677E+04  0.29687291428E+04  0.24903817418E+04 0.  0.
        2    1    3    3  502    0  0.86741166268E+03  0.27417895285E+03 -0.20557914107E+03  0.93265206481E+03  0.25500000920E-02 0.  1.
       -2    1    3    3    0  502 -0.86741166268E+03 -0.27417895285E+03  0.18215468088E+04  0.20360770780E+04  0.25500000920E-02 0. -1.
</event>
<event>
 5   0  0.1421242E-05  0.2507402E+04  0.7818609E-02  0.8400353E-01
        1   -1    0    0  501    0  0.00000000000E+00  0.00000000000E+00  0.13053531097E+04  0.13053531097E+04  0.50400001928E-02 0. -1.
       -1   -1    0    0    0  501  0.00000000000E+00  0.00000000000E+00 -0.12040929850E+04  0.12040929850E+04  0.50400001928E-02 0.  1.
    10030    2    1    2    0    0  0.00000000000E+00  0.00000000000E+00  0.10126012465E+03  0.25094460947E+04  0.25074022592E+04 0.  0.
        3    1    3    3  502    0 -0.97885018475E+03  0.78120358663E+03 -0.72079105371E+01  0.12523891936E+04  0.10100000352E+00 0. -1.
       -3    1    3    3    0  502  0.97885018475E+03 -0.78120358663E+03  0.10846803519E+03  0.12570569012E+04  0.10100000352E+00 0.  1.
</event>
<event>
 5   0  0.3581449E-05  0.2365406E+04  0.7818609E-02  0.8452570E-01
        2   -1    0    0  501    0  0.00000000000E+00  0.00000000000E+00  0.15315146735E+04  0.15315146735E+04  0.25500000920E-02 0. -1.
       -2   -1    0    0    0  501  0.00000000000E+00  0.00000000000E+00 -0.91333534587E+03  0.91333534587E+03  0.25500000920E-02 0.  1.
    10030    2    1    2    0    0  0.00000000000E+00  0.00000000000E+00  0.61817932762E+03  0.24448500194E+04  0.23654060827E+04 0.  0.
        1    1    3    3  502    0  0.89570650370E+03  0.37397321049E+03 -0.38935767971E+03  0.10458228845E+04  0.50400001928E-02 0.  1.
       -1    1    3    3    0  502 -0.89570650370E+03 -0.37397321049E+03  0.10075370073E+04  0.13990271349E+04  0.50400001928E-02 0. -1.
</event>
<event>
 5   0  0.1421242E-05  0.2489389E+04  0.7818609E-02  0.8406776E-01
        1   -1    0    0  501    0  0.00000000000E+00  0.00000000000E+00  0.15100554520E+04  0.15100554520E+04  0.50400001928E-02 0. -1.
       -1   -1    0    0    0  501  0.00000000000E+00  0.00000000000E+00 -0.10259649971E+04  0.10259649971E+04  0.50400001928E-02 0.  1.
    10030    2    1    2    0    0  0.00000000000E+00  0.00000000000E+00  0.48409045490E+03  0.25360204491E+04  0.24893887100E+04 0.  0.
        3    1    3    3  502    0  0.92516007178E+02  0.12138105926E+04 -0.22371540730E+02  0.12175368012E+04  0.10100000352E+00 0.  1.
       -3    1    3    3    0  502 -0.92516007178E+02 -0.12138105926E+04  0.50646199563E+03  0.13184836478E+04  0.10100000352E+00 0. -1.
</event>
<event>
 5   0  0.1201438E-05  0.2544571E+04  0.7818609E-02  0.8387277E-01
        4   -1    0    0  501    0  0.00000000000E+00  0.00000000000E+00  0.18652768698E+04  0.18652773022E+04  0.12699999809E+01 0.  1.
       -4   -1    0    0    0  501  0.00000000000E+00  0.00000000000E+00 -0.86781132712E+03  0.86781225641E+03  0.12699999809E+01 0. -1.
    10030    2    1    2    0    0  0.00000000000E+00  0.00000000000E+00  0.99746554272E+03  0.27330895586E+04  0.25445708924E+04 0.  0.
        5    1    3    3  502    0  0.93390106990E+03  0.18075805775E+03  0.14062205970E+04  0.16977405989E+04  0.46999998093E+01 0.  1.
       -5    1    3    3    0  502 -0.93390106990E+03 -0.18075805775E+03 -0.40875505432E+03  0.10353489596E+04  0.46999998093E+01 0. -1.
</event>
<event>
 5   0  0.3581449E-05  0.2476966E+04  0.7818609E-02  0.8411238E-01
        2   -1    0    0  501    0  0.00000000000E+00  0.00000000000E+00  0.16806569804E+04  0.16806569804E+04  0.25500000920E-02 0. -1.
       -2   -1    0    0    0  501  0.00000000000E+00  0.00000000000E+00 -0.91264327420E+03  0.91264327420E+03  0.25500000920E-02 0.  1.
    10030    2    1    2    0    0  0.00000000000E+00  0.00000000000E+00  0.76801370623E+03  0.25933002546E+04  0.24769661196E+04 0.  0.
        1    1    3    3  502    0  0.86766248848E+03  0.86295994586E+03  0.18452684719E+03  0.12375735208E+04  0.50400001928E-02 0.  1.
       -1    1    3    3    0  502 -0.86766248848E+03 -0.86295994586E+03  0.58348685904E+03  0.13557267338E+04  0.50400001928E-02 0. -1.
</event>
<event>
 5   0  0.1429483E-05  0.2497843E+04  0.7818609E-02  0.8403754E-01
       -1   -1    0    0    0  501  0.00000000000E+00  0.00000000000E+00  0.11276602369E+04  0.11276602369E+04  0.50400001928E-02 0. -1.
        1   -1    0    0  501    0  0.00000000000E+00  0.00000000000E+00 -0.13832225175E+04  0.13832225175E+04  0.50400001928E-02 0.  1.
    10030    2    1    2    0    0  0.00000000000E+00  0.00000000000E+00 -0.25556228064E+03  0.25108827544E+04  0.24978430950E+04 0.  0.
        2    1    3    3  502    0  0.68253120661E+03 -0.10164673459E+04  0.11998135103E+03  0.12302236536E+04  0.25500000920E-02 0. -1.
       -2    1    3    3    0  502 -0.68253120661E+03  0.10164673459E+04 -0.37554363167E+03  0.12806591008E+04  0.25500000920E-02 0.  1.
</event>
<event>
 5   0  0.3704241E-05  0.2491346E+04  0.7818609E-02  0.8406075E-01
       -2   -1    0    0    0  501  0.00000000000E+00  0.00000000000E+00  0.68946961535E+03  0.68946961535E+03  0.25500000920E-02 0. -1.
        2   -1    0    0  501    0  0.00000000000E+00  0.00000000000E+00 -0.22505722642E+04  0.22505722642E+04  0.25500000920E-02 0.  1.
    10030    2    1    2    0    0  0.00000000000E+00  0.00000000000E+00 -0.15611026488E+04  0.29400418795E+04  0.24913459762E+04 0.  0.
        2    1    3    3  502    0  0.45417500475E+03  0.53967726003E+03  0.43109472693E+03  0.82666144432E+03  0.25500000920E-02 0. -1.
       -2    1    3    3    0  502 -0.45417500475E+03 -0.53967726003E+03 -0.19921973758E+04  0.21133804352E+04  0.25500000920E-02 0.  1.
</event>
<event>
 5   0  0.3581449E-05  0.2505147E+04  0.7818609E-02  0.8401154E-01
       -2   -1    0    0    0  501  0.00000000000E+00  0.00000000000E+00  0.98341382652E+03  0.98341382652E+03  0.25500000920E-02 0. -1.
        2   -1    0    0  501    0  0.00000000000E+00  0.00000000000E+00 -0.15954023948E+04  0.15954023949E+04  0.25500000920E-02 0.  1.
    10030    2    1    2    0    0  0.00000000000E+00  0.00000000000E+00 -0.61198856833E+03  0.25788162214E+04  0.25051473202E+04 0.  0.
        1    1    3    3  502    0 -0.79975579872E+03 -0.82626991825E+03  0.20520706069E+03  0.11680929985E+04  0.50400001928E-02 0. -1.
       -1    1    3    3    0  502  0.79975579872E+03  0.82626991825E+03 -0.81719562903E+03  0.14107232229E+04  0.50400001928E-02 0.  1.
</event>
<event>
 5   0  0.1429483E-05  0.2450828E+04  0.7818609E-02  0.8420716E-01
        1   -1    0    0  501    0  0.00000000000E+00  0.00000000000E+00  0.17342681549E+04  0.17342681549E+04  0.50400001928E-02 0. -1.
       -1   -1    0    0    0  501  0.00000000000E+00  0.00000000000E+00 -0.86586324111E+03  0.86586324112E+03  0.50400001928E-02 0.  1.
    10030    2    1    2    0    0  0.00000000000E+00  0.00000000000E+00  0.86840491376E+03  0.26001313960E+04  0.24508276525E+04 0.  0.
        2    1    3    3  502    0  0.10799066786E+04 -0.49646136790E+03  0.75064605661E+03  0.14057531172E+04  0.25500000920E-02 0. -1.
       -2    1    3    3    0  502 -0.10799066786E+04  0.49646136790E+03  0.11775885715E+03  0.11943782788E+04  0.25500000920E-02 0.  1.
</event>
<event>
 5   0  0.1502886E-05  0.2484261E+04  0.7818609E-02  0.8408614E-01
        1   -1    0    0  501    0  0.00000000000E+00  0.00000000000E+00  0.99636183742E+03  0.99636183743E+03  0.50400001928E-02 0.  1.
       -1   -1    0    0    0  501  0.00000000000E+00  0.00000000000E+00 -0.15485216971E+04  0.15485216971E+04  0.50400001928E-02 0. -1.
    10030    2    1    2    0    0  0.00000000000E+00  0.00000000000E+00 -0.55215985969E+03  0.25448835345E+04  0.24842607942E+04 0.  0.
        4    1    3    3  502    0  0.85310455945E+03  0.78174600194E+03  0.18657385586E+03  0.11720604155E+04  0.12699999809E+01 0.  1.
       -4    1    3    3    0  502 -0.85310455945E+03 -0.78174600194E+03 -0.73873371555E+03  0.13728231191E+04  0.12699999809E+01 0. -1.
</event>
<event>
 5   0  0.3579097E-05  0.2565672E+04  0.7818609E-02  0.8379956E-01
       -2   -1    0    0    0  501  0.00000000000E+00  0.00000000000E+00  0.13188749463E+04  0.13188749463E+04  0.25500000920E-02 0. -1.
        2   -1    0    0  501    0  0.00000000000E+00  0.00000000000E+00 -0.12477816115E+04  0.12477816115E+04  0.25500000920E-02 0.  1.
    10030    2    1    2    0    0  0.00000000000E+00  0.00000000000E+00  0.71093334764E+02  0.25666565578E+04  0.25656717685E+04 0.  0.
        5    1    3    3  502    0 -0.81415575071E+03 -0.81600653074E+03  0.59872773417E+03  0.12989277248E+04  0.46999998093E+01 0. -1.
       -5    1    3    3    0  502  0.81415575071E+03  0.81600653074E+03 -0.52763439940E+03  0.12677288330E+04  0.46999998093E+01 0.  1.
</event>
<event>
 5   0  0.1492639E-05  0.2259030E+04  0.7818609E-02  0.8494253E-01
       -1   -1    0    0    0  501  0.00000000000E+00  0.00000000000E+00  0.95863651639E+03  0.95863651641E+03  0.50400001928E-02 0. -1.
        1   -1    0    0  501    0  0.00000000000E+00  0.00000000000E+00 -0.13308524432E+04  0.13308524432E+04  0.50400001928E-02 0.  1.
    10030    2    1    2    0    0  0.00000000000E+00  0.00000000000E+00 -0.37221592683E+03  0.22894889596E+04  0.22590296590E+04 0.  0.
        5    1    3    3  502    0 -0.10068137774E+04  0.29039548766E+03  0.24121457347E+03  0.10752720967E+04  0.46999998093E+01 0. -1.
       -5    1    3    3    0  502  0.10068137774E+04 -0.29039548766E+03 -0.61343050030E+03  0.12142168629E+04  0.46999998093E+01 0.  1.
</event>
<event>
 5   0  0.1421242E-05  0.2488532E+04  0.7818609E-02  0.8407083E-01
       -1   -1    0    0    0  501  0.00000000000E+00  0.00000000000E+00  0.11242252114E+04  0.11242252114E+04  0.50400001928E-02 0.  1.
        1   -1    0    0  501    0  0.00000000000E+00  0.00000000000E+00 -0.13771239495E+04  0.13771239495E+04  0.50400001928E-02 0. -1.
    10030    2    1    2    0    0  0.00000000000E+00  0.00000000000E+00 -0.25289873808E+03  0.25013491610E+04  0.24885316661E+04 0.  0.
        3    1    3    3  502    0  0.84506553393E+03  0.59088271275E+03  0.57349881215E+03  0.11799063669E+04  0.10100000352E+00 0.  1.
       -3    1    3    3    0  502 -0.84506553393E+03 -0.59088271275E+03 -0.82639755022E+03  0.13214427941E+04  0.10100000352E+00 0. -1.
</event>
<event>
 5   0  0.3650620E-05  0.2477917E+04  0.7818609E-02  0.8410895E-01
       -2   -1    0    0    0  501  0.00000000000E+00  0.00000000000E+00  0.63623670163E+03  0.63623670163E+03  0.25500000920E-02 0.  1.
        2   -1    0    0  501    0  0.00000000000E+00  0.00000000000E+00 -0.24126525874E+04  0.24126525874E+04  0.25500000920E-02 0. -1.
    10030    2    1    2    0    0  0.00000000000E+00  0.00000000000E+00 -0.17764158858E+04  0.30488892891E+04  0.24779169675E+04 0.  0.
        3    1    3    3  502    0 -0.95078176477E+03 -0.69499219837E+03 -0.13615904032E+04  0.18002579138E+04  0.10100000352E+00 0. -1.
       -3    1    3    3    0  502  0.95078176477E+03  0.69499219837E+03 -0.41482548261E+03  0.12486313752E+04  0.10100000352E+00 0.  1.
</event>
<event>
 5   0  0.3579097E-05  0.2515484E+04  0.7818609E-02  0.8397490E-01
       -2   -1    0    0    0  501  0.00000000000E+00  0.00000000000E+00  0.11133244803E+04  0.11133244803E+04  0.25500000920E-02 0.  1.
        2   -1    0    0  501    0  0.00000000000E+00  0.00000000000E+00 -0.14208932452E+04  0.14208932452E+04  0.25500000920E-02 0. -1.
    10030    2    1    2    0    0  0.00000000000E+00  0.00000000000E+00 -0.30756876493E+03  0.25342177255E+04  0.25154842347E+04 0.  0.
        5    1    3    3  502    0 -0.11280330680E+04 -0.65740044415E+02 -0.71026818690E+03  0.13346472730E+04  0.46999998093E+01 0. -1.
       -5    1    3    3    0  502  0.11280330680E+04  0.65740044415E+02  0.40269942197E+03  0.11995704525E+04  0.46999998093E+01 0.  1.
</event>
<event>
 5   0  0.1492639E-05  0.2469664E+04  0.7818609E-02  0.8413873E-01
       -1   -1    0    0    0  501  0.00000000000E+00  0.00000000000E+00  0.11715861042E+04  0.11715861042E+04  0.50400001928E-02 0. -1.
        1   -1    0    0  501    0  0.00000000000E+00  0.00000000000E+00 -0.13014919489E+04  0.13014919489E+04  0.50400001928E-02 0.  1.
    10030    2    1    2    0    0  0.00000000000E+00  0.00000000000E+00 -0.12990584473E+03  0.24730780531E+04  0.24696638492E+04 0.  0.
        5    1    3    3  502    0  0.91204644800E+03  0.68652911494E+03  0.40648113814E+03  0.12117755381E+04  0.46999998093E+01 0.  1.
       -5    1    3    3    0  502 -0.91204644800E+03 -0.68652911494E+03 -0.53638698287E+03  0.12613025150E+04  0.46999998093E+01 0. -1.
</event>
<event>
 5   0  0.1429483E-05  0.2481177E+04  0.7818609E-02  0.8409722E-01
       -1   -1    0    0    0  501  0.00000000000E+00  0.00000000000E+00  0.86984370562E+03  0.86984370563E+03  0.50400001928E-02 0. -1.
        1   -1    0    0  501    0  0.00000000000E+00  0.00000000000E+00 -0.17693515741E+04  0.17693515741E+04  0.50400001928E-02 0.  1.
    10030    2    1    2    0    0  0.00000000000E+00  0.00000000000E+00 -0.89950786849E+03  0.26391952797E+04  0.24811765997E+04 0.  0.
        2    1    3    3  502    0 -0.70620765387E+03  0.84366643287E+03 -0.10594581962E+04  0.15274010507E+04  0.25500000920E-02 0.  1.
       -2    1    3    3    0  502  0.70620765387E+03 -0.84366643287E+03  0.15995032767E+03  0.11117942290E+04  0.25500000920E-02 0. -1.
</event>
<event>
 5   0  0.3578670E-05  0.2478145E+04  0.7818609E-02  0.8410813E-01
        2   -1    0    0  501    0  0.00000000000E+00  0.00000000000E+00  0.13671715009E+04  0.13671715009E+04  0.25500000920E-02 0. -1.
       -2   -1    0    0    0  501  0.00000000000E+00  0.00000000000E+00 -0.11229755446E+04  0.11229755446E+04  0.25500000920E-02 0.  1.
    10030    2    1    2    0    0  0.00000000000E+00  0.00000000000E+00  0.24419595629E+03  0.24901470455E+04  0.24781445969E+04 0.  0.
        4    1    3    3  502    0  0.12316284777E+04  0.13380228021E+03  0.14426817032E+03  0.12472476399E+04  0.12699999809E+01 0. -1.
       -4    1    3    3    0  502 -0.12316284777E+04 -0.13380228021E+03  0.99927785969E+02  0.12428994057E+04  0.12699999809E+01 0.  1.
</event>
<event>
 5   0  0.1201438E-05  0.2455768E+04  0.7818609E-02  0.8418915E-01
        4   -1    0    0  501    0  0.00000000000E+00  0.00000000000E+00  0.12328886460E+04  0.12328893001E+04  0.12699999809E+01 0.  1.
       -4   -1    0    0    0  501  0.00000000000E+00  0.00000000000E+00 -0.12228986824E+04  0.12228993418E+04  0.12699999809E+01 0. -1.
    10030    2    1    2    0    0  0.00000000000E+00  0.00000000000E+00  0.99899636263E+01  0.24557886419E+04  0.24557683226E+04 0.  0.
        5    1    3    3  502    0  0.72485671987E+03  0.74977418853E+03 -0.64316069193E+03  0.12252576724E+04  0.46999998093E+01 0. -1.
       -5    1    3    3    0  502 -0.72485671987E+03 -0.74977418853E+03  0.65315065555E+03  0.12305309695E+04  0.46999998093E+01 0.  1.
</event>
<event>
 5   0  0.1456876E-05  0.2495492E+04  0.7818609E-02  0.8404593E-01
       -1   -1    0    0    0  501  0.00000000000E+00  0.00000000000E+00  0.11406241030E+04  0.11406241030E+04  0.50400001928E-02 0.  1.
        1   -1    0    0  501    0  0.00000000000E+00  0.00000000000E+00 -0.13649283510E+04  0.13649283510E+04  0.50400001928E-02 0. -1.
    10030    2    1    2    0    0  0.00000000000E+00  0.00000000000E+00 -0.22430424804E+03  0.25055524540E+04  0.24954920766E+04 0.  0.
        1    1    3    3  502    0 -0.11017787545E+03  0.14565062399E+03 -0.13514364103E+04  0.13637205138E+04  0.50400001928E-02 0. -1.
       -1    1    3    3    0  502  0.11017787545E+03 -0.14565062399E+03  0.11271321623E+04  0.11418319403E+04  0.50400001928E-02 0.  1.
</event>
<event>
 5   0  0.3704241E-05  0.2509709E+04  0.7818609E-02  0.8399535E-01
        2   -1    0    0  501    0  0.00000000000E+00  0.00000000000E+00  0.20976343981E+04  0.20976343981E+04  0.25500000920E-02 0. -1.
       -2   -1    0    0    0  501  0.00000000000E+00  0.00000000000E+00 -0.75068339347E+03  0.75068339348E+03  0.25500000920E-02 0.  1.
    10030    2    1    2    0    0  0.00000000000E+00  0.00000000000E+00  0.13469510046E+04  0.28483177915E+04  0.25097085952E+04 0.  0.
        2    1    3    3  502    0 -0.67198810007E+03 -0.50721201281E+03 -0.38256548897E+03  0.92476396228E+03  0.25500000920E-02 0.  1.
       -2    1    3    3    0  502  0.67198810007E+03  0.50721201281E+03  0.17295164936E+04  0.19235538293E+04  0.25500000920E-02 0. -1.
</event>
<event>
 5   0  0.1429483E-05  0.2442200E+04  0.7818609E-02  0.8423871E-01
       -1   -1    0    0    0  501  0.00000000000E+00  0.00000000000E+00  0.54640030049E+03  0.54640030052E+03  0.50400001928E-02 0. -1.
        1   -1    0    0  501    0  0.00000000000E+00  0.00000000000E+00 -0.27289255042E+04  0.27289255042E+04  0.50400001928E-02 0.  1.
    10030    2    1    2    0    0  0.00000000000E+00  0.00000000000E+00 -0.21825252037E+04  0.32753258047E+04  0.24422004140E+04 0.  0.
        2    1    3    3  502    0 -0.78945213135E+03 -0.61537360986E+03 -0.15326548955E+03  0.10126251319E+04  0.25500000920E-02 0. -1.
       -2    1    3    3    0  502  0.78945213135E+03  0.61537360986E+03 -0.20292597142E+04  0.22627006729E+04  0.25500000920E-02 0.  1.
</event>
<event>
 5   0  0.3581449E-05  0.2465757E+04  0.7818609E-02  0.8415287E-01
       -2   -1    0    0    0  501  0.00000000000E+00  0.00000000000E+00  0.10015049805E+04  0.10015049805E+04  0.25500000920E-02 0. -1.
        2   -1    0    0  501    0  0.00000000000E+00  0.00000000000E+00 -0.15177054025E+04  0.15177054025E+04  0.25500000920E-02 0.  1.
    10030    2    1    2    0    0  0.00000000000E+00  0.00000000000E+00 -0.51620042195E+03  0.25192103830E+04  0.24657571004E+04 0.  0.
        1    1    3    3  502    0 -0.52443228450E+03 -0.41214097560E+03 -0.13174480849E+04  0.14766715482E+04  0.50400001928E-02 0.  1.
       -1    1    3    3    0  502  0.52443228450E+03  0.41214097560E+03  0.80124766293E+03  0.10425388349E+04  0.50400001928E-02 0. -1.
</event>
<event>
 5   0  0.1421242E-05  0.1799356E+04  0.7818609E-02  0.8706642E-01
        1   -1    0    0  501    0  0.00000000000E+00  0.00000000000E+00  0.20522099642E+04  0.20522099642E+04  0.50400001928E-02 0. -1.
       -1   -1    0    0    0  501  0.00000000000E+00  0.00000000000E+00 -0.39441427002E+03  0.39441427005E+03  0.50400001928E-02 0.  1.
    10030    2    1    2    0    0  0.00000000000E+00  0.00000000000E+00  0.16577956941E+04  0.24466242342E+04  0.17993564349E+04 0.  0.
        3    1    3    3  502    0  0.10525670605E+02 -0.53305852580E+03  0.18142588158E+04  0.18909778536E+04  0.10100000352E+00 0. -1.
       -3    1    3    3    0  502 -0.10525670605E+02  0.53305852580E+03 -0.15646312169E+03  0.55564638064E+03  0.10100000352E+00 0.  1.
</event>
<event>
 5   0  0.1421242E-05  0.2489438E+04  0.7818609E-02  0.8406758E-01
       -1   -1    0    0    0  501  0.00000000000E+00  0.00000000000E+00  0.70186187914E+03  0.70186187916E+03  0.50400001928E-02 0.  1.
        1   -1    0    0  501    0  0.00000000000E+00  0.00000000000E+00 -0.22074504487E+04  0.22074504487E+04  0.50400001928E-02 0. -1.
    10030    2    1    2    0    0  0.00000000000E+00  0.00000000000E+00 -0.15055885696E+04  0.29093123279E+04  0.24894379447E+04 0.  0.
        3    1    3    3  502    0  0.11091090118E+04 -0.52853379095E+03 -0.51948718671E+03  0.13339181817E+04  0.10100000352E+00 0.  1.
       -3    1    3    3    0  502 -0.11091090118E+04  0.52853379095E+03 -0.98610138289E+03  0.15753941462E+04  0.10100000352E+00 0. -1.
</event>
<event>
 5   0  0.3578670E-05  0.2496745E+04  0.7818609E-02  0.8404146E-01
        2   -1    0    0  501    0  0.00000000000E+00  0.00000000000E+00  0.18014421779E+04  0.18014421779E+04  0.25500000920E-02 0. -1.
       -2   -1    0    0    0  501  0.00000000000E+00  0.00000000000E+00 -0.86510352319E+03  0.86510352320E+03  0.25500000920E-02 0.  1.
    10030    2    1    2    0    0  0.00000000000E+00  0.00000000000E+00  0.93633865472E+03  0.26665457011E+04  0.24967450610E+04 0.  0.
        4    1    3    3  502    0 -0.47425836799E+03  0.39154171488E+02 -0.76443420738E+03  0.90045284112E+03  0.12699999809E+01 0.  1.
       -4    1    3    3    0  502  0.47425836799E+03 -0.39154171488E+02  0.17007728621E+04  0.17660928600E+04  0.12699999809E+01 0. -1.
</event>
<event>
 5   0  0.3581449E-05  0.2493418E+04  0.7818609E-02  0.8405334E-01
        2   -1    0    0  501    0  0.00000000000E+00  0.00000000000E+00  0.22846935405E+04  0.22846935405E+04  0.25500000920E-02 0. -1.
       -2   -1    0    0    0  501  0.00000000000E+00  0.00000000000E+00 -0.68030289897E+03  0.68030289898E+03  0.25500000920E-02 0.  1.
    10030    2    1    2    0    0  0.00000000000E+00  0.00000000000E+00  0.16043906415E+04  0.29649964394E+04  0.24934182472E+04 0.  0.
        1    1    3    3  502    0 -0.83699580507E+03 -0.55636433531E+02 -0.29453142011E+03  0.88904788842E+03  0.50400001928E-02 0.  1.
       -1    1    3    3    0  502  0.83699580507E+03  0.55636433531E+02  0.18989220616E+04  0.20759485510E+04  0.50400001928E-02 0. -1.
</event>
<event>
 5   0  0.1429483E-05  0.2364546E+04  0.7818609E-02  0.8452898E-01
       -1   -1    0    0    0  501  0.00000000000E+00  0.00000000000E+00  0.96111222639E+03  0.96111222641E+03  0.50400001928E-02 0.  1.
        1   -1    0    0  501    0  0.00000000000E+00  0.00000000000E+00 -0.14543246772E+04  0.14543246772E+04  0.50400001928E-02 0. -1.
    10030    2    1    2    0    0  0.00000000000E+00  0.00000000000E+00 -0.49321245077E+03  0.24154369036E+04  0.23645458155E+04 0.  0.
        2    1    3    3  502    0 -0.53616303802E+02  0.96698718762E+03  0.44609627652E+03  0.10662742691E+04  0.25500000920E-02 0. -1.
       -2    1    3    3    0  502  0.53616303802E+02 -0.96698718762E+03 -0.93930872729E+03  0.13491626345E+04  0.25500000920E-02 0.  1.
</event>
<event>
 5   0  0.1456876E-05  0.2488412E+04  0.7818609E-02  0.8407125E-01
        1   -1    0    0  501    0  0.00000000000E+00  0.00000000000E+00  0.12348994732E+04  0.12348994732E+04  0.50400001928E-02 0.  1.
       -1   -1    0    0    0  501  0.00000000000E+00  0.00000000000E+00 -0.12535826197E+04  0.12535826197E+04  0.50400001928E-02 0. -1.
    10030    2    1    2    0    0  0.00000000000E+00  0.00000000000E+00 -0.18683146538E+02  0.24884820930E+04  0.24884119569E+04 0.  0.
        1    1    3    3  502    0  0.50790971609E+03 -0.87467748322E+02  0.11231326744E+04  0.12357386014E+04  0.50400001928E-02 0.  1.
       -1    1    3    3    0  502 -0.50790971609E+03  0.87467748322E+02 -0.11418158209E+04  0.12527434916E+04  0.50400001928E-02 0. -1.
</event>
<event>
 5   0  0.1492639E-05  0.2463235E+04  0.7818609E-02  0.8416202E-01
       -1   -1    0    0    0  501  0.00000000000E+00  0.00000000000E+00  0.14894541543E+04  0.14894541544E+04  0.50400001928E-02 0. -1.
        1   -1    0    0  501    0  0.00000000000E+00  0.00000000000E+00 -0.10184143102E+04  0.10184143102E+04  0.50400001928E-02 0.  1.
    10030    2    1    2    0    0  0.00000000000E+00  0.00000000000E+00  0.47103984412E+03  0.25078684646E+04  0.24632348043E+04 0.  0.
        5    1    3    3  502    0 -0.18710212658E+03 -0.10310925734E+04  0.89431530107E+03  0.13776723298E+04  0.46999998093E+01 0. -1.
       -5    1    3    3    0  502  0.18710212658E+03  0.10310925734E+04 -0.42327545695E+03  0.11301961348E+04  0.46999998093E+01 0.  1.
</event>
<event>
 5   0  0.3704241E-05  0.2511899E+04  0.7818609E-02  0.8398759E-01
        2   -1    0    0  501    0  0.00000000000E+00  0.00000000000E+00  0.12115460906E+04  0.12115460906E+04  0.25500000920E-02 0.  1.
       -2   -1    0    0    0  501  0.00000000000E+00  0.00000000000E+00 -0.13019798973E+04  0.13019798973E+04  0.25500000920E-02 0. -1.
    10030    2    1    2    0    0  0.00000000000E+00  0.00000000000E+00 -0.90433806682E+02  0.25135259879E+04  0.25118986083E+04 0.  0.
        2    1    3    3  502    0  0.21799167883E+03 -0.96092381579E+03  0.73407754644E+03  0.12287248659E+04  0.25500000920E-02 0.  1.
       -2    1    3    3    0  502 -0.21799167883E+03  0.96092381579E+03 -0.82451135313E+03  0.12848011221E+04  0.25500000920E-02 0. -1.
</event>
<event>
 5   0  0.1502886E-05  0.2478850E+04  0.7818609E-02  0.8410559E-01
       -1   -1    0    0    0  501  0.00000000000E+00  0.00000000000E+00  0.13371686977E+04  0.13371686977E+04  0.50400001928E-02 0. -1.
        1   -1    0    0  501    0  0.00000000000E+00  0.00000000000E+00 -0.11488263462E+04  0.11488263462E+04  0.50400001928E-02 0.  1.
    10030    2    1    2    0    0  0.00000000000E+00  0.00000000000E+00  0.18834235148E+03  0.24859950440E+04  0.24788502410E+04 0.  0.
        4    1    3    3  502    0 -0.53289313718E+03 -0.94020725141E+03 -0.51437946407E+03  0.11968929013E+04  0.12699999809E+01 0.  1.
       -4    1    3    3    0  502  0.53289313718E+03  0.94020725141E+03  0.70272181555E+03  0.12891021427E+04  0.12699999809E+01 0. -1.
</event>
<event>
 5   0  0.3579097E-05  0.2014710E+04  0.7818609E-02  0.8599774E-01
        2   -1    0    0  501    0  0.00000000000E+00  0.00000000000E+00  0.66616593913E+03  0.66616593914E+03  0.25500000920E-02 0.  1.
       -2   -1    0    0    0  501  0.00000000000E+00  0.00000000000E+00 -0.15232909304E+04  0.15232909304E+04  0.25500000920E-02 0. -1.
    10030    2    1    2    0    0  0.00000000000E+00  0.00000000000E+00 -0.85712499128E+03  0.21894568695E+04  0.20147104340E+04 0.  0.
        5    1    3    3  502    0 -0.34491922257E+03 -0.94264266876E+03 -0.33636293741E+03  0.10586343026E+04  0.46999998093E+01 0. -1.
       -5    1    3    3    0  502  0.34491922257E+03  0.94264266876E+03 -0.52076205386E+03  0.11308225669E+04  0.46999998093E+01 0.  1.
</event>
<event>
 5   0  0.1492639E-05  0.2616502E+04  0.7818609E-02  0.8362617E-01
        1   -1    0    0  501    0  0.00000000000E+00  0.00000000000E+00  0.15774257725E+04  0.15774257725E+04  0.50400001928E-02 0.  1.
       -1   -1    0    0    0  501  0.00000000000E+00  0.00000000000E+00 -0.10850086005E+04  0.10850086005E+04  0.50400001928E-02 0. -1.
    10030    2    1    2    0    0  0.00000000000E+00  0.00000000000E+00  0.49241717197E+03  0.26624343730E+04  0.26165018859E+04 0.  0.
        5    1    3    3  502    0 -0.24268448105E+03  0.26599225127E+03  0.15260042055E+04  0.15679153549E+04  0.46999998093E+01 0.  1.
       -5    1    3    3    0  502  0.24268448105E+03 -0.26599225127E+03 -0.10335870335E+04  0.10945190181E+04  0.46999998093E+01 0. -1.
</event>
<event>
 5   0  0.1456876E-05  0.2515936E+04  0.7818609E-02  0.8397330E-01
        1   -1    0    0  501    0  0.00000000000E+00  0.00000000000E+00  0.11289184039E+04  0.11289184039E+04  0.50400001928E-02 0. -1.
       -1   -1    0    0    0  501  0.00000000000E+00  0.00000000000E+00 -0.14017691179E+04  0.14017691179E+04  0.50400001928E-02 0.  1.
    10030    2    1    2    0    0  0.00000000000E+00  0.00000000000E+00 -0.27285071405E+03  0.25306875218E+04  0.25159355756E+04 0.  0.
        1    1    3    3  502    0  0.66067944112E+02  0.64168595794E+02 -0.13983732506E+04  0.14014029863E+04  0.50400001928E-02 0.  1.
       -1    1    3    3    0  502 -0.66067944112E+02 -0.64168595794E+02  0.11255225365E+04  0.11292845355E+04  0.50400001928E-02 0. -1.
</event>
<event>
 5   0  0.3704241E-05  0.2474931E+04  0.7818609E-02  0.8411971E-01
       -2   -1    0    0    0  501  0.00000000000E+00  0.00000000000E+00  0.12046266259E+04  0.12046266259E+04  0.25500000920E-02 0.  1.
        2   -1    0    0  501    0  0.00000000000E+00  0.00000000000E+00 -0.12711999742E+04  0.12711999742E+04  0.25500000920E-02 0. -1.
    10030    2    1    2    0    0  0.00000000000E+00  0.00000000000E+00 -0.66573348319E+02  0.24758266002E+04  0.24749313816E+04 0.  0.
        2    1    3    3  502    0 -0.35883501943E+03  0.19466065481E+03 -0.12018984196E+04  0.12693365010E+04  0.25500000920E-02 0. -1.
       -2    1    3    3    0  502  0.35883501943E+03 -0.19466065481E+03  0.11353250713E+04  0.12064900991E+04  0.25500000920E-02 0.  1.
</event>
<event>
 5   0  0.1492639E-05  0.2500057E+04  0.7818609E-02  0.8402965E-01
       -1   -1    0    0    0  501  0.00000000000E+00  0.00000000000E+00  0.11301921880E+04  0.11301921880E+04  0.50400001928E-02 0. -1.
        1   -1    0    0  501    0  0.00000000000E+00  0.00000000000E+00 -0.13825707193E+04  0.13825707193E+04  0.50400001928E-02 0.  1.
    10030    2    1    2    0    0  0.00000000000E+00  0.00000000000E+00 -0.25237853135E+03  0.25127629074E+04  0.25000565005E+04 0.  0.
        5    1    3    3  502    0 -0.31768324382E+03  0.11321423418E+04 -0.55246700952E+03  0.12991962177E+04  0.46999998093E+01 0.  1.
       -5    1    3    3    0  502  0.31768324382E+03 -0.11321423418E+04  0.30008847817E+03  0.12135666896E+04  0.46999998093E+01 0. -1.
</event>
<event>
 5   0  0.3581449E-05  0.2480625E+04  0.7818609E-02  0.8409921E-01
       -2   -1    0    0    0  501  0.00000000000E+00  0.00000000000E+00  0.12336060057E+04  0.12336060057E+04  0.25500000920E-02 0.  1.
        2   -1    0    0  501    0  0.00000000000E+00  0.00000000000E+00 -0.12470550039E+04  0.12470550039E+04  0.25500000920E-02 0. -1.
    10030    2    1    2    0    0  0.00000000000E+00  0.00000000000E+00 -0.13448998202E+02  0.24806610096E+04  0.24806245522E+04 0.  0.
        1    1    3    3  502    0 -0.10399442770E+04  0.65109423864E+03 -0.18829460809E+03  0.12413148941E+04  0.50400001928E-02 0. -1.
       -1    1    3    3    0  502  0.10399442770E+04 -0.65109423864E+03  0.17484560989E+03  0.12393461155E+04  0.50400001928E-02 0.  1.
</event>
<event>
 5   0  0.1456876E-05  0.2525728E+04  0.7818609E-02  0.8393877E-01
        1   -1    0    0  501    0  0.00000000000E+00  0.00000000000E+00  0.95958232494E+03  0.95958232496E+03  0.50400001928E-02 0. -1.
       -1   -1    0    0    0  501  0.00000000000E+00  0.00000000000E+00 -0.16620002668E+04  0.16620002668E+04  0.50400001928E-02 0.  1.
    10030    2    1    2    0    0  0.00000000000E+00  0.00000000000E+00 -0.70241794186E+03  0.26215825918E+04  0.25257284732E+04 0.  0.
        1    1    3    3  502    0  0.86251549657E+03 -0.53080231578E+03 -0.11342548387E+04  0.15205979480E+04  0.50400001928E-02 0.  1.
       -1    1    3    3    0  502 -0.86251549657E+03  0.53080231578E+03  0.43183689688E+03  0.11009846438E+04  0.50400001928E-02 0. -1.
</event>
<event>
 5   0  0.1429483E-05  0.2469259E+04  0.7818609E-02  0.8414020E-01
       -1   -1    0    0    0  501  0.00000000000E+00  0.00000000000E+00  0.22222480293E+04  0.22222480293E+04  0.50400001928E-02 0. -1.
        1   -1    0    0  501    0  0.00000000000E+00  0.00000000000E+00 -0.68593161874E+03  0.68593161876E+03  0.50400001928E-02 0.  1.
    10030    2    1    2    0    0  0.00000000000E+00  0.00000000000E+00  0.15363164106E+04  0.29081796481E+04  0.24692591505E+04 0.  0.
        2    1    3    3  502    0 -0.92844838427E+03  0.77224684259E+03  0.46575145210E+03  0.12943361245E+04  0.25500000920E-02 0.  1.
       -2    1    3    3    0  502  0.92844838427E+03 -0.77224684259E+03  0.10705649585E+04  0.16138435235E+04  0.25500000920E-02 0. -1.
</event>
<event>
 5   0  0.3578670E-05  0.2538316E+04  0.7818609E-02  0.8389461E-01
        2   -1    0    0  501    0  0.00000000000E+00  0.00000000000E+00  0.88879900653E+03  0.88879900653E+03  0.25500000920E-02 0.  1.
       -2   -1    0    0    0  501  0.00000000000E+00  0.00000000000E+00 -0.18122903488E+04  0.18122903488E+04  0.25500000920E-02 0. -1.
    10030    2    1    2    0    0  0.00000000000E+00  0.00000000000E+00 -0.92349134223E+03  0.27010893553E+04  0.25383158681E+04 0.  0.
        4    1    3    3  502    0 -0.70464867516E+02 -0.55975952212E+03  0.74802361029E+03  0.93692953556E+03  0.12699999809E+01 0.  1.
       -4    1    3    3    0  502  0.70464867516E+02  0.55975952212E+03 -0.16715149525E+04  0.17641598197E+04  0.12699999809E+01 0. -1.
</event>
<event>
 5   0  0.3704241E-05  0.2504805E+04  0.7818609E-02  0.8401276E-01
        2   -1    0    0  501    0  0.00000000000E+00  0.00000000000E+00  0.10969154463E+04  0.10969154463E+04  0.25500000920E-02 0. -1.
       -2   -1    0    0    0  501  0.00000000000E+00  0.00000000000E+00 -0.14299293669E+04  0.14299293669E+04  0.25500000920E-02 0.  1.
    10030    2    1    2    0    0  0.00000000000E+00  0.00000000000E+00 -0.33301392063E+03  0.25268448132E+04  0.25048046708E+04 0.  0.
        2    1    3    3  502    0 -0.76488877280E+03 -0.85847097577E+03  0.33433347990E+03  0.11974164383E+04  0.25500000920E-02 0. -1.
       -2    1    3    3    0  502  0.76488877280E+03  0.85847097577E+03 -0.66734740053E+03  0.13294283749E+04  0.25500000920E-02 0.  1.
</event>
<event>
 5   0  0.3578670E-05  0.2518705E+04  0.7818609E-02  0.8396352E-01
       -2   -1    0    0    0  501  0.00000000000E+00  0.00000000000E+00  0.14011618340E+04  0.14011618340E+04  0.25500000920E-02 0.  1.
        2   -1    0    0  501    0  0.00000000000E+00  0.00000000000E+00 -0.11318952219E+04  0.11318952219E+04  0.25500000920E-02 0. -1.
    10030    2    1    2    0    0  0.00000000000E+00  0.00000000000E+00  0.26926661212E+03  0.25330570558E+04  0.25187047345E+04 0.  0.
        4    1    3    3  502    0 -0.86650607391E+03  0.23833788907E+03  0.10218900984E+04  0.13608448521E+04  0.12699999809E+01 0.  1.
       -4    1    3    3    0  502  0.86650607391E+03 -0.23833788907E+03 -0.75262348628E+03  0.11722122037E+04  0.12699999809E+01 0. -1.
</event>
<event>
 5   0  0.1429483E-05  0.2520627E+04  0.7818609E-02  0.8395674E-01
        1   -1    0    0  501    0  0.00000000000E+00  0.00000000000E+00  0.28228659953E+04  0.28228659953E+04  0.50400001928E-02 0. -1.
       -1   -1    0    0    0  501  0.00000000000E+00  0.00000000000E+00 -0.56268718328E+03  0.56268718330E+03  0.50400001928E-02 0.  1.
    10030    2    1    2    0    0  0.00000000000E+00  0.00000000000E+00  0.22601788120E+04  0.33855531786E+04  0.25206273153E+04 0.  0.
        2    1    3    3  502    0  0.13796420575E+03  0.11828148091E+04  0.16843772640E+04  0.20628164635E+04  0.25500000920E-02 0.  1.
       -2    1    3    3    0  502 -0.13796420575E+03 -0.11828148091E+04  0.57580154794E+03  0.13227367150E+04  0.25500000920E-02 0. -1.
</event>
<event>
 5   0  0.3581449E-05  0.2504727E+04  0.7818609E-02  0.8401304E-01
        2   -1    0    0  501    0  0.00000000000E+00  0.00000000000E+00  0.16970169036E+04  0.16970169036E+04  0.25500000920E-02 0. -1.
       -2   -1    0    0    0  501  0.00000000000E+00  0.00000000000E+00 -0.92421814757E+03  0.92421814758E+03  0.25500000920E-02 0.  1.
    10030    2    1    2    0    0  0.00000000000E+00  0.00000000000E+00  0.77279875603E+03  0.26212350512E+04  0.25047265871E+04 0.  0.
        1    1    3    3  502    0 -0.56546216701E+03 -0.96357957888E+02 -0.77866022985E+03  0.96713187929E+03  0.50400001928E-02 0.  1.
       -1    1    3    3    0  502  0.56546216701E+03  0.96357957888E+02  0.15514589859E+04  0.16541031719E+04  0.50400001928E-02 0. -1.
</event>
<event>
 5   0  0.1502886E-05  0.2333313E+04  0.7818609E-02  0.8464901E-01
        1   -1    0    0  501    0  0.00000000000E+00  0.00000000000E+00  0.11469244267E+04  0.11469244267E+04  0.50400001928E-02 0.  1.
       -1   -1    0    0    0  501  0.00000000000E+00  0.00000000000E+00 -0.11867280457E+04  0.11867280457E+04  0.50400001928E-02 0. -1.
    10030    2    1    2    0    0  0.00000000000E+00  0.00000000000E+00 -0.39803618969E+02  0.23336524725E+04  0.23333129953E+04 0.  0.
        4    1    3    3  502    0 -0.71270904259E+03  0.85376899017E+03  0.33258400346E+03  0.11608141110E+04  0.12699999809E+01 0.  1.
       -4    1    3    3    0  502  0.71270904259E+03 -0.85376899017E+03 -0.37238762243E+03  0.11728383615E+04  0.12699999809E+01 0. -1.
</event>
<event>
 5   0  0.1429483E-05  0.2537543E+04  0.7818609E-02  0.8389732E-01
       -1   -1    0    0    0  501  0.00000000000E+00  0.00000000000E+00  0.75129569336E+03  0.75129569338E+03  0.50400001928E-02 0. -1.
        1   -1    0    0  501    0  0.00000000000E+00  0.00000000000E+00 -0.21426726576E+04  0.21426726576E+04  0.50400001928E-02 0.  1.
    10030    2    1    2    0    0  0.00000000000E+00  0.00000000000E+00 -0.13913769643E+04  0.28939683510E+04  0.25375427011E+04 0.  0.
        2    1    3    3  502    0  0.53152491194E+03  0.11284544817E+04 -0.43103152452E+03  0.13197410444E+04  0.25500000920E-02 0. -1.
       -2    1    3    3    0  502 -0.53152491194E+03 -0.11284544817E+04 -0.96034543976E+03  0.15742273066E+04  0.25500000920E-02 0.  1.
</event>
<event>
 5   0  0.1456876E-05  0.2503501E+04  0.7818609E-02  0.8401739E-01
        1   -1    0    0  501    0  0.00000000000E+00  0.00000000000E+00  0.12380362682E+04  0.12380362682E+04  0.50400001928E-02 0. -1.
       -1   -1    0    0    0  501  0.00000000000E+00  0.00000000000E+00 -0.12656166268E+04  0.12656166268E+04  0.50400001928E-02 0.  1.
    10030    2    1    2    0    0  0.00000000000E+00  0.00000000000E+00 -0.27580358596E+02  0.25036528950E+04  0.25035009771E+04 0.  0.
        1    1    3    3  502    0 -0.85017968280E+03  0.36025010687E+03 -0.85900041673E+03  0.12611373234E+04  0.50400001928E-02 0.  1.
       -1    1    3    3    0  502  0.85017968280E+03 -0.36025010687E+03  0.83142005813E+03  0.12425155716E+04  0.50400001928E-02 0. -1.
</event>
<event>
 5   0  0.3581449E-05  0.2496593E+04  0.7818609E-02  0.8404200E-01
        2   -1    0    0  501    0  0.00000000000E+00  0.00000000000E+00  0.10194148574E+04  0.10194148574E+04  0.25500000920E-02 0. -1.
       -2   -1    0    0    0  501  0.00000000000E+00  0.00000000000E+00 -0.15285672668E+04  0.15285672668E+04  0.25500000920E-02 0.  1.
    10030    2    1    2    0    0  0.00000000000E+00  0.00000000000E+00 -0.50915240942E+03  0.25479821243E+04  0.24965930244E+04 0.  0.
        1    1    3    3  502    0  0.99722958199E+03 -0.72869009082E+03 -0.69774184410E+02  0.12370628620E+04  0.50400001928E-02 0.  1.
       -1    1    3    3    0  502 -0.99722958199E+03  0.72869009082E+03 -0.43937822501E+03  0.13109192623E+04  0.50400001928E-02 0. -1.
</event>
<event>
 5   0  0.1421242E-05  0.2452534E+04  0.7818609E-02  0.8420094E-01
       -1   -1    0    0    0  501  0.00000000000E+00  0.00000000000E+00  0.20971200345E+04  0.20971200345E+04  0.50400001928E-02 0. -1.
        1   -1    0    0  501    0  0.00000000000E+00  0.00000000000E+00 -0.71704536070E+03  0.71704536072E+03  0.50400001928E-02 0.  1.
    10030    2    1    2    0    0  0.00000000000E+00  0.00000000000E+00  0.13800746738E+04  0.28141653952E+04  0.24525335403E+04 0.  0.
        3    1    3    3  502    0  0.12927154035E+03  0.16538590751E+03 -0.69627628656E+03  0.72723057346E+03  0.10100000352E+00 0.  1.
       -3    1    3    3    0  502 -0.12927154035E+03 -0.16538590751E+03  0.20763509603E+04  0.20869348217E+04  0.10100000352E+00 0. -1.
</event>
<event>
 5   0  0.1492639E-05  0.2482015E+04  0.7818609E-02  0.8409421E-01
        1   -1    0    0  501    0  0.00000000000E+00  0.00000000000E+00  0.13970705462E+04  0.13970705462E+04  0.50400001928E-02 0.  1.
       -1   -1    0    0    0  501  0.00000000000E+00  0.00000000000E+00 -0.11023781314E+04  0.11023781314E+04  0.50400001928E-02 0. -1.
    10030    2    1    2    0    0  0.00000000000E+00  0.00000000000E+00  0.29469241479E+03  0.24994486777E+04  0.24820153249E+04 0.  0.
        5    1    3    3  502    0  0.53982822481E+03  0.45208407128E+03 -0.88173335684E+03  0.11283928050E+04  0.46999998093E+01 0. -1.
       -5    1    3    3    0  502 -0.53982822481E+03 -0.45208407128E+03  0.11764257716E+04  0.13710558727E+04  0.46999998093E+01 0.  1.
</event>
<event>
 5   0  0.1421242E-05  0.1971791E+04  0.7818609E-02  0.8619924E-01
        1   -1    0    0  501    0  0.00000000000E+00  0.00000000000E+00  0.96090567137E+03  0.96090567138E+03  0.50400001928E-02 0. -1.
       -1   -1    0    0    0  501  0.00000000000E+00  0.00000000000E+00 -0.10115354138E+04  0.10115354138E+04  0.50400001928E-02 0.  1.
    10030    2    1    2    0    0  0.00000000000E+00  0.00000000000E+00 -0.50629742409E+02  0.19724410852E+04  0.19717911816E+04 0.  0.
        3    1    3    3  502    0 -0.32741362285E+03  0.83970282404E+02 -0.95176235112E+03  0.10100011247E+04  0.10100000352E+00 0.  1.
       -3    1    3    3    0  502  0.32741362285E+03 -0.83970282404E+02  0.90113260872E+03  0.96243996044E+03  0.10100000352E+00 0. -1.
</event>
<event>
 5   0  0.3704241E-05  0.2100822E+04  0.7818609E-02  0.8560881E-01
       -2   -1    0    0    0  501  0.00000000000E+00  0.00000000000E+00  0.79595091709E+03  0.79595091709E+03  0.25500000920E-02 0. -1.
        2   -1    0    0  501    0  0.00000000000E+00  0.00000000000E+00 -0.13862207498E+04  0.13862207498E+04  0.25500000920E-02 0.  1.
    10030    2    1    2    0    0  0.00000000000E+00  0.00000000000E+00 -0.59026983267E+03  0.21821716669E+04  0.21008223886E+04 0.  0.
        2    1    3    3  502    0  0.10382345804E+04 -0.12047466719E+03 -0.40367266722E+03  0.11204449169E+04  0.25500000920E-02 0. -1.
       -2    1    3    3    0  502 -0.10382345804E+04  0.12047466719E+03 -0.18659716545E+03  0.10617267500E+04  0.25500000920E-02 0.  1.
</event>
<event>
 5   0  0.3578670E-05  0.2154520E+04  0.7818609E-02  0.8537600E-01
        2   -1    0    0  501    0  0.00000000000E+00  0.00000000000E+00  0.16988772279E+04  0.16988772279E+04  0.25500000920E-02 0. -1.
       -2   -1    0    0    0  501  0.00000000000E+00  0.00000000000E+00 -0.68309194278E+03  0.68309194279E+03  0.25500000920E-02 0.  1.
    10030    2    1    2    0    0  0.00000000000E+00  0.00000000000E+00  0.10157852851E+04  0.23819691707E+04  0.21545202215E+04 0.  0.
        4    1    3    3  502    0 -0.39547275009E+03 -0.89270880306E+03  0.46950618647E+01  0.97639713213E+03  0.12699999809E+01 0.  1.
       -4    1    3    3    0  502  0.39547275009E+03  0.89270880306E+03  0.10110902233E+04  0.14055720386E+04  0.12699999809E+01 0. -1.
</event>
<event>
 5   0  0.3578670E-05  0.2475102E+04  0.7818609E-02  0.8411910E-01
       -2   -1    0    0    0  501  0.00000000000E+00  0.00000000000E+00  0.95683063275E+03  0.95683063275E+03  0.25500000920E-02 0.  1.
        2   -1    0    0  501    0  0.00000000000E+00  0.00000000000E+00 -0.16006300591E+04  0.16006300591E+04  0.25500000920E-02 0. -1.
    10030    2    1    2    0    0  0.00000000000E+00  0.00000000000E+00 -0.64379942639E+03  0.25574606919E+04  0.24751015109E+04 0.  0.
        4    1    3    3  502    0 -0.54898619410E+03  0.36214605947E+03  0.76131298162E+03  0.10060490438E+04  0.12699999809E+01 0.  1.
       -4    1    3    3    0  502  0.54898619410E+03 -0.36214605947E+03 -0.14051124080E+04  0.15514116481E+04  0.12699999809E+01 0. -1.
</event>
<event>
 5   0  0.1421242E-05  0.2384854E+04  0.7818609E-02  0.8445196E-01
        1   -1    0    0  501    0  0.00000000000E+00  0.00000000000E+00  0.87270066799E+03  0.87270066801E+03  0.50400001928E-02 0. -1.
       -1   -1    0    0    0  501  0.00000000000E+00  0.00000000000E+00 -0.16292894251E+04  0.16292894251E+04  0.50400001928E-02 0.  1.
    10030    2    1    2    0    0  0.00000000000E+00  0.00000000000E+00 -0.75658875715E+03  0.25019900932E+04  0.23848538485E+04 0.  0.
        3    1    3    3  502    0  0.65951928790E+03 -0.78190916018E+03 -0.10212020989E+04  0.14454069887E+04  0.10100000352E+00 0.  1.
       -3    1    3    3    0  502 -0.65951928790E+03  0.78190916018E+03  0.26461334175E+03  0.10565831045E+04  0.10100000352E+00 0. -1.
</event>
<event>
 5   0  0.1502886E-05  0.2487487E+04  0.7818609E-02  0.8407457E-01
       -1   -1    0    0    0  501  0.00000000000E+00  0.00000000000E+00  0.13474714833E+04  0.13474714833E+04  0.50400001928E-02 0. -1.
        1   -1    0    0  501    0  0.00000000000E+00  0.00000000000E+00 -0.11480003094E+04  0.11480003094E+04  0.50400001928E-02 0.  1.
    10030    2    1    2    0    0  0.00000000000E+00  0.00000000000E+00  0.19947117384E+03  0.24954717927E+04  0.24874868279E+04 0.  0.
        4    1    3    3  502    0 -0.36889299338E+03 -0.11731252888E+04 -0.86848222342E+02  0.12328216458E+04  0.12699999809E+01 0.  1.
       -4    1    3    3    0  502  0.36889299338E+03  0.11731252888E+04  0.28631939618E+03  0.12626501469E+04  0.12699999809E+01 0. -1.
</event>
<event>
 5   0  0.3579097E-05  0.2437438E+04  0.7818609E-02  0.8425619E-01
        2   -1    0    0  501    0  0.00000000000E+00  0.00000000000E+00  0.23770670587E+04  0.23770670587E+04  0.25500000920E-02 0. -1.
       -2   -1    0    0    0  501  0.00000000000E+00  0.00000000000E+00 -0.62483575025E+03  0.62483575026E+03  0.25500000920E-02 0.  1.
    10030    2    1    2    0    0  0.00000000000E+00  0.00000000000E+00  0.17522313085E+04  0.30019028090E+04  0.24374383923E+04 0.  0.
        5    1    3    3  502    0  0.65371071674E+03  0.14655526374E+03  0.21299342144E+04  0.22328139184E+04  0.46999998093E+01 0. -1.
       -5    1    3    3    0  502 -0.65371071674E+03 -0.14655526374E+03 -0.37770290592E+03  0.76908889060E+03  0.46999998093E+01 0.  1.
</event>
<event>
 5   0  0.1492639E-05  0.2483746E+04  0.7818609E-02  0.8408799E-01
        1   -1    0    0  501    0  0.00000000000E+00  0.00000000000E+00  0.19330101503E+04  0.19330101503E+04  0.50400001928E-02 0. -1.
       -1   -1    0    0    0  501  0.00000000000E+00  0.00000000000E+00 -0.79784828505E+03  0.79784828507E+03  0.50400001928E-02 0.  1.
    10030    2    1    2    0    0  0.00000000000E+00  0.00000000000E+00  0.11351618653E+04  0.27308584354E+04  0.24837462298E+04 0.  0.
        5    1    3    3  502    0 -0.92961317054E+03 -0.63903666278E+03 -0.33912093340E+01  0.11280878040E+04  0.46999998093E+01 0.  1.
       -5    1    3    3    0  502  0.92961317054E+03  0.63903666278E+03  0.11385530746E+04  0.16027706314E+04  0.46999998093E+01 0. -1.
</event>
<event>
 5   0  0.1502886E-05  0.2184169E+04  0.7818609E-02  0.8525046E-01
        1   -1    0    0  501    0  0.00000000000E+00  0.00000000000E+00  0.10302357526E+04  0.10302357526E+04  0.50400001928E-02 0.  1.
       -1   -1    0    0    0  501  0.00000000000E+00  0.00000000000E+00 -0.11576464469E+04  0.11576464469E+04  0.50400001928E-02 0. -1.
    10030    2    1    2    0    0  0.00000000000E+00  0.00000000000E+00 -0.12741069431E+03  0.21878821995E+04  0.21841691862E+04 0.  0.
        4    1    3    3  502    0  0.10269883842E+04 -0.34619574963E+03 -0.19843495061E+03  0.11017870397E+04  0.12699999809E+01 0. -1.
       -4    1    3    3    0  502 -0.10269883842E+04  0.34619574963E+03  0.71024256302E+02  0.10860951598E+04  0.12699999809E+01 0.  1.
</event>
<event>
 5   0  0.3579097E-05  0.2491169E+04  0.7818609E-02  0.8406138E-01
       -2   -1    0    0    0  501  0.00000000000E+00  0.00000000000E+00  0.15731336328E+04  0.15731336328E+04  0.25500000920E-02 0. -1.
        2   -1    0    0  501    0  0.00000000000E+00  0.00000000000E+00 -0.98623574892E+03  0.98623574893E+03  0.25500000920E-02 0.  1.
    10030    2    1    2    0    0  0.00000000000E+00  0.00000000000E+00  0.58689788390E+03  0.25593693818E+04  0.24911689036E+04 0.  0.
        5    1    3    3  502    0 -0.73689524968E+03 -0.70209201125E+03 -0.44419818094E+03  0.11105322666E+04  0.46999998093E+01 0.  1.
       -5    1    3    3    0  502  0.73689524968E+03  0.70209201125E+03  0.10310960648E+04  0.14488371151E+04  0.46999998093E+01 0. -1.
</event>
<event>
 5   0  0.1421242E-05  0.2503504E+04  0.7818609E-02  0.8401738E-01
        1   -1    0    0  501    0  0.00000000000E+00  0.00000000000E+00  0.88991549564E+03  0.88991549565E+03  0.50400001928E-02 0.  1.
       -1   -1    0    0    0  501  0.00000000000E+00  0.00000000000E+00 -0.17607105712E+04  0.17607105712E+04  0.50400001928E-02 0. -1.
    10030    2    1    2    0    0  0.00000000000E+00  0.00000000000E+00 -0.87079507558E+03  0.26506260669E+04  0.25035044403E+04 0.  0.
        3    1    3    3  502    0  0.60651185313E+03 -0.10949678480E+04 -0.42638904270E+03  0.13223535239E+04  0.10100000352E+00 0. -1.
       -3    1    3    3    0  502 -0.60651185313E+03  0.10949678480E+04 -0.44440603288E+03  0.13282725430E+04  0.10100000352E+00 0.  1.
</event>
<event>
 5   0  0.1421242E-05  0.2512639E+04  0.7818609E-02  0.8398497E-01
        1   -1    0    0  501    0  0.00000000000E+00  0.00000000000E+00  0.17301859550E+04  0.17301859550E+04  0.50400001928E-02 0.  1.
       -1   -1    0    0    0  501  0.00000000000E+00  0.00000000000E+00 -0.91223617792E+03  0.91223617794E+03  0.50400001928E-02 0. -1.
    10030    2    1    2    0    0  0.00000000000E+00  0.00000000000E+00  0.81794977709E+03  0.26424221330E+04  0.25126386312E+04 0.  0.
        3    1    3    3  502    0 -0.65780877625E+03  0.43256428079E+03 -0.62063188028E+03  0.10025009647E+04  0.10100000352E+00 0. -1.
       -3    1    3    3    0  502  0.65780877625E+03 -0.43256428079E+03  0.14385816574E+04  0.16399211683E+04  0.10100000352E+00 0.  1.
</event>
<event>
 5   0  0.1421242E-05  0.2498136E+04  0.7818609E-02  0.8403650E-01
        1   -1    0    0  501    0  0.00000000000E+00  0.00000000000E+00  0.15237424469E+04  0.15237424469E+04  0.50400001928E-02 0.  1.
       -1   -1    0    0    0  501  0.00000000000E+00  0.00000000000E+00 -0.10239068411E+04  0.10239068411E+04  0.50400001928E-02 0. -1.
    10030    2    1    2    0    0  0.00000000000E+00  0.00000000000E+00  0.49983560583E+03  0.25476492881E+04  0.24981355572E+04 0.  0.
        3    1    3    3  502    0  0.90991524347E+03  0.65391544536E+03  0.81278020412E+03  0.13842553342E+04  0.10100000352E+00 0.  1.
       -3    1    3    3    0  502 -0.90991524347E+03 -0.65391544536E+03 -0.31294459828E+03  0.11633939538E+04  0.10100000352E+00 0. -1.
</event>
<event>
 5   0  0.1429483E-05  0.2347164E+04  0.7818609E-02  0.8459554E-01
       -1   -1    0    0    0  501  0.00000000000E+00  0.00000000000E+00  0.67067448730E+03  0.67067448732E+03  0.50400001928E-02 0.  1.
        1   -1    0    0  501    0  0.00000000000E+00  0.00000000000E+00 -0.20535968951E+04  0.20535968952E+04  0.50400001928E-02 0. -1.
    10030    2    1    2    0    0  0.00000000000E+00  0.00000000000E+00 -0.13829224079E+04  0.27242713825E+04  0.23471642847E+04 0.  0.
        2    1    3    3  502    0 -0.17159181913E+03  0.10588212562E+04 -0.13877399068E+03  0.10815749745E+04  0.25500000920E-02 0.  1.
       -2    1    3    3    0  502  0.17159181913E+03 -0.10588212562E+04 -0.12441484172E+04  0.16426964080E+04  0.25500000920E-02 0. -1.
</event>
<event>
 5   0  0.1502886E-05  0.2546452E+04  0.7818609E-02  0.8386621E-01
        1   -1    0    0  501    0  0.00000000000E+00  0.00000000000E+00  0.15074467544E+04  0.15074467544E+04  0.50400001928E-02 0. -1.
       -1   -1    0    0    0  501  0.00000000000E+00  0.00000000000E+00 -0.10753973046E+04  0.10753973046E+04  0.50400001928E-02 0.  1.
    10030    2    1    2    0    0  0.00000000000E+00  0.00000000000E+00  0.43204944986E+03  0.25828440590E+04  0.25464517875E+04 0.  0.
        4    1    3    3  502    0  0.25504501267E+03  0.65393372875E+03  0.12934797038E+04  0.14716550673E+04  0.12699999809E+01 0. -1.
       -4    1    3    3    0  502 -0.25504501267E+03 -0.65393372875E+03 -0.86143025392E+03  0.11111889917E+04  0.12699999809E+01 0.  1.
</event>
<event>
 5   0  0.1502886E-05  0.2480248E+04  0.7818609E-02  0.8410056E-01
        1   -1    0    0  501    0  0.00000000000E+00  0.00000000000E+00  0.24671764412E+04  0.24671764412E+04  0.50400001928E-02 0.  1.
       -1   -1    0    0    0  501  0.00000000000E+00  0.00000000000E+00 -0.62334723359E+03  0.62334723361E+03  0.50400001928E-02 0. -1.
    10030    2    1    2    0    0  0.00000000000E+00  0.00000000000E+00  0.18438292076E+04  0.30905236748E+04  0.24802480597E+04 0.  0.
        4    1    3    3  502    0  0.15820097441E+03 -0.38814080588E+03  0.23762393884E+04  0.24129227251E+04  0.12699999809E+01 0.  1.
       -4    1    3    3    0  502 -0.15820097441E+03  0.38814080588E+03 -0.53241018080E+03  0.67760094969E+03  0.12699999809E+01 0. -1.
</event>
<event>
 5   0  0.3650620E-05  0.2383868E+04  0.7818609E-02  0.8445568E-01
       -2   -1    0    0    0  501  0.00000000000E+00  0.00000000000E+00  0.17211575688E+04  0.17211575688E+04  0.25500000920E-02 0. -1.
        2   -1    0    0  501    0  0.00000000000E+00  0.00000000000E+00 -0.82543646198E+03  0.82543646198E+03  0.25500000920E-02 0.  1.
    10030    2    1    2    0    0  0.00000000000E+00  0.00000000000E+00  0.89572110679E+03  0.25465940308E+04  0.23838676256E+04 0.  0.
        3    1    3    3  502    0 -0.98584208121E+02 -0.10856650296E+04 -0.67035733641E+02  0.10921910100E+04  0.10100000352E+00 0. -1.
       -3    1    3    3    0  502  0.98584208121E+02  0.10856650296E+04  0.96275684043E+03  0.14544030207E+04  0.10100000352E+00 0.  1.
</event>
<event>
 5   0  0.3578670E-05  0.2524038E+04  0.7818609E-02  0.8394472E-01
       -2   -1    0    0    0  501  0.00000000000E+00  0.00000000000E+00  0.13641991251E+04  0.13641991251E+04  0.25500000920E-02 0. -1.
        2   -1    0    0  501    0  0.00000000000E+00  0.00000000000E+00 -0.11674922264E+04  0.11674922264E+04  0.25500000920E-02 0.  1.
    10030    2    1    2    0    0  0.00000000000E+00  0.00000000000E+00  0.19670689874E+03  0.25316913515E+04  0.25240379346E+04 0.  0.
        4    1    3    3  502    0 -0.74128055989E+03 -0.10149260387E+04 -0.16529993069E+02  0.12569194827E+04  0.12699999809E+01 0.  1.
       -4    1    3    3    0  502  0.74128055989E+03  0.10149260387E+04  0.21323689181E+03  0.12747718688E+04  0.12699999809E+01 0. -1.
</event>
<event>
 5   0  0.3578670E-05  0.2499425E+04  0.7818609E-02  0.8403190E-01
        2   -1    0    0  501    0  0.00000000000E+00  0.00000000000E+00  0.15118742318E+04  0.15118742318E+04  0.25500000920E-02 0.  1.
       -2   -1    0    0    0  501  0.00000000000E+00  0.00000000000E+00 -0.10330104422E+04  0.10330104423E+04  0.25500000920E-02 0. -1.
    10030    2    1    2    0    0  0.00000000000E+00  0.00000000000E+00  0.47886378954E+03  0.25448846740E+04  0.24994254290E+04 0.  0.
        4    1    3    3  502    0  0.67066245854E+03  0.68365585660E+03  0.10569085532E+04  0.14262646200E+04  0.12699999809E+01 0.  1.
       -4    1    3    3    0  502 -0.67066245854E+03 -0.68365585660E+03 -0.57804476368E+03  0.11186200540E+04  0.12699999809E+01 0. -1.
</event>
<event>
 5   0  0.1492639E-05  0.2506814E+04  0.7818609E-02  0.8400562E-01
       -1   -1    0    0    0  501  0.00000000000E+00  0.00000000000E+00  0.15926237043E+04  0.15926237043E+04  0.50400001928E-02 0.  1.
        1   -1    0    0  501    0  0.00000000000E+00  0.00000000000E+00 -0.98644121317E+03  0.98644121319E+03  0.50400001928E-02 0. -1.
    10030    2    1    2    0    0  0.00000000000E+00  0.00000000000E+00  0.60618249114E+03  0.25790649175E+04  0.25068144399E+04 0.  0.
        5    1    3    3  502    0 -0.52480191211E+03 -0.79715439870E+03 -0.53281311950E+03  0.10930617973E+04  0.46999998093E+01 0. -1.
       -5    1    3    3    0  502  0.52480191211E+03  0.79715439870E+03  0.11389956106E+04  0.14860031202E+04  0.46999998093E+01 0.  1.
</event>
<event>
 5   0  0.1421242E-05  0.2491085E+04  0.7818609E-02  0.8406169E-01
        1   -1    0    0  501    0  0.00000000000E+00  0.00000000000E+00  0.96274958839E+03  0.96274958840E+03  0.50400001928E-02 0. -1.
       -1   -1    0    0    0  501  0.00000000000E+00  0.00000000000E+00 -0.16114009991E+04  0.16114009991E+04  0.50400001928E-02 0.  1.
    10030    2    1    2    0    0  0.00000000000E+00  0.00000000000E+00 -0.64865141074E+03  0.25741505875E+04  0.24910846221E+04 0.  0.
        3    1    3    3  502    0 -0.43410703217E+03 -0.73545645072E+03 -0.12612175165E+04  0.15231594599E+04  0.10100000352E+00 0.  1.
       -3    1    3    3    0  502  0.43410703217E+03  0.73545645072E+03  0.61256610572E+03  0.10509911276E+04  0.10100000352E+00 0. -1.
</event>
<event>
 5   0  0.3578670E-05  0.1995229E+04  0.7818609E-02  0.8608855E-01
       -2   -1    0    0    0  501  0.00000000000E+00  0.00000000000E+00  0.49334160737E+03  0.49334160738E+03  0.25500000920E-02 0.  1.
        2   -1    0    0  501    0  0.00000000000E+00  0.00000000000E+00 -0.20173328562E+04  0.20173328562E+04  0.25500000920E-02 0. -1.
    10030    2    1    2    0    0  0.00000000000E+00  0.00000000000E+00 -0.15239912488E+04  0.25106744636E+04  0.19952285422E+04 0.  0.
        4    1    3    3  502    0  0.58081731539E+02  0.93147990595E+03 -0.12054675220E+04  0.15245267666E+04  0.12699999809E+01 0. -1.
       -4    1    3    3    0  502 -0.58081731539E+02 -0.93147990595E+03 -0.31852372684E+03  0.98614769694E+03  0.12699999809E+01 0.  1.
</event>
<event>
 5   0  0.3579097E-05  0.2435725E+04  0.7818609E-02  0.8426248E-01
        2   -1    0    0  501    0  0.00000000000E+00  0.00000000000E+00  0.15423003144E+04  0.15423003144E+04  0.25500000920E-02 0. -1.
       -2   -1    0    0    0  501  0.00000000000E+00  0.00000000000E+00 -0.96167356010E+03  0.96167356010E+03  0.25500000920E-02 0.  1.
    10030    2    1    2    0    0  0.00000000000E+00  0.00000000000E+00  0.58062675432E+03  0.25039738745E+04  0.24357252999E+04 0.  0.
        5    1    3    3  502    0  0.71239648052E+03 -0.86772171647E+03 -0.19483968407E+03  0.11394886200E+04  0.46999998093E+01 0.  1.
       -5    1    3    3    0  502 -0.71239648052E+03  0.86772171647E+03  0.77546643839E+03  0.13644852545E+04  0.46999998093E+01 0. -1.
</event>
<event>
 5   0  0.1492639E-05  0.2506592E+04  0.7818609E-02  0.8400641E-01
        1   -1    0    0  501    0  0.00000000000E+00  0.00000000000E+00  0.24832717112E+04  0.24832717112E+04  0.50400001928E-02 0.  1.
       -1   -1    0    0    0  501  0.00000000000E+00  0.00000000000E+00 -0.63253298227E+03  0.63253298229E+03  0.50400001928E-02 0. -1.
    10030    2    1    2    0    0  0.00000000000E+00  0.00000000000E+00  0.18507387289E+04  0.31158046935E+04  0.25065923173E+04 0.  0.
        5    1    3    3  502    0  0.10033578125E+04 -0.52039617814E+03  0.25229791989E+03  0.11581085495E+04  0.46999998093E+01 0. -1.
       -5    1    3    3    0  502 -0.10033578125E+04  0.52039617814E+03  0.15984408091E+04  0.19576961440E+04  0.46999998093E+01 0.  1.
</event>
<event>
 5   0  0.1421242E-05  0.2501840E+04  0.7818609E-02  0.8402330E-01
        1   -1    0    0  501    0  0.00000000000E+00  0.00000000000E+00  0.22095136929E+04  0.22095136929E+04  0.50400001928E-02 0. -1.
       -1   -1    0    0    0  501  0.00000000000E+00  0.00000000000E+00 -0.70821072066E+03  0.70821072068E+03  0.50400001928E-02 0.  1.
    10030    2    1    2    0    0  0.00000000000E+00  0.00000000000E+00  0.15013029722E+04  0.29177244136E+04  0.25018403505E+04 0.  0.
        3    1    3    3  502    0  0.41282852435E+03 -0.29634283975E+03 -0.58240481604E+03  0.77294362610E+03  0.10100000352E+00 0.  1.
       -3    1    3    3    0  502 -0.41282852435E+03  0.29634283975E+03  0.20837077883E+04  0.21447807875E+04  0.10100000352E+00 0. -1.
</event>
<event>
 5   0  0.3704241E-05  0.2465035E+04  0.7818609E-02  0.8415549E-01
       -2   -1    0    0    0  501  0.00000000000E+00  0.00000000000E+00  0.83276458464E+03  0.83276458465E+03  0.25500000920E-02 0.  1.
        2   -1    0    0  501    0  0.00000000000E+00  0.00000000000E+00 -0.18241636666E+04  0.18241636666E+04  0.25500000920E-02 0. -1.
    10030    2    1    2    0    0  0.00000000000E+00  0.00000000000E+00 -0.99139908196E+03  0.26569282513E+04  0.24650346027E+04 0.  0.
        2    1    3    3  502    0  0.44162194782E+03 -0.58552047085E+03 -0.15633848393E+04  0.17268573544E+04  0.25500000920E-02 0. -1.
       -2    1    3    3    0  502 -0.44162194782E+03  0.58552047085E+03  0.57198575736E+03  0.93007089687E+03  0.25500000920E-02 0.  1.
</event>
<event>
 5   0  0.3579097E-05  0.2508203E+04  0.7818609E-02  0.8400069E-01
       -2   -1    0    0    0  501  0.00000000000E+00  0.00000000000E+00  0.10677831294E+04  0.10677831294E+04  0.25500000920E-02 0. -1.
        2   -1    0    0  501    0  0.00000000000E+00  0.00000000000E+00 -0.14729303643E+04  0.14729303643E+04  0.25500000920E-02 0.  1.
    10030    2    1    2    0    0  0.00000000000E+00  0.00000000000E+00 -0.40514723491E+03  0.25407134937E+04  0.25082026982E+04 0.  0.
        5    1    3    3  502    0 -0.46238643905E+03  0.38434001731E+03  0.91225037738E+03  0.10925846919E+04  0.46999998093E+01 0. -1.
       -5    1    3    3    0  502  0.46238643905E+03 -0.38434001731E+03 -0.13173976123E+04  0.14481288019E+04  0.46999998093E+01 0.  1.
</event>
<event>
 5   0  0.3581449E-05  0.2331920E+04  0.7818609E-02  0.8465441E-01
        2   -1    0    0  501    0  0.00000000000E+00  0.00000000000E+00  0.20506839821E+04  0.20506839821E+04  0.25500000920E-02 0.  1.
       -2   -1    0    0    0  501  0.00000000000E+00  0.00000000000E+00 -0.66293113058E+03  0.66293113059E+03  0.25500000920E-02 0. -1.
    10030    2    1    2    0    0  0.00000000000E+00  0.00000000000E+00  0.13877528515E+04  0.27136151127E+04  0.23319195961E+04 0.  0.
        1    1    3    3  502    0  0.72409287275E+03  0.72135187423E+03  0.13467878552E+04  0.16907088874E+04  0.50400001928E-02 0.  1.
       -1    1    3    3    0  502 -0.72409287275E+03 -0.72135187423E+03  0.40964996275E+02  0.10229062253E+04  0.50400001928E-02 0. -1.
</event>
<event>
 5   0  0.3578670E-05  0.2515666E+04  0.7818609E-02  0.8397426E-01
       -2   -1    0    0    0  501  0.00000000000E+00  0.00000000000E+00  0.70753727720E+03  0.70753727721E+03  0.25500000920E-02 0. -1.
        2   -1    0    0  501    0  0.00000000000E+00  0.00000000000E+00 -0.22361277728E+04  0.22361277728E+04  0.25500000920E-02 0.  1.
    10030    2    1    2    0    0  0.00000000000E+00  0.00000000000E+00 -0.15285904956E+04  0.29436650500E+04  0.25156659205E+04 0.  0.
        4    1    3    3  502    0  0.78779603386E+03 -0.80977245203E+03 -0.14113570085E+04  0.18078396592E+04  0.12699999809E+01 0.  1.
       -4    1    3    3    0  502 -0.78779603386E+03  0.80977245203E+03 -0.11723348712E+03  0.11358253908E+04  0.12699999809E+01 0. -1.
</event>
<event>
 5   0  0.3579097E-05  0.2373394E+04  0.7818609E-02  0.8449532E-01
       -2   -1    0    0    0  501  0.00000000000E+00  0.00000000000E+00  0.89000194876E+03  0.89000194877E+03  0.25500000920E-02 0.  1.
        2   -1    0    0  501    0  0.00000000000E+00  0.00000000000E+00 -0.15822996281E+04  0.15822996281E+04  0.25500000920E-02 0. -1.
    10030    2    1    2    0    0  0.00000000000E+00  0.00000000000E+00 -0.69229767937E+03  0.24723015769E+04  0.23733939855E+04 0.  0.
        5    1    3    3  502    0 -0.87475531268E+03 -0.49571300781E+02  0.48756323168E+03  0.10026934555E+04  0.46999998093E+01 0.  1.
       -5    1    3    3    0  502  0.87475531268E+03  0.49571300781E+02 -0.11798609110E+04  0.14696081213E+04  0.46999998093E+01 0. -1.
</event>
<event>
 5   0  0.3650620E-05  0.2487748E+04  0.7818609E-02  0.8407363E-01
       -2   -1    0    0    0  501  0.00000000000E+00  0.00000000000E+00  0.94644398149E+03  0.94644398149E+03  0.25500000920E-02 0.  1.
        2   -1    0    0  501    0  0.00000000000E+00  0.00000000000E+00 -0.16347745936E+04  0.16347745936E+04  0.25500000920E-02 0. -1.
    10030    2    1    2    0    0  0.00000000000E+00  0.00000000000E+00 -0.68833061211E+03  0.25812185751E+04  0.24877480380E+04 0.  0.
        3    1    3    3  502    0  0.87224864338E+03 -0.88670695261E+03 -0.33122060558E+03  0.12871573390E+04  0.10100000352E+00 0.  1.
       -3    1    3    3    0  502 -0.87224864338E+03  0.88670695261E+03 -0.35711000653E+03  0.12940612361E+04  0.10100000352E+00 0. -1.
</event>
<event>
 5   0  0.1502886E-05  0.2576907E+04  0.7818609E-02  0.8376088E-01
       -1   -1    0    0    0  501  0.00000000000E+00  0.00000000000E+00  0.10668208314E+04  0.10668208315E+04  0.50400001928E-02 0. -1.
        1   -1    0    0  501    0  0.00000000000E+00  0.00000000000E+00 -0.15561303620E+04  0.15561303620E+04  0.50400001928E-02 0.  1.
    10030    2    1    2    0    0  0.00000000000E+00  0.00000000000E+00 -0.48930953058E+03  0.26229511935E+04  0.25769068952E+04 0.  0.
        4    1    3    3  502    0  0.41828883600E+03 -0.25936427589E+03  0.96736722583E+03  0.10853738252E+04  0.12699999809E+01 0. -1.
       -4    1    3    3    0  502 -0.41828883600E+03  0.25936427589E+03 -0.14566767564E+04  0.15375773683E+04  0.12699999809E+01 0.  1.
</event>
<event>
 5   0  0.3579097E-05  0.2397439E+04  0.7818609E-02  0.8440463E-01
       -2   -1    0    0    0  501  0.00000000000E+00  0.00000000000E+00  0.16077112551E+04  0.16077112551E+04  0.25500000920E-02 0.  1.
        2   -1    0    0  501    0  0.00000000000E+00  0.00000000000E+00 -0.89377281168E+03  0.89377281168E+03  0.25500000920E-02 0. -1.
    10030    2    1    2    0    0  0.00000000000E+00  0.00000000000E+00  0.71393844340E+03  0.25014840668E+04  0.23974391411E+04 0.  0.
        5    1    3    3  502    0  0.46216819822E+03  0.62874978908E+03 -0.59245493355E+03  0.97977072777E+03  0.46999998093E+01 0. -1.
       -5    1    3    3    0  502 -0.46216819822E+03 -0.62874978908E+03  0.13063933769E+04  0.15217133390E+04  0.46999998093E+01 0.  1.
</event>
<event>
 5   0  0.1492639E-05  0.2494143E+04  0.7818609E-02  0.8405075E-01
        1   -1    0    0  501    0  0.00000000000E+00  0.00000000000E+00  0.10423183078E+04  0.10423183078E+04  0.50400001928E-02 0. -1.
       -1   -1    0    0    0  501  0.00000000000E+00  0.00000000000E+00 -0.14920458513E+04  0.14920458514E+04  0.50400001928E-02 0.  1.
    10030    2    1    2    0    0  0.00000000000E+00  0.00000000000E+00 -0.44972754355E+03  0.25343641592E+04  0.24941425035E+04 0.  0.
        5    1    3    3  502    0  0.29496965552E+03 -0.10435593875E+04  0.40081052761E+03  0.11561550337E+04  0.46999998093E+01 0. -1.
       -5    1    3    3    0  502 -0.29496965552E+03  0.10435593875E+04 -0.85053807116E+03  0.13782091254E+04  0.46999998093E+01 0.  1.
</event>
<event>
 5   0  0.1492639E-05  0.2588030E+04  0.7818609E-02  0.8372278E-01
       -1   -1    0    0    0  501  0.00000000000E+00  0.00000000000E+00  0.15185901539E+04  0.15185901540E+04  0.50400001928E-02 0.  1.
        1   -1    0    0  501    0  0.00000000000E+00  0.00000000000E+00 -0.11026512257E+04  0.11026512257E+04  0.50400001928E-02 0. -1.
    10030    2    1    2    0    0  0.00000000000E+00  0.00000000000E+00  0.41593892826E+03  0.26212413797E+04  0.25880303666E+04 0.  0.
        5    1    3    3  502    0 -0.28373612884E+03  0.90098178358E+03 -0.68778850126E+03  0.11684816976E+04  0.46999998093E+01 0. -1.
       -5    1    3    3    0  502  0.28373612884E+03 -0.90098178358E+03  0.11037274295E+04  0.14527596821E+04  0.46999998093E+01 0.  1.
</event>
<event>
 5   0  0.1492639E-05  0.2488574E+04  0.7818609E-02  0.8407067E-01
        1   -1    0    0  501    0  0.00000000000E+00  0.00000000000E+00  0.16144900540E+04  0.16144900540E+04  0.50400001928E-02 0. -1.
       -1   -1    0    0    0  501  0.00000000000E+00  0.00000000000E+00 -0.95897148522E+03  0.95897148523E+03  0.50400001928E-02 0.  1.
    10030    2    1    2    0    0  0.00000000000E+00  0.00000000000E+00  0.65551856877E+03  0.25734615392E+04  0.24885738285E+04 0.  0.
        5    1    3    3  502    0  0.66976379010E+02  0.58448018302E+03  0.14615736409E+04  0.15755388023E+04  0.46999998093E+01 0. -1.
       -5    1    3    3    0  502 -0.66976379010E+02 -0.58448018302E+03 -0.80605507211E+03  0.99792273697E+03  0.46999998093E+01 0.  1.
</event>
<event>
 5   0  0.1456876E-05  0.2577397E+04  0.7818609E-02  0.8375920E-01
       -1   -1    0    0    0  501  0.00000000000E+00  0.00000000000E+00  0.71541535379E+03  0.71541535381E+03  0.50400001928E-02 0. -1.
        1   -1    0    0  501    0  0.00000000000E+00  0.00000000000E+00 -0.23213708933E+04  0.23213708933E+04  0.50400001928E-02 0.  1.
    10030    2    1    2    0    0  0.00000000000E+00  0.00000000000E+00 -0.16059555395E+04  0.30367862472E+04  0.25773974307E+04 0.  0.
        1    1    3    3  502    0 -0.30104768073E+03  0.38574386699E+03 -0.22076603848E+04  0.22612369207E+04  0.50400001928E-02 0.  1.
       -1    1    3    3    0  502  0.30104768073E+03 -0.38574386699E+03  0.60170484522E+03  0.77554932647E+03  0.50400001928E-02 0. -1.
</event>
<event>
 5   0  0.3650620E-05  0.2500779E+04  0.7818609E-02  0.8402708E-01
        2   -1    0    0  501    0  0.00000000000E+00  0.00000000000E+00  0.21574074651E+04  0.21574074651E+04  0.25500000920E-02 0. -1.
       -2   -1    0    0    0  501  0.00000000000E+00  0.00000000000E+00 -0.72470049530E+03  0.72470049530E+03  0.25500000920E-02 0.  1.
    10030    2    1    2    0    0  0.00000000000E+00  0.00000000000E+00  0.14327069698E+04  0.28821079604E+04  0.25007792854E+04 0.  0.
        3    1    3    3  502    0  0.68266484231E+02  0.33749510183E+03  0.21016904703E+04  0.21297103324E+04  0.10100000352E+00 0. -1.
       -3    1    3    3    0  502 -0.68266484231E+02 -0.33749510183E+03 -0.66898350047E+03  0.75239762807E+03  0.10100000352E+00 0.  1.
</event>
<event>
 5   0  0.1429483E-05  0.2484375E+04  0.7818609E-02  0.8408573E-01
       -1   -1    0    0    0  501  0.00000000000E+00  0.00000000000E+00  0.10328165969E+04  0.10328165969E+04  0.50400001928E-02 0.  1.
        1   -1    0    0  501    0  0.00000000000E+00  0.00000000000E+00 -0.14940015527E+04  0.14940015527E+04  0.50400001928E-02 0. -1.
    10030    2    1    2    0    0  0.00000000000E+00  0.00000000000E+00 -0.46118495584E+03  0.25268181496E+04  0.24843748505E+04 0.  0.
        2    1    3    3  502    0 -0.11467381123E+04  0.45964349683E+03 -0.98962945027E+02  0.12393845678E+04  0.25500000920E-02 0.  1.
       -2    1    3    3    0  502  0.11467381123E+04 -0.45964349683E+03 -0.36222201081E+03  0.12874335818E+04  0.25500000920E-02 0. -1.
</event>
<event>
 5   0  0.1502886E-05  0.2677578E+04  0.7818609E-02  0.8342317E-01
       -1   -1    0    0    0  501  0.00000000000E+00  0.00000000000E+00  0.78608011256E+03  0.78608011258E+03  0.50400001928E-02 0.  1.
        1   -1    0    0  501    0  0.00000000000E+00  0.00000000000E+00 -0.22801182953E+04  0.22801182953E+04  0.50400001928E-02 0. -1.
    10030    2    1    2    0    0  0.00000000000E+00  0.00000000000E+00 -0.14940381828E+04  0.30661984079E+04  0.26775777459E+04 0.  0.
        4    1    3    3  502    0 -0.27102218842E+03 -0.15204089410E+03 -0.22382452181E+04  0.22597151877E+04  0.12699999809E+01 0. -1.
       -4    1    3    3    0  502  0.27102218842E+03  0.15204089410E+03  0.74420703537E+03  0.80648322022E+03  0.12699999809E+01 0.  1.
</event>
<event>
 5   0  0.3578670E-05  0.2512289E+04  0.7818609E-02  0.8398621E-01
        2   -1    0    0  501    0  0.00000000000E+00  0.00000000000E+00  0.14207694860E+04  0.14207694860E+04  0.25500000920E-02 0.  1.
       -2   -1    0    0    0  501  0.00000000000E+00  0.00000000000E+00 -0.11105943538E+04  0.11105943538E+04  0.25500000920E-02 0. -1.
    10030    2    1    2    0    0  0.00000000000E+00  0.00000000000E+00  0.31017513223E+03  0.25313638398E+04  0.25122886532E+04 0.  0.
        4    1    3    3  502    0 -0.18508682632E+03 -0.12315431566E+04  0.32047180547E+03  0.12859469160E+04  0.12699999809E+01 0.  1.
       -4    1    3    3    0  502  0.18508682632E+03  0.12315431566E+04 -0.10296673244E+02  0.12454169238E+04  0.12699999809E+01 0. -1.
</event>
<event>
 5   0  0.3704241E-05  0.2534899E+04  0.7818609E-02  0.8390657E-01
        2   -1    0    0  501    0  0.00000000000E+00  0.00000000000E+00  0.15000575124E+04  0.15000575124E+04  0.25500000920E-02 0. -1.
       -2   -1    0    0    0  501  0.00000000000E+00  0.00000000000E+00 -0.10709114630E+04  0.10709114630E+04  0.25500000920E-02 0.  1.
    10030    2    1    2    0    0  0.00000000000E+00  0.00000000000E+00  0.42914604942E+03  0.25709689753E+04  0.25348994340E+04 0.  0.
        2    1    3    3  502    0  0.39184437729E+03  0.12623228482E+03  0.14303593637E+04  0.14884234999E+04  0.25500000920E-02 0. -1.
       -2    1    3    3    0  502 -0.39184437729E+03 -0.12623228482E+03 -0.10012133143E+04  0.10825454755E+04  0.25500000920E-02 0.  1.
</event>
<event>
 5   0  0.1456876E-05  0.2284379E+04  0.7818609E-02  0.8484106E-01
       -1   -1    0    0    0  501  0.00000000000E+00  0.00000000000E+00  0.12039350605E+04  0.12039350605E+04  0.50400001928E-02 0.  1.
        1   -1    0    0  501    0  0.00000000000E+00  0.00000000000E+00 -0.10836106745E+04  0.10836106745E+04  0.50400001928E-02 0. -1.
    10030    2    1    2    0    0  0.00000000000E+00  0.00000000000E+00  0.12032438596E+03  0.22875457350E+04  0.22843790254E+04 0.  0.
        1    1    3    3  502    0  0.34209183467E+03  0.19960949620E+02  0.11512466643E+04  0.12011636628E+04  0.50400001928E-02 0.  1.
       -1    1    3    3    0  502 -0.34209183467E+03 -0.19960949620E+02 -0.10309222783E+04  0.10863820722E+04  0.50400001928E-02 0. -1.
</event>
<event>
 5   0  0.3579097E-05  0.2505836E+04  0.7818609E-02  0.8400909E-01
       -2   -1    0    0    0  501  0.00000000000E+00  0.00000000000E+00  0.68933996976E+03  0.68933996976E+03  0.25500000920E-02 0.  1.
        2   -1    0    0  501    0  0.00000000000E+00  0.00000000000E+00 -0.22772566409E+04  0.22772566409E+04  0.25500000920E-02 0. -1.
    10030    2    1    2    0    0  0.00000000000E+00  0.00000000000E+00 -0.15879166712E+04  0.29665966107E+04  0.25058364065E+04 0.  0.
        5    1    3    3  502    0 -0.89509988802E+03  0.87446791457E+03 -0.72017727711E+03  0.14438058538E+04  0.46999998093E+01 0. -1.
       -5    1    3    3    0  502  0.89509988802E+03 -0.87446791457E+03 -0.86773939406E+03  0.15227907568E+04  0.46999998093E+01 0.  1.
</event>
<event>
 5   0  0.1421242E-05  0.2615379E+04  0.7818609E-02  0.8362996E-01
        1   -1    0    0  501    0  0.00000000000E+00  0.00000000000E+00  0.11225425407E+04  0.11225425407E+04  0.50400001928E-02 0. -1.
       -1   -1    0    0    0  501  0.00000000000E+00  0.00000000000E+00 -0.15233735778E+04  0.15233735778E+04  0.50400001928E-02 0.  1.
    10030    2    1    2    0    0  0.00000000000E+00  0.00000000000E+00 -0.40083103707E+03  0.26459161185E+04  0.26153788608E+04 0.  0.
        3    1    3    3  502    0 -0.10120747961E+04  0.81976203108E+03 -0.81801278031E+02  0.13049891340E+04  0.10100000352E+00 0. -1.
       -3    1    3    3    0  502  0.10120747961E+04 -0.81976203108E+03 -0.31902975904E+03  0.13409269845E+04  0.10100000352E+00 0.  1.
</event>
<event>
 5   0  0.3578670E-05  0.2487944E+04  0.7818609E-02  0.8407293E-01
       -2   -1    0    0    0  501  0.00000000000E+00  0.00000000000E+00  0.64511124292E+03  0.64511124292E+03  0.25500000920E-02 0.  1.
        2   -1    0    0  501    0  0.00000000000E+00  0.00000000000E+00 -0.23987592793E+04  0.23987592793E+04  0.25500000920E-02 0. -1.
    10030    2    1    2    0    0  0.00000000000E+00  0.00000000000E+00 -0.17536480364E+04  0.30438705222E+04  0.24879441956E+04 0.  0.
        4    1    3    3  502    0  0.59954554464E+03 -0.57798933203E+03 -0.20073975700E+04  0.21732862547E+04  0.12699999809E+01 0. -1.
       -4    1    3    3    0  502 -0.59954554464E+03  0.57798933203E+03  0.25374953365E+03  0.87058426747E+03  0.12699999809E+01 0.  1.
</event>
<event>
 5   0  0.1429483E-05  0.2524923E+04  0.7818609E-02  0.8394160E-01
       -1   -1    0    0    0  501  0.00000000000E+00  0.00000000000E+00  0.18087640796E+04  0.18087640796E+04  0.50400001928E-02 0.  1.
        1   -1    0    0  501    0  0.00000000000E+00  0.00000000000E+00 -0.88115901829E+03  0.88115901831E+03  0.50400001928E-02 0. -1.
    10030    2    1    2    0    0  0.00000000000E+00  0.00000000000E+00  0.92760506129E+03  0.26899230979E+04  0.25249227954E+04 0.  0.
        2    1    3    3  502    0 -0.60628097866E+03  0.89871565544E+03 -0.22542315298E+03  0.11072858946E+04  0.25500000920E-02 0. -1.
       -2    1    3    3    0  502  0.60628097866E+03 -0.89871565544E+03  0.11530282143E+04  0.15826372033E+04  0.25500000920E-02 0.  1.
</event>
<event>
 5   0  0.1421242E-05  0.2570527E+04  0.7818609E-02  0.8378282E-01
       -1   -1    0    0    0  501  0.00000000000E+00  0.00000000000E+00  0.95919121222E+03  0.95919121223E+03  0.50400001928E-02 0. -1.
        1   -1    0    0  501    0  0.00000000000E+00  0.00000000000E+00 -0.17221828601E+04  0.17221828601E+04  0.50400001928E-02 0.  1.
    10030    2    1    2    0    0  0.00000000000E+00  0.00000000000E+00 -0.76299164787E+03  0.26813740723E+04  0.25705273119E+04 0.  0.
        3    1    3    3  502    0 -0.36495347639E+03  0.94772347724E+03 -0.12032032527E+04  0.15745059246E+04  0.10100000352E+00 0.  1.
       -3    1    3    3    0  502  0.36495347639E+03 -0.94772347724E+03  0.44021160479E+03  0.11068681477E+04  0.10100000352E+00 0. -1.
</event>
<event>
 5   0  0.1456876E-05  0.2573200E+04  0.7818609E-02  0.8377362E-01
       -1   -1    0    0    0  501  0.00000000000E+00  0.00000000000E+00  0.11301134253E+04  0.11301134253E+04  0.50400001928E-02 0.  1.
        1   -1    0    0  501    0  0.00000000000E+00  0.00000000000E+00 -0.14647548797E+04  0.14647548797E+04  0.50400001928E-02 0. -1.
    10030    2    1    2    0    0  0.00000000000E+00  0.00000000000E+00 -0.33464145435E+03  0.25948683050E+04  0.25731996847E+04 0.  0.
        1    1    3    3  502    0  0.51579185579E+02 -0.84426665211E+03 -0.11449651751E+04  0.14235139074E+04  0.50400001928E-02 0. -1.
       -1    1    3    3    0  502 -0.51579185579E+02  0.84426665211E+03  0.81032372079E+03  0.11713543976E+04  0.50400001928E-02 0.  1.
</event>
<event>
 5   0  0.1421242E-05  0.2518336E+04  0.7818609E-02  0.8396482E-01
        1   -1    0    0  501    0  0.00000000000E+00  0.00000000000E+00  0.16345192120E+04  0.16345192120E+04  0.50400001928E-02 0.  1.
       -1   -1    0    0    0  501  0.00000000000E+00  0.00000000000E+00 -0.97001247647E+03  0.97001247648E+03  0.50400001928E-02 0. -1.
    10030    2    1    2    0    0  0.00000000000E+00  0.00000000000E+00  0.66450673549E+03  0.26045316884E+04  0.25183359813E+04 0.  0.
        3    1    3    3  502    0 -0.16927082577E+03 -0.11359168550E+04  0.86620347563E+03  0.14384951113E+04  0.10100000352E+00 0.  1.
       -3    1    3    3    0  502  0.16927082577E+03  0.11359168550E+04 -0.20169674014E+03  0.11660365771E+04  0.10100000352E+00 0. -1.
</event>
<event>
 5   0  0.3578670E-05  0.2750683E+04  0.7818609E-02  0.8318745E-01
       -2   -1    0    0    0  501  0.00000000000E+00  0.00000000000E+00  0.82707844261E+03  0.82707844261E+03  0.25500000920E-02 0.  1.
        2   -1    0    0  501    0  0.00000000000E+00  0.00000000000E+00 -0.22870436994E+04  0.22870436994E+04  0.25500000920E-02 0. -1.
    10030    2    1    2    0    0  0.00000000000E+00  0.00000000000E+00 -0.14599652568E+04  0.31141221420E+04  0.27506832177E+04 0.  0.
        4    1    3    3  502    0  0.52206838009E+03  0.11702470301E+04 -0.16445224044E+03  0.12919286579E+04  0.12699999809E+01 0. -1.
       -4    1    3    3    0  502 -0.52206838009E+03 -0.11702470301E+04 -0.12955130163E+04  0.18221934841E+04  0.12699999809E+01 0.  1.
</event>
<event>
 5   0  0.3581449E-05  0.2193562E+04  0.7818609E-02  0.8521112E-01
        2   -1    0    0  501    0  0.00000000000E+00  0.00000000000E+00  0.13652677301E+04  0.13652677301E+04  0.25500000920E-02 0.  1.
       -2   -1    0    0    0  501  0.00000000000E+00  0.00000000000E+00 -0.88109357676E+03  0.88109357676E+03  0.25500000920E-02 0. -1.
    10030    2    1    2    0    0  0.00000000000E+00  0.00000000000E+00  0.48417415334E+03  0.22463613069E+04  0.21935620598E+04 0.  0.
        1    1    3    3  502    0 -0.54182234776E+02  0.21822562809E+02 -0.87949957324E+03  0.88143714363E+03  0.50400001928E-02 0. -1.
       -1    1    3    3    0  502  0.54182234776E+02 -0.21822562809E+02  0.13636737266E+04  0.13649241632E+04  0.50400001928E-02 0.  1.
</event>
<event>
 5   0  0.1429483E-05  0.2528055E+04  0.7818609E-02  0.8393059E-01
       -1   -1    0    0    0  501  0.00000000000E+00  0.00000000000E+00  0.14577956107E+04  0.14577956107E+04  0.50400001928E-02 0. -1.
        1   -1    0    0  501    0  0.00000000000E+00  0.00000000000E+00 -0.10960144032E+04  0.10960144032E+04  0.50400001928E-02 0.  1.
    10030    2    1    2    0    0  0.00000000000E+00  0.00000000000E+00  0.36178120754E+03  0.25538100140E+04  0.25280545772E+04 0.  0.
        2    1    3    3  502    0 -0.88156066000E+03  0.72975922202E+03 -0.36129639107E+03  0.12000969967E+04  0.25500000920E-02 0.  1.
       -2    1    3    3    0  502  0.88156066000E+03 -0.72975922202E+03  0.72307759860E+03  0.13537130172E+04  0.25500000920E-02 0. -1.
</event>
<event>
 5   0  0.1429483E-05  0.2453881E+04  0.7818609E-02  0.8419602E-01
       -1   -1    0    0    0  501  0.00000000000E+00  0.00000000000E+00  0.11893190811E+04  0.11893190811E+04  0.50400001928E-02 0.  1.
        1   -1    0    0  501    0  0.00000000000E+00  0.00000000000E+00 -0.12657524952E+04  0.12657524952E+04  0.50400001928E-02 0. -1.
    10030    2    1    2    0    0  0.00000000000E+00  0.00000000000E+00 -0.76433414136E+02  0.24550715763E+04  0.24538814922E+04 0.  0.
        2    1    3    3  502    0 -0.59013422049E+03 -0.12667170611E+03 -0.11069479855E+04  0.12608084557E+04  0.25500000920E-02 0. -1.
       -2    1    3    3    0  502  0.59013422049E+03  0.12667170611E+03  0.10305145714E+04  0.11942631206E+04  0.25500000920E-02 0.  1.
</event>
<event>
 5   0  0.1201438E-05  0.2409992E+04  0.7818609E-02  0.8435772E-01
        3   -1    0    0  501    0  0.00000000000E+00  0.00000000000E+00  0.15048017345E+04  0.15048017379E+04  0.10100000352E+00 0. -1.
       -3   -1    0    0    0  501  0.00000000000E+00  0.00000000000E+00 -0.96492172644E+03  0.96492173172E+03  0.10100000352E+00 0.  1.
    10030    2    1    2    0    0  0.00000000000E+00  0.00000000000E+00  0.53988000811E+03  0.24697234697E+04  0.24099924468E+04 0.  0.
        3    1    3    3  502    0 -0.96369438660E+03  0.71776769918E+03  0.17760384332E+03  0.12146771078E+04  0.10100000352E+00 0.  1.
       -3    1    3    3    0  502  0.96369438660E+03 -0.71776769918E+03  0.36227616480E+03  0.12550463619E+04  0.10100000352E+00 0. -1.
</event>
<event>
 5   0  0.3578670E-05  0.2473316E+04  0.7818609E-02  0.8412554E-01
       -2   -1    0    0    0  501  0.00000000000E+00  0.00000000000E+00  0.84345478971E+03  0.84345478971E+03  0.25500000920E-02 0. -1.
        2   -1    0    0  501    0  0.00000000000E+00  0.00000000000E+00 -0.18131647526E+04  0.18131647526E+04  0.25500000920E-02 0.  1.
    10030    2    1    2    0    0  0.00000000000E+00  0.00000000000E+00 -0.96970996288E+03  0.26566195423E+04  0.24733155845E+04 0.  0.
        4    1    3    3  502    0  0.11134828083E+04 -0.31280164688E+03 -0.95505636100E+03  0.14999410323E+04  0.12699999809E+01 0. -1.
       -4    1    3    3    0  502 -0.11134828083E+04  0.31280164688E+03 -0.14653601878E+02  0.11566785100E+04  0.12699999809E+01 0.  1.
</event>
<event>
 5   0  0.1421242E-05  0.2493961E+04  0.7818609E-02  0.8405140E-01
        1   -1    0    0  501    0  0.00000000000E+00  0.00000000000E+00  0.14106946322E+04  0.14106946322E+04  0.50400001928E-02 0. -1.
       -1   -1    0    0    0  501  0.00000000000E+00  0.00000000000E+00 -0.11022654723E+04  0.11022654723E+04  0.50400001928E-02 0.  1.
    10030    2    1    2    0    0  0.00000000000E+00  0.00000000000E+00  0.30842915988E+03  0.25129601045E+04  0.24939606934E+04 0.  0.
        3    1    3    3  502    0  0.26005396100E+02  0.11658810678E+04 -0.29074329378E+03  0.12018679703E+04  0.10100000352E+00 0.  1.
       -3    1    3    3    0  502 -0.26005396100E+02 -0.11658810678E+04  0.59917245366E+03  0.13110921342E+04  0.10100000352E+00 0. -1.
</event>
<event>
 5   0  0.3578670E-05  0.2538705E+04  0.7818609E-02  0.8389325E-01
        2   -1    0    0  501    0  0.00000000000E+00  0.00000000000E+00  0.23395149344E+04  0.23395149344E+04  0.25500000920E-02 0. -1.
       -2   -1    0    0    0  501  0.00000000000E+00  0.00000000000E+00 -0.68871374479E+03  0.68871374480E+03  0.25500000920E-02 0.  1.
    10030    2    1    2    0    0  0.00000000000E+00  0.00000000000E+00  0.16508011896E+04  0.30282286792E+04  0.25387052538E+04 0.  0.
        4    1    3    3  502    0 -0.10611354144E+04  0.63732066580E+03  0.11608121967E+04  0.16969598014E+04  0.12699999809E+01 0. -1.
       -4    1    3    3    0  502  0.10611354144E+04 -0.63732066580E+03  0.48998899294E+03  0.13312688778E+04  0.12699999809E+01 0.  1.
</event>
<event>
 5   0  0.1421242E-05  0.2066644E+04  0.7818609E-02  0.8576081E-01
       -1   -1    0    0    0  501  0.00000000000E+00  0.00000000000E+00  0.59611338823E+03  0.59611338825E+03  0.50400001928E-02 0. -1.
        1   -1    0    0  501    0  0.00000000000E+00  0.00000000000E+00 -0.17911939389E+04  0.17911939389E+04  0.50400001928E-02 0.  1.
    10030    2    1    2    0    0  0.00000000000E+00  0.00000000000E+00 -0.11950805507E+04  0.23873073271E+04  0.20666443215E+04 0.  0.
        3    1    3    3  502    0 -0.10287353506E+04  0.42724122645E+02 -0.49661788414E+03  0.11431321469E+04  0.10100000352E+00 0. -1.
       -3    1    3    3    0  502  0.10287353506E+04 -0.42724122645E+02 -0.69846266652E+03  0.12441751802E+04  0.10100000352E+00 0.  1.
</event>
<event>
 5   0  0.1421242E-05  0.2574752E+04  0.7818609E-02  0.8376828E-01
        1   -1    0    0  501    0  0.00000000000E+00  0.00000000000E+00  0.20328388035E+04  0.20328388035E+04  0.50400001928E-02 0. -1.
       -1   -1    0    0    0  501  0.00000000000E+00  0.00000000000E+00 -0.81528182189E+03  0.81528182190E+03  0.50400001928E-02 0.  1.
    10030    2    1    2    0    0  0.00000000000E+00  0.00000000000E+00  0.12175569816E+04  0.28481206254E+04  0.25747516566E+04 0.  0.
        3    1    3    3  502    0 -0.57147373245E+03  0.10661834534E+04  0.12155089486E+03  0.12157730106E+04  0.10100000352E+00 0. -1.
       -3    1    3    3    0  502  0.57147373245E+03 -0.10661834534E+04  0.10960060867E+04  0.16323476148E+04  0.10100000352E+00 0.  1.
</event>
<event>
 5   0  0.3581449E-05  0.2489743E+04  0.7818609E-02  0.8406649E-01
       -2   -1    0    0    0  501  0.00000000000E+00  0.00000000000E+00  0.93277374133E+03  0.93277374133E+03  0.25500000920E-02 0. -1.
        2   -1    0    0  501    0  0.00000000000E+00  0.00000000000E+00 -0.16613950319E+04  0.16613950319E+04  0.25500000920E-02 0.  1.
    10030    2    1    2    0    0  0.00000000000E+00  0.00000000000E+00 -0.72862129058E+03  0.25941687732E+04  0.24897434886E+04 0.  0.
        1    1    3    3  502    0  0.78701058655E+03 -0.95652105298E+03 -0.23506162675E+03  0.12607823589E+04  0.50400001928E-02 0.  1.
       -1    1    3    3    0  502 -0.78701058655E+03  0.95652105298E+03 -0.49355966383E+03  0.13333864143E+04  0.50400001928E-02 0. -1.
</event>
<event>
 5   0  0.3581449E-05  0.2565905E+04  0.7818609E-02  0.8379876E-01
        2   -1    0    0  501    0  0.00000000000E+00  0.00000000000E+00  0.17822052219E+04  0.17822052219E+04  0.25500000920E-02 0. -1.
       -2   -1    0    0    0  501  0.00000000000E+00  0.00000000000E+00 -0.92355613945E+03  0.92355613946E+03  0.25500000920E-02 0.  1.
    10030    2    1    2    0    0  0.00000000000E+00  0.00000000000E+00  0.85864908247E+03  0.27057613614E+04  0.25659045769E+04 0.  0.
        1    1    3    3  502    0  0.75999591053E+03  0.10269125703E+04  0.55330574632E+03  0.13922250033E+04  0.50400001928E-02 0.  1.
       -1    1    3    3    0  502 -0.75999591053E+03 -0.10269125703E+04  0.30534333615E+03  0.13135363580E+04  0.50400001928E-02 0. -1.
</event>
<event>
 5   0  0.3578670E-05  0.2495026E+04  0.7818609E-02  0.8404760E-01
        2   -1    0    0  501    0  0.00000000000E+00  0.00000000000E+00  0.20336462381E+04  0.20336462381E+04  0.25500000920E-02 0. -1.
       -2   -1    0    0    0  501  0.00000000000E+00  0.00000000000E+00 -0.76527003091E+03  0.76527003091E+03  0.25500000920E-02 0.  1.
    10030    2    1    2    0    0  0.00000000000E+00  0.00000000000E+00  0.12683762072E+04  0.27989162690E+04  0.24950258672E+04 0.  0.
        4    1    3    3  502    0 -0.15040757987E+03 -0.11616691476E+04  0.11156334611E+04  0.16176332344E+04  0.12699999809E+01 0. -1.
       -4    1    3    3    0  502  0.15040757987E+03  0.11616691476E+04  0.15274274613E+03  0.11812830347E+04  0.12699999809E+01 0.  1.
</event>
<event>
 5   0  0.3578670E-05  0.1901275E+04  0.7818609E-02  0.8654222E-01
        2   -1    0    0  501    0  0.00000000000E+00  0.00000000000E+00  0.87255252299E+03  0.87255252299E+03  0.25500000920E-02 0. -1.
       -2   -1    0    0    0  501  0.00000000000E+00  0.00000000000E+00 -0.10357105209E+04  0.10357105209E+04  0.25500000920E-02 0.  1.
    10030    2    1    2    0    0  0.00000000000E+00  0.00000000000E+00 -0.16315799792E+03  0.19082630439E+04  0.19012751806E+04 0.  0.
        4    1    3    3  502    0  0.75048040816E+03  0.46288716564E+03  0.27500814556E+03  0.92364303937E+03  0.12699999809E+01 0. -1.
       -4    1    3    3    0  502 -0.75048040816E+03 -0.46288716564E+03 -0.43816614348E+03  0.98462000454E+03  0.12699999809E+01 0.  1.
</event>
<event>
 5   0  0.1456876E-05  0.2435587E+04  0.7818609E-02  0.8426299E-01
       -1   -1    0    0    0  501  0.00000000000E+00  0.00000000000E+00  0.46794900328E+03  0.46794900331E+03  0.50400001928E-02 0.  1.
        1   -1    0    0  501    0  0.00000000000E+00  0.00000000000E+00 -0.31691942372E+04  0.31691942372E+04  0.50400001928E-02 0. -1.
    10030    2    1    2    0    0  0.00000000000E+00  0.00000000000E+00 -0.27012452339E+04  0.36371432405E+04  0.24355872266E+04 0.  0.
        1    1    3    3  502    0  0.18999005896E+03 -0.51409750875E+03 -0.29746036224E+04  0.30246750539E+04  0.50400001928E-02 0. -1.
       -1    1    3    3    0  502 -0.18999005896E+03  0.51409750875E+03  0.27335838853E+03  0.61246818661E+03  0.50400001928E-02 0.  1.
</event>
<event>
 5   0  0.1421242E-05  0.2421133E+04  0.7818609E-02  0.8431634E-01
        1   -1    0    0  501    0  0.00000000000E+00  0.00000000000E+00  0.15046160371E+04  0.15046160371E+04  0.50400001928E-02 0.  1.
       -1   -1    0    0    0  501  0.00000000000E+00  0.00000000000E+00 -0.97398380161E+03  0.97398380162E+03  0.50400001928E-02 0. -1.
    10030    2    1    2    0    0  0.00000000000E+00  0.00000000000E+00  0.53063223550E+03  0.24785998387E+04  0.24211333279E+04 0.  0.
        3    1    3    3  502    0 -0.46778121989E+03  0.69147341755E+03 -0.63214246822E+03  0.10471670675E+04  0.10100000352E+00 0. -1.
       -3    1    3    3    0  502  0.46778121989E+03 -0.69147341755E+03  0.11627747037E+04  0.14314327713E+04  0.10100000352E+00 0.  1.
</event>
<event>
 5   0  0.3704241E-05  0.2576287E+04  0.7818609E-02  0.8376301E-01
       -2   -1    0    0    0  501  0.00000000000E+00  0.00000000000E+00  0.72433757902E+03  0.72433757902E+03  0.25500000920E-02 0.  1.
        2   -1    0    0  501    0  0.00000000000E+00  0.00000000000E+00 -0.22908017807E+04  0.22908017807E+04  0.25500000920E-02 0. -1.
    10030    2    1    2    0    0  0.00000000000E+00  0.00000000000E+00 -0.15664642017E+04  0.30151393598E+04  0.25762871081E+04 0.  0.
        2    1    3    3  502    0 -0.10881022565E+03  0.10089585739E+04 -0.17117771433E+04  0.19899794113E+04  0.25500000920E-02 0. -1.
       -2    1    3    3    0  502  0.10881022565E+03 -0.10089585739E+04  0.14531294155E+03  0.10251599485E+04  0.25500000920E-02 0.  1.
</event>
<event>
 5   0  0.1429483E-05  0.2481086E+04  0.7818609E-02  0.8409755E-01
       -1   -1    0    0    0  501  0.00000000000E+00  0.00000000000E+00  0.89726205894E+03  0.89726205895E+03  0.50400001928E-02 0.  1.
        1   -1    0    0  501    0  0.00000000000E+00  0.00000000000E+00 -0.17151590866E+04  0.17151590866E+04  0.50400001928E-02 0. -1.
    10030    2    1    2    0    0  0.00000000000E+00  0.00000000000E+00 -0.81789702766E+03  0.26124211456E+04  0.24810861924E+04 0.  0.
        2    1    3    3  502    0  0.38277122874E+03  0.93823284304E+03 -0.11624792709E+04  0.15421260443E+04  0.25500000920E-02 0. -1.
       -2    1    3    3    0  502 -0.38277122874E+03 -0.93823284304E+03  0.34458224325E+03  0.10702951012E+04  0.25500000920E-02 0.  1.
</event>
<event>
 5   0  0.1502886E-05  0.2585348E+04  0.7818609E-02  0.8373195E-01
        1   -1    0    0  501    0  0.00000000000E+00  0.00000000000E+00  0.14206582493E+04  0.14206582493E+04  0.50400001928E-02 0.  1.
       -1   -1    0    0    0  501  0.00000000000E+00  0.00000000000E+00 -0.11762196531E+04  0.11762196531E+04  0.50400001928E-02 0. -1.
    10030    2    1    2    0    0  0.00000000000E+00  0.00000000000E+00  0.24443859622E+03  0.25968779024E+04  0.25853480642E+04 0.  0.
        4    1    3    3  502    0 -0.63353207360E+03  0.88675403931E+03 -0.57608532703E+03  0.12327090214E+04  0.12699999809E+01 0. -1.
       -4    1    3    3    0  502  0.63353207360E+03 -0.88675403931E+03  0.82052392325E+03  0.13641688811E+04  0.12699999809E+01 0.  1.
</event>
<event>
 5   0  0.1502886E-05  0.2535651E+04  0.7818609E-02  0.8390394E-01
        1   -1    0    0  501    0  0.00000000000E+00  0.00000000000E+00  0.21689699804E+04  0.21689699804E+04  0.50400001928E-02 0. -1.
       -1   -1    0    0    0  501  0.00000000000E+00  0.00000000000E+00 -0.74108067555E+03  0.74108067556E+03  0.50400001928E-02 0.  1.
    10030    2    1    2    0    0  0.00000000000E+00  0.00000000000E+00  0.14278893049E+04  0.29100506560E+04  0.25356511892E+04 0.  0.
        4    1    3    3  502    0  0.69834772565E+03 -0.93841494425E+03  0.15280399456E+03  0.11796875973E+04  0.12699999809E+01 0.  1.
       -4    1    3    3    0  502 -0.69834772565E+03  0.93841494425E+03  0.12750853103E+04  0.17303630587E+04  0.12699999809E+01 0. -1.
</event>
<event>
 5   0  0.3704241E-05  0.2504131E+04  0.7818609E-02  0.8401515E-01
        2   -1    0    0  501    0  0.00000000000E+00  0.00000000000E+00  0.12220700548E+04  0.12220700548E+04  0.25500000920E-02 0. -1.
       -2   -1    0    0    0  501  0.00000000000E+00  0.00000000000E+00 -0.12827967633E+04  0.12827967633E+04  0.25500000920E-02 0.  1.
    10030    2    1    2    0    0  0.00000000000E+00  0.00000000000E+00 -0.60726708534E+02  0.25048668181E+04  0.25041305963E+04 0.  0.
        2    1    3    3  502    0  0.90256700055E+03  0.83503368776E+03 -0.26656634344E+03  0.12581597934E+04  0.25500000920E-02 0.  1.
       -2    1    3    3    0  502 -0.90256700055E+03 -0.83503368776E+03  0.20583963490E+03  0.12467070247E+04  0.25500000920E-02 0. -1.
</event>
<event>
 5   0  0.1456876E-05  0.2537820E+04  0.7818609E-02  0.8389634E-01
       -1   -1    0    0    0  501  0.00000000000E+00  0.00000000000E+00  0.12209063823E+04  0.12209063823E+04  0.50400001928E-02 0. -1.
        1   -1    0    0  501    0  0.00000000000E+00  0.00000000000E+00 -0.13188012863E+04  0.13188012863E+04  0.50400001928E-02 0.  1.
    10030    2    1    2    0    0  0.00000000000E+00  0.00000000000E+00 -0.97894903963E+02  0.25397076687E+04  0.25378202517E+04 0.  0.
        1    1    3    3  502    0  0.18475458910E+03  0.55568937213E+03 -0.11754879781E+04  0.13132771692E+04  0.50400001928E-02 0.  1.
       -1    1    3    3    0  502 -0.18475458910E+03 -0.55568937213E+03  0.10775930741E+04  0.12264304994E+04  0.50400001928E-02 0. -1.
</event>
<event>
 5   0  0.3704241E-05  0.2542518E+04  0.7818609E-02  0.8387993E-01
       -2   -1    0    0    0  501  0.00000000000E+00  0.00000000000E+00  0.70488941259E+03  0.70488941260E+03  0.25500000920E-02 0. -1.
        2   -1    0    0  501    0  0.00000000000E+00  0.00000000000E+00 -0.22926995464E+04  0.22926995464E+04  0.25500000920E-02 0.  1.
    10030    2    1    2    0    0  0.00000000000E+00  0.00000000000E+00 -0.15878101338E+04  0.29975889590E+04  0.25425181506E+04 0.  0.
        2    1    3    3  502    0  0.64340369325E+02 -0.85002009104E+03  0.31798763482E+03  0.90982964021E+03  0.25500000920E-02 0. -1.
       -2    1    3    3    0  502 -0.64340369325E+02  0.85002009104E+03 -0.19057977686E+04  0.20877593188E+04  0.25500000920E-02 0.  1.
</event>
<event>
 5   0  0.3704241E-05  0.2502185E+04  0.7818609E-02  0.8402208E-01
       -2   -1    0    0    0  501  0.00000000000E+00  0.00000000000E+00  0.88301816164E+03  0.88301816165E+03  0.25500000920E-02 0.  1.
        2   -1    0    0  501    0  0.00000000000E+00  0.00000000000E+00 -0.17725934103E+04  0.17725934103E+04  0.25500000920E-02 0. -1.
    10030    2    1    2    0    0  0.00000000000E+00  0.00000000000E+00 -0.88957524861E+03  0.26556115719E+04  0.25021847849E+04 0.  0.
        2    1    3    3  502    0  0.20135102671E+03  0.10746801256E+03  0.86073622691E+03  0.89048215143E+03  0.25500000920E-02 0.  1.
       -2    1    3    3    0  502 -0.20135102671E+03 -0.10746801256E+03 -0.17503114755E+04  0.17651294205E+04  0.25500000920E-02 0. -1.
</event>
<event>
 5   0  0.3704241E-05  0.2836460E+04  0.7818609E-02  0.8292037E-01
       -2   -1    0    0    0  501  0.00000000000E+00  0.00000000000E+00  0.16924265842E+04  0.16924265842E+04  0.25500000920E-02 0. -1.
        2   -1    0    0  501    0  0.00000000000E+00  0.00000000000E+00 -0.11884573651E+04  0.11884573651E+04  0.25500000920E-02 0.  1.
    10030    2    1    2    0    0  0.00000000000E+00  0.00000000000E+00  0.50396921917E+03  0.28808839493E+04  0.28364603568E+04 0.  0.
        2    1    3    3  502    0 -0.59989203217E+02  0.10938017848E+04 -0.66288682641E+03  0.12803983730E+04  0.25500000920E-02 0.  1.
       -2    1    3    3    0  502  0.59989203217E+02 -0.10938017848E+04  0.11668560456E+04  0.16004855763E+04  0.25500000920E-02 0. -1.
</event>
<event>
 5   0  0.3581449E-05  0.2519392E+04  0.7818609E-02  0.8396109E-01
       -2   -1    0    0    0  501  0.00000000000E+00  0.00000000000E+00  0.72354954944E+03  0.72354954945E+03  0.25500000920E-02 0.  1.
        2   -1    0    0  501    0  0.00000000000E+00  0.00000000000E+00 -0.21931239473E+04  0.21931239473E+04  0.25500000920E-02 0. -1.
    10030    2    1    2    0    0  0.00000000000E+00  0.00000000000E+00 -0.14695743978E+04  0.29166734967E+04  0.25193918662E+04 0.  0.
        1    1    3    3  502    0 -0.70273130438E+03  0.10224582886E+04 -0.48225797730E+03  0.13310991679E+04  0.50400001928E-02 0.  1.
       -1    1    3    3    0  502  0.70273130438E+03 -0.10224582886E+04 -0.98731642052E+03  0.15855743288E+04  0.50400001928E-02 0. -1.
</event>
<event>
 5   0  0.1429483E-05  0.2481915E+04  0.7818609E-02  0.8409457E-01
       -1   -1    0    0    0  501  0.00000000000E+00  0.00000000000E+00  0.98447721569E+03  0.98447721570E+03  0.50400001928E-02 0. -1.
        1   -1    0    0  501    0  0.00000000000E+00  0.00000000000E+00 -0.15642576035E+04  0.15642576035E+04  0.50400001928E-02 0.  1.
    10030    2    1    2    0    0  0.00000000000E+00  0.00000000000E+00 -0.57978038778E+03  0.25487348192E+04  0.24819153653E+04 0.  0.
        2    1    3    3  502    0 -0.72841152988E+03 -0.88266908829E+03  0.20291268723E+03  0.11622657334E+04  0.25500000920E-02 0. -1.
       -2    1    3    3    0  502  0.72841152988E+03  0.88266908829E+03 -0.78269307501E+03  0.13864690858E+04  0.25500000920E-02 0.  1.
</event>
<event>
 5   0  0.3578670E-05  0.2500783E+04  0.7818609E-02  0.8402707E-01
        2   -1    0    0  501    0  0.00000000000E+00  0.00000000000E+00  0.18528810200E+04  0.18528810200E+04  0.25500000920E-02 0. -1.
       -2   -1    0    0    0  501  0.00000000000E+00  0.00000000000E+00 -0.84380969860E+03  0.84380969860E+03  0.25500000920E-02 0.  1.
    10030    2    1    2    0    0  0.00000000000E+00  0.00000000000E+00  0.10090713214E+04  0.26966907186E+04  0.25007830574E+04 0.  0.
        4    1    3    3  502    0  0.67553707169E+03 -0.16627212280E+03 -0.61583710810E+03  0.92911447662E+03  0.12699999809E+01 0.  1.
       -4    1    3    3    0  502 -0.67553707169E+03  0.16627212280E+03  0.16249084294E+04  0.17675762419E+04  0.12699999809E+01 0. -1.
</event>
<event>
 5   0  0.3579097E-05  0.2507579E+04  0.7818609E-02  0.8400291E-01
        2   -1    0    0  501    0  0.00000000000E+00  0.00000000000E+00  0.11343812831E+04  0.11343812831E+04  0.25500000920E-02 0. -1.
       -2   -1    0    0    0  501  0.00000000000E+00  0.00000000000E+00 -0.13857664789E+04  0.13857664790E+04  0.25500000920E-02 0.  1.
    10030    2    1    2    0    0  0.00000000000E+00  0.00000000000E+00 -0.25138519590E+03  0.25201477620E+04  0.25075785582E+04 0.  0.
        5    1    3    3  502    0 -0.65998924021E+03  0.74956445757E+03 -0.88747137431E+03  0.13360614520E+04  0.46999998093E+01 0. -1.
       -5    1    3    3    0  502  0.65998924021E+03 -0.74956445757E+03  0.63608617841E+03  0.11840863100E+04  0.46999998093E+01 0.  1.
</event>
<event>
 5   0  0.1492639E-05  0.2408106E+04  0.7818609E-02  0.8436475E-01
        1   -1    0    0  501    0  0.00000000000E+00  0.00000000000E+00  0.13468852396E+04  0.13468852396E+04  0.50400001928E-02 0.  1.
       -1   -1    0    0    0  501  0.00000000000E+00  0.00000000000E+00 -0.10763674426E+04  0.10763674426E+04  0.50400001928E-02 0. -1.
    10030    2    1    2    0    0  0.00000000000E+00  0.00000000000E+00  0.27051779701E+03  0.24232526823E+04  0.24081058290E+04 0.  0.
        5    1    3    3  502    0  0.54709850536E+03  0.90413050597E+03 -0.44539096515E+03  0.11468059767E+04  0.46999998093E+01 0. -1.
       -5    1    3    3    0  502 -0.54709850536E+03 -0.90413050597E+03  0.71590876216E+03  0.12764467056E+04  0.46999998093E+01 0.  1.
</event>
<event>
 5   0  0.3579097E-05  0.2460622E+04  0.7818609E-02  0.8417150E-01
       -2   -1    0    0    0  501  0.00000000000E+00  0.00000000000E+00  0.13652165139E+04  0.13652165139E+04  0.25500000920E-02 0. -1.
        2   -1    0    0  501    0  0.00000000000E+00  0.00000000000E+00 -0.11087359953E+04  0.11087359953E+04  0.25500000920E-02 0.  1.
    10030    2    1    2    0    0  0.00000000000E+00  0.00000000000E+00  0.25648051857E+03  0.24739525093E+04  0.24606216210E+04 0.  0.
        5    1    3    3  502    0  0.86392695349E+03  0.78246558284E+03  0.52409968746E+03  0.12780159395E+04  0.46999998093E+01 0. -1.
       -5    1    3    3    0  502 -0.86392695349E+03 -0.78246558284E+03 -0.26761916888E+03  0.11959365697E+04  0.46999998093E+01 0.  1.
</event>
<event>
 5   0  0.1492639E-05  0.1858166E+04  0.7818609E-02  0.8675964E-01
       -1   -1    0    0    0  501  0.00000000000E+00  0.00000000000E+00  0.76104559075E+03  0.76104559076E+03  0.50400001928E-02 0.  1.
        1   -1    0    0  501    0  0.00000000000E+00  0.00000000000E+00 -0.11342232790E+04  0.11342232790E+04  0.50400001928E-02 0. -1.
    10030    2    1    2    0    0  0.00000000000E+00  0.00000000000E+00 -0.37317768828E+03  0.18952688698E+04  0.18581664354E+04 0.  0.
        5    1    3    3  502    0  0.39107400206E+02  0.28920409123E+03 -0.10862468551E+04  0.11247767402E+04  0.46999998093E+01 0. -1.
       -5    1    3    3    0  502 -0.39107400206E+02 -0.28920409123E+03  0.71306916680E+03  0.77049212960E+03  0.46999998093E+01 0.  1.
</event>
<event>
 5   0  0.3579097E-05  0.2512457E+04  0.7818609E-02  0.8398561E-01
        2   -1    0    0  501    0  0.00000000000E+00  0.00000000000E+00  0.20909531595E+04  0.20909531595E+04  0.25500000920E-02 0. -1.
       -2   -1    0    0    0  501  0.00000000000E+00  0.00000000000E+00 -0.75473212364E+03  0.75473212364E+03  0.25500000920E-02 0.  1.
    10030    2    1    2    0    0  0.00000000000E+00  0.00000000000E+00  0.13362210358E+04  0.28456852831E+04  0.25124565815E+04 0.  0.
        5    1    3    3  502    0 -0.59099745724E+03  0.96518526144E+03  0.50617120259E+02  0.11328922130E+04  0.46999998093E+01 0. -1.
       -5    1    3    3    0  502  0.59099745724E+03 -0.96518526144E+03  0.12856039156E+04  0.17127930701E+04  0.46999998093E+01 0.  1.
</event>
<event>
 5   0  0.3704241E-05  0.2432584E+04  0.7818609E-02  0.8427404E-01
       -2   -1    0    0    0  501  0.00000000000E+00  0.00000000000E+00  0.13261414200E+04  0.13261414200E+04  0.25500000920E-02 0. -1.
        2   -1    0    0  501    0  0.00000000000E+00  0.00000000000E+00 -0.11155421841E+04  0.11155421841E+04  0.25500000920E-02 0.  1.
    10030    2    1    2    0    0  0.00000000000E+00  0.00000000000E+00  0.21059923593E+03  0.24416836041E+04  0.24325843838E+04 0.  0.
        2    1    3    3  502    0 -0.96141189796E+03  0.17177693437E+03  0.83295720924E+03  0.12836034688E+04  0.25500000920E-02 0.  1.
       -2    1    3    3    0  502  0.96141189796E+03 -0.17177693437E+03 -0.62235797331E+03  0.11580801353E+04  0.25500000920E-02 0. -1.
</event>
<event>
 5   0  0.1456876E-05  0.2509456E+04  0.7818609E-02  0.8399625E-01
        1   -1    0    0  501    0  0.00000000000E+00  0.00000000000E+00  0.79654642484E+03  0.79654642486E+03  0.50400001928E-02 0. -1.
       -1   -1    0    0    0  501  0.00000000000E+00  0.00000000000E+00 -0.19764596841E+04  0.19764596841E+04  0.50400001928E-02 0.  1.
    10030    2    1    2    0    0  0.00000000000E+00  0.00000000000E+00 -0.11799132592E+04  0.27730061089E+04  0.25094556344E+04 0.  0.
        1    1    3    3  502    0 -0.11263684036E+04 -0.41746430128E+03 -0.18945680384E+03  0.12160904999E+04  0.50400001928E-02 0. -1.
       -1    1    3    3    0  502  0.11263684036E+04  0.41746430128E+03 -0.99045645537E+03  0.15569156090E+04  0.50400001928E-02 0.  1.
</event>
<event>
 5   0  0.1421242E-05  0.2443513E+04  0.7818609E-02  0.8423390E-01
       -1   -1    0    0    0  501  0.00000000000E+00  0.00000000000E+00  0.78701360959E+03  0.78701360961E+03  0.50400001928E-02 0. -1.
        1   -1    0    0  501    0  0.00000000000E+00  0.00000000000E+00 -0.18966495807E+04  0.18966495807E+04  0.50400001928E-02 0.  1.
    10030    2    1    2    0    0  0.00000000000E+00  0.00000000000E+00 -0.11096359711E+04  0.26836631903E+04  0.24435130715E+04 0.  0.
        3    1    3    3  502    0 -0.66187738730E+03  0.90044754499E+03 -0.12527995997E+02  0.11176065578E+04  0.10100000352E+00 0. -1.
       -3    1    3    3    0  502  0.66187738730E+03 -0.90044754499E+03 -0.10971079751E+04  0.15660566326E+04  0.10100000352E+00 0.  1.
</event>
<event>
 5   0  0.3578670E-05  0.2381389E+04  0.7818609E-02  0.8446504E-01
       -2   -1    0    0    0  501  0.00000000000E+00  0.00000000000E+00  0.67419969075E+03  0.67419969076E+03  0.25500000920E-02 0.  1.
        2   -1    0    0  501    0  0.00000000000E+00  0.00000000000E+00 -0.21028678716E+04  0.21028678716E+04  0.25500000920E-02 0. -1.
    10030    2    1    2    0    0  0.00000000000E+00  0.00000000000E+00 -0.14286681809E+04  0.27770675624E+04  0.23813885603E+04 0.  0.
        4    1    3    3  502    0 -0.46136522773E+02 -0.28664090500E+02 -0.21014216253E+04  0.21021238472E+04  0.12699999809E+01 0. -1.
       -4    1    3    3    0  502  0.46136522773E+02  0.28664090500E+02  0.67275344441E+03  0.67494371520E+03  0.12699999809E+01 0.  1.
</event>
<event>
 5   0  0.3578670E-05  0.2205651E+04  0.7818609E-02  0.8516080E-01
       -2   -1    0    0    0  501  0.00000000000E+00  0.00000000000E+00  0.64531887400E+03  0.64531887401E+03  0.25500000920E-02 0. -1.
        2   -1    0    0  501    0  0.00000000000E+00  0.00000000000E+00 -0.18846866591E+04  0.18846866591E+04  0.25500000920E-02 0.  1.
    10030    2    1    2    0    0  0.00000000000E+00  0.00000000000E+00 -0.12393677851E+04  0.25300055332E+04  0.22056508089E+04 0.  0.
        4    1    3    3  502    0 -0.70283986233E+03 -0.61414944887E+03 -0.12934843382E+04  0.15950757862E+04  0.12699999809E+01 0.  1.
       -4    1    3    3    0  502  0.70283986233E+03  0.61414944887E+03  0.54116553012E+02  0.93492974700E+03  0.12699999809E+01 0. -1.
</event>
<event>
 5   0  0.3581449E-05  0.2536421E+04  0.7818609E-02  0.8390124E-01
       -2   -1    0    0    0  501  0.00000000000E+00  0.00000000000E+00  0.12486440244E+04  0.12486440244E+04  0.25500000920E-02 0. -1.
        2   -1    0    0  501    0  0.00000000000E+00  0.00000000000E+00 -0.12880835382E+04  0.12880835382E+04  0.25500000920E-02 0.  1.
    10030    2    1    2    0    0  0.00000000000E+00  0.00000000000E+00 -0.39439513813E+02  0.25367275627E+04  0.25364209532E+04 0.  0.
        1    1    3    3  502    0  0.23862043325E+03  0.11001197159E+04 -0.60387487061E+03  0.12774458736E+04  0.50400001928E-02 0.  1.
       -1    1    3    3    0  502 -0.23862043325E+03 -0.11001197159E+04  0.56443535680E+03  0.12592816891E+04  0.50400001928E-02 0. -1.
</event>
<event>
 5   0  0.1429483E-05  0.2507127E+04  0.7818609E-02  0.8400451E-01
        1   -1    0    0  501    0  0.00000000000E+00  0.00000000000E+00  0.18223428364E+04  0.18223428364E+04  0.50400001928E-02 0.  1.
       -1   -1    0    0    0  501  0.00000000000E+00  0.00000000000E+00 -0.86230830122E+03  0.86230830123E+03  0.50400001928E-02 0. -1.
    10030    2    1    2    0    0  0.00000000000E+00  0.00000000000E+00  0.96003453514E+03  0.26846511376E+04  0.25071269258E+04 0.  0.
        2    1    3    3  502    0  0.83708017700E+02 -0.11454395544E+04 -0.57931850348E+02  0.11499543053E+04  0.25500000920E-02 0. -1.
       -2    1    3    3    0  502 -0.83708017700E+02  0.11454395544E+04  0.10179663855E+04  0.15346968323E+04  0.25500000920E-02 0.  1.
</event>
<event>
 5   0  0.1421242E-05  0.2487804E+04  0.7818609E-02  0.8407343E-01
       -1   -1    0    0    0  501  0.00000000000E+00  0.00000000000E+00  0.11919135713E+04  0.11919135713E+04  0.50400001928E-02 0. -1.
        1   -1    0    0  501    0  0.00000000000E+00  0.00000000000E+00 -0.12981581778E+04  0.12981581778E+04  0.50400001928E-02 0.  1.
    10030    2    1    2    0    0  0.00000000000E+00  0.00000000000E+00 -0.10624460650E+03  0.24900717491E+04  0.24878041320E+04 0.  0.
        3    1    3    3  502    0 -0.55390826724E+03  0.42621586492E+03  0.97680444100E+03  0.12010916943E+04  0.10100000352E+00 0. -1.
       -3    1    3    3    0  502  0.55390826724E+03 -0.42621586492E+03 -0.10830490475E+04  0.12889800547E+04  0.10100000352E+00 0.  1.
</event>
<event>
 5   0  0.1456876E-05  0.2558100E+04  0.7818609E-02  0.8382574E-01
        1   -1    0    0  501    0  0.00000000000E+00  0.00000000000E+00  0.15098989784E+04  0.15098989784E+04  0.50400001928E-02 0. -1.
       -1   -1    0    0    0  501  0.00000000000E+00  0.00000000000E+00 -0.10834957919E+04  0.10834957919E+04  0.50400001928E-02 0.  1.
    10030    2    1    2    0    0  0.00000000000E+00  0.00000000000E+00  0.42640318649E+03  0.25933947704E+04  0.25581002243E+04 0.  0.
        1    1    3    3  502    0 -0.93254236789E+03 -0.52951067794E+02 -0.67265650132E+03  0.11510455474E+04  0.50400001928E-02 0.  1.
       -1    1    3    3    0  502  0.93254236789E+03  0.52951067794E+02  0.10990596878E+04  0.14423492229E+04  0.50400001928E-02 0. -1.
</event>
<event>
 5   0  0.3704241E-05  0.2648023E+04  0.7818609E-02  0.8352069E-01
        2   -1    0    0  501    0  0.00000000000E+00  0.00000000000E+00  0.90530838874E+03  0.90530838874E+03  0.25500000920E-02 0. -1.
       -2   -1    0    0    0  501  0.00000000000E+00  0.00000000000E+00 -0.19363638369E+04  0.19363638369E+04  0.25500000920E-02 0.  1.
    10030    2    1    2    0    0  0.00000000000E+00  0.00000000000E+00 -0.10310554482E+04  0.28416722256E+04  0.26480229797E+04 0.  0.
        2    1    3    3  502    0  0.12939962340E+04  0.26944954190E+03 -0.59849332682E+03  0.14509388586E+04  0.25500000920E-02 0. -1.
       -2    1    3    3    0  502 -0.12939962340E+04 -0.26944954190E+03 -0.43256212133E+03  0.13907333670E+04  0.25500000920E-02 0.  1.
</event>
<event>
 5   0  0.1492639E-05  0.2576591E+04  0.7818609E-02  0.8376196E-01
        1   -1    0    0  501    0  0.00000000000E+00  0.00000000000E+00  0.17299370509E+04  0.17299370509E+04  0.50400001928E-02 0. -1.
       -1   -1    0    0    0  501  0.00000000000E+00  0.00000000000E+00 -0.95940227547E+03  0.95940227548E+03  0.50400001928E-02 0.  1.
    10030    2    1    2    0    0  0.00000000000E+00  0.00000000000E+00  0.77053477543E+03  0.26893393264E+04  0.25765911923E+04 0.  0.
        5    1    3    3  502    0 -0.21544721031E+03 -0.74616220673E+02 -0.93816686511E+03  0.96548652896E+03  0.46999998093E+01 0.  1.
       -5    1    3    3    0  502  0.21544721031E+03  0.74616220673E+02  0.17087016405E+04  0.17238527974E+04  0.46999998093E+01 0. -1.
</event>
<event>
 5   0  0.1421242E-05  0.2508939E+04  0.7818609E-02  0.8399808E-01
       -1   -1    0    0    0  501  0.00000000000E+00  0.00000000000E+00  0.17068578385E+04  0.17068578385E+04  0.50400001928E-02 0.  1.
        1   -1    0    0  501    0  0.00000000000E+00  0.00000000000E+00 -0.92198291318E+03  0.92198291320E+03  0.50400001928E-02 0. -1.
    10030    2    1    2    0    0  0.00000000000E+00  0.00000000000E+00  0.78487492527E+03  0.26288407517E+04  0.25089390286E+04 0.  0.
        3    1    3    3  502    0  0.10831169508E+04 -0.40280819396E+03  0.90392309871E+03  0.14671311287E+04  0.10100000352E+00 0.  1.
       -3    1    3    3    0  502 -0.10831169508E+04  0.40280819396E+03 -0.11904817344E+03  0.11617096229E+04  0.10100000352E+00 0. -1.
</event>
<event>
 5   0  0.1429483E-05  0.2488547E+04  0.7818609E-02  0.8407077E-01
       -1   -1    0    0    0  501  0.00000000000E+00  0.00000000000E+00  0.92758287703E+03  0.92758287705E+03  0.50400001928E-02 0. -1.
        1   -1    0    0  501    0  0.00000000000E+00  0.00000000000E+00 -0.16690865418E+04  0.16690865418E+04  0.50400001928E-02 0.  1.
    10030    2    1    2    0    0  0.00000000000E+00  0.00000000000E+00 -0.74150366475E+03  0.25966694188E+04  0.24885466413E+04 0.  0.
        2    1    3    3  502    0 -0.36429105830E+02  0.11992820623E+04 -0.26870272768E+02  0.12001360574E+04  0.25500000920E-02 0. -1.
       -2    1    3    3    0  502  0.36429105830E+02 -0.11992820623E+04 -0.71463339198E+03  0.13965333614E+04  0.25500000920E-02 0.  1.
</event>
<event>
 5   0  0.3704241E-05  0.2507784E+04  0.7818609E-02  0.8400218E-01
       -2   -1    0    0    0  501  0.00000000000E+00  0.00000000000E+00  0.96612111278E+03  0.96612111279E+03  0.25500000920E-02 0. -1.
        2   -1    0    0  501    0  0.00000000000E+00  0.00000000000E+00 -0.16273788889E+04  0.16273788889E+04  0.25500000920E-02 0.  1.
    10030    2    1    2    0    0  0.00000000000E+00  0.00000000000E+00 -0.66125777611E+03  0.25935000017E+04  0.25077839644E+04 0.  0.
        2    1    3    3  502    0  0.91969003312E+03  0.49920933720E+03 -0.10450409836E+04  0.14789017468E+04  0.25500000920E-02 0.  1.
       -2    1    3    3    0  502 -0.91969003312E+03 -0.49920933720E+03  0.38378320748E+03  0.11145982549E+04  0.25500000920E-02 0. -1.
</event>
<event>
 5   0  0.3579097E-05  0.2505918E+04  0.7818609E-02  0.8400880E-01
        2   -1    0    0  501    0  0.00000000000E+00  0.00000000000E+00  0.11552719775E+04  0.11552719775E+04  0.25500000920E-02 0.  1.
       -2   -1    0    0    0  501  0.00000000000E+00  0.00000000000E+00 -0.13589065706E+04  0.13589065706E+04  0.25500000920E-02 0. -1.
    10030    2    1    2    0    0  0.00000000000E+00  0.00000000000E+00 -0.20363459307E+03  0.25141785481E+04  0.25059183395E+04 0.  0.
        5    1    3    3  502    0 -0.80563764675E+03 -0.73751006989E+03 -0.71777214620E+03  0.13069782190E+04  0.46999998093E+01 0. -1.
       -5    1    3    3    0  502  0.80563764675E+03  0.73751006989E+03  0.51413755312E+03  0.12072003291E+04  0.46999998093E+01 0.  1.
</event>
<event>
 5   0  0.1492639E-05  0.2771505E+04  0.7818609E-02  0.8312170E-01
        1   -1    0    0  501    0  0.00000000000E+00  0.00000000000E+00  0.13397070047E+04  0.13397070047E+04  0.50400001928E-02 0. -1.
       -1   -1    0    0    0  501  0.00000000000E+00  0.00000000000E+00 -0.14333806747E+04  0.14333806748E+04  0.50400001928E-02 0.  1.
    10030    2    1    2    0    0  0.00000000000E+00  0.00000000000E+00 -0.93673670012E+02  0.27730876795E+04  0.27715051004E+04 0.  0.
        5    1    3    3  502    0  0.66995753726E+03 -0.47335241352E+03  0.10706636766E+04  0.13487951689E+04  0.46999998093E+01 0. -1.
       -5    1    3    3    0  502 -0.66995753726E+03  0.47335241352E+03 -0.11643373466E+04  0.14242925106E+04  0.46999998093E+01 0.  1.
</event>
<event>
 5   0  0.1456876E-05  0.2481381E+04  0.7818609E-02  0.8409649E-01
        1   -1    0    0  501    0  0.00000000000E+00  0.00000000000E+00  0.12220087098E+04  0.12220087098E+04  0.50400001928E-02 0.  1.
       -1   -1    0    0    0  501  0.00000000000E+00  0.00000000000E+00 -0.12596579253E+04  0.12596579254E+04  0.50400001928E-02 0. -1.
    10030    2    1    2    0    0  0.00000000000E+00  0.00000000000E+00 -0.37649215525E+02  0.24816666352E+04  0.24813810318E+04 0.  0.
        1    1    3    3  502    0 -0.10860379133E+04 -0.38402571005E+03  0.44205254314E+03  0.12338413780E+04  0.50400001928E-02 0.  1.
       -1    1    3    3    0  502  0.10860379133E+04  0.38402571005E+03 -0.47970175867E+03  0.12478252572E+04  0.50400001928E-02 0. -1.
</event>
<event>
 5   0  0.1492639E-05  0.2453267E+04  0.7818609E-02  0.8419826E-01
       -1   -1    0    0    0  501  0.00000000000E+00  0.00000000000E+00  0.81737618658E+03  0.81737618660E+03  0.50400001928E-02 0. -1.
        1   -1    0    0  501    0  0.00000000000E+00  0.00000000000E+00 -0.18408041831E+04  0.18408041831E+04  0.50400001928E-02 0.  1.
    10030    2    1    2    0    0  0.00000000000E+00  0.00000000000E+00 -0.10234279965E+04  0.26581803697E+04  0.24532668044E+04 0.  0.
        5    1    3    3  502    0  0.73488248499E+02 -0.12038441430E+04 -0.75391598159E+03  0.14223405502E+04  0.46999998093E+01 0. -1.
       -5    1    3    3    0  502 -0.73488248499E+02  0.12038441430E+04 -0.26951201488E+03  0.12358398195E+04  0.46999998093E+01 0.  1.
</event>
<event>
 5   0  0.3579097E-05  0.2518274E+04  0.7818609E-02  0.8396504E-01
       -2   -1    0    0    0  501  0.00000000000E+00  0.00000000000E+00  0.16939882775E+04  0.16939882775E+04  0.25500000920E-02 0.  1.
        2   -1    0    0  501    0  0.00000000000E+00  0.00000000000E+00 -0.93591326057E+03  0.93591326058E+03  0.25500000920E-02 0. -1.
    10030    2    1    2    0    0  0.00000000000E+00  0.00000000000E+00  0.75807501697E+03  0.26299015381E+04  0.25182740853E+04 0.  0.
        5    1    3    3  502    0  0.43163197750E+03  0.59596018045E+03  0.14460562230E+04  0.16225213067E+04  0.46999998093E+01 0.  1.
       -5    1    3    3    0  502 -0.43163197750E+03 -0.59596018045E+03 -0.68798120606E+03  0.10073802314E+04  0.46999998093E+01 0. -1.
</event>
<event>
 5   0  0.3704241E-05  0.2413484E+04  0.7818609E-02  0.8434473E-01
       -2   -1    0    0    0  501  0.00000000000E+00  0.00000000000E+00  0.77365620694E+03  0.77365620694E+03  0.25500000920E-02 0.  1.
        2   -1    0    0  501    0  0.00000000000E+00  0.00000000000E+00 -0.18822655251E+04  0.18822655251E+04  0.25500000920E-02 0. -1.
    10030    2    1    2    0    0  0.00000000000E+00  0.00000000000E+00 -0.11086093182E+04  0.26559217321E+04  0.24134841260E+04 0.  0.
        2    1    3    3  502    0 -0.11319682998E+04  0.39676192775E+03 -0.69968984235E+03  0.13886461517E+04  0.25500000920E-02 0.  1.
       -2    1    3    3    0  502  0.11319682998E+04 -0.39676192775E+03 -0.40891947585E+03  0.12672755804E+04  0.25500000920E-02 0. -1.
</event>
<event>
 5   0  0.3704241E-05  0.2515694E+04  0.7818609E-02  0.8397416E-01
        2   -1    0    0  501    0  0.00000000000E+00  0.00000000000E+00  0.16741526706E+04  0.16741526706E+04  0.25500000920E-02 0. -1.
       -2   -1    0    0    0  501  0.00000000000E+00  0.00000000000E+00 -0.94506237532E+03  0.94506237533E+03  0.25500000920E-02 0.  1.
    10030    2    1    2    0    0  0.00000000000E+00  0.00000000000E+00  0.72909029524E+03  0.26192150459E+04  0.25156937012E+04 0.  0.
        2    1    3    3  502    0  0.68160549327E+02 -0.53709703436E+02  0.16710323265E+04  0.16732840849E+04  0.25500000920E-02 0. -1.
       -2    1    3    3    0  502 -0.68160549327E+02  0.53709703436E+02 -0.94194203123E+03  0.94593096098E+03  0.25500000920E-02 0.  1.
</event>
<event>
 5   0  0.3579097E-05  0.2474331E+04  0.7818609E-02  0.8412188E-01
       -2   -1    0    0    0  501  0.00000000000E+00  0.00000000000E+00  0.18921845538E+04  0.18921845538E+04  0.25500000920E-02 0. -1.
        2   -1    0    0  501    0  0.00000000000E+00  0.00000000000E+00 -0.80889485977E+03  0.80889485977E+03  0.25500000920E-02 0.  1.
    10030    2    1    2    0    0  0.00000000000E+00  0.00000000000E+00  0.10832896940E+04  0.27010794136E+04  0.24743309070E+04 0.  0.
        5    1    3    3  502    0  0.80723561199E+03  0.28757357664E+02 -0.48129842261E+03  0.94028005429E+03  0.46999998093E+01 0.  1.
       -5    1    3    3    0  502 -0.80723561199E+03 -0.28757357664E+02  0.15645881166E+04  0.17607993593E+04  0.46999998093E+01 0. -1.
</event>
<event>
 5   0  0.3581449E-05  0.2524269E+04  0.7818609E-02  0.8394390E-01
       -2   -1    0    0    0  501  0.00000000000E+00  0.00000000000E+00  0.78152456607E+03  0.78152456608E+03  0.25500000920E-02 0.  1.
        2   -1    0    0  501    0  0.00000000000E+00  0.00000000000E+00 -0.20383025726E+04  0.20383025726E+04  0.25500000920E-02 0. -1.
    10030    2    1    2    0    0  0.00000000000E+00  0.00000000000E+00 -0.12567780065E+04  0.28198271386E+04  0.25242690297E+04 0.  0.
        1    1    3    3  502    0 -0.57164737181E+03  0.66335327496E+00  0.62862006002E+03  0.84967307691E+03  0.50400001928E-02 0.  1.
       -1    1    3    3    0  502  0.57164737181E+03 -0.66335327496E+00 -0.18853980665E+04  0.19701540617E+04  0.50400001928E-02 0. -1.
</event>
<event>
 5   0  0.3704241E-05  0.2465963E+04  0.7818609E-02  0.8415213E-01
        2   -1    0    0  501    0  0.00000000000E+00  0.00000000000E+00  0.19098277352E+04  0.19098277352E+04  0.25500000920E-02 0.  1.
       -2   -1    0    0    0  501  0.00000000000E+00  0.00000000000E+00 -0.79601053356E+03  0.79601053356E+03  0.25500000920E-02 0. -1.
    10030    2    1    2    0    0  0.00000000000E+00  0.00000000000E+00  0.11138172017E+04  0.27058382688E+04  0.24659626879E+04 0.  0.
        2    1    3    3  502    0  0.10701322355E+04  0.36436926238E+03  0.10970252813E+04  0.15752499575E+04  0.25500000920E-02 0.  1.
       -2    1    3    3    0  502 -0.10701322355E+04 -0.36436926238E+03  0.16791920366E+02  0.11305883112E+04  0.25500000920E-02 0. -1.
</event>
<event>
 5   0  0.3581449E-05  0.2538272E+04  0.7818609E-02  0.8389476E-01
       -2   -1    0    0    0  501  0.00000000000E+00  0.00000000000E+00  0.70132961871E+03  0.70132961871E+03  0.25500000920E-02 0.  1.
        2   -1    0    0  501    0  0.00000000000E+00  0.00000000000E+00 -0.22966468177E+04  0.22966468177E+04  0.25500000920E-02 0. -1.
    10030    2    1    2    0    0  0.00000000000E+00  0.00000000000E+00 -0.15953171990E+04  0.29979764364E+04  0.25382721974E+04 0.  0.
        1    1    3    3  502    0  0.49870338162E+03  0.18400423006E+03  0.56351204607E+03  0.77466666742E+03  0.50400001928E-02 0.  1.
       -1    1    3    3    0  502 -0.49870338162E+03 -0.18400423006E+03 -0.21588292451E+04  0.22233097690E+04  0.50400001928E-02 0. -1.
</event>
<event>
 5   0  0.1502886E-05  0.2488406E+04  0.7818609E-02  0.8407128E-01
       -1   -1    0    0    0  501  0.00000000000E+00  0.00000000000E+00  0.85487769044E+03  0.85487769045E+03  0.50400001928E-02 0.  1.
        1   -1    0    0  501    0  0.00000000000E+00  0.00000000000E+00 -0.18108333733E+04  0.18108333733E+04  0.50400001928E-02 0. -1.
    10030    2    1    2    0    0  0.00000000000E+00  0.00000000000E+00 -0.95595568282E+03  0.26657110637E+04  0.24884059572E+04 0.  0.
        4    1    3    3  502    0  0.10374117391E+04 -0.65186084275E+03 -0.70995722527E+03  0.14160460971E+04  0.12699999809E+01 0.  1.
       -4    1    3    3    0  502 -0.10374117391E+04  0.65186084275E+03 -0.24599845755E+03  0.12496649666E+04  0.12699999809E+01 0. -1.
</event>
<event>
 5   0  0.1456876E-05  0.2474037E+04  0.7818609E-02  0.8412294E-01
       -1   -1    0    0    0  501  0.00000000000E+00  0.00000000000E+00  0.17566478646E+04  0.17566478646E+04  0.50400001928E-02 0.  1.
        1   -1    0    0  501    0  0.00000000000E+00  0.00000000000E+00 -0.87109913974E+03  0.87109913975E+03  0.50400001928E-02 0. -1.
    10030    2    1    2    0    0  0.00000000000E+00  0.00000000000E+00  0.88554872483E+03  0.26277470043E+04  0.24740367367E+04 0.  0.
        1    1    3    3  502    0 -0.90565657884E+03  0.72756502846E+03  0.89421023752E+03  0.14660070458E+04  0.50400001928E-02 0.  1.
       -1    1    3    3    0  502  0.90565657884E+03 -0.72756502846E+03 -0.86615126849E+01  0.11617399585E+04  0.50400001928E-02 0. -1.
</event>
<event>
 5   0  0.1456876E-05  0.2565486E+04  0.7818609E-02  0.8380020E-01
       -1   -1    0    0    0  501  0.00000000000E+00  0.00000000000E+00  0.13320062008E+04  0.13320062008E+04  0.50400001928E-02 0.  1.
        1   -1    0    0  501    0  0.00000000000E+00  0.00000000000E+00 -0.12353018421E+04  0.12353018421E+04  0.50400001928E-02 0. -1.
    10030    2    1    2    0    0  0.00000000000E+00  0.00000000000E+00  0.96704358729E+02  0.25673080429E+04  0.25654860854E+04 0.  0.
        1    1    3    3  502    0  0.20941829695E+03 -0.11735319807E+04 -0.42568918761E+03  0.12657980160E+04  0.50400001928E-02 0. -1.
       -1    1    3    3    0  502 -0.20941829695E+03  0.11735319807E+04  0.52239354634E+03  0.13015100269E+04  0.50400001928E-02 0.  1.
</event>
<event>
 5   0  0.3578670E-05  0.1918843E+04  0.7818609E-02  0.8645533E-01
        2   -1    0    0  501    0  0.00000000000E+00  0.00000000000E+00  0.81111048232E+03  0.81111048232E+03  0.25500000920E-02 0. -1.
       -2   -1    0    0    0  501  0.00000000000E+00  0.00000000000E+00 -0.11348511061E+04  0.11348511061E+04  0.25500000920E-02 0.  1.
    10030    2    1    2    0    0  0.00000000000E+00  0.00000000000E+00 -0.32374062373E+03  0.19459615884E+04  0.19188430139E+04 0.  0.
        4    1    3    3  502    0  0.28527958158E+03  0.70143041299E+03 -0.75934769310E+03  0.10723803410E+04  0.12699999809E+01 0.  1.
       -4    1    3    3    0  502 -0.28527958158E+03 -0.70143041299E+03  0.43560706936E+03  0.87358124734E+03  0.12699999809E+01 0. -1.
</event>
<event>
 5   0  0.1492639E-05  0.2495500E+04  0.7818609E-02  0.8404590E-01
       -1   -1    0    0    0  501  0.00000000000E+00  0.00000000000E+00  0.84378522097E+03  0.84378522099E+03  0.50400001928E-02 0. -1.
        1   -1    0    0  501    0  0.00000000000E+00  0.00000000000E+00 -0.18451147198E+04  0.18451147198E+04  0.50400001928E-02 0.  1.
    10030    2    1    2    0    0  0.00000000000E+00  0.00000000000E+00 -0.10013294988E+04  0.26888999407E+04  0.24955003759E+04 0.  0.
        5    1    3    3  502    0  0.61424755965E+03  0.10321605677E+04 -0.86479406363E+03  0.14800494466E+04  0.46999998093E+01 0.  1.
       -5    1    3    3    0  502 -0.61424755965E+03 -0.10321605677E+04 -0.13653543515E+03  0.12088504941E+04  0.46999998093E+01 0. -1.
</event>
<event>
 5   0  0.1429483E-05  0.2447047E+04  0.7818609E-02  0.8422097E-01
        1   -1    0    0  501    0  0.00000000000E+00  0.00000000000E+00  0.19722878395E+04  0.19722878395E+04  0.50400001928E-02 0.  1.
       -1   -1    0    0    0  501  0.00000000000E+00  0.00000000000E+00 -0.75902164900E+03  0.75902164902E+03  0.50400001928E-02 0. -1.
    10030    2    1    2    0    0  0.00000000000E+00  0.00000000000E+00  0.12132661905E+04  0.27313094886E+04  0.24470465204E+04 0.  0.
        2    1    3    3  502    0 -0.44456955635E+03 -0.68931656277E+03 -0.40668911715E+03  0.91553014815E+03  0.25500000920E-02 0. -1.
       -2    1    3    3    0  502  0.44456955635E+03  0.68931656277E+03  0.16199553077E+04  0.18157793404E+04  0.25500000920E-02 0.  1.
</event>
<event>
 5   0  0.1502886E-05  0.2523338E+04  0.7818609E-02  0.8394718E-01
       -1   -1    0    0    0  501  0.00000000000E+00  0.00000000000E+00  0.11928137002E+04  0.11928137002E+04  0.50400001928E-02 0.  1.
        1   -1    0    0  501    0  0.00000000000E+00  0.00000000000E+00 -0.13344987511E+04  0.13344987511E+04  0.50400001928E-02 0. -1.
    10030    2    1    2    0    0  0.00000000000E+00  0.00000000000E+00 -0.14168505092E+03  0.25273124513E+04  0.25233377841E+04 0.  0.
        4    1    3    3  502    0  0.11572571939E+03 -0.11119922175E+04  0.51479008287E+03  0.12308247544E+04  0.12699999809E+01 0.  1.
       -4    1    3    3    0  502 -0.11572571939E+03  0.11119922175E+04 -0.65647513379E+03  0.12964876968E+04  0.12699999809E+01 0. -1.
</event>
<event>
 5   0  0.1456876E-05  0.2481194E+04  0.7818609E-02  0.8409716E-01
       -1   -1    0    0    0  501  0.00000000000E+00  0.00000000000E+00  0.92536121319E+03  0.92536121321E+03  0.50400001928E-02 0.  1.
        1   -1    0    0  501    0  0.00000000000E+00  0.00000000000E+00 -0.16632211169E+04  0.16632211169E+04  0.50400001928E-02 0. -1.
    10030    2    1    2    0    0  0.00000000000E+00  0.00000000000E+00 -0.73785990368E+03  0.25885823301E+04  0.24811935116E+04 0.  0.
        1    1    3    3  502    0  0.68432149965E+03  0.97733425246E+03 -0.72364883617E+03  0.13954016605E+04  0.50400001928E-02 0.  1.
       -1    1    3    3    0  502 -0.68432149965E+03 -0.97733425246E+03 -0.14211067508E+02  0.11931806696E+04  0.50400001928E-02 0. -1.
</event>
<event>
 5   0  0.3650620E-05  0.2477526E+04  0.7818609E-02  0.8411036E-01
       -2   -1    0    0    0  501  0.00000000000E+00  0.00000000000E+00  0.14496213486E+04  0.14496213486E+04  0.25500000920E-02 0. -1.
        2   -1    0    0  501    0  0.00000000000E+00  0.00000000000E+00 -0.10585753853E+04  0.10585753853E+04  0.25500000920E-02 0.  1.
    10030    2    1    2    0    0  0.00000000000E+00  0.00000000000E+00  0.39104596339E+03  0.25081967339E+04  0.24775257638E+04 0.  0.
        3    1    3    3  502    0  0.51261715263E+03 -0.39564875227E+03 -0.87358983248E+03  0.10874159673E+04  0.10100000352E+00 0.  1.
       -3    1    3    3    0  502 -0.51261715263E+03  0.39564875227E+03  0.12646357959E+04  0.14207807666E+04  0.10100000352E+00 0. -1.
</event>
<event>
 5   0  0.1429483E-05  0.2512243E+04  0.7818609E-02  0.8398637E-01
       -1   -1    0    0    0  501  0.00000000000E+00  0.00000000000E+00  0.33259987605E+04  0.33259987605E+04  0.50400001928E-02 0.  1.
        1   -1    0    0  501    0  0.00000000000E+00  0.00000000000E+00 -0.47439605138E+03  0.47439605140E+03  0.50400001928E-02 0. -1.
    10030    2    1    2    0    0  0.00000000000E+00  0.00000000000E+00  0.28516027091E+04  0.38003948119E+04  0.25122425671E+04 0.  0.
        2    1    3    3  502    0 -0.11982062543E+04 -0.37315202561E+03  0.13443370396E+04  0.18390711617E+04  0.25500000920E-02 0.  1.
       -2    1    3    3    0  502  0.11982062543E+04  0.37315202561E+03  0.15072656696E+04  0.19613236502E+04  0.25500000920E-02 0. -1.
</event>
<event>
 5   0  0.3650620E-05  0.2427457E+04  0.7818609E-02  0.8429295E-01
        2   -1    0    0  501    0  0.00000000000E+00  0.00000000000E+00  0.20111338278E+04  0.20111338278E+04  0.25500000920E-02 0. -1.
       -2   -1    0    0    0  501  0.00000000000E+00  0.00000000000E+00 -0.73249053273E+03  0.73249053274E+03  0.25500000920E-02 0.  1.
    10030    2    1    2    0    0  0.00000000000E+00  0.00000000000E+00  0.12786432950E+04  0.27436243605E+04  0.24274566846E+04 0.  0.
        3    1    3    3  502    0 -0.97196882646E+03  0.26823458790E+03  0.14029395241E+04  0.17276899352E+04  0.10100000352E+00 0. -1.
       -3    1    3    3    0  502  0.97196882646E+03 -0.26823458790E+03 -0.12429622906E+03  0.10159344253E+04  0.10100000352E+00 0.  1.
</event>
<event>
 5   0  0.1201438E-05  0.2511638E+04  0.7818609E-02  0.8398851E-01
        3   -1    0    0  501    0  0.00000000000E+00  0.00000000000E+00  0.11721830020E+04  0.11721830064E+04  0.10100000352E+00 0.  1.
       -3   -1    0    0    0  501  0.00000000000E+00  0.00000000000E+00 -0.13454221415E+04  0.13454221453E+04  0.10100000352E+00 0. -1.
    10030    2    1    2    0    0  0.00000000000E+00  0.00000000000E+00 -0.17323913953E+03  0.25176051517E+04  0.25116376929E+04 0.  0.
        2    1    3    3  502    0 -0.68928910447E+03  0.10085131391E+04 -0.37862382951E+03  0.12788957055E+04  0.25500000920E-02 0. -1.
       -2    1    3    3    0  502  0.68928910447E+03 -0.10085131391E+04  0.20538468998E+03  0.12387094462E+04  0.25500000920E-02 0.  1.
</event>
<event>
 5   0  0.3579097E-05  0.2507618E+04  0.7818609E-02  0.8400277E-01
        2   -1    0    0  501    0  0.00000000000E+00  0.00000000000E+00  0.11530482381E+04  0.11530482381E+04  0.25500000920E-02 0. -1.
       -2   -1    0    0    0  501  0.00000000000E+00  0.00000000000E+00 -0.13633744295E+04  0.13633744295E+04  0.25500000920E-02 0.  1.
    10030    2    1    2    0    0  0.00000000000E+00  0.00000000000E+00 -0.21032619139E+03  0.25164226675E+04  0.25076175815E+04 0.  0.
        5    1    3    3  502    0  0.60107665346E+03  0.10963025367E+04 -0.19952517412E+03  0.12660982507E+04  0.46999998093E+01 0. -1.
       -5    1    3    3    0  502 -0.60107665346E+03 -0.10963025367E+04 -0.10801017262E+02  0.12503244168E+04  0.46999998093E+01 0.  1.
</event>
<event>
 5   0  0.1421242E-05  0.2529149E+04  0.7818609E-02  0.8392674E-01
        1   -1    0    0  501    0  0.00000000000E+00  0.00000000000E+00  0.12150175723E+04  0.12150175723E+04  0.50400001928E-02 0. -1.
       -1   -1    0    0    0  501  0.00000000000E+00  0.00000000000E+00 -0.13161524827E+04  0.13161524827E+04  0.50400001928E-02 0.  1.
    10030    2    1    2    0    0  0.00000000000E+00  0.00000000000E+00 -0.10113491048E+03  0.25311700550E+04  0.25291487851E+04 0.  0.
        3    1    3    3  502    0 -0.55075806333E+03 -0.10284731398E+04  0.43773326973E+03  0.12460745841E+04  0.10100000352E+00 0. -1.
       -3    1    3    3    0  502  0.55075806333E+03  0.10284731398E+04 -0.53886818020E+03  0.12850954709E+04  0.10100000352E+00 0.  1.
</event>
<event>
 5   0  0.1492639E-05  0.2604136E+04  0.7818609E-02  0.8366798E-01
        1   -1    0    0  501    0  0.00000000000E+00  0.00000000000E+00  0.10506437627E+04  0.10506437627E+04  0.50400001928E-02 0. -1.
       -1   -1    0    0    0  501  0.00000000000E+00  0.00000000000E+00 -0.16136592425E+04  0.16136592425E+04  0.50400001928E-02 0.  1.
    10030    2    1    2    0    0  0.00000000000E+00  0.00000000000E+00 -0.56301547976E+03  0.26643030052E+04  0.26041359552E+04 0.  0.
        5    1    3    3  502    0  0.71616752895E+03 -0.35198212378E+03  0.77113276288E+03  0.11097094994E+04  0.46999998093E+01 0. -1.
       -5    1    3    3    0  502 -0.71616752895E+03  0.35198212378E+03 -0.13341482426E+04  0.15545935058E+04  0.46999998093E+01 0.  1.
</event>
<event>
 5   0  0.3579097E-05  0.2504026E+04  0.7818609E-02  0.8401553E-01
       -2   -1    0    0    0  501  0.00000000000E+00  0.00000000000E+00  0.23866717069E+04  0.23866717069E+04  0.25500000920E-02 0. -1.
        2   -1    0    0  501    0  0.00000000000E+00  0.00000000000E+00 -0.65678757590E+03  0.65678757590E+03  0.25500000920E-02 0.  1.
    10030    2    1    2    0    0  0.00000000000E+00  0.00000000000E+00  0.17298841310E+04  0.30434592828E+04  0.25040258184E+04 0.  0.
        5    1    3    3  502    0  0.82564278916E+02  0.53489986079E+03  0.22371254628E+04  0.23016705123E+04  0.46999998093E+01 0. -1.
       -5    1    3    3    0  502 -0.82564278916E+02 -0.53489986079E+03 -0.50724133181E+03  0.74178877042E+03  0.46999998093E+01 0.  1.
</event>
<event>
 5   0  0.1421242E-05  0.2496678E+04  0.7818609E-02  0.8404170E-01
       -1   -1    0    0    0  501  0.00000000000E+00  0.00000000000E+00  0.88850465874E+03  0.88850465876E+03  0.50400001928E-02 0. -1.
        1   -1    0    0  501    0  0.00000000000E+00  0.00000000000E+00 -0.17539021289E+04  0.17539021289E+04  0.50400001928E-02 0.  1.
    10030    2    1    2    0    0  0.00000000000E+00  0.00000000000E+00 -0.86539747011E+03  0.26424067876E+04  0.24966779628E+04 0.  0.
        3    1    3    3  502    0  0.56311736554E+03 -0.10810262593E+04 -0.71793119180E+03  0.14146180216E+04  0.10100000352E+00 0.  1.
       -3    1    3    3    0  502 -0.56311736554E+03  0.10810262593E+04 -0.14746627831E+03  0.12277887660E+04  0.10100000352E+00 0. -1.
</event>
<event>
 5   0  0.1429483E-05  0.2507673E+04  0.7818609E-02  0.8400257E-01
       -1   -1    0    0    0  501  0.00000000000E+00  0.00000000000E+00  0.93473447775E+03  0.93473447777E+03  0.50400001928E-02 0. -1.
        1   -1    0    0  501    0  0.00000000000E+00  0.00000000000E+00 -0.16818748248E+04  0.16818748248E+04  0.50400001928E-02 0.  1.
    10030    2    1    2    0    0  0.00000000000E+00  0.00000000000E+00 -0.74714034701E+03  0.26166093025E+04  0.25076733328E+04 0.  0.
        2    1    3    3  502    0  0.60919585300E+03 -0.79846851881E+03 -0.11568009817E+04  0.15319464985E+04  0.25500000920E-02 0.  1.
       -2    1    3    3    0  502 -0.60919585300E+03  0.79846851881E+03  0.40966063473E+03  0.10846628041E+04  0.25500000920E-02 0. -1.
</event>
<event>
 5   0  0.3704241E-05  0.2513950E+04  0.7818609E-02  0.8398032E-01
        2   -1    0    0  501    0  0.00000000000E+00  0.00000000000E+00  0.92435929520E+03  0.92435929520E+03  0.25500000920E-02 0.  1.
       -2   -1    0    0    0  501  0.00000000000E+00  0.00000000000E+00 -0.17092776128E+04  0.17092776128E+04  0.25500000920E-02 0. -1.
    10030    2    1    2    0    0  0.00000000000E+00  0.00000000000E+00 -0.78491831758E+03  0.26336369080E+04  0.25139503969E+04 0.  0.
        2    1    3    3  502    0  0.91101411423E+03 -0.82707239672E+03 -0.12334152553E+03  0.12366117409E+04  0.25500000920E-02 0.  1.
       -2    1    3    3    0  502 -0.91101411423E+03  0.82707239672E+03 -0.66157679205E+03  0.13970251671E+04  0.25500000920E-02 0. -1.
</event>
<event>
 5   0  0.3704241E-05  0.2516446E+04  0.7818609E-02  0.8397150E-01
        2   -1    0    0  501    0  0.00000000000E+00  0.00000000000E+00  0.16433260720E+04  0.16433260720E+04  0.25500000920E-02 0. -1.
       -2   -1    0    0    0  501  0.00000000000E+00  0.00000000000E+00 -0.96336645914E+03  0.96336645914E+03  0.25500000920E-02 0.  1.
    10030    2    1    2    0    0  0.00000000000E+00  0.00000000000E+00  0.67995961284E+03  0.26066925311E+04  0.25164460806E+04 0.  0.
        2    1    3    3  502    0 -0.58508167773E+03 -0.60521015996E+01  0.14938248111E+04  0.16043284463E+04  0.25500000920E-02 0. -1.
       -2    1    3    3    0  502  0.58508167773E+03  0.60521015996E+01 -0.81386519823E+03  0.10023640848E+04  0.25500000920E-02 0.  1.
</event>
<event>
 5   0  0.3578670E-05  0.2484955E+04  0.7818609E-02  0.8408365E-01
       -2   -1    0    0    0  501  0.00000000000E+00  0.00000000000E+00  0.10408678104E+04  0.10408678104E+04  0.25500000920E-02 0. -1.
        2   -1    0    0  501    0  0.00000000000E+00  0.00000000000E+00 -0.14831381800E+04  0.14831381800E+04  0.25500000920E-02 0.  1.
    10030    2    1    2    0    0  0.00000000000E+00  0.00000000000E+00 -0.44227036963E+03  0.25240059904E+04  0.24849553638E+04 0.  0.
        4    1    3    3  502    0 -0.28135533986E+03  0.38918997850E+03  0.94278692020E+03  0.10580540896E+04  0.12699999809E+01 0. -1.
       -4    1    3    3    0  502  0.28135533986E+03 -0.38918997850E+03 -0.13850572898E+04  0.14659519009E+04  0.12699999809E+01 0.  1.
</event>
<event>
 5   0  0.3581449E-05  0.2472969E+04  0.7818609E-02  0.8412679E-01
       -2   -1    0    0    0  501  0.00000000000E+00  0.00000000000E+00  0.30195909767E+04  0.30195909767E+04  0.25500000920E-02 0.  1.
        2   -1    0    0  501    0  0.00000000000E+00  0.00000000000E+00 -0.50632469014E+03  0.50632469015E+03  0.25500000920E-02 0. -1.
    10030    2    1    2    0    0  0.00000000000E+00  0.00000000000E+00  0.25132662866E+04  0.35259156669E+04  0.24729686336E+04 0.  0.
        1    1    3    3  502    0  0.18772656551E+03 -0.78410805942E+03  0.25932438859E+04  0.27156915444E+04  0.50400001928E-02 0.  1.
       -1    1    3    3    0  502 -0.18772656551E+03  0.78410805942E+03 -0.79977599355E+02  0.81022412249E+03  0.50400001928E-02 0. -1.
</event>
<event>
 5   0  0.1429483E-05  0.2526856E+04  0.7818609E-02  0.8393480E-01
        1   -1    0    0  501    0  0.00000000000E+00  0.00000000000E+00  0.79680541719E+03  0.79680541720E+03  0.50400001928E-02 0. -1.
       -1   -1    0    0    0  501  0.00000000000E+00  0.00000000000E+00 -0.20033118496E+04  0.20033118496E+04  0.50400001928E-02 0.  1.
    10030    2    1    2    0    0  0.00000000000E+00  0.00000000000E+00 -0.12065064324E+04  0.28001172668E+04  0.25268555433E+04 0.  0.
        2    1    3    3  502    0 -0.10296855871E+04 -0.63096431018E+03 -0.10147330846E+04  0.15773558895E+04  0.25500000920E-02 0.  1.
       -2    1    3    3    0  502  0.10296855871E+04  0.63096431018E+03 -0.19177334783E+03  0.12227613774E+04  0.25500000920E-02 0. -1.
</event>
<event>
 5   0  0.3578670E-05  0.2464370E+04  0.7818609E-02  0.8415790E-01
       -2   -1    0    0    0  501  0.00000000000E+00  0.00000000000E+00  0.10004646565E+04  0.10004646565E+04  0.25500000920E-02 0.  1.
        2   -1    0    0  501    0  0.00000000000E+00  0.00000000000E+00 -0.15175749559E+04  0.15175749559E+04  0.25500000920E-02 0. -1.
    10030    2    1    2    0    0  0.00000000000E+00  0.00000000000E+00 -0.51711029946E+03  0.25180396124E+04  0.24643701888E+04 0.  0.
        4    1    3    3  502    0 -0.52928780638E+03  0.37823633090E+03 -0.13278010401E+04  0.14786025561E+04  0.12699999809E+01 0. -1.
       -4    1    3    3    0  502  0.52928780638E+03 -0.37823633090E+03  0.81069074065E+03  0.10394370562E+04  0.12699999809E+01 0.  1.
</event>
<event>
 5   0  0.3650620E-05  0.2465406E+04  0.7818609E-02  0.8415415E-01
        2   -1    0    0  501    0  0.00000000000E+00  0.00000000000E+00  0.78360693538E+03  0.78360693538E+03  0.25500000920E-02 0.  1.
       -2   -1    0    0    0  501  0.00000000000E+00  0.00000000000E+00 -0.19391820964E+04  0.19391820964E+04  0.25500000920E-02 0. -1.
    10030    2    1    2    0    0  0.00000000000E+00  0.00000000000E+00 -0.11555751610E+04  0.27227890318E+04  0.24654058812E+04 0.  0.
        3    1    3    3  502    0  0.55305128876E+03 -0.19043165793E+03 -0.17761618720E+04  0.18699949064E+04  0.10100000352E+00 0. -1.
       -3    1    3    3    0  502 -0.55305128876E+03  0.19043165793E+03  0.62058671092E+03  0.85279412540E+03  0.10100000352E+00 0.  1.
</event>
<event>
 5   0  0.1421242E-05  0.2498677E+04  0.7818609E-02  0.8403457E-01
       -1   -1    0    0    0  501  0.00000000000E+00  0.00000000000E+00  0.15701083873E+04  0.15701083873E+04  0.50400001928E-02 0. -1.
        1   -1    0    0  501    0  0.00000000000E+00  0.00000000000E+00 -0.99410152312E+03  0.99410152313E+03  0.50400001928E-02 0.  1.
    10030    2    1    2    0    0  0.00000000000E+00  0.00000000000E+00  0.57600686415E+03  0.25642099104E+04  0.24986773616E+04 0.  0.
        3    1    3    3  502    0 -0.79820161383E+03  0.23808407274E+03 -0.66756606855E+03  0.10674522510E+04  0.10100000352E+00 0.  1.
       -3    1    3    3    0  502  0.79820161383E+03 -0.23808407274E+03  0.12435729327E+04  0.14967576595E+04  0.10100000352E+00 0. -1.
</event>
<event>
 5   0  0.3579097E-05  0.2583740E+04  0.7818609E-02  0.8373745E-01
       -2   -1    0    0    0  501  0.00000000000E+00  0.00000000000E+00  0.94433211528E+03  0.94433211528E+03  0.25500000920E-02 0. -1.
        2   -1    0    0  501    0  0.00000000000E+00  0.00000000000E+00 -0.17673104314E+04  0.17673104314E+04  0.25500000920E-02 0.  1.
    10030    2    1    2    0    0  0.00000000000E+00  0.00000000000E+00 -0.82297831608E+03  0.27116425466E+04  0.25837399235E+04 0.  0.
        5    1    3    3  502    0  0.80397564313E+03  0.10060567459E+04 -0.51840923200E+03  0.13882713109E+04  0.46999998093E+01 0.  1.
       -5    1    3    3    0  502 -0.80397564313E+03 -0.10060567459E+04 -0.30456908408E+03  0.13233712358E+04  0.46999998093E+01 0. -1.
</event>
<event>
 5   0  0.1502886E-05  0.2504610E+04  0.7818609E-02  0.8401345E-01
        1   -1    0    0  501    0  0.00000000000E+00  0.00000000000E+00  0.13654031729E+04  0.13654031729E+04  0.50400001928E-02 0. -1.
       -1   -1    0    0    0  501  0.00000000000E+00  0.00000000000E+00 -0.11485747783E+04  0.11485747784E+04  0.50400001928E-02 0.  1.
    10030    2    1    2    0    0  0.00000000000E+00  0.00000000000E+00  0.21682839455E+03  0.25139779513E+04  0.25046098672E+04 0.  0.
        4    1    3    3  502    0  0.43644601190E+03 -0.21835544584E+03  0.12660283286E+04  0.13568321797E+04  0.12699999809E+01 0. -1.
       -4    1    3    3    0  502 -0.43644601190E+03  0.21835544584E+03 -0.10491999341E+04  0.11571457716E+04  0.12699999809E+01 0.  1.
</event>
<event>
 5   0  0.3581449E-05  0.2464260E+04  0.7818609E-02  0.8415830E-01
       -2   -1    0    0    0  501  0.00000000000E+00  0.00000000000E+00  0.12900742635E+04  0.12900742635E+04  0.25500000920E-02 0. -1.
        2   -1    0    0  501    0  0.00000000000E+00  0.00000000000E+00 -0.11767886487E+04  0.11767886487E+04  0.25500000920E-02 0.  1.
    10030    2    1    2    0    0  0.00000000000E+00  0.00000000000E+00  0.11328561477E+03  0.24668629121E+04  0.24642603346E+04 0.  0.
        1    1    3    3  502    0  0.11849399897E+04  0.12081445653E+03  0.37235794107E+03  0.12479300254E+04  0.50400001928E-02 0.  1.
       -1    1    3    3    0  502 -0.11849399897E+04 -0.12081445653E+03 -0.25907232630E+03  0.12189328867E+04  0.50400001928E-02 0. -1.
</event>
<event>
 5   0  0.3704241E-05  0.2503733E+04  0.7818609E-02  0.8401657E-01
       -2   -1    0    0    0  501  0.00000000000E+00  0.00000000000E+00  0.11428317066E+04  0.11428317066E+04  0.25500000920E-02 0.  1.
        2   -1    0    0  501    0  0.00000000000E+00  0.00000000000E+00 -0.13713036662E+04  0.13713036662E+04  0.25500000920E-02 0. -1.
    10030    2    1    2    0    0  0.00000000000E+00  0.00000000000E+00 -0.22847195954E+03  0.25141353728E+04  0.25037326607E+04 0.  0.
        2    1    3    3  502    0  0.71750307813E+03 -0.97775191197E+03  0.19747258841E+03  0.12287411817E+04  0.25500000920E-02 0. -1.
       -2    1    3    3    0  502 -0.71750307813E+03  0.97775191197E+03 -0.42594454795E+03  0.12853941911E+04  0.25500000920E-02 0.  1.
</event>
<event>
 5   0  0.1492639E-05  0.2485782E+04  0.7818609E-02  0.8408068E-01
       -1   -1    0    0    0  501  0.00000000000E+00  0.00000000000E+00  0.76502551042E+03  0.76502551044E+03  0.50400001928E-02 0.  1.
        1   -1    0    0  501    0  0.00000000000E+00  0.00000000000E+00 -0.20192510554E+04  0.20192510554E+04  0.50400001928E-02 0. -1.
    10030    2    1    2    0    0  0.00000000000E+00  0.00000000000E+00 -0.12542255450E+04  0.27842765658E+04  0.24857824276E+04 0.  0.
        5    1    3    3  502    0  0.12964313773E+03  0.10604252806E+04  0.84334465604E+02  0.10716545670E+04  0.46999998093E+01 0.  1.
       -5    1    3    3    0  502 -0.12964313773E+03 -0.10604252806E+04 -0.13385600106E+04  0.17126219988E+04  0.46999998093E+01 0. -1.
</event>
<event>
 5   0  0.3578670E-05  0.2565690E+04  0.7818609E-02  0.8379950E-01
        2   -1    0    0  501    0  0.00000000000E+00  0.00000000000E+00  0.12150996277E+04  0.12150996277E+04  0.25500000920E-02 0.  1.
       -2   -1    0    0    0  501  0.00000000000E+00  0.00000000000E+00 -0.13543676206E+04  0.13543676206E+04  0.25500000920E-02 0. -1.
    10030    2    1    2    0    0  0.00000000000E+00  0.00000000000E+00 -0.13926799286E+03  0.25694672483E+04  0.25656902320E+04 0.  0.
        4    1    3    3  502    0 -0.51614167944E+03 -0.37966734160E+03 -0.11826388005E+04  0.13450597269E+04  0.12699999809E+01 0. -1.
       -4    1    3    3    0  502  0.51614167944E+03  0.37966734160E+03  0.10433708076E+04  0.12244075215E+04  0.12699999809E+01 0.  1.
</event>
<event>
 5   0  0.3579097E-05  0.2486147E+04  0.7818609E-02  0.8407937E-01
       -2   -1    0    0    0  501  0.00000000000E+00  0.00000000000E+00  0.15484991776E+04  0.15484991776E+04  0.25500000920E-02 0. -1.
        2   -1    0    0  501    0  0.00000000000E+00  0.00000000000E+00 -0.99788984049E+03  0.99788984049E+03  0.25500000920E-02 0.  1.
    10030    2    1    2    0    0  0.00000000000E+00  0.00000000000E+00  0.55060933715E+03  0.25463890181E+04  0.24861468962E+04 0.  0.
        5    1    3    3  502    0 -0.10603475901E+04 -0.61525481365E+03  0.64566757590E+02  0.12276263494E+04  0.46999998093E+01 0. -1.
       -5    1    3    3    0  502  0.10603475901E+04  0.61525481365E+03  0.48604257956E+03  0.13187626688E+04  0.46999998093E+01 0.  1.
</event>
<event>
 5   0  0.1502886E-05  0.2365395E+04  0.7818609E-02  0.8452574E-01
       -1   -1    0    0    0  501  0.00000000000E+00  0.00000000000E+00  0.88334745759E+03  0.88334745760E+03  0.50400001928E-02 0.  1.
        1   -1    0    0  501    0  0.00000000000E+00  0.00000000000E+00 -0.15834913860E+04  0.15834913860E+04  0.50400001928E-02 0. -1.
    10030    2    1    2    0    0  0.00000000000E+00  0.00000000000E+00 -0.70014392839E+03  0.24668388436E+04  0.23653947577E+04 0.  0.
        4    1    3    3  502    0 -0.10820046103E+04 -0.36932270828E+03 -0.66577264059E+03  0.13230223208E+04  0.12699999809E+01 0. -1.
       -4    1    3    3    0  502  0.10820046103E+04  0.36932270828E+03 -0.34371287797E+02  0.11438165228E+04  0.12699999809E+01 0.  1.
</event>
<event>
 5   0  0.3650620E-05  0.2504305E+04  0.7818609E-02  0.8401453E-01
        2   -1    0    0  501    0  0.00000000000E+00  0.00000000000E+00  0.27800032480E+04  0.27800032480E+04  0.25500000920E-02 0. -1.
       -2   -1    0    0    0  501  0.00000000000E+00  0.00000000000E+00 -0.56398721852E+03  0.56398721853E+03  0.25500000920E-02 0.  1.
    10030    2    1    2    0    0  0.00000000000E+00  0.00000000000E+00  0.22160160295E+04  0.33439904666E+04  0.25043053323E+04 0.  0.
        3    1    3    3  502    0 -0.80684593978E+03 -0.44666067498E+03  0.22389815256E+04  0.24214756681E+04  0.10100000352E+00 0.  1.
       -3    1    3    3    0  502  0.80684593978E+03  0.44666067498E+03 -0.22965496104E+02  0.92251479843E+03  0.10100000352E+00 0. -1.
</event>
<event>
 5   0  0.1201438E-05  0.2391390E+04  0.7818609E-02  0.8442734E-01
       -3   -1    0    0    0  501  0.00000000000E+00  0.00000000000E+00  0.31084152589E+04  0.31084152606E+04  0.10100000352E+00 0. -1.
        3   -1    0    0  501    0  0.00000000000E+00  0.00000000000E+00 -0.45994078663E+03  0.45994079772E+03  0.10100000352E+00 0.  1.
    10030    2    1    2    0    0  0.00000000000E+00  0.00000000000E+00  0.26484744723E+04  0.35683560583E+04  0.23913903756E+04 0.  0.
        1    1    3    3  502    0 -0.51672956777E+03  0.76855120685E+03  0.24527805117E+04  0.26217956904E+04  0.50400001928E-02 0. -1.
       -1    1    3    3    0  502  0.51672956777E+03 -0.76855120685E+03  0.19569396059E+03  0.94656036785E+03  0.50400001928E-02 0.  1.
</event>
<event>
 5   0  0.1421242E-05  0.2269437E+04  0.7818609E-02  0.8490070E-01
       -1   -1    0    0    0  501  0.00000000000E+00  0.00000000000E+00  0.90010096083E+03  0.90010096085E+03  0.50400001928E-02 0.  1.
        1   -1    0    0  501    0  0.00000000000E+00  0.00000000000E+00 -0.14304909617E+04  0.14304909617E+04  0.50400001928E-02 0. -1.
    10030    2    1    2    0    0  0.00000000000E+00  0.00000000000E+00 -0.53039000084E+03  0.23305919225E+04  0.22694371893E+04 0.  0.
        3    1    3    3  502    0  0.10725342770E+03  0.47213858773E+03  0.78869898210E+03  0.92545353116E+03  0.10100000352E+00 0.  1.
       -3    1    3    3    0  502 -0.10725342770E+03 -0.47213858773E+03 -0.13190889829E+04  0.14051383914E+04  0.10100000352E+00 0. -1.
</event>
<event>
 5   0  0.1421242E-05  0.2018440E+04  0.7818609E-02  0.8598048E-01
       -1   -1    0    0    0  501  0.00000000000E+00  0.00000000000E+00  0.74099304005E+03  0.74099304007E+03  0.50400001928E-02 0. -1.
        1   -1    0    0  501    0  0.00000000000E+00  0.00000000000E+00 -0.13745406389E+04  0.13745406389E+04  0.50400001928E-02 0.  1.
    10030    2    1    2    0    0  0.00000000000E+00  0.00000000000E+00 -0.63354759887E+03  0.21155336790E+04  0.20184400380E+04 0.  0.
        3    1    3    3  502    0  0.96542091506E+03  0.25408370682E+03 -0.47198145577E+03  0.11042475167E+04  0.10100000352E+00 0.  1.
       -3    1    3    3    0  502 -0.96542091506E+03 -0.25408370682E+03 -0.16156614310E+03  0.10112861623E+04  0.10100000352E+00 0. -1.
</event>
<event>
 5   0  0.1456876E-05  0.2522748E+04  0.7818609E-02  0.8394926E-01
       -1   -1    0    0    0  501  0.00000000000E+00  0.00000000000E+00  0.13206598356E+04  0.13206598356E+04  0.50400001928E-02 0. -1.
        1   -1    0    0  501    0  0.00000000000E+00  0.00000000000E+00 -0.12047490944E+04  0.12047490944E+04  0.50400001928E-02 0.  1.
    10030    2    1    2    0    0  0.00000000000E+00  0.00000000000E+00  0.11591074114E+03  0.25254089300E+04  0.25227475030E+04 0.  0.
        1    1    3    3  502    0  0.48570632379E+03  0.10514165508E+04  0.55815875474E+03  0.12856627053E+04  0.50400001928E-02 0. -1.
       -1    1    3    3    0  502 -0.48570632379E+03 -0.10514165508E+04 -0.44224801361E+03  0.12397462247E+04  0.50400001928E-02 0.  1.
</event>
<event>
 5   0  0.3650620E-05  0.2524630E+04  0.7818609E-02  0.8394263E-01
        2   -1    0    0  501    0  0.00000000000E+00  0.00000000000E+00  0.23409993781E+04  0.23409993781E+04  0.25500000920E-02 0.  1.
       -2   -1    0    0    0  501  0.00000000000E+00  0.00000000000E+00 -0.68066646128E+03  0.68066646129E+03  0.25500000920E-02 0. -1.
    10030    2    1    2    0    0  0.00000000000E+00  0.00000000000E+00  0.16603329168E+04  0.30216658394E+04  0.25246304780E+04 0.  0.
        3    1    3    3  502    0 -0.97181391382E+03 -0.58453017290E+03  0.16663803321E+03  0.11462399620E+04  0.10100000352E+00 0. -1.
       -3    1    3    3    0  502  0.97181391382E+03  0.58453017290E+03  0.14936948836E+04  0.18754258774E+04  0.10100000352E+00 0.  1.
</event>
<event>
 5   0  0.3650620E-05  0.2538073E+04  0.7818609E-02  0.8389546E-01
        2   -1    0    0  501    0  0.00000000000E+00  0.00000000000E+00  0.16456718129E+04  0.16456718129E+04  0.25500000920E-02 0.  1.
       -2   -1    0    0    0  501  0.00000000000E+00  0.00000000000E+00 -0.97859980014E+03  0.97859980015E+03  0.25500000920E-02 0. -1.
    10030    2    1    2    0    0  0.00000000000E+00  0.00000000000E+00  0.66707201274E+03  0.26242716130E+04  0.25380733695E+04 0.  0.
        3    1    3    3  502    0  0.95082607214E+03  0.24233405540E+03  0.11656398065E+04  0.15236509386E+04  0.10100000352E+00 0.  1.
       -3    1    3    3    0  502 -0.95082607214E+03 -0.24233405540E+03 -0.49856779377E+03  0.11006206745E+04  0.10100000352E+00 0. -1.
</event>
<event>
 5   0  0.3579097E-05  0.2507987E+04  0.7818609E-02  0.8400146E-01
        2   -1    0    0  501    0  0.00000000000E+00  0.00000000000E+00  0.14566649813E+04  0.14566649813E+04  0.25500000920E-02 0. -1.
       -2   -1    0    0    0  501  0.00000000000E+00  0.00000000000E+00 -0.10795203957E+04  0.10795203957E+04  0.25500000920E-02 0.  1.
    10030    2    1    2    0    0  0.00000000000E+00  0.00000000000E+00  0.37714458553E+03  0.25361853770E+04  0.25079868875E+04 0.  0.
        5    1    3    3  502    0 -0.81012853005E+01 -0.12413335194E+04  0.36805855157E+03  0.12947832732E+04  0.46999998093E+01 0. -1.
       -5    1    3    3    0  502  0.81012853005E+01  0.12413335194E+04  0.90860339592E+01  0.12414021038E+04  0.46999998093E+01 0.  1.
</event>
<event>
 5   0  0.1502886E-05  0.2449054E+04  0.7818609E-02  0.8421364E-01
        1   -1    0    0  501    0  0.00000000000E+00  0.00000000000E+00  0.11637333243E+04  0.11637333243E+04  0.50400001928E-02 0. -1.
       -1   -1    0    0    0  501  0.00000000000E+00  0.00000000000E+00 -0.12884961511E+04  0.12884961511E+04  0.50400001928E-02 0.  1.
    10030    2    1    2    0    0  0.00000000000E+00  0.00000000000E+00 -0.12476282676E+03  0.24522294755E+04  0.24490536208E+04 0.  0.
        4    1    3    3  502    0  0.54451579054E+03 -0.97186823123E+03  0.44664677534E+03  0.12002167554E+04  0.12699999809E+01 0. -1.
       -4    1    3    3    0  502 -0.54451579054E+03  0.97186823123E+03 -0.57140960210E+03  0.12520127201E+04  0.12699999809E+01 0.  1.
</event>
<event>
 5   0  0.1456876E-05  0.2492492E+04  0.7818609E-02  0.8405665E-01
       -1   -1    0    0    0  501  0.00000000000E+00  0.00000000000E+00  0.90889134313E+03  0.90889134314E+03  0.50400001928E-02 0. -1.
        1   -1    0    0  501    0  0.00000000000E+00  0.00000000000E+00 -0.17088175205E+04  0.17088175205E+04  0.50400001928E-02 0.  1.
    10030    2    1    2    0    0  0.00000000000E+00  0.00000000000E+00 -0.79992617734E+03  0.26177088636E+04  0.24924922879E+04 0.  0.
        1    1    3    3  502    0  0.73230979600E+03  0.41218590958E+02 -0.14581277110E+04  0.16322110866E+04  0.50400001928E-02 0.  1.
       -1    1    3    3    0  502 -0.73230979600E+03 -0.41218590958E+02  0.65820153367E+03  0.98549777702E+03  0.50400001928E-02 0. -1.
</event>
<event>
 5   0  0.3704241E-05  0.2603906E+04  0.7818609E-02  0.8366876E-01
       -2   -1    0    0    0  501  0.00000000000E+00  0.00000000000E+00  0.24462199059E+04  0.24462199059E+04  0.25500000920E-02 0. -1.
        2   -1    0    0  501    0  0.00000000000E+00  0.00000000000E+00 -0.69293892226E+03  0.69293892227E+03  0.25500000920E-02 0.  1.
    10030    2    1    2    0    0  0.00000000000E+00  0.00000000000E+00  0.17532809837E+04  0.31391588282E+04  0.26039055169E+04 0.  0.
        2    1    3    3  502    0  0.27156788989E+03 -0.36840979041E+03  0.23460400466E+04  0.23902675149E+04  0.25500000920E-02 0. -1.
       -2    1    3    3    0  502 -0.27156788989E+03  0.36840979041E+03 -0.59275906292E+03  0.74889131332E+03  0.25500000920E-02 0.  1.
</event>
<event>
 5   0  0.3650620E-05  0.2559716E+04  0.7818609E-02  0.8382015E-01
        2   -1    0    0  501    0  0.00000000000E+00  0.00000000000E+00  0.99036489813E+03  0.99036489813E+03  0.25500000920E-02 0. -1.
       -2   -1    0    0    0  501  0.00000000000E+00  0.00000000000E+00 -0.16539729987E+04  0.16539729987E+04  0.25500000920E-02 0.  1.
    10030    2    1    2    0    0  0.00000000000E+00  0.00000000000E+00 -0.66360810058E+03  0.26443378968E+04  0.25597162346E+04 0.  0.
        3    1    3    3  502    0 -0.28714563163E+03  0.97511291168E+03  0.47155392562E+03  0.11205627690E+04  0.10100000352E+00 0. -1.
       -3    1    3    3    0  502  0.28714563163E+03 -0.97511291168E+03 -0.11351620262E+04  0.15237751278E+04  0.10100000352E+00 0.  1.
</event>
<event>
 5   0  0.1456876E-05  0.2517204E+04  0.7818609E-02  0.8396882E-01
        1   -1    0    0  501    0  0.00000000000E+00  0.00000000000E+00  0.91707739968E+03  0.91707739969E+03  0.50400001928E-02 0. -1.
       -1   -1    0    0    0  501  0.00000000000E+00  0.00000000000E+00 -0.17273125499E+04  0.17273125499E+04  0.50400001928E-02 0.  1.
    10030    2    1    2    0    0  0.00000000000E+00  0.00000000000E+00 -0.81023515025E+03  0.26443899496E+04  0.25172042442E+04 0.  0.
        1    1    3    3  502    0 -0.86152773563E+02  0.78582765305E+03 -0.14339537133E+04  0.16374280603E+04  0.50400001928E-02 0.  1.
       -1    1    3    3    0  502  0.86152773563E+02 -0.78582765305E+03  0.62371856304E+03  0.10069618894E+04  0.50400001928E-02 0. -1.
</event>
<event>
 5   0  0.3579097E-05  0.2537923E+04  0.7818609E-02  0.8389599E-01
        2   -1    0    0  501    0  0.00000000000E+00  0.00000000000E+00  0.64360388609E+03  0.64360388610E+03  0.25500000920E-02 0. -1.
       -2   -1    0    0    0  501  0.00000000000E+00  0.00000000000E+00 -0.25019467938E+04  0.25019467938E+04  0.25500000920E-02 0.  1.
    10030    2    1    2    0    0  0.00000000000E+00  0.00000000000E+00 -0.18583429077E+04  0.31455506799E+04  0.25379225200E+04 0.  0.
        5    1    3    3  502    0  0.41586272828E+03 -0.10303074389E+04 -0.16889319342E+04  0.20216301332E+04  0.46999998093E+01 0.  1.
       -5    1    3    3    0  502 -0.41586272828E+03  0.10303074389E+04 -0.16941097358E+03  0.11239205467E+04  0.46999998093E+01 0. -1.
</event>
<event>
 5   0  0.1456876E-05  0.2534268E+04  0.7818609E-02  0.8390878E-01
        1   -1    0    0  501    0  0.00000000000E+00  0.00000000000E+00  0.52630700593E+03  0.52630700595E+03  0.50400001928E-02 0. -1.
       -1   -1    0    0    0  501  0.00000000000E+00  0.00000000000E+00 -0.30507459473E+04  0.30507459473E+04  0.50400001928E-02 0.  1.
    10030    2    1    2    0    0  0.00000000000E+00  0.00000000000E+00 -0.25244389414E+04  0.35770529533E+04  0.25342683090E+04 0.  0.
        1    1    3    3  502    0 -0.20464970297E+03  0.10990343942E+04 -0.42020608913E+03  0.11942911110E+04  0.50400001928E-02 0.  1.
       -1    1    3    3    0  502  0.20464970297E+03 -0.10990343942E+04 -0.21042328523E+04  0.23827618423E+04  0.50400001928E-02 0. -1.
</event>
<event>
 5   0  0.1492639E-05  0.2484006E+04  0.7818609E-02  0.8408706E-01
        1   -1    0    0  501    0  0.00000000000E+00  0.00000000000E+00  0.23699994101E+04  0.23699994101E+04  0.50400001928E-02 0.  1.
       -1   -1    0    0    0  501  0.00000000000E+00  0.00000000000E+00 -0.65087411925E+03  0.65087411927E+03  0.50400001928E-02 0. -1.
    10030    2    1    2    0    0  0.00000000000E+00  0.00000000000E+00  0.17191252909E+04  0.30208735294E+04  0.24840058605E+04 0.  0.
        5    1    3    3  502    0  0.64869230255E+03  0.59263139189E+03 -0.20795794118E+03  0.90292982304E+03  0.46999998093E+01 0. -1.
       -5    1    3    3    0  502 -0.64869230255E+03 -0.59263139189E+03  0.19270832320E+04  0.21179437064E+04  0.46999998093E+01 0.  1.
</event>
<event>
 5   0  0.3704241E-05  0.2515280E+04  0.7818609E-02  0.8397562E-01
        2   -1    0    0  501    0  0.00000000000E+00  0.00000000000E+00  0.11768507876E+04  0.11768507876E+04  0.25500000920E-02 0.  1.
       -2   -1    0    0    0  501  0.00000000000E+00  0.00000000000E+00 -0.13439757781E+04  0.13439757781E+04  0.25500000920E-02 0. -1.
    10030    2    1    2    0    0  0.00000000000E+00  0.00000000000E+00 -0.16712499051E+03  0.25208265658E+04  0.25152804639E+04 0.  0.
        2    1    3    3  502    0 -0.56950595058E+03  0.91398914311E+03  0.56744332126E+03  0.12172530979E+04  0.25500000920E-02 0.  1.
       -2    1    3    3    0  502  0.56950595058E+03 -0.91398914311E+03 -0.73456831177E+03  0.13035734679E+04  0.25500000920E-02 0. -1.
</event>
<event>
 5   0  0.1456876E-05  0.2513392E+04  0.7818609E-02  0.8398230E-01
        1   -1    0    0  501    0  0.00000000000E+00  0.00000000000E+00  0.84947388064E+03  0.84947388066E+03  0.50400001928E-02 0. -1.
       -1   -1    0    0    0  501  0.00000000000E+00  0.00000000000E+00 -0.18591334623E+04  0.18591334623E+04  0.50400001928E-02 0.  1.
    10030    2    1    2    0    0  0.00000000000E+00  0.00000000000E+00 -0.10096595816E+04  0.27086073429E+04  0.25133923823E+04 0.  0.
        1    1    3    3  502    0  0.82843547968E+03 -0.68555038882E+03 -0.12057301262E+04  0.16155710498E+04  0.50400001928E-02 0.  1.
       -1    1    3    3    0  502 -0.82843547968E+03  0.68555038882E+03  0.19607054461E+03  0.10930362931E+04  0.50400001928E-02 0. -1.
</event>
<event>
 5   0  0.1429483E-05  0.2491523E+04  0.7818609E-02  0.8406012E-01
        1   -1    0    0  501    0  0.00000000000E+00  0.00000000000E+00  0.18220801348E+04  0.18220801349E+04  0.50400001928E-02 0.  1.
       -1   -1    0    0    0  501  0.00000000000E+00  0.00000000000E+00 -0.85173078397E+03  0.85173078399E+03  0.50400001928E-02 0. -1.
    10030    2    1    2    0    0  0.00000000000E+00  0.00000000000E+00  0.97034935087E+03  0.26738109188E+04  0.24915230216E+04 0.  0.
        2    1    3    3  502    0  0.22685547787E+03 -0.24773023007E+03  0.17725627270E+04  0.18041098348E+04  0.25500000920E-02 0.  1.
       -2    1    3    3    0  502 -0.22685547787E+03  0.24773023007E+03 -0.80221337615E+03  0.86970108406E+03  0.25500000920E-02 0. -1.
</event>
<event>
 5   0  0.3579097E-05  0.2488731E+04  0.7818609E-02  0.8407011E-01
       -2   -1    0    0    0  501  0.00000000000E+00  0.00000000000E+00  0.79906071572E+03  0.79906071572E+03  0.25500000920E-02 0. -1.
        2   -1    0    0  501    0  0.00000000000E+00  0.00000000000E+00 -0.19378328646E+04  0.19378328646E+04  0.25500000920E-02 0.  1.
    10030    2    1    2    0    0  0.00000000000E+00  0.00000000000E+00 -0.11387721489E+04  0.27368935803E+04  0.24887314967E+04 0.  0.
        5    1    3    3  502    0 -0.92541767716E+03 -0.82320855645E+03 -0.43763212828E+03  0.13136263450E+04  0.46999998093E+01 0.  1.
       -5    1    3    3    0  502  0.92541767716E+03  0.82320855645E+03 -0.70114002059E+03  0.14232672353E+04  0.46999998093E+01 0. -1.
</event>
<event>
 5   0  0.3578670E-05  0.2509460E+04  0.7818609E-02  0.8399623E-01
        2   -1    0    0  501    0  0.00000000000E+00  0.00000000000E+00  0.72150651085E+03  0.72150651085E+03  0.25500000920E-02 0. -1.
       -2   -1    0    0    0  501  0.00000000000E+00  0.00000000000E+00 -0.21820278206E+04  0.21820278206E+04  0.25500000920E-02 0.  1.
    10030    2    1    2    0    0  0.00000000000E+00  0.00000000000E+00 -0.14605213097E+04  0.29035343314E+04  0.25094599255E+04 0.  0.
        4    1    3    3  502    0  0.62418968672E+03 -0.93160818553E+03 -0.78983147477E+02  0.11241648130E+04  0.12699999809E+01 0. -1.
       -4    1    3    3    0  502 -0.62418968672E+03  0.93160818553E+03 -0.13815381622E+04  0.17793695184E+04  0.12699999809E+01 0.  1.
</event>
<event>
 5   0  0.1429483E-05  0.2407860E+04  0.7818609E-02  0.8436567E-01
        1   -1    0    0  501    0  0.00000000000E+00  0.00000000000E+00  0.87847357554E+03  0.87847357556E+03  0.50400001928E-02 0. -1.
       -1   -1    0    0    0  501  0.00000000000E+00  0.00000000000E+00 -0.16499618581E+04  0.16499618581E+04  0.50400001928E-02 0.  1.
    10030    2    1    2    0    0  0.00000000000E+00  0.00000000000E+00 -0.77148828255E+03  0.25284354337E+04  0.24078603722E+04 0.  0.
        2    1    3    3  502    0 -0.75319543161E+03 -0.26446511051E+03 -0.13320963363E+04  0.15529732136E+04  0.25500000920E-02 0.  1.
       -2    1    3    3    0  502  0.75319543161E+03  0.26446511051E+03  0.56060805375E+03  0.97546222009E+03  0.25500000920E-02 0. -1.
</event>
<event>
 5   0  0.1421242E-05  0.2469690E+04  0.7818609E-02  0.8413864E-01
       -1   -1    0    0    0  501  0.00000000000E+00  0.00000000000E+00  0.82646431327E+03  0.82646431329E+03  0.50400001928E-02 0. -1.
        1   -1    0    0  501    0  0.00000000000E+00  0.00000000000E+00 -0.18450182540E+04  0.18450182540E+04  0.50400001928E-02 0.  1.
    10030    2    1    2    0    0  0.00000000000E+00  0.00000000000E+00 -0.10185539408E+04  0.26714825673E+04  0.24696896520E+04 0.  0.
        3    1    3    3  502    0  0.18933968668E+03  0.27357240085E+03 -0.17956228404E+04  0.18261853057E+04  0.10100000352E+00 0.  1.
       -3    1    3    3    0  502 -0.18933968668E+03 -0.27357240085E+03  0.77706889968E+03  0.84529726162E+03  0.10100000352E+00 0. -1.
</event>
<event>
 5   0  0.1429483E-05  0.2485065E+04  0.7818609E-02  0.8408326E-01
        1   -1    0    0  501    0  0.00000000000E+00  0.00000000000E+00  0.84110924928E+03  0.84110924930E+03  0.50400001928E-02 0. -1.
       -1   -1    0    0    0  501  0.00000000000E+00  0.00000000000E+00 -0.18355367884E+04  0.18355367884E+04  0.50400001928E-02 0.  1.
    10030    2    1    2    0    0  0.00000000000E+00  0.00000000000E+00 -0.99442753913E+03  0.26766460377E+04  0.24850649651E+04 0.  0.
        2    1    3    3  502    0  0.56316106888E+03  0.80004738672E+03 -0.13222000323E+04  0.16448219162E+04  0.25500000920E-02 0.  1.
       -2    1    3    3    0  502 -0.56316106888E+03 -0.80004738672E+03  0.32777249317E+03  0.10318241215E+04  0.25500000920E-02 0. -1.
</event>
<event>
 5   0  0.3650620E-05  0.2494746E+04  0.7818609E-02  0.8404860E-01
       -2   -1    0    0    0  501  0.00000000000E+00  0.00000000000E+00  0.14497645970E+04  0.14497645970E+04  0.25500000920E-02 0.  1.
        2   -1    0    0  501    0  0.00000000000E+00  0.00000000000E+00 -0.10732359403E+04  0.10732359403E+04  0.25500000920E-02 0. -1.
    10030    2    1    2    0    0  0.00000000000E+00  0.00000000000E+00  0.37652865669E+03  0.25230005373E+04  0.24947460556E+04 0.  0.
        3    1    3    3  502    0 -0.75614197233E+03 -0.61331592834E+02 -0.81311512716E+03  0.11120559639E+04  0.10100000352E+00 0. -1.
       -3    1    3    3    0  502  0.75614197233E+03  0.61331592834E+02  0.11896437838E+04  0.14109445734E+04  0.10100000352E+00 0.  1.
</event>
<event>
 5   0  0.1201438E-05  0.2494853E+04  0.7818609E-02  0.8404821E-01
       -3   -1    0    0    0  501  0.00000000000E+00  0.00000000000E+00  0.13736962427E+04  0.13736962464E+04  0.10100000352E+00 0. -1.
        3   -1    0    0  501    0  0.00000000000E+00  0.00000000000E+00 -0.11327638106E+04  0.11327638151E+04  0.10100000352E+00 0.  1.
    10030    2    1    2    0    0  0.00000000000E+00  0.00000000000E+00  0.24093243212E+03  0.25064600615E+04  0.24948534232E+04 0.  0.
        3    1    3    3  502    0 -0.81809802356E+03  0.69792904962E+03  0.75561309118E+03  0.13142832603E+04  0.10100000352E+00 0.  1.
       -3    1    3    3    0  502  0.81809802356E+03 -0.69792904962E+03 -0.51468065906E+03  0.11921768013E+04  0.10100000352E+00 0. -1.
</event>
<event>
 5   0  0.1502886E-05  0.2429105E+04  0.7818609E-02  0.8428687E-01
        1   -1    0    0  501    0  0.00000000000E+00  0.00000000000E+00  0.26659890468E+04  0.26659890468E+04  0.50400001928E-02 0. -1.
       -1   -1    0    0    0  501  0.00000000000E+00  0.00000000000E+00 -0.55331720042E+03  0.55331720044E+03  0.50400001928E-02 0.  1.
    10030    2    1    2    0    0  0.00000000000E+00  0.00000000000E+00  0.21126718463E+04  0.32193062472E+04  0.24291048522E+04 0.  0.
        4    1    3    3  502    0 -0.10175671866E+03  0.12979027136E+03 -0.53840713245E+03  0.56310194237E+03  0.12699999809E+01 0.  1.
       -4    1    3    3    0  502  0.10175671866E+03 -0.12979027136E+03  0.26510789788E+04  0.26562043048E+04  0.12699999809E+01 0. -1.
</event>
<event>
 5   0  0.1421242E-05  0.2392371E+04  0.7818609E-02  0.8442365E-01
        1   -1    0    0  501    0  0.00000000000E+00  0.00000000000E+00  0.26246493637E+04  0.26246493637E+04  0.50400001928E-02 0. -1.
       -1   -1    0    0    0  501  0.00000000000E+00  0.00000000000E+00 -0.54516243973E+03  0.54516243975E+03  0.50400001928E-02 0.  1.
    10030    2    1    2    0    0  0.00000000000E+00  0.00000000000E+00  0.20794869240E+04  0.31698118034E+04  0.23923714181E+04 0.  0.
        3    1    3    3  502    0 -0.11848520448E+04 -0.80276601313E+02  0.84984503395E+03  0.14603271184E+04  0.10100000352E+00 0. -1.
       -3    1    3    3    0  502  0.11848520448E+04  0.80276601313E+02  0.12296418900E+04  0.17094846851E+04  0.10100000352E+00 0.  1.
</event>
<event>
 5   0  0.3581449E-05  0.2430808E+04  0.7818609E-02  0.8428059E-01
        2   -1    0    0  501    0  0.00000000000E+00  0.00000000000E+00  0.25451968397E+04  0.25451968397E+04  0.25500000920E-02 0.  1.
       -2   -1    0    0    0  501  0.00000000000E+00  0.00000000000E+00 -0.58039017364E+03  0.58039017365E+03  0.25500000920E-02 0. -1.
    10030    2    1    2    0    0  0.00000000000E+00  0.00000000000E+00  0.19648066661E+04  0.31255870134E+04  0.24308082901E+04 0.  0.
        1    1    3    3  502    0 -0.51291057817E+03 -0.16110603540E+03  0.23839935490E+04  0.24438612190E+04  0.50400001928E-02 0.  1.
       -1    1    3    3    0  502  0.51291057817E+03  0.16110603540E+03 -0.41918688296E+03  0.68172579437E+03  0.50400001928E-02 0. -1.
</event>
<event>
 5   0  0.1456876E-05  0.2522524E+04  0.7818609E-02  0.8395005E-01
       -1   -1    0    0    0  501  0.00000000000E+00  0.00000000000E+00  0.95782733931E+03  0.95782733933E+03  0.50400001928E-02 0.  1.
        1   -1    0    0  501    0  0.00000000000E+00  0.00000000000E+00 -0.16608227966E+04  0.16608227966E+04  0.50400001928E-02 0. -1.
    10030    2    1    2    0    0  0.00000000000E+00  0.00000000000E+00 -0.70299545732E+03  0.26186501360E+04  0.25225237207E+04 0.  0.
        1    1    3    3  502    0 -0.77534499420E+03  0.96569126187E+03 -0.59947720658E+03  0.13758969418E+04  0.50400001928E-02 0. -1.
       -1    1    3    3    0  502  0.77534499420E+03 -0.96569126187E+03 -0.10351825073E+03  0.12427531941E+04  0.50400001928E-02 0.  1.
</event>
<event>
 5   0  0.3650620E-05  0.2541229E+04  0.7818609E-02  0.8388443E-01
       -2   -1    0    0    0  501  0.00000000000E+00  0.00000000000E+00  0.10109228508E+04  0.10109228508E+04  0.25500000920E-02 0. -1.
        2   -1    0    0  501    0  0.00000000000E+00  0.00000000000E+00 -0.15970166171E+04  0.15970166171E+04  0.25500000920E-02 0.  1.
    10030    2    1    2    0    0  0.00000000000E+00  0.00000000000E+00 -0.58609376633E+03  0.26079394679E+04  0.25412285150E+04 0.  0.
        3    1    3    3  502    0  0.96901370702E+03  0.53859891799E+02 -0.11346807834E+04  0.14931138412E+04  0.10100000352E+00 0.  1.
       -3    1    3    3    0  502 -0.96901370702E+03 -0.53859891799E+02  0.54858701711E+03  0.11148256267E+04  0.10100000352E+00 0. -1.
</event>
<event>
 5   0  0.3650620E-05  0.2402306E+04  0.7818609E-02  0.8438641E-01
        2   -1    0    0  501    0  0.00000000000E+00  0.00000000000E+00  0.81088129250E+03  0.81088129250E+03  0.25500000920E-02 0.  1.
       -2   -1    0    0    0  501  0.00000000000E+00  0.00000000000E+00 -0.17792602048E+04  0.17792602048E+04  0.25500000920E-02 0. -1.
    10030    2    1    2    0    0  0.00000000000E+00  0.00000000000E+00 -0.96837891232E+03  0.25901414973E+04  0.24023062374E+04 0.  0.
        3    1    3    3  502    0 -0.57251824350E+03 -0.30525460269E+03  0.60569502826E+03  0.88759449585E+03  0.10100000352E+00 0.  1.
       -3    1    3    3    0  502  0.57251824350E+03  0.30525460269E+03 -0.15740739406E+04  0.17025470015E+04  0.10100000352E+00 0. -1.
</event>
<event>
 5   0  0.3578670E-05  0.2364251E+04  0.7818609E-02  0.8453010E-01
        2   -1    0    0  501    0  0.00000000000E+00  0.00000000000E+00  0.17347748064E+04  0.17347748064E+04  0.25500000920E-02 0. -1.
       -2   -1    0    0    0  501  0.00000000000E+00  0.00000000000E+00 -0.80553412005E+03  0.80553412006E+03  0.25500000920E-02 0.  1.
    10030    2    1    2    0    0  0.00000000000E+00  0.00000000000E+00  0.92924068631E+03  0.25403089264E+04  0.23642506611E+04 0.  0.
        4    1    3    3  502    0  0.18541197309E+03  0.41711727435E+03 -0.70701874579E+03  0.84157087647E+03  0.12699999809E+01 0.  1.
       -4    1    3    3    0  502 -0.18541197309E+03 -0.41711727435E+03  0.16362594321E+04  0.16987380499E+04  0.12699999809E+01 0. -1.
</event>
<event>
 5   0  0.1492639E-05  0.2518405E+04  0.7818609E-02  0.8396458E-01
       -1   -1    0    0    0  501  0.00000000000E+00  0.00000000000E+00  0.93802886411E+03  0.93802886412E+03  0.50400001928E-02 0. -1.
        1   -1    0    0  501    0  0.00000000000E+00  0.00000000000E+00 -0.16903436222E+04  0.16903436222E+04  0.50400001928E-02 0.  1.
    10030    2    1    2    0    0  0.00000000000E+00  0.00000000000E+00 -0.75231475808E+03  0.26283724863E+04  0.25184051365E+04 0.  0.
        5    1    3    3  502    0 -0.51655544712E+03 -0.10995602988E+04 -0.72184017640E+03  0.14131304649E+04  0.46999998093E+01 0.  1.
       -5    1    3    3    0  502  0.51655544712E+03  0.10995602988E+04 -0.30474581687E+02  0.12152420214E+04  0.46999998093E+01 0. -1.
</event>
<event>
 5   0  0.3578670E-05  0.2471223E+04  0.7818609E-02  0.8413310E-01
       -2   -1    0    0    0  501  0.00000000000E+00  0.00000000000E+00  0.11703447821E+04  0.11703447821E+04  0.25500000920E-02 0. -1.
        2   -1    0    0  501    0  0.00000000000E+00  0.00000000000E+00 -0.13045179860E+04  0.13045179860E+04  0.25500000920E-02 0.  1.
    10030    2    1    2    0    0  0.00000000000E+00  0.00000000000E+00 -0.13417320386E+03  0.24748627681E+04  0.24712230316E+04 0.  0.
        4    1    3    3  502    0 -0.23725221017E+03 -0.91076499646E+03 -0.86886098269E+03  0.12808991022E+04  0.12699999809E+01 0.  1.
       -4    1    3    3    0  502  0.23725221017E+03  0.91076499646E+03  0.73468777883E+03  0.11939636658E+04  0.12699999809E+01 0. -1.
</event>
<event>
 5   0  0.1492639E-05  0.2499136E+04  0.7818609E-02  0.8403293E-01
        1   -1    0    0  501    0  0.00000000000E+00  0.00000000000E+00  0.10220492024E+04  0.10220492024E+04  0.50400001928E-02 0. -1.
       -1   -1    0    0    0  501  0.00000000000E+00  0.00000000000E+00 -0.15277347289E+04  0.15277347289E+04  0.50400001928E-02 0.  1.
    10030    2    1    2    0    0  0.00000000000E+00  0.00000000000E+00 -0.50568552652E+03  0.25497839313E+04  0.24991358996E+04 0.  0.
        5    1    3    3  502    0  0.52660015243E+03 -0.58632044392E+03 -0.12421951762E+04  0.14711051387E+04  0.46999998093E+01 0.  1.
       -5    1    3    3    0  502 -0.52660015243E+03  0.58632044392E+03  0.73650964963E+03  0.10786787926E+04  0.46999998093E+01 0. -1.
</event>
<event>
 5   0  0.3581449E-05  0.2508892E+04  0.7818609E-02  0.8399824E-01
       -2   -1    0    0    0  501  0.00000000000E+00  0.00000000000E+00  0.12721228209E+04  0.12721228209E+04  0.25500000920E-02 0. -1.
        2   -1    0    0  501    0  0.00000000000E+00  0.00000000000E+00 -0.12370152755E+04  0.12370152755E+04  0.25500000920E-02 0.  1.
    10030    2    1    2    0    0  0.00000000000E+00  0.00000000000E+00  0.35107545472E+02  0.25091380964E+04  0.25088924742E+04 0.  0.
        1    1    3    3  502    0  0.18073687095E+03  0.96738305935E+03  0.79553709814E+03  0.12654544933E+04  0.50400001928E-02 0. -1.
       -1    1    3    3    0  502 -0.18073687095E+03 -0.96738305935E+03 -0.76042955267E+03  0.12436836031E+04  0.50400001928E-02 0.  1.
</event>
<event>
 5   0  0.1429483E-05  0.2504954E+04  0.7818609E-02  0.8401223E-01
       -1   -1    0    0    0  501  0.00000000000E+00  0.00000000000E+00  0.25048859951E+04  0.25048859951E+04  0.50400001928E-02 0.  1.
        1   -1    0    0  501    0  0.00000000000E+00  0.00000000000E+00 -0.62625554258E+03  0.62625554260E+03  0.50400001928E-02 0. -1.
    10030    2    1    2    0    0  0.00000000000E+00  0.00000000000E+00  0.18786304525E+04  0.31311415377E+04  0.25049540818E+04 0.  0.
        2    1    3    3  502    0 -0.11436912907E+04  0.33306156144E+03  0.45562162196E+03  0.12753630207E+04  0.25500000920E-02 0.  1.
       -2    1    3    3    0  502  0.11436912907E+04 -0.33306156144E+03  0.14230088305E+04  0.18557785170E+04  0.25500000920E-02 0. -1.
</event>
<event>
 5   0  0.1201438E-05  0.2378887E+04  0.7818609E-02  0.8447451E-01
        4   -1    0    0  501    0  0.00000000000E+00  0.00000000000E+00  0.15453891233E+04  0.15453896451E+04  0.12699999809E+01 0. -1.
       -4   -1    0    0    0  501  0.00000000000E+00  0.00000000000E+00 -0.91548049024E+03  0.91548137114E+03  0.12699999809E+01 0.  1.
    10030    2    1    2    0    0  0.00000000000E+00  0.00000000000E+00  0.62990863303E+03  0.24608710163E+04  0.23788865615E+04 0.  0.
        4    1    3    3  502    0  0.22533441793E+02 -0.10284147995E+04  0.93271948161E+03  0.13885647266E+04  0.12699999809E+01 0. -1.
       -4    1    3    3    0  502 -0.22533441793E+02  0.10284147995E+04 -0.30281084858E+03  0.10723062896E+04  0.12699999809E+01 0.  1.
</event>
<event>
 5   0  0.1421242E-05  0.2437999E+04  0.7818609E-02  0.8425413E-01
       -1   -1    0    0    0  501  0.00000000000E+00  0.00000000000E+00  0.91156749293E+03  0.91156749295E+03  0.50400001928E-02 0.  1.
        1   -1    0    0  501    0  0.00000000000E+00  0.00000000000E+00 -0.16301155951E+04  0.16301155952E+04  0.50400001928E-02 0. -1.
    10030    2    1    2    0    0  0.00000000000E+00  0.00000000000E+00 -0.71854810222E+03  0.25416830881E+04  0.24379994965E+04 0.  0.
        3    1    3    3  502    0 -0.11392894396E+04 -0.13259087559E+02  0.92519861219E+02  0.11431168644E+04  0.10100000352E+00 0.  1.
       -3    1    3    3    0  502  0.11392894396E+04  0.13259087559E+02 -0.81106796344E+03  0.13985662237E+04  0.10100000352E+00 0. -1.
</event>
<event>
 5   0  0.1421242E-05  0.2503582E+04  0.7818609E-02  0.8401710E-01
       -1   -1    0    0    0  501  0.00000000000E+00  0.00000000000E+00  0.72711097439E+03  0.72711097441E+03  0.50400001928E-02 0. -1.
        1   -1    0    0  501    0  0.00000000000E+00  0.00000000000E+00 -0.21550785825E+04  0.21550785825E+04  0.50400001928E-02 0.  1.
    10030    2    1    2    0    0  0.00000000000E+00  0.00000000000E+00 -0.14279676081E+04  0.28821895569E+04  0.25035824636E+04 0.  0.
        3    1    3    3  502    0 -0.19280222621E+03 -0.84167370990E+03 -0.17573491019E+04  0.19580253340E+04  0.10100000352E+00 0.  1.
       -3    1    3    3    0  502  0.19280222621E+03  0.84167370990E+03  0.32938149376E+03  0.92416422296E+03  0.10100000352E+00 0. -1.
</event>
<event>
 5   0  0.1421242E-05  0.2523795E+04  0.7818609E-02  0.8394557E-01
        1   -1    0    0  501    0  0.00000000000E+00  0.00000000000E+00  0.17526565631E+04  0.17526565631E+04  0.50400001928E-02 0. -1.
       -1   -1    0    0    0  501  0.00000000000E+00  0.00000000000E+00 -0.90855510287E+03  0.90855510289E+03  0.50400001928E-02 0.  1.
    10030    2    1    2    0    0  0.00000000000E+00  0.00000000000E+00  0.84410146023E+03  0.26612116660E+04  0.25237948126E+04 0.  0.
        3    1    3    3  502    0 -0.31719738385E+03  0.83443631615E+03 -0.51841265827E+03  0.10323031728E+04  0.10100000352E+00 0.  1.
       -3    1    3    3    0  502  0.31719738385E+03 -0.83443631615E+03  0.13625141185E+04  0.16289084932E+04  0.10100000352E+00 0. -1.
</event>
<event>
 5   0  0.1502886E-05  0.2562444E+04  0.7818609E-02  0.8381071E-01
       -1   -1    0    0    0  501  0.00000000000E+00  0.00000000000E+00  0.89500368145E+03  0.89500368147E+03  0.50400001928E-02 0. -1.
        1   -1    0    0  501    0  0.00000000000E+00  0.00000000000E+00 -0.18341033068E+04  0.18341033068E+04  0.50400001928E-02 0.  1.
    10030    2    1    2    0    0  0.00000000000E+00  0.00000000000E+00 -0.93909962532E+03  0.27291069882E+04  0.25624435305E+04 0.  0.
        4    1    3    3  502    0  0.91247039188E+03 -0.82749929816E+03 -0.84484683038E+03  0.14936951109E+04  0.12699999809E+01 0. -1.
       -4    1    3    3    0  502 -0.91247039188E+03  0.82749929816E+03 -0.94252794942E+02  0.12354118774E+04  0.12699999809E+01 0.  1.
</event>
<event>
 5   0  0.1492639E-05  0.2520916E+04  0.7818609E-02  0.8395572E-01
       -1   -1    0    0    0  501  0.00000000000E+00  0.00000000000E+00  0.98493756935E+03  0.98493756937E+03  0.50400001928E-02 0.  1.
        1   -1    0    0  501    0  0.00000000000E+00  0.00000000000E+00 -0.16130510020E+04  0.16130510020E+04  0.50400001928E-02 0. -1.
    10030    2    1    2    0    0  0.00000000000E+00  0.00000000000E+00 -0.62811343264E+03  0.25979885714E+04  0.25209161296E+04 0.  0.
        5    1    3    3  502    0  0.71657262718E+02 -0.92819033401E+03  0.56166394861E+03  0.10872720638E+04  0.46999998093E+01 0.  1.
       -5    1    3    3    0  502 -0.71657262718E+02  0.92819033401E+03 -0.11897773812E+04  0.15107165076E+04  0.46999998093E+01 0. -1.
</event>
<event>
 5   0  0.1201438E-05  0.2386936E+04  0.7818609E-02  0.8444411E-01
        4   -1    0    0  501    0  0.00000000000E+00  0.00000000000E+00  0.13294260209E+04  0.13294266275E+04  0.12699999809E+01 0. -1.
       -4   -1    0    0    0  501  0.00000000000E+00  0.00000000000E+00 -0.10714129839E+04  0.10714137366E+04  0.12699999809E+01 0.  1.
    10030    2    1    2    0    0  0.00000000000E+00  0.00000000000E+00  0.25801303701E+03  0.24008403641E+04  0.23869360541E+04 0.  0.
        4    1    3    3  502    0 -0.60562124497E+03 -0.54489574016E+03 -0.74824133923E+03  0.11061442829E+04  0.12699999809E+01 0.  1.
       -4    1    3    3    0  502  0.60562124497E+03  0.54489574016E+03  0.10062543762E+04  0.12946960812E+04  0.12699999809E+01 0. -1.
</event>
<event>
 5   0  0.1201438E-05  0.2544983E+04  0.7818609E-02  0.8387133E-01
        3   -1    0    0  501    0  0.00000000000E+00  0.00000000000E+00  0.12630384023E+04  0.12630384063E+04  0.10100000352E+00 0.  1.
       -3   -1    0    0    0  501  0.00000000000E+00  0.00000000000E+00 -0.12820152092E+04  0.12820152132E+04  0.10100000352E+00 0. -1.
    10030    2    1    2    0    0  0.00000000000E+00  0.00000000000E+00 -0.18976806941E+02  0.25450536195E+04  0.25449828697E+04 0.  0.
        1    1    3    3  502    0 -0.46831484184E+03 -0.40515507135E+03  0.11021921881E+04  0.12642377318E+04  0.50400001928E-02 0.  1.
       -1    1    3    3    0  502  0.46831484184E+03  0.40515507135E+03 -0.11211689950E+04  0.12808158878E+04  0.50400001928E-02 0. -1.
</event>
<event>
 5   0  0.3581449E-05  0.2510022E+04  0.7818609E-02  0.8399424E-01
        2   -1    0    0  501    0  0.00000000000E+00  0.00000000000E+00  0.75706342397E+03  0.75706342397E+03  0.25500000920E-02 0. -1.
       -2   -1    0    0    0  501  0.00000000000E+00  0.00000000000E+00 -0.20804760590E+04  0.20804760590E+04  0.25500000920E-02 0.  1.
    10030    2    1    2    0    0  0.00000000000E+00  0.00000000000E+00 -0.13234126350E+04  0.28375394829E+04  0.25100217758E+04 0.  0.
        1    1    3    3  502    0  0.53617229269E+03  0.72058416227E+03  0.32921309883E+03  0.95661043630E+03  0.50400001928E-02 0. -1.
       -1    1    3    3    0  502 -0.53617229269E+03 -0.72058416227E+03 -0.16526257338E+04  0.18809290466E+04  0.50400001928E-02 0.  1.
</event>
<event>
 5   0  0.1456876E-05  0.2480580E+04  0.7818609E-02  0.8409937E-01
       -1   -1    0    0    0  501  0.00000000000E+00  0.00000000000E+00  0.75280346320E+03  0.75280346322E+03  0.50400001928E-02 0.  1.
        1   -1    0    0  501    0  0.00000000000E+00  0.00000000000E+00 -0.20434543786E+04  0.20434543786E+04  0.50400001928E-02 0. -1.
    10030    2    1    2    0    0  0.00000000000E+00  0.00000000000E+00 -0.12906509154E+04  0.27962578419E+04  0.24805802008E+04 0.  0.
        1    1    3    3  502    0  0.24909511162E+03  0.82759672042E+03 -0.16481144774E+04  0.18609798594E+04  0.50400001928E-02 0. -1.
       -1    1    3    3    0  502 -0.24909511162E+03 -0.82759672042E+03  0.35746356201E+03  0.93527798246E+03  0.50400001928E-02 0.  1.
</event>
<event>
 5   0  0.3578670E-05  0.2537867E+04  0.7818609E-02  0.8389618E-01
       -2   -1    0    0    0  501  0.00000000000E+00  0.00000000000E+00  0.10839726023E+04  0.10839726023E+04  0.25500000920E-02 0. -1.
        2   -1    0    0  501    0  0.00000000000E+00  0.00000000000E+00 -0.14854551846E+04  0.14854551846E+04  0.25500000920E-02 0.  1.
    10030    2    1    2    0    0  0.00000000000E+00  0.00000000000E+00 -0.40148258233E+03  0.25694277869E+04  0.25378673898E+04 0.  0.
        4    1    3    3  502    0 -0.11308136861E+03  0.84392388289E+02 -0.14774873131E+04  0.14842101753E+04  0.12699999809E+01 0.  1.
       -4    1    3    3    0  502  0.11308136861E+03 -0.84392388289E+02  0.10760047307E+04  0.10852176116E+04  0.12699999809E+01 0. -1.
</event>
<event>
 5   0  0.3650620E-05  0.2522236E+04  0.7818609E-02  0.8395106E-01
        2   -1    0    0  501    0  0.00000000000E+00  0.00000000000E+00  0.10902022260E+04  0.10902022260E+04  0.25500000920E-02 0. -1.
       -2   -1    0    0    0  501  0.00000000000E+00  0.00000000000E+00 -0.14588292269E+04  0.14588292269E+04  0.25500000920E-02 0.  1.
    10030    2    1    2    0    0  0.00000000000E+00  0.00000000000E+00 -0.36862700094E+03  0.25490314529E+04  0.25222362067E+04 0.  0.
        3    1    3    3  502    0  0.92704041551E+03  0.72026667485E+03 -0.64989283017E+03  0.13418452652E+04  0.10100000352E+00 0.  1.
       -3    1    3    3    0  502 -0.92704041551E+03 -0.72026667485E+03  0.28126582923E+03  0.12071861877E+04  0.10100000352E+00 0. -1.
</event>
<event>
 5   0  0.1421242E-05  0.2461691E+04  0.7818609E-02  0.8416762E-01
        1   -1    0    0  501    0  0.00000000000E+00  0.00000000000E+00  0.18088631772E+04  0.18088631772E+04  0.50400001928E-02 0. -1.
       -1   -1    0    0    0  501  0.00000000000E+00  0.00000000000E+00 -0.83753165739E+03  0.83753165740E+03  0.50400001928E-02 0.  1.
    10030    2    1    2    0    0  0.00000000000E+00  0.00000000000E+00  0.97133151984E+03  0.26463948346E+04  0.24616906181E+04 0.  0.
        3    1    3    3  502    0  0.54530502203E+03  0.41200813582E+03  0.15861283047E+04  0.17271106740E+04  0.10100000352E+00 0. -1.
       -3    1    3    3    0  502 -0.54530502203E+03 -0.41200813582E+03 -0.61479678490E+03  0.91928416061E+03  0.10100000352E+00 0.  1.
</event>
<event>
 5   0  0.1492639E-05  0.2158721E+04  0.7818609E-02  0.8535808E-01
        1   -1    0    0  501    0  0.00000000000E+00  0.00000000000E+00  0.18452443946E+04  0.18452443946E+04  0.50400001928E-02 0.  1.
       -1   -1    0    0    0  501  0.00000000000E+00  0.00000000000E+00 -0.63136312007E+03  0.63136312009E+03  0.50400001928E-02 0. -1.
    10030    2    1    2    0    0  0.00000000000E+00  0.00000000000E+00  0.12138812746E+04  0.24766075147E+04  0.21587211569E+04 0.  0.
        5    1    3    3  502    0  0.98223985071E+03  0.43791043159E+03  0.71231664484E+03  0.12899526204E+04  0.46999998093E+01 0.  1.
       -5    1    3    3    0  502 -0.98223985071E+03 -0.43791043159E+03  0.50156462972E+03  0.11866548943E+04  0.46999998093E+01 0. -1.
</event>
<event>
 5   0  0.1502886E-05  0.2425708E+04  0.7818609E-02  0.8429941E-01
        1   -1    0    0  501    0  0.00000000000E+00  0.00000000000E+00  0.14931835184E+04  0.14931835184E+04  0.50400001928E-02 0. -1.
       -1   -1    0    0    0  501  0.00000000000E+00  0.00000000000E+00 -0.98515371886E+03  0.98515371887E+03  0.50400001928E-02 0.  1.
    10030    2    1    2    0    0  0.00000000000E+00  0.00000000000E+00  0.50802979949E+03  0.24783372372E+04  0.24257083881E+04 0.  0.
        4    1    3    3  502    0 -0.55761227845E+03 -0.91454032134E+03  0.83530372626E+03  0.13583259478E+04  0.12699999809E+01 0. -1.
       -4    1    3    3    0  502  0.55761227845E+03  0.91454032134E+03 -0.32727392677E+03  0.11200112894E+04  0.12699999809E+01 0.  1.
</event>
<event>
 5   0  0.3579097E-05  0.2512041E+04  0.7818609E-02  0.8398708E-01
        2   -1    0    0  501    0  0.00000000000E+00  0.00000000000E+00  0.13212904640E+04  0.13212904640E+04  0.25500000920E-02 0. -1.
       -2   -1    0    0    0  501  0.00000000000E+00  0.00000000000E+00 -0.11939749522E+04  0.11939749522E+04  0.25500000920E-02 0.  1.
    10030    2    1    2    0    0  0.00000000000E+00  0.00000000000E+00  0.12731551184E+03  0.25152654162E+04  0.25120411769E+04 0.  0.
        5    1    3    3  502    0 -0.86770636702E+03  0.84827456312E+03  0.38823667561E+03  0.12740619609E+04  0.46999998093E+01 0. -1.
       -5    1    3    3    0  502  0.86770636702E+03 -0.84827456312E+03 -0.26092116377E+03  0.12412034553E+04  0.46999998093E+01 0.  1.
</event>
<event>
 5   0  0.3704241E-05  0.2491883E+04  0.7818609E-02  0.8405883E-01
       -2   -1    0    0    0  501  0.00000000000E+00  0.00000000000E+00  0.90072561536E+03  0.90072561537E+03  0.25500000920E-02 0. -1.
        2   -1    0    0  501    0  0.00000000000E+00  0.00000000000E+00 -0.17234659333E+04  0.17234659333E+04  0.25500000920E-02 0.  1.
    10030    2    1    2    0    0  0.00000000000E+00  0.00000000000E+00 -0.82274031790E+03  0.26241915486E+04  0.24918827527E+04 0.  0.
        2    1    3    3  502    0  0.80230291756E+03 -0.63956699895E+03 -0.11557488265E+04  0.15454744474E+04  0.25500000920E-02 0.  1.
       -2    1    3    3    0  502 -0.80230291756E+03  0.63956699895E+03  0.33300850859E+03  0.10787171012E+04  0.25500000920E-02 0. -1.
</event>
<event>
 5   0  0.3650620E-05  0.2586876E+04  0.7818609E-02  0.8372673E-01
       -2   -1    0    0    0  501  0.00000000000E+00  0.00000000000E+00  0.12241499602E+04  0.12241499602E+04  0.25500000920E-02 0. -1.
        2   -1    0    0  501    0  0.00000000000E+00  0.00000000000E+00 -0.13666478817E+04  0.13666478817E+04  0.25500000920E-02 0.  1.
    10030    2    1    2    0    0  0.00000000000E+00  0.00000000000E+00 -0.14249792149E+03  0.25907978420E+04  0.25868760698E+04 0.  0.
        3    1    3    3  502    0 -0.50009553563E+03  0.11825883351E+04 -0.22759849089E+03  0.13039983890E+04  0.10100000352E+00 0.  1.
       -3    1    3    3    0  502  0.50009553563E+03 -0.11825883351E+04  0.85100569399E+02  0.12867994530E+04  0.10100000352E+00 0. -1.
</event>
<event>
 5   0  0.3704241E-05  0.2511586E+04  0.7818609E-02  0.8398870E-01
       -2   -1    0    0    0  501  0.00000000000E+00  0.00000000000E+00  0.15415719846E+04  0.15415719846E+04  0.25500000920E-02 0. -1.
        2   -1    0    0  501    0  0.00000000000E+00  0.00000000000E+00 -0.10229918236E+04  0.10229918236E+04  0.25500000920E-02 0.  1.
    10030    2    1    2    0    0  0.00000000000E+00  0.00000000000E+00  0.51858016102E+03  0.25645638083E+04  0.25115855835E+04 0.  0.
        2    1    3    3  502    0  0.89281934668E+03  0.28724444811E+03  0.11119978149E+04  0.14547078398E+04  0.25500000920E-02 0. -1.
       -2    1    3    3    0  502 -0.89281934668E+03 -0.28724444811E+03 -0.59341765390E+03  0.11098559685E+04  0.25500000920E-02 0.  1.
</event>
<event>
 5   0  0.3650620E-05  0.2526164E+04  0.7818609E-02  0.8393723E-01
       -2   -1    0    0    0  501  0.00000000000E+00  0.00000000000E+00  0.10637849675E+04  0.10637849675E+04  0.25500000920E-02 0. -1.
        2   -1    0    0  501    0  0.00000000000E+00  0.00000000000E+00 -0.14997171008E+04  0.14997171008E+04  0.25500000920E-02 0.  1.
    10030    2    1    2    0    0  0.00000000000E+00  0.00000000000E+00 -0.43593213331E+03  0.25635020684E+04  0.25261642919E+04 0.  0.
        3    1    3    3  502    0  0.52087216790E+03 -0.29793374949E+02  0.94933186042E+03  0.10832481027E+04  0.10100000352E+00 0. -1.
       -3    1    3    3    0  502 -0.52087216790E+03  0.29793374949E+02 -0.13852639937E+04  0.14802539657E+04  0.10100000352E+00 0.  1.
</event>
<event>
 5   0  0.3579097E-05  0.2476897E+04  0.7818609E-02  0.8411263E-01
       -2   -1    0    0    0  501  0.00000000000E+00  0.00000000000E+00  0.98893530620E+03  0.98893530620E+03  0.25500000920E-02 0. -1.
        2   -1    0    0  501    0  0.00000000000E+00  0.00000000000E+00 -0.15509145680E+04  0.15509145680E+04  0.25500000920E-02 0.  1.
    10030    2    1    2    0    0  0.00000000000E+00  0.00000000000E+00 -0.56197926178E+03  0.25398498742E+04  0.24768965850E+04 0.  0.
        5    1    3    3  502    0  0.90331233917E+03  0.63181471001E+03 -0.85975425624E+03  0.13979851505E+04  0.46999998093E+01 0.  1.
       -5    1    3    3    0  502 -0.90331233917E+03 -0.63181471001E+03  0.29777499446E+03  0.11418647237E+04  0.46999998093E+01 0. -1.
</event>
<event>
 5   0  0.3578670E-05  0.2484101E+04  0.7818609E-02  0.8408672E-01
       -2   -1    0    0    0  501  0.00000000000E+00  0.00000000000E+00  0.12853800969E+04  0.12853800969E+04  0.25500000920E-02 0.  1.
        2   -1    0    0  501    0  0.00000000000E+00  0.00000000000E+00 -0.12001811842E+04  0.12001811842E+04  0.25500000920E-02 0. -1.
    10030    2    1    2    0    0  0.00000000000E+00  0.00000000000E+00  0.85198912674E+02  0.24855612812E+04  0.24841006476E+04 0.  0.
        4    1    3    3  502    0  0.11483781943E+04 -0.33398632748E+03 -0.29281108626E+03  0.12312835941E+04  0.12699999809E+01 0. -1.
       -4    1    3    3    0  502 -0.11483781943E+04  0.33398632748E+03  0.37800999894E+03  0.12542776870E+04  0.12699999809E+01 0.  1.
</event>
<event>
 5   0  0.3578670E-05  0.2465521E+04  0.7818609E-02  0.8415373E-01
        2   -1    0    0  501    0  0.00000000000E+00  0.00000000000E+00  0.16112096206E+04  0.16112096206E+04  0.25500000920E-02 0.  1.
       -2   -1    0    0    0  501  0.00000000000E+00  0.00000000000E+00 -0.94320307253E+03  0.94320307253E+03  0.25500000920E-02 0. -1.
    10030    2    1    2    0    0  0.00000000000E+00  0.00000000000E+00  0.66800654811E+03  0.25544126932E+04  0.24655205249E+04 0.  0.
        4    1    3    3  502    0  0.95633467800E+03  0.60578723719E+03  0.83959562295E+03  0.14094242144E+04  0.12699999809E+01 0.  1.
       -4    1    3    3    0  502 -0.95633467800E+03 -0.60578723719E+03 -0.17158907484E+03  0.11449884788E+04  0.12699999809E+01 0. -1.
</event>
<event>
 5   0  0.1456876E-05  0.2565258E+04  0.7818609E-02  0.8380099E-01
        1   -1    0    0  501    0  0.00000000000E+00  0.00000000000E+00  0.14268007274E+04  0.14268007274E+04  0.50400001928E-02 0. -1.
       -1   -1    0    0    0  501  0.00000000000E+00  0.00000000000E+00 -0.11530252658E+04  0.11530252658E+04  0.50400001928E-02 0.  1.
    10030    2    1    2    0    0  0.00000000000E+00  0.00000000000E+00  0.27377546165E+03  0.25798259932E+04  0.25652581063E+04 0.  0.
        1    1    3    3  502    0  0.10364100386E+04 -0.64833254401E+03  0.52723683301E+03  0.13313374981E+04  0.50400001928E-02 0. -1.
       -1    1    3    3    0  502 -0.10364100386E+04  0.64833254401E+03 -0.25346137135E+03  0.12484884951E+04  0.50400001928E-02 0.  1.
</event>
<event>
 5   0  0.3704241E-05  0.2481904E+04  0.7818609E-02  0.8409461E-01
        2   -1    0    0  501    0  0.00000000000E+00  0.00000000000E+00  0.22556806580E+04  0.22556806580E+04  0.25500000920E-02 0.  1.
       -2   -1    0    0    0  501  0.00000000000E+00  0.00000000000E+00 -0.68270359277E+03  0.68270359277E+03  0.25500000920E-02 0. -1.
    10030    2    1    2    0    0  0.00000000000E+00  0.00000000000E+00  0.15729770652E+04  0.29383842508E+04  0.24819035351E+04 0.  0.
        2    1    3    3  502    0 -0.73440789697E+03 -0.26648263616E+03 -0.35499641918E+03  0.85813193167E+03  0.25500000920E-02 0. -1.
       -2    1    3    3    0  502  0.73440789697E+03  0.26648263616E+03  0.19279734844E+04  0.20802523191E+04  0.25500000920E-02 0.  1.
</event>
<event>
 5   0  0.1492639E-05  0.2509151E+04  0.7818609E-02  0.8399733E-01
        1   -1    0    0  501    0  0.00000000000E+00  0.00000000000E+00  0.12956701599E+04  0.12956701599E+04  0.50400001928E-02 0. -1.
       -1   -1    0    0    0  501  0.00000000000E+00  0.00000000000E+00 -0.12147844097E+04  0.12147844097E+04  0.50400001928E-02 0.  1.
    10030    2    1    2    0    0  0.00000000000E+00  0.00000000000E+00  0.80885750256E+02  0.25104545696E+04  0.25091511794E+04 0.  0.
        5    1    3    3  502    0  0.34994136031E+03  0.85680169367E+03 -0.80697390425E+03  0.12279238861E+04  0.46999998093E+01 0.  1.
       -5    1    3    3    0  502 -0.34994136031E+03 -0.85680169367E+03  0.88785965451E+03  0.12825306835E+04  0.46999998093E+01 0. -1.
</event>
<event>
 5   0  0.1456876E-05  0.2479106E+04  0.7818609E-02  0.8410467E-01
        1   -1    0    0  501    0  0.00000000000E+00  0.00000000000E+00  0.20032031381E+04  0.20032031381E+04  0.50400001928E-02 0.  1.
       -1   -1    0    0    0  501  0.00000000000E+00  0.00000000000E+00 -0.76701711144E+03  0.76701711146E+03  0.50400001928E-02 0. -1.
    10030    2    1    2    0    0  0.00000000000E+00  0.00000000000E+00  0.12361860267E+04  0.27702202496E+04  0.24791055521E+04 0.  0.
        1    1    3    3  502    0 -0.61004166370E+03 -0.63527154182E+03  0.15927371230E+04  0.18200363476E+04  0.50400001928E-02 0.  1.
       -1    1    3    3    0  502  0.61004166370E+03  0.63527154182E+03 -0.35655109638E+03  0.95018390202E+03  0.50400001928E-02 0. -1.
</event>
<event>
 5   0  0.1492639E-05  0.2401474E+04  0.7818609E-02  0.8438952E-01
       -1   -1    0    0    0  501  0.00000000000E+00  0.00000000000E+00  0.36244378834E+04  0.36244378834E+04  0.50400001928E-02 0.  1.
        1   -1    0    0  501    0  0.00000000000E+00  0.00000000000E+00 -0.39779117444E+03  0.39779117448E+03  0.50400001928E-02 0. -1.
    10030    2    1    2    0    0  0.00000000000E+00  0.00000000000E+00  0.32266467090E+04  0.40222290579E+04  0.24014740493E+04 0.  0.
        5    1    3    3  502    0  0.15735165340E+03 -0.64200013362E+03  0.32922580892E+04  0.33579620501E+04  0.46999998093E+01 0.  1.
       -5    1    3    3    0  502 -0.15735165340E+03  0.64200013362E+03 -0.65611380204E+02  0.66426700776E+03  0.46999998093E+01 0. -1.
</event>
<event>
 5   0  0.3581449E-05  0.1882189E+04  0.7818609E-02  0.8663773E-01
        2   -1    0    0  501    0  0.00000000000E+00  0.00000000000E+00  0.89200781127E+03  0.89200781127E+03  0.25500000920E-02 0. -1.
       -2   -1    0    0    0  501  0.00000000000E+00  0.00000000000E+00 -0.99288281150E+03  0.99288281150E+03  0.25500000920E-02 0.  1.
    10030    2    1    2    0    0  0.00000000000E+00  0.00000000000E+00 -0.10087500023E+03  0.18848906228E+04  0.18821893885E+04 0.  0.
        1    1    3    3  502    0 -0.59852013048E+03 -0.30500599697E+03  0.60960188400E+03  0.90712152537E+03  0.50400001928E-02 0. -1.
       -1    1    3    3    0  502  0.59852013048E+03  0.30500599697E+03 -0.71047688423E+03  0.97776909740E+03  0.50400001928E-02 0.  1.
</event>
<event>
 5   0  0.3650620E-05  0.2517711E+04  0.7818609E-02  0.8396703E-01
        2   -1    0    0  501    0  0.00000000000E+00  0.00000000000E+00  0.24241968409E+04  0.24241968409E+04  0.25500000920E-02 0.  1.
       -2   -1    0    0    0  501  0.00000000000E+00  0.00000000000E+00 -0.65370792721E+03  0.65370792721E+03  0.25500000920E-02 0. -1.
    10030    2    1    2    0    0  0.00000000000E+00  0.00000000000E+00  0.17704889136E+04  0.30779047681E+04  0.25177106204E+04 0.  0.
        3    1    3    3  502    0 -0.63122521502E+03 -0.60154234235E+02 -0.44422392453E+03  0.77420844048E+03  0.10100000352E+00 0. -1.
       -3    1    3    3    0  502  0.63122521502E+03  0.60154234235E+02  0.22147128382E+04  0.23036963276E+04  0.10100000352E+00 0.  1.
</event>
<event>
 5   0  0.3579097E-05  0.2453633E+04  0.7818609E-02  0.8419693E-01
       -2   -1    0    0    0  501  0.00000000000E+00  0.00000000000E+00  0.12351851592E+04  0.12351851592E+04  0.25500000920E-02 0. -1.
        2   -1    0    0  501    0  0.00000000000E+00  0.00000000000E+00 -0.12185048054E+04  0.12185048054E+04  0.25500000920E-02 0.  1.
    10030    2    1    2    0    0  0.00000000000E+00  0.00000000000E+00  0.16680353729E+02  0.24536899646E+04  0.24536332668E+04 0.  0.
        5    1    3    3  502    0  0.10252428831E+04  0.55464971953E+03 -0.37415746059E+03  0.12242447370E+04  0.46999998093E+01 0. -1.
       -5    1    3    3    0  502 -0.10252428831E+04 -0.55464971953E+03  0.39083781432E+03  0.12294452276E+04  0.46999998093E+01 0.  1.
</event>
<event>
 5   0  0.1492639E-05  0.2355538E+04  0.7818609E-02  0.8456339E-01
        1   -1    0    0  501    0  0.00000000000E+00  0.00000000000E+00  0.11719602729E+04  0.11719602729E+04  0.50400001928E-02 0. -1.
       -1   -1    0    0    0  501  0.00000000000E+00  0.00000000000E+00 -0.11836067649E+04  0.11836067650E+04  0.50400001928E-02 0.  1.
    10030    2    1    2    0    0  0.00000000000E+00  0.00000000000E+00 -0.11646492048E+02  0.23555670379E+04  0.23555382461E+04 0.  0.
        5    1    3    3  502    0  0.10497307207E+04 -0.25376521695E+03 -0.47570838457E+03  0.11801067445E+04  0.46999998093E+01 0.  1.
       -5    1    3    3    0  502 -0.10497307207E+04  0.25376521695E+03  0.46406189252E+03  0.11754602934E+04  0.46999998093E+01 0. -1.
</event>
<event>
 5   0  0.3650620E-05  0.2500204E+04  0.7818609E-02  0.8402913E-01
       -2   -1    0    0    0  501  0.00000000000E+00  0.00000000000E+00  0.18406459690E+04  0.18406459690E+04  0.25500000920E-02 0.  1.
        2   -1    0    0  501    0  0.00000000000E+00  0.00000000000E+00 -0.84902532811E+03  0.84902532811E+03  0.25500000920E-02 0. -1.
    10030    2    1    2    0    0  0.00000000000E+00  0.00000000000E+00  0.99162064085E+03  0.26896712971E+04  0.25002040299E+04 0.  0.
        3    1    3    3  502    0  0.16842606054E+03 -0.37921371018E+03 -0.77278315943E+03  0.87713408186E+03  0.10100000352E+00 0. -1.
       -3    1    3    3    0  502 -0.16842606054E+03  0.37921371018E+03  0.17644038003E+04  0.18125372152E+04  0.10100000352E+00 0.  1.
</event>
<event>
 5   0  0.3578670E-05  0.2484344E+04  0.7818609E-02  0.8408584E-01
        2   -1    0    0  501    0  0.00000000000E+00  0.00000000000E+00  0.15343612318E+04  0.15343612318E+04  0.25500000920E-02 0. -1.
       -2   -1    0    0    0  501  0.00000000000E+00  0.00000000000E+00 -0.10056242256E+04  0.10056242256E+04  0.25500000920E-02 0.  1.
    10030    2    1    2    0    0  0.00000000000E+00  0.00000000000E+00  0.52873700615E+03  0.25399854574E+04  0.24843436361E+04 0.  0.
        4    1    3    3  502    0  0.12332591138E+04 -0.10768399158E+03  0.36895990885E+03  0.12917650371E+04  0.12699999809E+01 0. -1.
       -4    1    3    3    0  502 -0.12332591138E+04  0.10768399158E+03  0.15977709730E+03  0.12482204203E+04  0.12699999809E+01 0.  1.
</event>
<event>
 5   0  0.1201438E-05  0.1911412E+04  0.7818609E-02  0.8649197E-01
       -4   -1    0    0    0  501  0.00000000000E+00  0.00000000000E+00  0.11969629371E+04  0.11969636109E+04  0.12699999809E+01 0.  1.
        4   -1    0    0  501    0  0.00000000000E+00  0.00000000000E+00 -0.76307461690E+03  0.76307567374E+03  0.12699999809E+01 0. -1.
    10030    2    1    2    0    0  0.00000000000E+00  0.00000000000E+00  0.43388832025E+03  0.19600392846E+04  0.19114117617E+04 0.  0.
        4    1    3    3  502    0 -0.59371544344E+03 -0.28467618795E+03 -0.49337876395E+03  0.82277747744E+03  0.12699999809E+01 0. -1.
       -4    1    3    3    0  502  0.59371544344E+03  0.28467618795E+03  0.92726708420E+03  0.11372618072E+04  0.12699999809E+01 0.  1.
</event>
<event>
 5   0  0.1492639E-05  0.2505902E+04  0.7818609E-02  0.8400886E-01
        1   -1    0    0  501    0  0.00000000000E+00  0.00000000000E+00  0.18410881137E+04  0.18410881138E+04  0.50400001928E-02 0.  1.
       -1   -1    0    0    0  501  0.00000000000E+00  0.00000000000E+00 -0.85269478359E+03  0.85269478360E+03  0.50400001928E-02 0. -1.
    10030    2    1    2    0    0  0.00000000000E+00  0.00000000000E+00  0.98839333016E+03  0.26937828974E+04  0.25059020178E+04 0.  0.
        5    1    3    3  502    0 -0.64246756235E+03  0.47284113016E+03  0.15328258305E+04  0.17279816028E+04  0.46999998093E+01 0.  1.
       -5    1    3    3    0  502  0.64246756235E+03 -0.47284113016E+03 -0.54443250036E+03  0.96580129451E+03  0.46999998093E+01 0. -1.
</event>
<event>
 5   0  0.3579097E-05  0.2504058E+04  0.7818609E-02  0.8401541E-01
        2   -1    0    0  501    0  0.00000000000E+00  0.00000000000E+00  0.16094304244E+04  0.16094304244E+04  0.25500000920E-02 0. -1.
       -2   -1    0    0    0  501  0.00000000000E+00  0.00000000000E+00 -0.97399496149E+03  0.97399496150E+03  0.25500000920E-02 0.  1.
    10030    2    1    2    0    0  0.00000000000E+00  0.00000000000E+00  0.63543546288E+03  0.25834253859E+04  0.25040584052E+04 0.  0.
        5    1    3    3  502    0 -0.79100776881E+03 -0.88826986133E+03 -0.85618936460E+02  0.11925054839E+04  0.46999998093E+01 0.  1.
       -5    1    3    3    0  502  0.79100776881E+03  0.88826986133E+03  0.72105439934E+03  0.13909199020E+04  0.46999998093E+01 0. -1.
</event>
<event>
 5   0  0.3581449E-05  0.1798868E+04  0.7818609E-02  0.8706902E-01
       -2   -1    0    0    0  501  0.00000000000E+00  0.00000000000E+00  0.75062225478E+03  0.75062225478E+03  0.25500000920E-02 0.  1.
        2   -1    0    0  501    0  0.00000000000E+00  0.00000000000E+00 -0.10777480335E+04  0.10777480335E+04  0.25500000920E-02 0. -1.
    10030    2    1    2    0    0  0.00000000000E+00  0.00000000000E+00 -0.32712577872E+03  0.18283702883E+04  0.17988681541E+04 0.  0.
        1    1    3    3  502    0  0.25626395858E+03 -0.46809644251E+03  0.57232514389E+03  0.78252256601E+03  0.50400001928E-02 0.  1.
       -1    1    3    3    0  502 -0.25626395858E+03  0.46809644251E+03 -0.89945092261E+03  0.10458477223E+04  0.50400001928E-02 0. -1.
</event>
<event>
 5   0  0.3578670E-05  0.2493104E+04  0.7818609E-02  0.8405446E-01
        2   -1    0    0  501    0  0.00000000000E+00  0.00000000000E+00  0.16965851885E+04  0.16965851885E+04  0.25500000920E-02 0. -1.
       -2   -1    0    0    0  501  0.00000000000E+00  0.00000000000E+00 -0.91589378791E+03  0.91589378791E+03  0.25500000920E-02 0.  1.
    10030    2    1    2    0    0  0.00000000000E+00  0.00000000000E+00  0.78069140063E+03  0.26124789765E+04  0.24931039568E+04 0.  0.
        4    1    3    3  502    0 -0.10312608992E+04  0.11061496764E+03 -0.33425207784E+03  0.10897067393E+04  0.12699999809E+01 0.  1.
       -4    1    3    3    0  502  0.10312608992E+04 -0.11061496764E+03  0.11149434785E+04  0.15227722372E+04  0.12699999809E+01 0. -1.
</event>
<event>
 5   0  0.3581449E-05  0.2488235E+04  0.7818609E-02  0.8407189E-01
        2   -1    0    0  501    0  0.00000000000E+00  0.00000000000E+00  0.11535294333E+04  0.11535294333E+04  0.25500000920E-02 0. -1.
       -2   -1    0    0    0  501  0.00000000000E+00  0.00000000000E+00 -0.13418192320E+04  0.13418192320E+04  0.25500000920E-02 0.  1.
    10030    2    1    2    0    0  0.00000000000E+00  0.00000000000E+00 -0.18828979867E+03  0.24953486653E+04  0.24882346982E+04 0.  0.
        1    1    3    3  502    0 -0.10636779613E+04  0.39872513383E+03 -0.60297648462E+03  0.12860688857E+04  0.50400001928E-02 0.  1.
       -1    1    3    3    0  502  0.10636779613E+04 -0.39872513383E+03  0.41468668594E+03  0.12092797796E+04  0.50400001928E-02 0. -1.
</event>
<event>
 5   0  0.3650620E-05  0.2325454E+04  0.7818609E-02  0.8467952E-01
        2   -1    0    0  501    0  0.00000000000E+00  0.00000000000E+00  0.88843946039E+03  0.88843946039E+03  0.25500000920E-02 0.  1.
       -2   -1    0    0    0  501  0.00000000000E+00  0.00000000000E+00 -0.15216951007E+04  0.15216951007E+04  0.25500000920E-02 0. -1.
    10030    2    1    2    0    0  0.00000000000E+00  0.00000000000E+00 -0.63325564029E+03  0.24101345611E+04  0.23254539119E+04 0.  0.
        3    1    3    3  502    0  0.82231717910E+03  0.53824266840E+03  0.32730459194E+03  0.10358759671E+04  0.10100000352E+00 0.  1.
       -3    1    3    3    0  502 -0.82231717910E+03 -0.53824266840E+03 -0.96056023223E+03  0.13742585940E+04  0.10100000352E+00 0. -1.
</event>
<event>
 5   0  0.3704241E-05  0.2484516E+04  0.7818609E-02  0.8408523E-01
       -2   -1    0    0    0  501  0.00000000000E+00  0.00000000000E+00  0.96100476138E+03  0.96100476138E+03  0.25500000920E-02 0.  1.
        2   -1    0    0  501    0  0.00000000000E+00  0.00000000000E+00 -0.16058246994E+04  0.16058246994E+04  0.25500000920E-02 0. -1.
    10030    2    1    2    0    0  0.00000000000E+00  0.00000000000E+00 -0.64481993802E+03  0.25668294608E+04  0.24845161960E+04 0.  0.
        2    1    3    3  502    0 -0.10399617100E+04  0.23904134541E+03 -0.97952000006E+03  0.14484890588E+04  0.25500000920E-02 0.  1.
       -2    1    3    3    0  502  0.10399617100E+04 -0.23904134541E+03  0.33470006204E+03  0.11183404019E+04  0.25500000920E-02 0. -1.
</event>
<event>
 5   0  0.3581449E-05  0.2494885E+04  0.7818609E-02  0.8404810E-01
        2   -1    0    0  501    0  0.00000000000E+00  0.00000000000E+00  0.19424646714E+04  0.19424646714E+04  0.25500000920E-02 0.  1.
       -2   -1    0    0    0  501  0.00000000000E+00  0.00000000000E+00 -0.80110250994E+03  0.80110250995E+03  0.25500000920E-02 0. -1.
    10030    2    1    2    0    0  0.00000000000E+00  0.00000000000E+00  0.11413621615E+04  0.27435671813E+04  0.24948854272E+04 0.  0.
        1    1    3    3  502    0  0.74138697730E+03 -0.69960408287E+03 -0.22002602367E+03  0.10428384218E+04  0.50400001928E-02 0. -1.
       -1    1    3    3    0  502 -0.74138697730E+03  0.69960408287E+03  0.13613881851E+04  0.17007287595E+04  0.50400001928E-02 0.  1.
</event>
<event>
 5   0  0.3704241E-05  0.2544521E+04  0.7818609E-02  0.8387294E-01
       -2   -1    0    0    0  501  0.00000000000E+00  0.00000000000E+00  0.67411926737E+03  0.67411926738E+03  0.25500000920E-02 0. -1.
        2   -1    0    0  501    0  0.00000000000E+00  0.00000000000E+00 -0.24011274569E+04  0.24011274569E+04  0.25500000920E-02 0.  1.
    10030    2    1    2    0    0  0.00000000000E+00  0.00000000000E+00 -0.17270081895E+04  0.30752467242E+04  0.25445206088E+04 0.  0.
        2    1    3    3  502    0 -0.49126222385E+03 -0.80950066829E+03  0.16344168919E+03  0.96090743067E+03  0.25500000920E-02 0. -1.
       -2    1    3    3    0  502  0.49126222385E+03  0.80950066829E+03 -0.18904498787E+04  0.21143392936E+04  0.25500000920E-02 0.  1.
</event>
<event>
 5   0  0.1456876E-05  0.2489486E+04  0.7818609E-02  0.8406741E-01
        1   -1    0    0  501    0  0.00000000000E+00  0.00000000000E+00  0.90676751736E+03  0.90676751737E+03  0.50400001928E-02 0.  1.
       -1   -1    0    0    0  501  0.00000000000E+00  0.00000000000E+00 -0.17086903021E+04  0.17086903021E+04  0.50400001928E-02 0. -1.
    10030    2    1    2    0    0  0.00000000000E+00  0.00000000000E+00 -0.80192278475E+03  0.26154578195E+04  0.24894857808E+04 0.  0.
        1    1    3    3  502    0 -0.39054406546E+03 -0.11250780258E+04 -0.78130186563E+03  0.14243447042E+04  0.50400001928E-02 0. -1.
       -1    1    3    3    0  502  0.39054406546E+03  0.11250780258E+04 -0.20620919118E+02  0.11911131153E+04  0.50400001928E-02 0.  1.
</event>
<event>
 5   0  0.1429483E-05  0.2526801E+04  0.7818609E-02  0.8393499E-01
        1   -1    0    0  501    0  0.00000000000E+00  0.00000000000E+00  0.13240108809E+04  0.13240108809E+04  0.50400001928E-02 0.  1.
       -1   -1    0    0    0  501  0.00000000000E+00  0.00000000000E+00 -0.12055643260E+04  0.12055643260E+04  0.50400001928E-02 0. -1.
    10030    2    1    2    0    0  0.00000000000E+00  0.00000000000E+00  0.11844655489E+03  0.25295752069E+04  0.25268005740E+04 0.  0.
        2    1    3    3  502    0  0.25441946180E+03  0.11358897166E+03 -0.11744239084E+04  0.12070224661E+04  0.25500000920E-02 0. -1.
       -2    1    3    3    0  502 -0.25441946180E+03 -0.11358897166E+03  0.12928704633E+04  0.13225527407E+04  0.25500000920E-02 0.  1.
</event>
<event>
 5   0  0.1502886E-05  0.2488044E+04  0.7818609E-02  0.8407257E-01
       -1   -1    0    0    0  501  0.00000000000E+00  0.00000000000E+00  0.10858506087E+04  0.10858506087E+04  0.50400001928E-02 0. -1.
        1   -1    0    0  501    0  0.00000000000E+00  0.00000000000E+00 -0.14252336116E+04  0.14252336116E+04  0.50400001928E-02 0.  1.
    10030    2    1    2    0    0  0.00000000000E+00  0.00000000000E+00 -0.33938300288E+03  0.25110842204E+04  0.24880440388E+04 0.  0.
        4    1    3    3  502    0 -0.49098743211E+03  0.97977453746E+03 -0.76383851387E+03  0.13358434380E+04  0.12699999809E+01 0.  1.
       -4    1    3    3    0  502  0.49098743211E+03 -0.97977453746E+03  0.42445551098E+03  0.11752407823E+04  0.12699999809E+01 0. -1.
</event>
<event>
 5   0  0.1201438E-05  0.2385613E+04  0.7818609E-02  0.8444910E-01
        3   -1    0    0  501    0  0.00000000000E+00  0.00000000000E+00  0.17945586357E+04  0.17945586385E+04  0.10100000352E+00 0.  1.
       -3   -1    0    0    0  501  0.00000000000E+00  0.00000000000E+00 -0.79283412143E+03  0.79283412786E+03  0.10100000352E+00 0. -1.
    10030    2    1    2    0    0  0.00000000000E+00  0.00000000000E+00  0.10017245143E+04  0.25873927664E+04  0.23856129873E+04 0.  0.
        4    1    3    3  502    0 -0.12106426783E+03  0.56250534109E+03  0.16340904915E+04  0.17324324411E+04  0.12699999809E+01 0.  1.
       -4    1    3    3    0  502  0.12106426783E+03 -0.56250534109E+03 -0.63236597725E+03  0.85496032527E+03  0.12699999809E+01 0. -1.
</event>
<event>
 5   0  0.3650620E-05  0.2501246E+04  0.7818609E-02  0.8402542E-01
        2   -1    0    0  501    0  0.00000000000E+00  0.00000000000E+00  0.87792774766E+03  0.87792774767E+03  0.25500000920E-02 0.  1.
       -2   -1    0    0    0  501  0.00000000000E+00  0.00000000000E+00 -0.17815336045E+04  0.17815336045E+04  0.25500000920E-02 0. -1.
    10030    2    1    2    0    0  0.00000000000E+00  0.00000000000E+00 -0.90360585680E+03  0.26594613521E+04  0.25012459173E+04 0.  0.
        3    1    3    3  502    0  0.11983727932E+04  0.62540399694E+02 -0.77318178029E+02  0.12024918976E+04  0.10100000352E+00 0.  1.
       -3    1    3    3    0  502 -0.11983727932E+04 -0.62540399694E+02 -0.82628767877E+03  0.14569694545E+04  0.10100000352E+00 0. -1.
</event>
<event>
 5   0  0.3650620E-05  0.2463235E+04  0.7818609E-02  0.8416202E-01
        2   -1    0    0  501    0  0.00000000000E+00  0.00000000000E+00  0.13863334004E+04  0.13863334005E+04  0.25500000920E-02 0. -1.
       -2   -1    0    0    0  501  0.00000000000E+00  0.00000000000E+00 -0.10941676234E+04  0.10941676234E+04  0.25500000920E-02 0.  1.
    10030    2    1    2    0    0  0.00000000000E+00  0.00000000000E+00  0.29216577703E+03  0.24805010239E+04  0.24632345581E+04 0.  0.
        3    1    3    3  502    0  0.29331996372E+02  0.13322078109E+03  0.13787026154E+04  0.13854346086E+04  0.10100000352E+00 0. -1.
       -3    1    3    3    0  502 -0.29331996372E+02 -0.13322078109E+03 -0.10865368384E+04  0.10950664153E+04  0.10100000352E+00 0.  1.
</event>
<event>
 5   0  0.1421242E-05  0.2482461E+04  0.7818609E-02  0.8409261E-01
       -1   -1    0    0    0  501  0.00000000000E+00  0.00000000000E+00  0.12905485087E+04  0.12905485087E+04  0.50400001928E-02 0.  1.
        1   -1    0    0  501    0  0.00000000000E+00  0.00000000000E+00 -0.11937971378E+04  0.11937971378E+04  0.50400001928E-02 0. -1.
    10030    2    1    2    0    0  0.00000000000E+00  0.00000000000E+00  0.96751370914E+02  0.24843456466E+04  0.24824609692E+04 0.  0.
        3    1    3    3  502    0  0.11030617054E+04 -0.56743157732E+03  0.44175733310E+01  0.12404609006E+04  0.10100000352E+00 0. -1.
       -3    1    3    3    0  502 -0.11030617054E+04  0.56743157732E+03  0.92333797583E+02  0.12438847459E+04  0.10100000352E+00 0.  1.
</event>
<event>
 5   0  0.1502886E-05  0.2393553E+04  0.7818609E-02  0.8441921E-01
       -1   -1    0    0    0  501  0.00000000000E+00  0.00000000000E+00  0.12507477318E+04  0.12507477318E+04  0.50400001928E-02 0.  1.
        1   -1    0    0  501    0  0.00000000000E+00  0.00000000000E+00 -0.11451337651E+04  0.11451337651E+04  0.50400001928E-02 0. -1.
    10030    2    1    2    0    0  0.00000000000E+00  0.00000000000E+00  0.10561396677E+03  0.23958814969E+04  0.23935525558E+04 0.  0.
        4    1    3    3  502    0 -0.36355436998E+03 -0.16820140059E+02  0.11940115399E+04  0.12482467174E+04  0.12699999809E+01 0.  1.
       -4    1    3    3    0  502  0.36355436998E+03  0.16820140059E+02 -0.10883975732E+04  0.11476347795E+04  0.12699999809E+01 0. -1.
</event>
<event>
 5   0  0.1201438E-05  0.2462918E+04  0.7818609E-02  0.8416317E-01
        3   -1    0    0  501    0  0.00000000000E+00  0.00000000000E+00  0.18144277857E+04  0.18144277885E+04  0.10100000352E+00 0. -1.
       -3   -1    0    0    0  501  0.00000000000E+00  0.00000000000E+00 -0.83579576041E+03  0.83579576651E+03  0.10100000352E+00 0.  1.
    10030    2    1    2    0    0  0.00000000000E+00  0.00000000000E+00  0.97863202529E+03  0.26502235550E+04  0.24629178327E+04 0.  0.
        2    1    3    3  502    0 -0.56283866582E+03  0.84940693801E+03  0.12334353971E+04  0.15998882427E+04  0.25500000920E-02 0. -1.
       -2    1    3    3    0  502  0.56283866582E+03 -0.84940693801E+03 -0.25480337184E+03  0.10503353124E+04  0.25500000920E-02 0.  1.
</event>
<event>
 5   0  0.3578670E-05  0.2538834E+04  0.7818609E-02  0.8389280E-01
        2   -1    0    0  501    0  0.00000000000E+00  0.00000000000E+00  0.12483986477E+04  0.12483986477E+04  0.25500000920E-02 0.  1.
       -2   -1    0    0    0  501  0.00000000000E+00  0.00000000000E+00 -0.12907895143E+04  0.12907895143E+04  0.25500000920E-02 0. -1.
    10030    2    1    2    0    0  0.00000000000E+00  0.00000000000E+00 -0.42390866591E+02  0.25391881620E+04  0.25388342869E+04 0.  0.
        4    1    3    3  502    0  0.18990700496E+03 -0.26151705888E+03 -0.12489505202E+04  0.12900910268E+04  0.12699999809E+01 0. -1.
       -4    1    3    3    0  502 -0.18990700496E+03  0.26151705888E+03  0.12065596536E+04  0.12490971352E+04  0.12699999809E+01 0.  1.
</event>
<event>
 5   0  0.3578670E-05  0.2504074E+04  0.7818609E-02  0.8401536E-01
        2   -1    0    0  501    0  0.00000000000E+00  0.00000000000E+00  0.11988548526E+04  0.11988548526E+04  0.25500000920E-02 0.  1.
       -2   -1    0    0    0  501  0.00000000000E+00  0.00000000000E+00 -0.13075781451E+04  0.13075781451E+04  0.25500000920E-02 0. -1.
    10030    2    1    2    0    0  0.00000000000E+00  0.00000000000E+00 -0.10872329251E+03  0.25064329977E+04  0.25040738044E+04 0.  0.
        4    1    3    3  502    0 -0.20072974596E+03  0.12355855975E+04 -0.79496892826E+02  0.12543068080E+04  0.12699999809E+01 0. -1.
       -4    1    3    3    0  502  0.20072974596E+03 -0.12355855975E+04 -0.29226399685E+02  0.12521261897E+04  0.12699999809E+01 0.  1.
</event>
<event>
 5   0  0.3650620E-05  0.2527792E+04  0.7818609E-02  0.8393151E-01
        2   -1    0    0  501    0  0.00000000000E+00  0.00000000000E+00  0.15032661409E+04  0.15032661409E+04  0.25500000920E-02 0. -1.
       -2   -1    0    0    0  501  0.00000000000E+00  0.00000000000E+00 -0.10626415250E+04  0.10626415250E+04  0.25500000920E-02 0.  1.
    10030    2    1    2    0    0  0.00000000000E+00  0.00000000000E+00  0.44062461582E+03  0.25659076659E+04  0.25277919412E+04 0.  0.
        3    1    3    3  502    0 -0.37459175520E+03 -0.44566033129E+03  0.13590572594E+04  0.14785022010E+04  0.10100000352E+00 0. -1.
       -3    1    3    3    0  502  0.37459175520E+03  0.44566033129E+03 -0.91843264359E+03  0.10874054648E+04  0.10100000352E+00 0.  1.
</event>
<event>
 5   0  0.1456876E-05  0.2543978E+04  0.7818609E-02  0.8387484E-01
       -1   -1    0    0    0  501  0.00000000000E+00  0.00000000000E+00  0.94713996608E+03  0.94713996609E+03  0.50400001928E-02 0.  1.
        1   -1    0    0  501    0  0.00000000000E+00  0.00000000000E+00 -0.17082537729E+04  0.17082537729E+04  0.50400001928E-02 0. -1.
    10030    2    1    2    0    0  0.00000000000E+00  0.00000000000E+00 -0.76111380684E+03  0.26553937390E+04  0.25439775318E+04 0.  0.
        1    1    3    3  502    0 -0.11714882415E+02 -0.46304796274E+03 -0.16170939410E+04  0.16821246887E+04  0.50400001928E-02 0. -1.
       -1    1    3    3    0  502  0.11714882415E+02  0.46304796274E+03  0.85598013414E+03  0.97326905034E+03  0.50400001928E-02 0.  1.
</event>
<event>
 5   0  0.3578670E-05  0.2525790E+04  0.7818609E-02  0.8393855E-01
       -2   -1    0    0    0  501  0.00000000000E+00  0.00000000000E+00  0.56359493186E+03  0.56359493186E+03  0.25500000920E-02 0.  1.
        2   -1    0    0  501    0  0.00000000000E+00  0.00000000000E+00 -0.28298762636E+04  0.28298762636E+04  0.25500000920E-02 0. -1.
    10030    2    1    2    0    0  0.00000000000E+00  0.00000000000E+00 -0.22662813318E+04  0.33934711955E+04  0.25257901100E+04 0.  0.
        4    1    3    3  502    0 -0.42935396236E+03 -0.52261973112E+03 -0.25660163188E+04  0.26536611633E+04  0.12699999809E+01 0. -1.
       -4    1    3    3    0  502  0.42935396236E+03  0.52261973112E+03  0.29973498704E+03  0.73981003218E+03  0.12699999809E+01 0.  1.
</event>
<event>
 5   0  0.1502886E-05  0.2474398E+04  0.7818609E-02  0.8412164E-01
       -1   -1    0    0    0  501  0.00000000000E+00  0.00000000000E+00  0.12631652399E+04  0.12631652399E+04  0.50400001928E-02 0. -1.
        1   -1    0    0  501    0  0.00000000000E+00  0.00000000000E+00 -0.12117663026E+04  0.12117663026E+04  0.50400001928E-02 0.  1.
    10030    2    1    2    0    0  0.00000000000E+00  0.00000000000E+00  0.51398937372E+02  0.24749315425E+04  0.24743977630E+04 0.  0.
        4    1    3    3  502    0 -0.75531061904E+03  0.17233855910E+03  0.99051356173E+03  0.12575028585E+04  0.12699999809E+01 0. -1.
       -4    1    3    3    0  502  0.75531061904E+03 -0.17233855910E+03 -0.93911462436E+03  0.12174286841E+04  0.12699999809E+01 0.  1.
</event>
<event>
 5   0  0.3581449E-05  0.2536128E+04  0.7818609E-02  0.8390226E-01
        2   -1    0    0  501    0  0.00000000000E+00  0.00000000000E+00  0.17429793067E+04  0.17429793067E+04  0.25500000920E-02 0. -1.
       -2   -1    0    0    0  501  0.00000000000E+00  0.00000000000E+00 -0.92255073277E+03  0.92255073277E+03  0.25500000920E-02 0.  1.
    10030    2    1    2    0    0  0.00000000000E+00  0.00000000000E+00  0.82042857397E+03  0.26655300395E+04  0.25361284168E+04 0.  0.
        1    1    3    3  502    0 -0.26903667314E+03 -0.28402193829E+03  0.16779669493E+04  0.17229690293E+04  0.50400001928E-02 0. -1.
       -1    1    3    3    0  502  0.26903667314E+03  0.28402193829E+03 -0.85753837530E+03  0.94256101026E+03  0.50400001928E-02 0.  1.
</event>
<event>
 5   0  0.3579097E-05  0.2588945E+04  0.7818609E-02  0.8371966E-01
        2   -1    0    0  501    0  0.00000000000E+00  0.00000000000E+00  0.13568449177E+04  0.13568449177E+04  0.25500000920E-02 0. -1.
       -2   -1    0    0    0  501  0.00000000000E+00  0.00000000000E+00 -0.12349674521E+04  0.12349674521E+04  0.25500000920E-02 0.  1.
    10030    2    1    2    0    0  0.00000000000E+00  0.00000000000E+00  0.12187746553E+03  0.25918123698E+04  0.25889451990E+04 0.  0.
        5    1    3    3  502    0 -0.46585361128E+03  0.24264620017E+03  0.12453552575E+04  0.13516022244E+04  0.46999998093E+01 0. -1.
       -5    1    3    3    0  502  0.46585361128E+03 -0.24264620017E+03 -0.11234777920E+04  0.12402101454E+04  0.46999998093E+01 0.  1.
</event>
<event>
 5   0  0.1456876E-05  0.2583108E+04  0.7818609E-02  0.8373962E-01
        1   -1    0    0  501    0  0.00000000000E+00  0.00000000000E+00  0.93561638935E+03  0.93561638936E+03  0.50400001928E-02 0.  1.
       -1   -1    0    0    0  501  0.00000000000E+00  0.00000000000E+00 -0.17829015734E+04  0.17829015734E+04  0.50400001928E-02 0. -1.
    10030    2    1    2    0    0  0.00000000000E+00  0.00000000000E+00 -0.84728518405E+03  0.27185179628E+04  0.25831081531E+04 0.  0.
        1    1    3    3  502    0 -0.52928905151E+03  0.11083944091E+04 -0.84385645114E+03  0.14902277599E+04  0.50400001928E-02 0.  1.
       -1    1    3    3    0  502  0.52928905151E+03 -0.11083944091E+04 -0.34287329053E+01  0.12282902029E+04  0.50400001928E-02 0. -1.
</event>
<event>
 5   0  0.1456876E-05  0.2423046E+04  0.7818609E-02  0.8430926E-01
       -1   -1    0    0    0  501  0.00000000000E+00  0.00000000000E+00  0.10711359406E+04  0.10711359407E+04  0.50400001928E-02 0. -1.
        1   -1    0    0  501    0  0.00000000000E+00  0.00000000000E+00 -0.13703092068E+04  0.13703092068E+04  0.50400001928E-02 0.  1.
    10030    2    1    2    0    0  0.00000000000E+00  0.00000000000E+00 -0.29917326615E+03  0.24414451475E+04  0.24230455557E+04 0.  0.
        1    1    3    3  502    0 -0.85353547488E+03  0.68978737781E+03 -0.66676588499E+03  0.12840974180E+04  0.50400001928E-02 0. -1.
       -1    1    3    3    0  502  0.85353547488E+03 -0.68978737781E+03  0.36759261884E+03  0.11573477295E+04  0.50400001928E-02 0.  1.
</event>
<event>
 5   0  0.1502886E-05  0.2489995E+04  0.7818609E-02  0.8406559E-01
        1   -1    0    0  501    0  0.00000000000E+00  0.00000000000E+00  0.28730186014E+04  0.28730186014E+04  0.50400001928E-02 0. -1.
       -1   -1    0    0    0  501  0.00000000000E+00  0.00000000000E+00 -0.53950858722E+03  0.53950858724E+03  0.50400001928E-02 0.  1.
    10030    2    1    2    0    0  0.00000000000E+00  0.00000000000E+00  0.23335100142E+04  0.34125271887E+04  0.24899945436E+04 0.  0.
        4    1    3    3  502    0  0.77668258379E+03  0.80948561287E+03  0.42679664146E+03  0.12002748766E+04  0.12699999809E+01 0.  1.
       -4    1    3    3    0  502 -0.77668258379E+03 -0.80948561287E+03  0.19067133727E+04  0.22122523120E+04  0.12699999809E+01 0. -1.
</event>
<event>
 5   0  0.3578670E-05  0.2460626E+04  0.7818609E-02  0.8417149E-01
       -2   -1    0    0    0  501  0.00000000000E+00  0.00000000000E+00  0.56559646252E+03  0.56559646252E+03  0.25500000920E-02 0. -1.
        2   -1    0    0  501    0  0.00000000000E+00  0.00000000000E+00 -0.26762362301E+04  0.26762362301E+04  0.25500000920E-02 0.  1.
    10030    2    1    2    0    0  0.00000000000E+00  0.00000000000E+00 -0.21106397676E+04  0.32418326926E+04  0.24606257290E+04 0.  0.
        4    1    3    3  502    0  0.37352183068E+03  0.46195579554E+03 -0.24747490103E+04  0.25450552041E+04  0.12699999809E+01 0.  1.
       -4    1    3    3    0  502 -0.37352183068E+03 -0.46195579554E+03  0.36410924269E+03  0.69677748855E+03  0.12699999809E+01 0. -1.
</event>
<event>
 5   0  0.1456876E-05  0.2270718E+04  0.7818609E-02  0.8489557E-01
       -1   -1    0    0    0  501  0.00000000000E+00  0.00000000000E+00  0.81245358694E+03  0.81245358696E+03  0.50400001928E-02 0. -1.
        1   -1    0    0  501    0  0.00000000000E+00  0.00000000000E+00 -0.15866014937E+04  0.15866014937E+04  0.50400001928E-02 0.  1.
    10030    2    1    2    0    0  0.00000000000E+00  0.00000000000E+00 -0.77414790680E+03  0.23990550807E+04  0.22707180139E+04 0.  0.
        1    1    3    3  502    0  0.10881207536E+04  0.19283056713E+03 -0.11187239310E+03  0.11107231133E+04  0.50400001928E-02 0. -1.
       -1    1    3    3    0  502 -0.10881207536E+04 -0.19283056713E+03 -0.66227551370E+03  0.12883319674E+04  0.50400001928E-02 0.  1.
</event>
<event>
 5   0  0.3581449E-05  0.2395821E+04  0.7818609E-02  0.8441070E-01
       -2   -1    0    0    0  501  0.00000000000E+00  0.00000000000E+00  0.16749071480E+04  0.16749071480E+04  0.25500000920E-02 0.  1.
        2   -1    0    0  501    0  0.00000000000E+00  0.00000000000E+00 -0.85675789361E+03  0.85675789361E+03  0.25500000920E-02 0. -1.
    10030    2    1    2    0    0  0.00000000000E+00  0.00000000000E+00  0.81814925434E+03  0.25316650416E+04  0.23958212956E+04 0.  0.
        1    1    3    3  502    0  0.79330641717E+03  0.83389635283E+02 -0.53529920061E+03  0.96064256464E+03  0.50400001928E-02 0. -1.
       -1    1    3    3    0  502 -0.79330641717E+03 -0.83389635283E+02  0.13534484550E+04  0.15710224769E+04  0.50400001928E-02 0.  1.
</event>
<event>
 5   0  0.1201438E-05  0.2469152E+04  0.7818609E-02  0.8414058E-01
       -3   -1    0    0    0  501  0.00000000000E+00  0.00000000000E+00  0.83869569160E+03  0.83869569768E+03  0.10100000352E+00 0. -1.
        3   -1    0    0  501    0  0.00000000000E+00  0.00000000000E+00 -0.18173196870E+04  0.18173196898E+04  0.10100000352E+00 0.  1.
    10030    2    1    2    0    0  0.00000000000E+00  0.00000000000E+00 -0.97862399543E+03  0.26560153875E+04  0.24691522461E+04 0.  0.
        4    1    3    3  502    0  0.13186360264E+03 -0.42454045375E+03 -0.17282374693E+04  0.17844968394E+04  0.12699999809E+01 0.  1.
       -4    1    3    3    0  502 -0.13186360264E+03  0.42454045375E+03  0.74961347389E+03  0.87151854811E+03  0.12699999809E+01 0. -1.
</event>
<event>
 5   0  0.3650620E-05  0.2498906E+04  0.7818609E-02  0.8403375E-01
       -2   -1    0    0    0  501  0.00000000000E+00  0.00000000000E+00  0.65936721165E+03  0.65936721166E+03  0.25500000920E-02 0.  1.
        2   -1    0    0  501    0  0.00000000000E+00  0.00000000000E+00 -0.23676225686E+04  0.23676225686E+04  0.25500000920E-02 0. -1.
    10030    2    1    2    0    0  0.00000000000E+00  0.00000000000E+00 -0.17082553570E+04  0.30269897803E+04  0.24989059137E+04 0.  0.
        3    1    3    3  502    0 -0.17640416965E+03 -0.24518245243E+03  0.61447703425E+03  0.68470059287E+03  0.10100000352E+00 0.  1.
       -3    1    3    3    0  502  0.17640416965E+03  0.24518245243E+03 -0.23227323912E+04  0.23422891874E+04  0.10100000352E+00 0. -1.
</event>
<event>
 5   0  0.1456876E-05  0.2089555E+04  0.7818609E-02  0.8565859E-01
       -1   -1    0    0    0  501  0.00000000000E+00  0.00000000000E+00  0.73565884043E+03  0.73565884045E+03  0.50400001928E-02 0. -1.
        1   -1    0    0  501    0  0.00000000000E+00  0.00000000000E+00 -0.14837850447E+04  0.14837850447E+04  0.50400001928E-02 0.  1.
    10030    2    1    2    0    0  0.00000000000E+00  0.00000000000E+00 -0.74812620430E+03  0.22194438852E+04  0.20895545798E+04 0.  0.
        1    1    3    3  502    0  0.70390113296E+03  0.24372966651E+03  0.40405873031E+03  0.84743401683E+03  0.50400001928E-02 0. -1.
       -1    1    3    3    0  502 -0.70390113296E+03 -0.24372966651E+03 -0.11521849346E+04  0.13720098684E+04  0.50400001928E-02 0.  1.
</event>
<event>
 5   0  0.1201438E-05  0.2907798E+04  0.7818609E-02  0.8270561E-01
       -3   -1    0    0    0  501  0.00000000000E+00  0.00000000000E+00  0.84980219639E+03  0.84980220239E+03  0.10100000352E+00 0.  1.
        3   -1    0    0  501    0  0.00000000000E+00  0.00000000000E+00 -0.24874279730E+04  0.24874279751E+04  0.10100000352E+00 0. -1.
    10030    2    1    2    0    0  0.00000000000E+00  0.00000000000E+00 -0.16376257766E+04  0.33372301775E+04  0.29077976328E+04 0.  0.
        4    1    3    3  502    0 -0.60613689163E+03  0.12653169196E+04 -0.12564268998E+04  0.18833584380E+04  0.12699999809E+01 0. -1.
       -4    1    3    3    0  502  0.60613689163E+03 -0.12653169196E+04 -0.38119887677E+03  0.14538717395E+04  0.12699999809E+01 0.  1.
</event>
<event>
 5   0  0.3579097E-05  0.2494164E+04  0.7818609E-02  0.8405068E-01
       -2   -1    0    0    0  501  0.00000000000E+00  0.00000000000E+00  0.14231528903E+04  0.14231528903E+04  0.25500000920E-02 0.  1.
        2   -1    0    0  501    0  0.00000000000E+00  0.00000000000E+00 -0.10927945678E+04  0.10927945678E+04  0.25500000920E-02 0. -1.
    10030    2    1    2    0    0  0.00000000000E+00  0.00000000000E+00  0.33035832245E+03  0.25159474581E+04  0.24941641868E+04 0.  0.
        5    1    3    3  502    0 -0.22188244434E+03  0.10845695825E+04  0.74436156526E+03  0.13340236985E+04  0.46999998093E+01 0.  1.
       -5    1    3    3    0  502  0.22188244434E+03 -0.10845695825E+04 -0.41400324281E+03  0.11819237596E+04  0.46999998093E+01 0. -1.
</event>
<event>
 5   0  0.1456876E-05  0.2527726E+04  0.7818609E-02  0.8393174E-01
       -1   -1    0    0    0  501  0.00000000000E+00  0.00000000000E+00  0.73081833368E+03  0.73081833370E+03  0.50400001928E-02 0. -1.
        1   -1    0    0  501    0  0.00000000000E+00  0.00000000000E+00 -0.21856997831E+04  0.21856997831E+04  0.50400001928E-02 0.  1.
    10030    2    1    2    0    0  0.00000000000E+00  0.00000000000E+00 -0.14548814494E+04  0.29165181168E+04  0.25277258344E+04 0.  0.
        1    1    3    3  502    0  0.18982409721E+03  0.11232876558E+04 -0.13589255833E+04  0.17732701674E+04  0.50400001928E-02 0.  1.
       -1    1    3    3    0  502 -0.18982409721E+03 -0.11232876558E+04 -0.95955866127E+02  0.11432479494E+04  0.50400001928E-02 0. -1.
</event>
<event>
 5   0  0.1492639E-05  0.2511730E+04  0.7818609E-02  0.8398818E-01
       -1   -1    0    0    0  501  0.00000000000E+00  0.00000000000E+00  0.13575136598E+04  0.13575136598E+04  0.50400001928E-02 0. -1.
        1   -1    0    0  501    0  0.00000000000E+00  0.00000000000E+00 -0.11618278256E+04  0.11618278256E+04  0.50400001928E-02 0.  1.
    10030    2    1    2    0    0  0.00000000000E+00  0.00000000000E+00  0.19568583421E+03  0.25193414855E+04  0.25117301955E+04 0.  0.
        5    1    3    3  502    0  0.48888544990E+03  0.11051249535E+04  0.44073393735E+03  0.12863042562E+04  0.46999998093E+01 0. -1.
       -5    1    3    3    0  502 -0.48888544990E+03 -0.11051249535E+04 -0.24504810314E+03  0.12330372293E+04  0.46999998093E+01 0.  1.
</event>
<event>
 5   0  0.1421242E-05  0.2500889E+04  0.7818609E-02  0.8402669E-01
        1   -1    0    0  501    0  0.00000000000E+00  0.00000000000E+00  0.19576089864E+04  0.19576089864E+04  0.50400001928E-02 0. -1.
       -1   -1    0    0    0  501  0.00000000000E+00  0.00000000000E+00 -0.79873503983E+03  0.79873503984E+03  0.50400001928E-02 0.  1.
    10030    2    1    2    0    0  0.00000000000E+00  0.00000000000E+00  0.11588739466E+04  0.27563440263E+04  0.25008885555E+04 0.  0.
        3    1    3    3  502    0 -0.43545341556E+03 -0.73526149586E+03 -0.42670918287E+03  0.95514914090E+03  0.10100000352E+00 0.  1.
       -3    1    3    3    0  502  0.43545341556E+03  0.73526149586E+03  0.15855831295E+04  0.18011948854E+04  0.10100000352E+00 0. -1.
</event>
<event>
 5   0  0.3578670E-05  0.2485690E+04  0.7818609E-02  0.8408101E-01
        2   -1    0    0  501    0  0.00000000000E+00  0.00000000000E+00  0.97332239937E+03  0.97332239937E+03  0.25500000920E-02 0. -1.
       -2   -1    0    0    0  501  0.00000000000E+00  0.00000000000E+00 -0.15870008571E+04  0.15870008571E+04  0.25500000920E-02 0.  1.
    10030    2    1    2    0    0  0.00000000000E+00  0.00000000000E+00 -0.61367845778E+03  0.25603232565E+04  0.24856898295E+04 0.  0.
        4    1    3    3  502    0 -0.81553318087E+03  0.83321380098E+03 -0.75025553722E+03  0.13864431439E+04  0.12699999809E+01 0. -1.
       -4    1    3    3    0  502  0.81553318087E+03 -0.83321380098E+03  0.13657707944E+03  0.11738801126E+04  0.12699999809E+01 0.  1.
</event>
<event>
 5   0  0.1429483E-05  0.2512369E+04  0.7818609E-02  0.8398592E-01
        1   -1    0    0  501    0  0.00000000000E+00  0.00000000000E+00  0.99173085539E+03  0.99173085540E+03  0.50400001928E-02 0. -1.
       -1   -1    0    0    0  501  0.00000000000E+00  0.00000000000E+00 -0.15911576350E+04  0.15911576350E+04  0.50400001928E-02 0.  1.
    10030    2    1    2    0    0  0.00000000000E+00  0.00000000000E+00 -0.59942677957E+03  0.25828884904E+04  0.25123694970E+04 0.  0.
        2    1    3    3  502    0 -0.91802269364E+03 -0.47723036990E+03 -0.10320892479E+04  0.14614112042E+04  0.25500000920E-02 0.  1.
       -2    1    3    3    0  502  0.91802269364E+03  0.47723036990E+03  0.43266246834E+03  0.11214772862E+04  0.25500000920E-02 0. -1.
</event>
<event>
 5   0  0.3581449E-05  0.2553266E+04  0.7818609E-02  0.8384251E-01
       -2   -1    0    0    0  501  0.00000000000E+00  0.00000000000E+00  0.11245595608E+04  0.11245595608E+04  0.25500000920E-02 0.  1.
        2   -1    0    0  501    0  0.00000000000E+00  0.00000000000E+00 -0.14492707924E+04  0.14492707924E+04  0.25500000920E-02 0. -1.
    10030    2    1    2    0    0  0.00000000000E+00  0.00000000000E+00 -0.32471123157E+03  0.25738303532E+04  0.25532656155E+04 0.  0.
        1    1    3    3  502    0  0.22491421324E+03 -0.29613556867E+03  0.10687542435E+04  0.11315998901E+04  0.50400001928E-02 0.  1.
       -1    1    3    3    0  502 -0.22491421324E+03  0.29613556867E+03 -0.13934654751E+04  0.14422304631E+04  0.50400001928E-02 0. -1.
</event>
<event>
 5   0  0.3581449E-05  0.2262619E+04  0.7818609E-02  0.8492808E-01
       -2   -1    0    0    0  501  0.00000000000E+00  0.00000000000E+00  0.59613717280E+03  0.59613717280E+03  0.25500000920E-02 0. -1.
        2   -1    0    0  501    0  0.00000000000E+00  0.00000000000E+00 -0.21469236475E+04  0.21469236475E+04  0.25500000920E-02 0.  1.
    10030    2    1    2    0    0  0.00000000000E+00  0.00000000000E+00 -0.15507864747E+04  0.27430608203E+04  0.22626188308E+04 0.  0.
        1    1    3    3  502    0  0.59989159607E+03 -0.90882254254E+03 -0.40363261767E+03  0.11613559450E+04  0.50400001928E-02 0. -1.
       -1    1    3    3    0  502 -0.59989159607E+03  0.90882254254E+03 -0.11471538570E+04  0.15817048753E+04  0.50400001928E-02 0.  1.
</event>
<event>
 5   0  0.3578670E-05  0.2520725E+04  0.7818609E-02  0.8395639E-01
       -2   -1    0    0    0  501  0.00000000000E+00  0.00000000000E+00  0.15007147324E+04  0.15007147324E+04  0.25500000920E-02 0.  1.
        2   -1    0    0  501    0  0.00000000000E+00  0.00000000000E+00 -0.10585046478E+04  0.10585046478E+04  0.25500000920E-02 0. -1.
    10030    2    1    2    0    0  0.00000000000E+00  0.00000000000E+00  0.44221008455E+03  0.25592193802E+04  0.25207249110E+04 0.  0.
        4    1    3    3  502    0  0.65870911060E+02  0.31082038250E+03  0.14593878316E+04  0.14935738157E+04  0.12699999809E+01 0.  1.
       -4    1    3    3    0  502 -0.65870911060E+02 -0.31082038250E+03 -0.10171777470E+04  0.10656455645E+04  0.12699999809E+01 0. -1.
</event>
<event>
 5   0  0.3578670E-05  0.2506484E+04  0.7818609E-02  0.8400679E-01
        2   -1    0    0  501    0  0.00000000000E+00  0.00000000000E+00  0.26317625287E+04  0.26317625287E+04  0.25500000920E-02 0. -1.
       -2   -1    0    0    0  501  0.00000000000E+00  0.00000000000E+00 -0.59679216222E+03  0.59679216223E+03  0.25500000920E-02 0.  1.
    10030    2    1    2    0    0  0.00000000000E+00  0.00000000000E+00  0.20349703665E+04  0.32285546909E+04  0.25064837920E+04 0.  0.
        4    1    3    3  502    0  0.25616340025E+03  0.12209673192E+04  0.11711547021E+04  0.17111358308E+04  0.12699999809E+01 0. -1.
       -4    1    3    3    0  502 -0.25616340025E+03 -0.12209673192E+04  0.86381566439E+03  0.15174188602E+04  0.12699999809E+01 0.  1.
</event>
<event>
 5   0  0.3650620E-05  0.2598586E+04  0.7818609E-02  0.8368682E-01
       -2   -1    0    0    0  501  0.00000000000E+00  0.00000000000E+00  0.84464818888E+03  0.84464818888E+03  0.25500000920E-02 0.  1.
        2   -1    0    0  501    0  0.00000000000E+00  0.00000000000E+00 -0.19986566132E+04  0.19986566132E+04  0.25500000920E-02 0. -1.
    10030    2    1    2    0    0  0.00000000000E+00  0.00000000000E+00 -0.11540084243E+04  0.28433048021E+04  0.25985855295E+04 0.  0.
        3    1    3    3  502    0  0.37770870668E+03 -0.36193551917E+03  0.72432732286E+03  0.89348266238E+03  0.10100000352E+00 0.  1.
       -3    1    3    3    0  502 -0.37770870668E+03  0.36193551917E+03 -0.18783357471E+04  0.19498221397E+04  0.10100000352E+00 0. -1.
</event>
<event>
 5   0  0.1421242E-05  0.2502858E+04  0.7818609E-02  0.8401968E-01
       -1   -1    0    0    0  501  0.00000000000E+00  0.00000000000E+00  0.15119113530E+04  0.15119113530E+04  0.50400001928E-02 0.  1.
        1   -1    0    0  501    0  0.00000000000E+00  0.00000000000E+00 -0.10358240621E+04  0.10358240622E+04  0.50400001928E-02 0. -1.
    10030    2    1    2    0    0  0.00000000000E+00  0.00000000000E+00  0.47608729084E+03  0.25477354151E+04  0.25028576941E+04 0.  0.
        3    1    3    3  502    0 -0.13048318321E+03  0.11717619156E+04 -0.18902925416E+03  0.11940619402E+04  0.10100000352E+00 0. -1.
       -3    1    3    3    0  502  0.13048318321E+03 -0.11717619156E+04  0.66511654500E+03  0.13536734749E+04  0.10100000352E+00 0.  1.
</event>
<event>
 5   0  0.1502886E-05  0.2428570E+04  0.7818609E-02  0.8428884E-01
       -1   -1    0    0    0  501  0.00000000000E+00  0.00000000000E+00  0.84132104615E+03  0.84132104616E+03  0.50400001928E-02 0.  1.
        1   -1    0    0  501    0  0.00000000000E+00  0.00000000000E+00 -0.17525860790E+04  0.17525860790E+04  0.50400001928E-02 0. -1.
    10030    2    1    2    0    0  0.00000000000E+00  0.00000000000E+00 -0.91126503285E+03  0.25939071252E+04  0.24285695818E+04 0.  0.
        4    1    3    3  502    0  0.29846420434E+03  0.94845706342E+03  0.28883874708E+03  0.10354135006E+04  0.12699999809E+01 0.  1.
       -4    1    3    3    0  502 -0.29846420434E+03 -0.94845706342E+03 -0.12001037799E+04  0.15584936246E+04  0.12699999809E+01 0. -1.
</event>
<event>
 5   0  0.3650620E-05  0.2487432E+04  0.7818609E-02  0.8407477E-01
        2   -1    0    0  501    0  0.00000000000E+00  0.00000000000E+00  0.14968381358E+04  0.14968381358E+04  0.25500000920E-02 0. -1.
       -2   -1    0    0    0  501  0.00000000000E+00  0.00000000000E+00 -0.10333980907E+04  0.10333980907E+04  0.25500000920E-02 0.  1.
    10030    2    1    2    0    0  0.00000000000E+00  0.00000000000E+00  0.46344004512E+03  0.25302362264E+04  0.24874321470E+04 0.  0.
        3    1    3    3  502    0  0.58038987731E+03 -0.95601791008E+03 -0.32170758845E+03  0.11637518794E+04  0.10100000352E+00 0.  1.
       -3    1    3    3    0  502 -0.58038987731E+03  0.95601791008E+03  0.78514763358E+03  0.13664843471E+04  0.10100000352E+00 0. -1.
</event>
<event>
 5   0  0.3704241E-05  0.2515365E+04  0.7818609E-02  0.8397532E-01
       -2   -1    0    0    0  501  0.00000000000E+00  0.00000000000E+00  0.12753924698E+04  0.12753924698E+04  0.25500000920E-02 0.  1.
        2   -1    0    0  501    0  0.00000000000E+00  0.00000000000E+00 -0.12402184536E+04  0.12402184536E+04  0.25500000920E-02 0. -1.
    10030    2    1    2    0    0  0.00000000000E+00  0.00000000000E+00  0.35174016291E+02  0.25156109234E+04  0.25153650046E+04 0.  0.
        2    1    3    3  502    0 -0.33928055821E+02 -0.56920803972E+03 -0.11035116019E+04  0.12421299292E+04  0.25500000920E-02 0. -1.
       -2    1    3    3    0  502  0.33928055821E+02  0.56920803972E+03  0.11386856182E+04  0.12734809942E+04  0.25500000920E-02 0.  1.
</event>
<event>
 5   0  0.1456876E-05  0.2454365E+04  0.7818609E-02  0.8419426E-01
       -1   -1    0    0    0  501  0.00000000000E+00  0.00000000000E+00  0.11151101111E+04  0.11151101111E+04  0.50400001928E-02 0.  1.
        1   -1    0    0  501    0  0.00000000000E+00  0.00000000000E+00 -0.13505184803E+04  0.13505184803E+04  0.50400001928E-02 0. -1.
    10030    2    1    2    0    0  0.00000000000E+00  0.00000000000E+00 -0.23540836919E+03  0.24656285914E+04  0.24543649383E+04 0.  0.
        1    1    3    3  502    0 -0.52619526755E+03 -0.97975319786E+03  0.40350147930E+03  0.11830516608E+04  0.50400001928E-02 0. -1.
       -1    1    3    3    0  502  0.52619526755E+03  0.97975319786E+03 -0.63890984849E+03  0.12825769306E+04  0.50400001928E-02 0.  1.
</event>
<event>
 5   0  0.3581449E-05  0.2505550E+04  0.7818609E-02  0.8401011E-01
        2   -1    0    0  501    0  0.00000000000E+00  0.00000000000E+00  0.31177982168E+04  0.31177982168E+04  0.25500000920E-02 0.  1.
       -2   -1    0    0    0  501  0.00000000000E+00  0.00000000000E+00 -0.50338237124E+03  0.50338237125E+03  0.25500000920E-02 0. -1.
    10030    2    1    2    0    0  0.00000000000E+00  0.00000000000E+00  0.26144158455E+04  0.36211805880E+04  0.25055495680E+04 0.  0.
        1    1    3    3  502    0  0.13872831645E+03 -0.98657741299E+03  0.24049086427E+04  0.26031070122E+04  0.50400001928E-02 0.  1.
       -1    1    3    3    0  502 -0.13872831645E+03  0.98657741299E+03  0.20950720286E+03  0.10180735758E+04  0.50400001928E-02 0. -1.
</event>
<event>
 5   0  0.1429483E-05  0.1936361E+04  0.7818609E-02  0.8636966E-01
        1   -1    0    0  501    0  0.00000000000E+00  0.00000000000E+00  0.11790909076E+04  0.11790909076E+04  0.50400001928E-02 0.  1.
       -1   -1    0    0    0  501  0.00000000000E+00  0.00000000000E+00 -0.79499644618E+03  0.79499644620E+03  0.50400001928E-02 0. -1.
    10030    2    1    2    0    0  0.00000000000E+00  0.00000000000E+00  0.38409446138E+03  0.19740873538E+04  0.19363605876E+04 0.  0.
        2    1    3    3  502    0 -0.58286636356E+03  0.34325797859E+03 -0.51413456669E+03  0.84964321354E+03  0.25500000920E-02 0. -1.
       -2    1    3    3    0  502  0.58286636356E+03 -0.34325797859E+03  0.89822902807E+03  0.11244441402E+04  0.25500000920E-02 0.  1.
</event>
<event>
 5   0  0.3579097E-05  0.2500604E+04  0.7818609E-02  0.8402770E-01
        2   -1    0    0  501    0  0.00000000000E+00  0.00000000000E+00  0.19347125410E+04  0.19347125410E+04  0.25500000920E-02 0. -1.
       -2   -1    0    0    0  501  0.00000000000E+00  0.00000000000E+00 -0.80800371534E+03  0.80800371534E+03  0.25500000920E-02 0.  1.
    10030    2    1    2    0    0  0.00000000000E+00  0.00000000000E+00  0.11267088256E+04  0.27427162563E+04  0.25006038641E+04 0.  0.
        5    1    3    3  502    0  0.93971869013E+03  0.74753270852E+03  0.94544596888E+03  0.15283214770E+04  0.46999998093E+01 0. -1.
       -5    1    3    3    0  502 -0.93971869013E+03 -0.74753270852E+03  0.18126285676E+03  0.12143947794E+04  0.46999998093E+01 0.  1.
</event>
<event>
 5   0  0.1429483E-05  0.2516798E+04  0.7818609E-02  0.8397026E-01
        1   -1    0    0  501    0  0.00000000000E+00  0.00000000000E+00  0.12092964260E+04  0.12092964260E+04  0.50400001928E-02 0.  1.
       -1   -1    0    0    0  501  0.00000000000E+00  0.00000000000E+00 -0.13094948848E+04  0.13094948848E+04  0.50400001928E-02 0. -1.
    10030    2    1    2    0    0  0.00000000000E+00  0.00000000000E+00 -0.10019845884E+03  0.25187913108E+04  0.25167975556E+04 0.  0.
        2    1    3    3  502    0 -0.45914749979E+03 -0.55620025960E+03  0.98192683176E+03  0.12183412733E+04  0.25500000920E-02 0.  1.
       -2    1    3    3    0  502  0.45914749979E+03  0.55620025960E+03 -0.10821252906E+04  0.13004500374E+04  0.25500000920E-02 0. -1.
</event>
<event>
 5   0  0.1421242E-05  0.2552918E+04  0.7818609E-02  0.8384372E-01
        1   -1    0    0  501    0  0.00000000000E+00  0.00000000000E+00  0.12317468295E+04  0.12317468295E+04  0.50400001928E-02 0. -1.
       -1   -1    0    0    0  501  0.00000000000E+00  0.00000000000E+00 -0.13227942323E+04  0.13227942323E+04  0.50400001928E-02 0.  1.
    10030    2    1    2    0    0  0.00000000000E+00  0.00000000000E+00 -0.91047402823E+02  0.25545410618E+04  0.25529180180E+04 0.  0.
        3    1    3    3  502    0  0.88881439177E+03  0.91558068963E+03 -0.12813942099E+02  0.12761047095E+04  0.10100000352E+00 0.  1.
       -3    1    3    3    0  502 -0.88881439177E+03 -0.91558068963E+03 -0.78233460723E+02  0.12784363523E+04  0.10100000352E+00 0. -1.
</event>
<event>
 5   0  0.1492639E-05  0.2616471E+04  0.7818609E-02  0.8362628E-01
       -1   -1    0    0    0  501  0.00000000000E+00  0.00000000000E+00  0.61204449704E+03  0.61204449707E+03  0.50400001928E-02 0.  1.
        1   -1    0    0  501    0  0.00000000000E+00  0.00000000000E+00 -0.27963322086E+04  0.27963322086E+04  0.50400001928E-02 0. -1.
    10030    2    1    2    0    0  0.00000000000E+00  0.00000000000E+00 -0.21842877115E+04  0.34083767057E+04  0.26164707071E+04 0.  0.
        5    1    3    3  502    0 -0.94155822888E+03 -0.88450778307E+03 -0.82336668434E+03  0.15319401762E+04  0.46999998093E+01 0. -1.
       -5    1    3    3    0  502  0.94155822888E+03  0.88450778307E+03 -0.13609210272E+04  0.18764365294E+04  0.46999998093E+01 0.  1.
</event>
<event>
 5   0  0.3581449E-05  0.2528711E+04  0.7818609E-02  0.8392828E-01
        2   -1    0    0  501    0  0.00000000000E+00  0.00000000000E+00  0.22939050396E+04  0.22939050396E+04  0.25500000920E-02 0.  1.
       -2   -1    0    0    0  501  0.00000000000E+00  0.00000000000E+00 -0.69688787852E+03  0.69688787853E+03  0.25500000920E-02 0. -1.
    10030    2    1    2    0    0  0.00000000000E+00  0.00000000000E+00  0.15970171610E+04  0.29907929181E+04  0.25287108309E+04 0.  0.
        1    1    3    3  502    0 -0.54375715585E+03 -0.10820596079E+04  0.12283308344E+04  0.17249120205E+04  0.50400001928E-02 0.  1.
       -1    1    3    3    0  502  0.54375715585E+03  0.10820596079E+04  0.36868632663E+03  0.12658808976E+04  0.50400001928E-02 0. -1.
</event>
<event>
 5   0  0.1421242E-05  0.2520004E+04  0.7818609E-02  0.8395893E-01
       -1   -1    0    0    0  501  0.00000000000E+00  0.00000000000E+00  0.11842047468E+04  0.11842047468E+04  0.50400001928E-02 0.  1.
        1   -1    0    0  501    0  0.00000000000E+00  0.00000000000E+00 -0.13406510664E+04  0.13406510664E+04  0.50400001928E-02 0. -1.
    10030    2    1    2    0    0  0.00000000000E+00  0.00000000000E+00 -0.15644631959E+03  0.25248558133E+04  0.25200042514E+04 0.  0.
        3    1    3    3  502    0 -0.51042563060E+03 -0.81079115834E+03 -0.89814376435E+03  0.13132322180E+04  0.10100000352E+00 0. -1.
       -3    1    3    3    0  502  0.51042563060E+03  0.81079115834E+03  0.74169744476E+03  0.12116235953E+04  0.10100000352E+00 0.  1.
</event>
<event>
 5   0  0.3704241E-05  0.2468718E+04  0.7818609E-02  0.8414215E-01
        2   -1    0    0  501    0  0.00000000000E+00  0.00000000000E+00  0.11643011662E+04  0.11643011662E+04  0.25500000920E-02 0.  1.
       -2   -1    0    0    0  501  0.00000000000E+00  0.00000000000E+00 -0.13086324818E+04  0.13086324818E+04  0.25500000920E-02 0. -1.
    10030    2    1    2    0    0  0.00000000000E+00  0.00000000000E+00 -0.14433131555E+03  0.24729336480E+04  0.24687181489E+04 0.  0.
        2    1    3    3  502    0 -0.11971602198E+03 -0.48816028649E+03  0.10571501998E+04  0.11705549693E+04  0.25500000920E-02 0.  1.
       -2    1    3    3    0  502  0.11971602198E+03  0.48816028649E+03 -0.12014815153E+04  0.13023786788E+04  0.25500000920E-02 0. -1.
</event>
<event>
 5   0  0.1502886E-05  0.2804546E+04  0.7818609E-02  0.8301858E-01
        1   -1    0    0  501    0  0.00000000000E+00  0.00000000000E+00  0.20991951902E+04  0.20991951902E+04  0.50400001928E-02 0.  1.
       -1   -1    0    0    0  501  0.00000000000E+00  0.00000000000E+00 -0.93672572809E+03  0.93672572810E+03  0.50400001928E-02 0. -1.
    10030    2    1    2    0    0  0.00000000000E+00  0.00000000000E+00  0.11624694621E+04  0.30359209183E+04  0.28045464111E+04 0.  0.
        4    1    3    3  502    0  0.31931546863E+03  0.13641393264E+04  0.51691875617E+03  0.14933335473E+04  0.12699999809E+01 0.  1.
       -4    1    3    3    0  502 -0.31931546863E+03 -0.13641393264E+04  0.64555070593E+03  0.15425873710E+04  0.12699999809E+01 0. -1.
</event>
<event>
 5   0  0.1492639E-05  0.2290122E+04  0.7818609E-02  0.8481826E-01
       -1   -1    0    0    0  501  0.00000000000E+00  0.00000000000E+00  0.23866219752E+04  0.23866219752E+04  0.50400001928E-02 0.  1.
        1   -1    0    0  501    0  0.00000000000E+00  0.00000000000E+00 -0.54938085443E+03  0.54938085445E+03  0.50400001928E-02 0. -1.
    10030    2    1    2    0    0  0.00000000000E+00  0.00000000000E+00  0.18372411207E+04  0.29360028296E+04  0.22901217609E+04 0.  0.
        5    1    3    3  502    0  0.89313802876E+03  0.37748667718E+03  0.16994495616E+04  0.19566150956E+04  0.46999998093E+01 0. -1.
       -5    1    3    3    0  502 -0.89313802876E+03 -0.37748667718E+03  0.13779155918E+03  0.97938773407E+03  0.46999998093E+01 0.  1.
</event>
<event>
 5   0  0.3579097E-05  0.2486528E+04  0.7818609E-02  0.8407801E-01
        2   -1    0    0  501    0  0.00000000000E+00  0.00000000000E+00  0.15307676582E+04  0.15307676582E+04  0.25500000920E-02 0. -1.
       -2   -1    0    0    0  501  0.00000000000E+00  0.00000000000E+00 -0.10097582266E+04  0.10097582266E+04  0.25500000920E-02 0.  1.
    10030    2    1    2    0    0  0.00000000000E+00  0.00000000000E+00  0.52100943165E+03  0.25405258848E+04  0.24865278891E+04 0.  0.
        5    1    3    3  502    0  0.11320001259E+04 -0.37244740472E+03  0.62251795258E+03  0.13445043866E+04  0.46999998093E+01 0. -1.
       -5    1    3    3    0  502 -0.11320001259E+04  0.37244740472E+03 -0.10150852092E+03  0.11960214982E+04  0.46999998093E+01 0.  1.
</event>
<event>
 5   0  0.1492639E-05  0.2455737E+04  0.7818609E-02  0.8418926E-01
        1   -1    0    0  501    0  0.00000000000E+00  0.00000000000E+00  0.16690827434E+04  0.16690827434E+04  0.50400001928E-02 0. -1.
       -1   -1    0    0    0  501  0.00000000000E+00  0.00000000000E+00 -0.90328750917E+03  0.90328750919E+03  0.50400001928E-02 0.  1.
    10030    2    1    2    0    0  0.00000000000E+00  0.00000000000E+00  0.76579523424E+03  0.25723702526E+04  0.24557374403E+04 0.  0.
        5    1    3    3  502    0  0.34514863620E+01  0.86377918456E+03  0.12969903152E+04  0.15583107393E+04  0.46999998093E+01 0. -1.
       -5    1    3    3    0  502 -0.34514863620E+01 -0.86377918456E+03 -0.53119508100E+03  0.10140595133E+04  0.46999998093E+01 0.  1.
</event>
<event>
 5   0  0.1429483E-05  0.2569873E+04  0.7818609E-02  0.8378507E-01
        1   -1    0    0  501    0  0.00000000000E+00  0.00000000000E+00  0.27219404406E+04  0.27219404406E+04  0.50400001928E-02 0. -1.
       -1   -1    0    0    0  501  0.00000000000E+00  0.00000000000E+00 -0.60657551139E+03  0.60657551141E+03  0.50400001928E-02 0.  1.
    10030    2    1    2    0    0  0.00000000000E+00  0.00000000000E+00  0.21153649292E+04  0.33285159520E+04  0.25698734714E+04 0.  0.
        2    1    3    3  502    0 -0.10383256755E+04 -0.14423715275E+03  0.20200980810E+04  0.22759000025E+04  0.25500000920E-02 0. -1.
       -2    1    3    3    0  502  0.10383256755E+04  0.14423715275E+03  0.95266848196E+02  0.10526159495E+04  0.25500000920E-02 0.  1.
</event>
<event>
 5   0  0.3581449E-05  0.2521722E+04  0.7818609E-02  0.8395288E-01
        2   -1    0    0  501    0  0.00000000000E+00  0.00000000000E+00  0.19868080688E+04  0.19868080688E+04  0.25500000920E-02 0.  1.
       -2   -1    0    0    0  501  0.00000000000E+00  0.00000000000E+00 -0.80016276395E+03  0.80016276395E+03  0.25500000920E-02 0. -1.
    10030    2    1    2    0    0  0.00000000000E+00  0.00000000000E+00  0.11866453048E+04  0.27869708327E+04  0.25217215039E+04 0.  0.
        1    1    3    3  502    0 -0.64444704393E+03  0.10375321261E+04  0.93927393624E+03  0.15407856542E+04  0.50400001928E-02 0.  1.
       -1    1    3    3    0  502  0.64444704393E+03 -0.10375321261E+04  0.24737136859E+03  0.12461851785E+04  0.50400001928E-02 0. -1.
</event>
<event>
 5   0  0.1456876E-05  0.2353367E+04  0.7818609E-02  0.8457172E-01
        1   -1    0    0  501    0  0.00000000000E+00  0.00000000000E+00  0.16106102056E+04  0.16106102056E+04  0.50400001928E-02 0.  1.
       -1   -1    0    0    0  501  0.00000000000E+00  0.00000000000E+00 -0.85966393751E+03  0.85966393752E+03  0.50400001928E-02 0. -1.
    10030    2    1    2    0    0  0.00000000000E+00  0.00000000000E+00  0.75094626809E+03  0.24702741431E+04  0.23533665343E+04 0.  0.
        1    1    3    3  502    0  0.11220164030E+04 -0.62726674478E+02  0.92456429517E+01  0.11238064452E+04  0.50400001928E-02 0.  1.
       -1    1    3    3    0  502 -0.11220164030E+04  0.62726674478E+02  0.74170062514E+03  0.13464676980E+04  0.50400001928E-02 0. -1.
</event>
<event>
 5   0  0.3581449E-05  0.2403621E+04  0.7818609E-02  0.8438149E-01
       -2   -1    0    0    0  501  0.00000000000E+00  0.00000000000E+00  0.87141155310E+03  0.87141155310E+03  0.25500000920E-02 0. -1.
        2   -1    0    0  501    0  0.00000000000E+00  0.00000000000E+00 -0.16574814458E+04  0.16574814458E+04  0.25500000920E-02 0.  1.
    10030    2    1    2    0    0  0.00000000000E+00  0.00000000000E+00 -0.78606989269E+03  0.25288929989E+04  0.24036210025E+04 0.  0.
        1    1    3    3  502    0  0.77154067071E+03 -0.18496538402E+03  0.55670849937E+03  0.96923245568E+03  0.50400001928E-02 0. -1.
       -1    1    3    3    0  502 -0.77154067071E+03  0.18496538402E+03 -0.13427783921E+04  0.15596605432E+04  0.50400001928E-02 0.  1.
</event>
<event>
 5   0  0.3581449E-05  0.2536359E+04  0.7818609E-02  0.8390146E-01
       -2   -1    0    0    0  501  0.00000000000E+00  0.00000000000E+00  0.12180302572E+04  0.12180302572E+04  0.25500000920E-02 0. -1.
        2   -1    0    0  501    0  0.00000000000E+00  0.00000000000E+00 -0.13203934938E+04  0.13203934938E+04  0.25500000920E-02 0.  1.
    10030    2    1    2    0    0  0.00000000000E+00  0.00000000000E+00 -0.10236323662E+03  0.25384237510E+04  0.25363589863E+04 0.  0.
        1    1    3    3  502    0 -0.83759063035E+03 -0.78332673237E+03  0.49066506331E+03  0.12473616308E+04  0.50400001928E-02 0. -1.
       -1    1    3    3    0  502  0.83759063035E+03  0.78332673237E+03 -0.59302829993E+03  0.12910621202E+04  0.50400001928E-02 0.  1.
</event>
<event>
 5   0  0.1502886E-05  0.2572747E+04  0.7818609E-02  0.8377518E-01
       -1   -1    0    0    0  501  0.00000000000E+00  0.00000000000E+00  0.73614257375E+03  0.73614257377E+03  0.50400001928E-02 0. -1.
        1   -1    0    0  501    0  0.00000000000E+00  0.00000000000E+00 -0.22478754511E+04  0.22478754511E+04  0.50400001928E-02 0.  1.
    10030    2    1    2    0    0  0.00000000000E+00  0.00000000000E+00 -0.15117328773E+04  0.29840180248E+04  0.25727470300E+04 0.  0.
        4    1    3    3  502    0 -0.82177501061E+03 -0.80544063514E+03 -0.88866688635E+02  0.11541003795E+04  0.12699999809E+01 0. -1.
       -4    1    3    3    0  502  0.82177501061E+03  0.80544063514E+03 -0.14228661887E+04  0.18299176453E+04  0.12699999809E+01 0.  1.
</event>
<event>
 5   0  0.1492639E-05  0.2479080E+04  0.7818609E-02  0.8410477E-01
       -1   -1    0    0    0  501  0.00000000000E+00  0.00000000000E+00  0.14303976059E+04  0.14303976059E+04  0.50400001928E-02 0. -1.
        1   -1    0    0  501    0  0.00000000000E+00  0.00000000000E+00 -0.10741482240E+04  0.10741482240E+04  0.50400001928E-02 0.  1.
    10030    2    1    2    0    0  0.00000000000E+00  0.00000000000E+00  0.35624938191E+03  0.25045458299E+04  0.24790797066E+04 0.  0.
        5    1    3    3  502    0 -0.25534026499E+03  0.65615789209E+03  0.12087486954E+04  0.13988700186E+04  0.46999998093E+01 0. -1.
       -5    1    3    3    0  502  0.25534026499E+03 -0.65615789209E+03 -0.85249931347E+03  0.11056758113E+04  0.46999998093E+01 0.  1.
</event>
<event>
 5   0  0.3581449E-05  0.2478631E+04  0.7818609E-02  0.8410638E-01
        2   -1    0    0  501    0  0.00000000000E+00  0.00000000000E+00  0.21138265352E+04  0.21138265352E+04  0.25500000920E-02 0. -1.
       -2   -1    0    0    0  501  0.00000000000E+00  0.00000000000E+00 -0.72659834960E+03  0.72659834961E+03  0.25500000920E-02 0.  1.
    10030    2    1    2    0    0  0.00000000000E+00  0.00000000000E+00  0.13872281856E+04  0.28404248848E+04  0.24786309704E+04 0.  0.
        1    1    3    3  502    0 -0.84545626137E+03 -0.89809651099E+03  0.55548254800E+03  0.13527507140E+04  0.50400001928E-02 0. -1.
       -1    1    3    3    0  502  0.84545626137E+03  0.89809651099E+03  0.83174563758E+03  0.14876741708E+04  0.50400001928E-02 0.  1.
</event>
<event>
 5   0  0.1502886E-05  0.2500627E+04  0.7818609E-02  0.8402762E-01
        1   -1    0    0  501    0  0.00000000000E+00  0.00000000000E+00  0.82954832459E+03  0.82954832460E+03  0.50400001928E-02 0. -1.
       -1   -1    0    0    0  501  0.00000000000E+00  0.00000000000E+00 -0.18845005898E+04  0.18845005898E+04  0.50400001928E-02 0.  1.
    10030    2    1    2    0    0  0.00000000000E+00  0.00000000000E+00 -0.10549522652E+04  0.27140489144E+04  0.25006273669E+04 0.  0.
        4    1    3    3  502    0  0.10683616952E+03  0.30633856247E+03 -0.18380190191E+04  0.18664331784E+04  0.12699999809E+01 0.  1.
       -4    1    3    3    0  502 -0.10683616952E+03 -0.30633856247E+03  0.78306675389E+03  0.84761573600E+03  0.12699999809E+01 0. -1.
</event>
<event>
 5   0  0.1456876E-05  0.2487629E+04  0.7818609E-02  0.8407406E-01
       -1   -1    0    0    0  501  0.00000000000E+00  0.00000000000E+00  0.67769663444E+03  0.67769663446E+03  0.50400001928E-02 0. -1.
        1   -1    0    0  501    0  0.00000000000E+00  0.00000000000E+00 -0.22828422249E+04  0.22828422249E+04  0.50400001928E-02 0.  1.
    10030    2    1    2    0    0  0.00000000000E+00  0.00000000000E+00 -0.16051455904E+04  0.29605388593E+04  0.24876289858E+04 0.  0.
        1    1    3    3  502    0 -0.42539800518E+02  0.30245361936E+03  0.63237300660E+03  0.70227020867E+03  0.50400001928E-02 0. -1.
       -1    1    3    3    0  502  0.42539800518E+02 -0.30245361936E+03 -0.22375185970E+04  0.22582686507E+04  0.50400001928E-02 0.  1.
</event>
<event>
 5   0  0.1492639E-05  0.2473877E+04  0.7818609E-02  0.8412352E-01
        1   -1    0    0  501    0  0.00000000000E+00  0.00000000000E+00  0.17595264558E+04  0.17595264558E+04  0.50400001928E-02 0. -1.
       -1   -1    0    0    0  501  0.00000000000E+00  0.00000000000E+00 -0.86956152359E+03  0.86956152360E+03  0.50400001928E-02 0.  1.
    10030    2    1    2    0    0  0.00000000000E+00  0.00000000000E+00  0.88996493217E+03  0.26290879794E+04  0.24738767194E+04 0.  0.
        5    1    3    3  502    0  0.12720283142E+03  0.83166750683E+03 -0.51862631983E+03  0.98835557966E+03  0.46999998093E+01 0.  1.
       -5    1    3    3    0  502 -0.12720283142E+03 -0.83166750683E+03  0.14085912520E+04  0.16407323997E+04  0.46999998093E+01 0. -1.
</event>
<event>
 5   0  0.3578670E-05  0.2393871E+04  0.7818609E-02  0.8441802E-01
        2   -1    0    0  501    0  0.00000000000E+00  0.00000000000E+00  0.12930818823E+04  0.12930818823E+04  0.25500000920E-02 0. -1.
       -2   -1    0    0    0  501  0.00000000000E+00  0.00000000000E+00 -0.11079381271E+04  0.11079381271E+04  0.25500000920E-02 0.  1.
    10030    2    1    2    0    0  0.00000000000E+00  0.00000000000E+00  0.18514375523E+03  0.24010200093E+04  0.23938711066E+04 0.  0.
        4    1    3    3  502    0 -0.29889937302E+02 -0.79717391924E+03 -0.80243450277E+03  0.11314956518E+04  0.12699999809E+01 0.  1.
       -4    1    3    3    0  502  0.29889937302E+02  0.79717391924E+03  0.98757825800E+03  0.12695243576E+04  0.12699999809E+01 0. -1.
</event>
<event>
 5   0  0.3704241E-05  0.2516544E+04  0.7818609E-02  0.8397115E-01
        2   -1    0    0  501    0  0.00000000000E+00  0.00000000000E+00  0.27942344911E+04  0.27942344911E+04  0.25500000920E-02 0. -1.
       -2   -1    0    0    0  501  0.00000000000E+00  0.00000000000E+00 -0.56661278560E+03  0.56661278560E+03  0.25500000920E-02 0.  1.
    10030    2    1    2    0    0  0.00000000000E+00  0.00000000000E+00  0.22276217055E+04  0.33608472768E+04  0.25165444472E+04 0.  0.
        2    1    3    3  502    0  0.38511412986E+03  0.27764016618E+03  0.26700287156E+04  0.27119089766E+04  0.25500000920E-02 0. -1.
       -2    1    3    3    0  502 -0.38511412986E+03 -0.27764016618E+03 -0.44240701007E+03  0.64893830020E+03  0.25500000920E-02 0.  1.
</event>
<event>
 5   0  0.1492639E-05  0.2391785E+04  0.7818609E-02  0.8442586E-01
        1   -1    0    0  501    0  0.00000000000E+00  0.00000000000E+00  0.15566339012E+04  0.15566339013E+04  0.50400001928E-02 0.  1.
       -1   -1    0    0    0  501  0.00000000000E+00  0.00000000000E+00 -0.91875056509E+03  0.91875056510E+03  0.50400001928E-02 0. -1.
    10030    2    1    2    0    0  0.00000000000E+00  0.00000000000E+00  0.63788333616E+03  0.24753844664E+04  0.23917845024E+04 0.  0.
        5    1    3    3  502    0  0.21809908847E+01  0.84002784834E+03  0.11998591040E+04  0.14646963857E+04  0.46999998093E+01 0.  1.
       -5    1    3    3    0  502 -0.21809908847E+01 -0.84002784834E+03 -0.56197576788E+03  0.10106880807E+04  0.46999998093E+01 0. -1.
</event>
<event>
 5   0  0.1456876E-05  0.2538147E+04  0.7818609E-02  0.8389520E-01
        1   -1    0    0  501    0  0.00000000000E+00  0.00000000000E+00  0.11541229538E+04  0.11541229538E+04  0.50400001928E-02 0. -1.
       -1   -1    0    0    0  501  0.00000000000E+00  0.00000000000E+00 -0.13954736136E+04  0.13954736136E+04  0.50400001928E-02 0.  1.
    10030    2    1    2    0    0  0.00000000000E+00  0.00000000000E+00 -0.24135065985E+03  0.25495965674E+04  0.25381474574E+04 0.  0.
        1    1    3    3  502    0 -0.77534945420E+02 -0.12633383704E+04 -0.27995267308E+02  0.12660249764E+04  0.50400001928E-02 0. -1.
       -1    1    3    3    0  502  0.77534945420E+02  0.12633383704E+04 -0.21335539254E+03  0.12835715911E+04  0.50400001928E-02 0.  1.
</event>
<event>
 5   0  0.3650620E-05  0.2469307E+04  0.7818609E-02  0.8414002E-01
        2   -1    0    0  501    0  0.00000000000E+00  0.00000000000E+00  0.99456284812E+03  0.99456284812E+03  0.25500000920E-02 0. -1.
       -2   -1    0    0    0  501  0.00000000000E+00  0.00000000000E+00 -0.15327023131E+04  0.15327023131E+04  0.25500000920E-02 0.  1.
    10030    2    1    2    0    0  0.00000000000E+00  0.00000000000E+00 -0.53813946494E+03  0.25272651612E+04  0.24693066053E+04 0.  0.
        3    1    3    3  502    0 -0.60553945815E+03  0.70162919956E+03 -0.11039410481E+04  0.14414046680E+04  0.10100000352E+00 0.  1.
       -3    1    3    3    0  502  0.60553945815E+03 -0.70162919956E+03  0.56580158312E+03  0.10858604932E+04  0.10100000352E+00 0. -1.
</event>
<event>
 5   0  0.3578670E-05  0.2468291E+04  0.7818609E-02  0.8414370E-01
       -2   -1    0    0    0  501  0.00000000000E+00  0.00000000000E+00  0.98021205700E+03  0.98021205701E+03  0.25500000920E-02 0. -1.
        2   -1    0    0  501    0  0.00000000000E+00  0.00000000000E+00 -0.15538624894E+04  0.15538624894E+04  0.25500000920E-02 0.  1.
    10030    2    1    2    0    0  0.00000000000E+00  0.00000000000E+00 -0.57365043242E+03  0.25340745464E+04  0.24682907017E+04 0.  0.
        4    1    3    3  502    0 -0.29076560482E+03  0.69065320645E+03  0.71990423688E+03  0.10391391686E+04  0.12699999809E+01 0. -1.
       -4    1    3    3    0  502  0.29076560482E+03 -0.69065320645E+03 -0.12935546693E+04  0.14949353778E+04  0.12699999809E+01 0.  1.
</event>
<event>
 5   0  0.3578670E-05  0.1830129E+04  0.7818609E-02  0.8690439E-01
        2   -1    0    0  501    0  0.00000000000E+00  0.00000000000E+00  0.28477503864E+04  0.28477503864E+04  0.25500000920E-02 0.  1.
       -2   -1    0    0    0  501  0.00000000000E+00  0.00000000000E+00 -0.29403667146E+03  0.29403667147E+03  0.25500000920E-02 0. -1.
    10030    2    1    2    0    0  0.00000000000E+00  0.00000000000E+00  0.25537137149E+04  0.31417870579E+04  0.18301290061E+04 0.  0.
        4    1    3    3  502    0  0.26339186630E+03 -0.43398694911E+03  0.25838318548E+04  0.26332315914E+04  0.12699999809E+01 0.  1.
       -4    1    3    3    0  502 -0.26339186630E+03  0.43398694911E+03 -0.30118139839E+02  0.50855546647E+03  0.12699999809E+01 0. -1.
</event>
<event>
 5   0  0.1421242E-05  0.2391747E+04  0.7818609E-02  0.8442600E-01
       -1   -1    0    0    0  501  0.00000000000E+00  0.00000000000E+00  0.90381913711E+03  0.90381913712E+03  0.50400001928E-02 0. -1.
        1   -1    0    0  501    0  0.00000000000E+00  0.00000000000E+00 -0.15823001205E+04  0.15823001205E+04  0.50400001928E-02 0.  1.
    10030    2    1    2    0    0  0.00000000000E+00  0.00000000000E+00 -0.67848098337E+03  0.24861192576E+04  0.23917467504E+04 0.  0.
        3    1    3    3  502    0  0.10468339196E+03 -0.55861977875E+03  0.75446372462E+03  0.94457937291E+03  0.10100000352E+00 0. -1.
       -3    1    3    3    0  502 -0.10468339196E+03  0.55861977875E+03 -0.14329447080E+04  0.15415398847E+04  0.10100000352E+00 0.  1.
</event>
<event>
 5   0  0.1492639E-05  0.2446438E+04  0.7818609E-02  0.8422320E-01
       -1   -1    0    0    0  501  0.00000000000E+00  0.00000000000E+00  0.88327069759E+03  0.88327069760E+03  0.50400001928E-02 0.  1.
        1   -1    0    0  501    0  0.00000000000E+00  0.00000000000E+00 -0.16940050512E+04  0.16940050512E+04  0.50400001928E-02 0. -1.
    10030    2    1    2    0    0  0.00000000000E+00  0.00000000000E+00 -0.81073435362E+03  0.25772757488E+04  0.24464382464E+04 0.  0.
        5    1    3    3  502    0 -0.41399472643E+02 -0.11410921662E+04  0.56770835044E+02  0.11432629907E+04  0.46999998093E+01 0.  1.
       -5    1    3    3    0  502  0.41399472643E+02  0.11410921662E+04 -0.86750518867E+03  0.14340127581E+04  0.46999998093E+01 0. -1.
</event>
<event>
 5   0  0.1421242E-05  0.2519661E+04  0.7818609E-02  0.8396015E-01
        1   -1    0    0  501    0  0.00000000000E+00  0.00000000000E+00  0.21298566602E+04  0.21298566602E+04  0.50400001928E-02 0. -1.
       -1   -1    0    0    0  501  0.00000000000E+00  0.00000000000E+00 -0.74520148207E+03  0.74520148209E+03  0.50400001928E-02 0.  1.
    10030    2    1    2    0    0  0.00000000000E+00  0.00000000000E+00  0.13846551782E+04  0.28750581423E+04  0.25196605643E+04 0.  0.
        3    1    3    3  502    0 -0.75453190002E+03  0.10022705674E+04  0.82395771485E+03  0.15009233840E+04  0.10100000352E+00 0.  1.
       -3    1    3    3    0  502  0.75453190002E+03 -0.10022705674E+04  0.56069746331E+03  0.13741347583E+04  0.10100000352E+00 0. -1.
</event>
<event>
 5   0  0.1429483E-05  0.2557829E+04  0.7818609E-02  0.8382668E-01
       -1   -1    0    0    0  501  0.00000000000E+00  0.00000000000E+00  0.87932983420E+03  0.87932983422E+03  0.50400001928E-02 0. -1.
        1   -1    0    0  501    0  0.00000000000E+00  0.00000000000E+00 -0.18600784269E+04  0.18600784269E+04  0.50400001928E-02 0.  1.
    10030    2    1    2    0    0  0.00000000000E+00  0.00000000000E+00 -0.98074859266E+03  0.27394082611E+04  0.25578291223E+04 0.  0.
        2    1    3    3  502    0  0.52830449236E+03  0.86964851250E+03  0.33936844364E+03  0.10726439822E+04  0.25500000920E-02 0. -1.
       -2    1    3    3    0  502 -0.52830449236E+03 -0.86964851250E+03 -0.13201170363E+04  0.16667642789E+04  0.25500000920E-02 0.  1.
</event>
<event>
 5   0  0.3650620E-05  0.2109373E+04  0.7818609E-02  0.8557126E-01
       -2   -1    0    0    0  501  0.00000000000E+00  0.00000000000E+00  0.10171982752E+04  0.10171982752E+04  0.25500000920E-02 0. -1.
        2   -1    0    0  501    0  0.00000000000E+00  0.00000000000E+00 -0.10935558447E+04  0.10935558447E+04  0.25500000920E-02 0.  1.
    10030    2    1    2    0    0  0.00000000000E+00  0.00000000000E+00 -0.76357569578E+02  0.21107541199E+04  0.21093725314E+04 0.  0.
        3    1    3    3  502    0 -0.94767806439E+03 -0.62965112108E+02 -0.49706915208E+03  0.10719776449E+04  0.10100000352E+00 0.  1.
       -3    1    3    3    0  502  0.94767806439E+03  0.62965112108E+02  0.42071158250E+03  0.10387764750E+04  0.10100000352E+00 0. -1.
</event>
<event>
 5   0  0.3650620E-05  0.2473959E+04  0.7818609E-02  0.8412322E-01
       -2   -1    0    0    0  501  0.00000000000E+00  0.00000000000E+00  0.11557797421E+04  0.11557797421E+04  0.25500000920E-02 0.  1.
        2   -1    0    0  501    0  0.00000000000E+00  0.00000000000E+00 -0.13238837498E+04  0.13238837498E+04  0.25500000920E-02 0. -1.
    10030    2    1    2    0    0  0.00000000000E+00  0.00000000000E+00 -0.16810400775E+03  0.24796634919E+04  0.24739587861E+04 0.  0.
        3    1    3    3  502    0 -0.89397870461E+03  0.77264210178E+03  0.28277589007E+03  0.12149633558E+04  0.10100000352E+00 0.  1.
       -3    1    3    3    0  502  0.89397870461E+03 -0.77264210178E+03 -0.45087989782E+03  0.12647001361E+04  0.10100000352E+00 0. -1.
</event>
<event>
 5   0  0.1421242E-05  0.2227614E+04  0.7818609E-02  0.8507022E-01
        1   -1    0    0  501    0  0.00000000000E+00  0.00000000000E+00  0.11114811660E+04  0.11114811661E+04  0.50400001928E-02 0. -1.
       -1   -1    0    0    0  501  0.00000000000E+00  0.00000000000E+00 -0.11161381586E+04  0.11161381586E+04  0.50400001928E-02 0.  1.
    10030    2    1    2    0    0  0.00000000000E+00  0.00000000000E+00 -0.46569925215E+01  0.22276193246E+04  0.22276144568E+04 0.  0.
        3    1    3    3  502    0 -0.36656528659E+03  0.48027503871E+03 -0.93802937590E+03  0.11157658098E+04  0.10100000352E+00 0.  1.
       -3    1    3    3    0  502  0.36656528659E+03 -0.48027503871E+03  0.93337238338E+03  0.11118535148E+04  0.10100000352E+00 0. -1.
</event>
<event>
 5   0  0.3578670E-05  0.2522395E+04  0.7818609E-02  0.8395050E-01
        2   -1    0    0  501    0  0.00000000000E+00  0.00000000000E+00  0.92476844965E+03  0.92476844965E+03  0.25500000920E-02 0.  1.
       -2   -1    0    0    0  501  0.00000000000E+00  0.00000000000E+00 -0.17200188963E+04  0.17200188963E+04  0.25500000920E-02 0. -1.
    10030    2    1    2    0    0  0.00000000000E+00  0.00000000000E+00 -0.79525044663E+03  0.26447873459E+04  0.25223950587E+04 0.  0.
        4    1    3    3  502    0 -0.62277390755E+03 -0.86338160905E+03 -0.11067104047E+04  0.15356056380E+04  0.12699999809E+01 0. -1.
       -4    1    3    3    0  502  0.62277390755E+03  0.86338160905E+03  0.31145995807E+03  0.11091817079E+04  0.12699999809E+01 0.  1.
</event>
<event>
 5   0  0.3581449E-05  0.2342497E+04  0.7818609E-02  0.8461351E-01
        2   -1    0    0  501    0  0.00000000000E+00  0.00000000000E+00  0.18236253168E+04  0.18236253168E+04  0.25500000920E-02 0. -1.
       -2   -1    0    0    0  501  0.00000000000E+00  0.00000000000E+00 -0.75225072318E+03  0.75225072319E+03  0.25500000920E-02 0.  1.
    10030    2    1    2    0    0  0.00000000000E+00  0.00000000000E+00  0.10713745936E+04  0.25758760400E+04  0.23424973540E+04 0.  0.
        1    1    3    3  502    0 -0.13178060030E+03  0.10678739456E+04  0.10444986506E+04  0.14995660444E+04  0.50400001928E-02 0. -1.
       -1    1    3    3    0  502  0.13178060030E+03 -0.10678739456E+04  0.26875943088E+02  0.10763099956E+04  0.50400001928E-02 0.  1.
</event>
<event>
 5   0  0.3578670E-05  0.2515671E+04  0.7818609E-02  0.8397424E-01
       -2   -1    0    0    0  501  0.00000000000E+00  0.00000000000E+00  0.81460177893E+03  0.81460177893E+03  0.25500000920E-02 0.  1.
        2   -1    0    0  501    0  0.00000000000E+00  0.00000000000E+00 -0.19422372713E+04  0.19422372713E+04  0.25500000920E-02 0. -1.
    10030    2    1    2    0    0  0.00000000000E+00  0.00000000000E+00 -0.11276354923E+04  0.27568390502E+04  0.25156708340E+04 0.  0.
        4    1    3    3  502    0 -0.48995460665E+03 -0.72383047572E+03  0.42741882238E+03  0.97297201233E+03  0.12699999809E+01 0.  1.
       -4    1    3    3    0  502  0.48995460665E+03  0.72383047572E+03 -0.15550543147E+04  0.17838670379E+04  0.12699999809E+01 0. -1.
</event>
<event>
 5   0  0.1492639E-05  0.2498500E+04  0.7818609E-02  0.8403520E-01
       -1   -1    0    0    0  501  0.00000000000E+00  0.00000000000E+00  0.10860125437E+04  0.10860125437E+04  0.50400001928E-02 0.  1.
        1   -1    0    0  501    0  0.00000000000E+00  0.00000000000E+00 -0.14370230177E+04  0.14370230177E+04  0.50400001928E-02 0. -1.
    10030    2    1    2    0    0  0.00000000000E+00  0.00000000000E+00 -0.35101047394E+03  0.25230355614E+04  0.24984995680E+04 0.  0.
        5    1    3    3  502    0 -0.56491540077E+03  0.21100829861E+03 -0.12803007964E+04  0.14152194640E+04  0.46999998093E+01 0. -1.
       -5    1    3    3    0  502  0.56491540077E+03 -0.21100829861E+03  0.92929032248E+03  0.11078160974E+04  0.46999998093E+01 0.  1.
</event>
<event>
 5   0  0.3581449E-05  0.2384620E+04  0.7818609E-02  0.8445284E-01
       -2   -1    0    0    0  501  0.00000000000E+00  0.00000000000E+00  0.52870018168E+03  0.52870018169E+03  0.25500000920E-02 0.  1.
        2   -1    0    0  501    0  0.00000000000E+00  0.00000000000E+00 -0.26888652743E+04  0.26888652743E+04  0.25500000920E-02 0. -1.
    10030    2    1    2    0    0  0.00000000000E+00  0.00000000000E+00 -0.21601650926E+04  0.32175654559E+04  0.23846203547E+04 0.  0.
        1    1    3    3  502    0  0.24345205927E+03  0.42311245312E+03 -0.25478508473E+04  0.25941929368E+04  0.50400001928E-02 0. -1.
       -1    1    3    3    0  502 -0.24345205927E+03 -0.42311245312E+03  0.38768575475E+03  0.62337251914E+03  0.50400001928E-02 0.  1.
</event>
<event>
 5   0  0.3579097E-05  0.2522214E+04  0.7818609E-02  0.8395114E-01
       -2   -1    0    0    0  501  0.00000000000E+00  0.00000000000E+00  0.10046434948E+04  0.10046434948E+04  0.25500000920E-02 0. -1.
        2   -1    0    0  501    0  0.00000000000E+00  0.00000000000E+00 -0.15830397314E+04  0.15830397314E+04  0.25500000920E-02 0.  1.
    10030    2    1    2    0    0  0.00000000000E+00  0.00000000000E+00 -0.57839623659E+03  0.25876832262E+04  0.25222137643E+04 0.  0.
        5    1    3    3  502    0 -0.25091273276E+03 -0.95257420625E+03  0.51865024292E+03  0.11132721960E+04  0.46999998093E+01 0. -1.
       -5    1    3    3    0  502  0.25091273276E+03  0.95257420625E+03 -0.10970464795E+04  0.14744110302E+04  0.46999998093E+01 0.  1.
</event>
<event>
 5   0  0.1502886E-05  0.2508557E+04  0.7818609E-02  0.8399943E-01
        1   -1    0    0  501    0  0.00000000000E+00  0.00000000000E+00  0.25428965175E+04  0.25428965175E+04  0.50400001928E-02 0. -1.
       -1   -1    0    0    0  501  0.00000000000E+00  0.00000000000E+00 -0.61867053507E+03  0.61867053509E+03  0.50400001928E-02 0.  1.
    10030    2    1    2    0    0  0.00000000000E+00  0.00000000000E+00  0.19242259824E+04  0.31615670526E+04  0.25085574732E+04 0.  0.
        4    1    3    3  502    0 -0.12240374163E+04  0.20902912005E+03  0.73930920001E+03  0.14451783543E+04  0.12699999809E+01 0. -1.
       -4    1    3    3    0  502  0.12240374163E+04 -0.20902912005E+03  0.11849167824E+04  0.17163886983E+04  0.12699999809E+01 0.  1.
</event>
<event>
 5   0  0.3579097E-05  0.2361630E+04  0.7818609E-02  0.8454010E-01
       -2   -1    0    0    0  501  0.00000000000E+00  0.00000000000E+00  0.13075608984E+04  0.13075608985E+04  0.25500000920E-02 0.  1.
        2   -1    0    0  501    0  0.00000000000E+00  0.00000000000E+00 -0.10663552888E+04  0.10663552888E+04  0.25500000920E-02 0. -1.
    10030    2    1    2    0    0  0.00000000000E+00  0.00000000000E+00  0.24120560968E+03  0.23739161872E+04  0.23616303516E+04 0.  0.
        5    1    3    3  502    0 -0.98321470571E+03 -0.12970706563E+03  0.76484830906E+03  0.12524177044E+04  0.46999998093E+01 0.  1.
       -5    1    3    3    0  502  0.98321470571E+03  0.12970706563E+03 -0.52364269938E+03  0.11214984828E+04  0.46999998093E+01 0. -1.
</event>
<event>
 5   0  0.3704241E-05  0.2471113E+04  0.7818609E-02  0.8413350E-01
        2   -1    0    0  501    0  0.00000000000E+00  0.00000000000E+00  0.21689143511E+04  0.21689143511E+04  0.25500000920E-02 0.  1.
       -2   -1    0    0    0  501  0.00000000000E+00  0.00000000000E+00 -0.70385417154E+03  0.70385417154E+03  0.25500000920E-02 0. -1.
    10030    2    1    2    0    0  0.00000000000E+00  0.00000000000E+00  0.14650601795E+04  0.28727685226E+04  0.24711126350E+04 0.  0.
        2    1    3    3  502    0  0.20326318518E+03  0.65785125838E+03 -0.46014536933E+03  0.82814126906E+03  0.25500000920E-02 0. -1.
       -2    1    3    3    0  502 -0.20326318518E+03 -0.65785125838E+03  0.19252055489E+04  0.20446272536E+04  0.25500000920E-02 0.  1.
</event>
<event>
 5   0  0.3704241E-05  0.2457353E+04  0.7818609E-02  0.8418338E-01
       -2   -1    0    0    0  501  0.00000000000E+00  0.00000000000E+00  0.12452105050E+04  0.12452105050E+04  0.25500000920E-02 0. -1.
        2   -1    0    0  501    0  0.00000000000E+00  0.00000000000E+00 -0.12123623791E+04  0.12123623791E+04  0.25500000920E-02 0.  1.
    10030    2    1    2    0    0  0.00000000000E+00  0.00000000000E+00  0.32848125987E+02  0.24575728841E+04  0.24573533489E+04 0.  0.
        2    1    3    3  502    0  0.11290505997E+04  0.13800043680E+03  0.48105893210E+03  0.12349967908E+04  0.25500000920E-02 0. -1.
       -2    1    3    3    0  502 -0.11290505997E+04 -0.13800043680E+03 -0.44821080611E+03  0.12225760933E+04  0.25500000920E-02 0.  1.
</event>
<event>
 5   0  0.1421242E-05  0.2507855E+04  0.7818609E-02  0.8400193E-01
       -1   -1    0    0    0  501  0.00000000000E+00  0.00000000000E+00  0.27038444177E+04  0.27038444177E+04  0.50400001928E-02 0. -1.
        1   -1    0    0  501    0  0.00000000000E+00  0.00000000000E+00 -0.58151787786E+03  0.58151787788E+03  0.50400001928E-02 0.  1.
    10030    2    1    2    0    0  0.00000000000E+00  0.00000000000E+00  0.21223265399E+04  0.32853622956E+04  0.25078547549E+04 0.  0.
        3    1    3    3  502    0  0.57059610838E+03  0.75726013271E+03  0.21361144802E+04  0.23370939027E+04  0.10100000352E+00 0. -1.
       -3    1    3    3    0  502 -0.57059610838E+03 -0.75726013271E+03 -0.13787940292E+02  0.94826839291E+03  0.10100000352E+00 0.  1.
</event>
<event>
 5   0  0.1429483E-05  0.2488067E+04  0.7818609E-02  0.8407249E-01
        1   -1    0    0  501    0  0.00000000000E+00  0.00000000000E+00  0.18508634513E+04  0.18508634513E+04  0.50400001928E-02 0.  1.
       -1   -1    0    0    0  501  0.00000000000E+00  0.00000000000E+00 -0.83616105641E+03  0.83616105643E+03  0.50400001928E-02 0. -1.
    10030    2    1    2    0    0  0.00000000000E+00  0.00000000000E+00  0.10147023949E+04  0.26870245077E+04  0.24880674740E+04 0.  0.
        2    1    3    3  502    0  0.25163494593E+03 -0.34914600279E+03  0.17679047218E+04  0.18195357052E+04  0.25500000920E-02 0.  1.
       -2    1    3    3    0  502 -0.25163494593E+03  0.34914600279E+03 -0.75320232688E+03  0.86748880252E+03  0.25500000920E-02 0. -1.
</event>
<event>
 5   0  0.3581449E-05  0.2482574E+04  0.7818609E-02  0.8409220E-01
        2   -1    0    0  501    0  0.00000000000E+00  0.00000000000E+00  0.24976931983E+04  0.24976931983E+04  0.25500000920E-02 0. -1.
       -2   -1    0    0    0  501  0.00000000000E+00  0.00000000000E+00 -0.61688680030E+03  0.61688680031E+03  0.25500000920E-02 0.  1.
    10030    2    1    2    0    0  0.00000000000E+00  0.00000000000E+00  0.18808063980E+04  0.31145799986E+04  0.24825744422E+04 0.  0.
        1    1    3    3  502    0 -0.55048613199E+03  0.10848092105E+04  0.12501285823E+04  0.17443243612E+04  0.50400001928E-02 0. -1.
       -1    1    3    3    0  502  0.55048613199E+03 -0.10848092105E+04  0.63067781567E+03  0.13702556374E+04  0.50400001928E-02 0.  1.
</event>
<event>
 5   0  0.1429483E-05  0.2466348E+04  0.7818609E-02  0.8415073E-01
       -1   -1    0    0    0  501  0.00000000000E+00  0.00000000000E+00  0.94716306703E+03  0.94716306704E+03  0.50400001928E-02 0.  1.
        1   -1    0    0  501    0  0.00000000000E+00  0.00000000000E+00 -0.16055500386E+04  0.16055500386E+04  0.50400001928E-02 0. -1.
    10030    2    1    2    0    0  0.00000000000E+00  0.00000000000E+00 -0.65838697154E+03  0.25527131056E+04  0.24663476631E+04 0.  0.
        2    1    3    3  502    0  0.63300062822E+03 -0.71997004106E+03 -0.11320302789E+04  0.14834214532E+04  0.25500000920E-02 0. -1.
       -2    1    3    3    0  502 -0.63300062822E+03  0.71997004106E+03  0.47364330738E+03  0.10692916524E+04  0.25500000920E-02 0.  1.
</event>
<event>
 5   0  0.1492639E-05  0.2589604E+04  0.7818609E-02  0.8371741E-01
        1   -1    0    0  501    0  0.00000000000E+00  0.00000000000E+00  0.14728170886E+04  0.14728170886E+04  0.50400001928E-02 0. -1.
       -1   -1    0    0    0  501  0.00000000000E+00  0.00000000000E+00 -0.11383029205E+04  0.11383029205E+04  0.50400001928E-02 0.  1.
    10030    2    1    2    0    0  0.00000000000E+00  0.00000000000E+00  0.33451416805E+03  0.26111200091E+04  0.25896038255E+04 0.  0.
        5    1    3    3  502    0  0.79968563836E+03  0.19973439814E+03 -0.83958795610E+03  0.11765717046E+04  0.46999998093E+01 0.  1.
       -5    1    3    3    0  502 -0.79968563836E+03 -0.19973439814E+03  0.11741021241E+04  0.14345483045E+04  0.46999998093E+01 0. -1.
</event>
<event>
 5   0  0.3579097E-05  0.2502529E+04  0.7818609E-02  0.8402085E-01
        2   -1    0    0  501    0  0.00000000000E+00  0.00000000000E+00  0.12708497444E+04  0.12708497444E+04  0.25500000920E-02 0.  1.
       -2   -1    0    0    0  501  0.00000000000E+00  0.00000000000E+00 -0.12319815317E+04  0.12319815317E+04  0.25500000920E-02 0. -1.
    10030    2    1    2    0    0  0.00000000000E+00  0.00000000000E+00  0.38868212693E+02  0.25028312762E+04  0.25025294522E+04 0.  0.
        5    1    3    3  502    0  0.85091404719E+02  0.31468181076E+02 -0.12286789594E+04  0.12320328197E+04  0.46999998093E+01 0. -1.
       -5    1    3    3    0  502 -0.85091404719E+02 -0.31468181076E+02  0.12675471721E+04  0.12707984565E+04  0.46999998093E+01 0.  1.
</event>
<event>
 5   0  0.1429483E-05  0.2438198E+04  0.7818609E-02  0.8425340E-01
        1   -1    0    0  501    0  0.00000000000E+00  0.00000000000E+00  0.12670169566E+04  0.12670169567E+04  0.50400001928E-02 0. -1.
       -1   -1    0    0    0  501  0.00000000000E+00  0.00000000000E+00 -0.11729930690E+04  0.11729930690E+04  0.50400001928E-02 0.  1.
    10030    2    1    2    0    0  0.00000000000E+00  0.00000000000E+00  0.94023887636E+02  0.24400100257E+04  0.24381977840E+04 0.  0.
        2    1    3    3  502    0  0.38685782074E+03 -0.73632455396E+03  0.93894837002E+03  0.12543750890E+04  0.25500000920E-02 0. -1.
       -2    1    3    3    0  502 -0.38685782074E+03  0.73632455396E+03 -0.84492448239E+03  0.11856349367E+04  0.25500000920E-02 0.  1.
</event>
<event>
 5   0  0.1421242E-05  0.2507292E+04  0.7818609E-02  0.8400392E-01
       -1   -1    0    0    0  501  0.00000000000E+00  0.00000000000E+00  0.15868712716E+04  0.15868712716E+04  0.50400001928E-02 0. -1.
        1   -1    0    0  501    0  0.00000000000E+00  0.00000000000E+00 -0.99039470622E+03  0.99039470623E+03  0.50400001928E-02 0.  1.
    10030    2    1    2    0    0  0.00000000000E+00  0.00000000000E+00  0.59647656541E+03  0.25772659779E+04  0.25072924894E+04 0.  0.
        3    1    3    3  502    0 -0.35981332200E+02 -0.62749404180E+03 -0.81673890285E+03  0.10305852097E+04  0.10100000352E+00 0.  1.
       -3    1    3    3    0  502  0.35981332200E+02  0.62749404180E+03  0.14132154683E+04  0.15466807682E+04  0.10100000352E+00 0. -1.
</event>
<event>
 5   0  0.1492639E-05  0.2300203E+04  0.7818609E-02  0.8477841E-01
        1   -1    0    0  501    0  0.00000000000E+00  0.00000000000E+00  0.21191321777E+04  0.21191321777E+04  0.50400001928E-02 0. -1.
       -1   -1    0    0    0  501  0.00000000000E+00  0.00000000000E+00 -0.62418623458E+03  0.62418623460E+03  0.50400001928E-02 0.  1.
    10030    2    1    2    0    0  0.00000000000E+00  0.00000000000E+00  0.14949459432E+04  0.27433184123E+04  0.23002027168E+04 0.  0.
        5    1    3    3  502    0  0.25007058613E+03 -0.65879319358E+03  0.18315099584E+04  0.19623951150E+04  0.46999998093E+01 0. -1.
       -5    1    3    3    0  502 -0.25007058613E+03  0.65879319358E+03 -0.33656401520E+03  0.78092329731E+03  0.46999998093E+01 0.  1.
</event>
<event>
 5   0  0.3704241E-05  0.2265733E+04  0.7818609E-02  0.8491556E-01
        2   -1    0    0  501    0  0.00000000000E+00  0.00000000000E+00  0.14200338011E+04  0.14200338011E+04  0.25500000920E-02 0.  1.
       -2   -1    0    0    0  501  0.00000000000E+00  0.00000000000E+00 -0.90377146946E+03  0.90377146946E+03  0.25500000920E-02 0. -1.
    10030    2    1    2    0    0  0.00000000000E+00  0.00000000000E+00  0.51626233166E+03  0.23238052706E+04  0.22657325836E+04 0.  0.
        2    1    3    3  502    0  0.15149286760E+03  0.45265006761E+03 -0.79559854249E+03  0.92780343471E+03  0.25500000920E-02 0. -1.
       -2    1    3    3    0  502 -0.15149286760E+03 -0.45265006761E+03  0.13118608741E+04  0.13960018359E+04  0.25500000920E-02 0.  1.
</event>
<event>
 5   0  0.3650620E-05  0.2496627E+04  0.7818609E-02  0.8404188E-01
       -2   -1    0    0    0  501  0.00000000000E+00  0.00000000000E+00  0.88819301658E+03  0.88819301658E+03  0.25500000920E-02 0.  1.
        2   -1    0    0  501    0  0.00000000000E+00  0.00000000000E+00 -0.17544457281E+04  0.17544457281E+04  0.25500000920E-02 0. -1.
    10030    2    1    2    0    0  0.00000000000E+00  0.00000000000E+00 -0.86625271155E+03  0.26426387447E+04  0.24966268794E+04 0.  0.
        3    1    3    3  502    0  0.69183611704E+03  0.10093162000E+04 -0.17185015709E+03  0.12356734565E+04  0.10100000352E+00 0.  1.
       -3    1    3    3    0  502 -0.69183611704E+03 -0.10093162000E+04 -0.69440255445E+03  0.14069652882E+04  0.10100000352E+00 0. -1.
</event>
<event>
 5   0  0.1421242E-05  0.2291457E+04  0.7818609E-02  0.8481297E-01
       -1   -1    0    0    0  501  0.00000000000E+00  0.00000000000E+00  0.99280157940E+03  0.99280157942E+03  0.50400001928E-02 0.  1.
        1   -1    0    0  501    0  0.00000000000E+00  0.00000000000E+00 -0.13222120888E+04  0.13222120888E+04  0.50400001928E-02 0. -1.
    10030    2    1    2    0    0  0.00000000000E+00  0.00000000000E+00 -0.32941050943E+03  0.23150136683E+04  0.22914573966E+04 0.  0.
        3    1    3    3  502    0 -0.68010758121E+03 -0.19620807426E+03  0.74547257291E+03  0.10279947945E+04  0.10100000352E+00 0.  1.
       -3    1    3    3    0  502  0.68010758121E+03  0.19620807426E+03 -0.10748830823E+04  0.12870188737E+04  0.10100000352E+00 0. -1.
</event>
<event>
 5   0  0.3581449E-05  0.2501958E+04  0.7818609E-02  0.8402288E-01
        2   -1    0    0  501    0  0.00000000000E+00  0.00000000000E+00  0.13286111561E+04  0.13286111561E+04  0.25500000920E-02 0.  1.
       -2   -1    0    0    0  501  0.00000000000E+00  0.00000000000E+00 -0.11778828486E+04  0.11778828486E+04  0.25500000920E-02 0. -1.
    10030    2    1    2    0    0  0.00000000000E+00  0.00000000000E+00  0.15072830754E+03  0.25064940047E+04  0.25019578679E+04 0.  0.
        1    1    3    3  502    0  0.61569130682E+03  0.10169595505E+04  0.46551313782E+03  0.12767086567E+04  0.50400001928E-02 0.  1.
       -1    1    3    3    0  502 -0.61569130682E+03 -0.10169595505E+04 -0.31478483028E+03  0.12297853480E+04  0.50400001928E-02 0. -1.
</event>
<event>
 5   0  0.3581449E-05  0.2145757E+04  0.7818609E-02  0.8541351E-01
        2   -1    0    0  501    0  0.00000000000E+00  0.00000000000E+00  0.19998514200E+04  0.19998514200E+04  0.25500000920E-02 0. -1.
       -2   -1    0    0    0  501  0.00000000000E+00  0.00000000000E+00 -0.57557669638E+03  0.57557669639E+03  0.25500000920E-02 0.  1.
    10030    2    1    2    0    0  0.00000000000E+00  0.00000000000E+00  0.14242747237E+04  0.25754281164E+04  0.21457566252E+04 0.  0.
        1    1    3    3  502    0  0.12124359131E+03  0.88151209951E+03  0.14315866181E+04  0.16855870892E+04  0.50400001928E-02 0. -1.
       -1    1    3    3    0  502 -0.12124359131E+03 -0.88151209951E+03 -0.73118944210E+01  0.88984102728E+03  0.50400001928E-02 0.  1.
</event>
<event>
 5   0  0.3579097E-05  0.2489819E+04  0.7818609E-02  0.8406621E-01
        2   -1    0    0  501    0  0.00000000000E+00  0.00000000000E+00  0.17236738267E+04  0.17236738267E+04  0.25500000920E-02 0.  1.
       -2   -1    0    0    0  501  0.00000000000E+00  0.00000000000E+00 -0.89912595144E+03  0.89912595144E+03  0.25500000920E-02 0. -1.
    10030    2    1    2    0    0  0.00000000000E+00  0.00000000000E+00  0.82454787526E+03  0.26227997781E+04  0.24898191656E+04 0.  0.
        5    1    3    3  502    0 -0.37331856243E+03 -0.11290013941E+04  0.80041916933E+03  0.14334238151E+04  0.46999998093E+01 0.  1.
       -5    1    3    3    0  502  0.37331856243E+03  0.11290013941E+04  0.24128705923E+02  0.11893759630E+04  0.46999998093E+01 0. -1.
</event>
<event>
 5   0  0.3650620E-05  0.2459633E+04  0.7818609E-02  0.8417509E-01
       -2   -1    0    0    0  501  0.00000000000E+00  0.00000000000E+00  0.13693487465E+04  0.13693487465E+04  0.25500000920E-02 0. -1.
        2   -1    0    0  501    0  0.00000000000E+00  0.00000000000E+00 -0.11045018479E+04  0.11045018479E+04  0.25500000920E-02 0.  1.
    10030    2    1    2    0    0  0.00000000000E+00  0.00000000000E+00  0.26484689861E+03  0.24738505944E+04  0.24596326725E+04 0.  0.
        3    1    3    3  502    0  0.88592914860E+03 -0.19690369975E+03 -0.70231783160E+03  0.11475590922E+04  0.10100000352E+00 0.  1.
       -3    1    3    3    0  502 -0.88592914860E+03  0.19690369975E+03  0.96716473021E+03  0.13262915022E+04  0.10100000352E+00 0. -1.
</event>
<event>
 5   0  0.1456876E-05  0.2012753E+04  0.7818609E-02  0.8600681E-01
        1   -1    0    0  501    0  0.00000000000E+00  0.00000000000E+00  0.45025512535E+03  0.45025512538E+03  0.50400001928E-02 0.  1.
       -1   -1    0    0    0  501  0.00000000000E+00  0.00000000000E+00 -0.22493767996E+04  0.22493767996E+04  0.50400001928E-02 0. -1.
    10030    2    1    2    0    0  0.00000000000E+00  0.00000000000E+00 -0.17991216742E+04  0.26996319249E+04  0.20127527746E+04 0.  0.
        1    1    3    3  502    0  0.54472648366E+03  0.14270775789E+03 -0.20182912149E+04  0.20953739223E+04  0.50400001928E-02 0. -1.
       -1    1    3    3    0  502 -0.54472648366E+03 -0.14270775789E+03  0.21916954069E+03  0.60425800264E+03  0.50400001928E-02 0.  1.
</event>
<event>
 5   0  0.1456876E-05  0.2495546E+04  0.7818609E-02  0.8404574E-01
        1   -1    0    0  501    0  0.00000000000E+00  0.00000000000E+00  0.25808389536E+04  0.25808389536E+04  0.50400001928E-02 0. -1.
       -1   -1    0    0    0  501  0.00000000000E+00  0.00000000000E+00 -0.60326808390E+03  0.60326808392E+03  0.50400001928E-02 0.  1.
    10030    2    1    2    0    0  0.00000000000E+00  0.00000000000E+00  0.19775708697E+04  0.31841070375E+04  0.24955462492E+04 0.  0.
        1    1    3    3  502    0 -0.14091240577E+03 -0.44494826597E+03 -0.48769925142E+03  0.67504505431E+03  0.50400001928E-02 0.  1.
       -1    1    3    3    0  502  0.14091240577E+03  0.44494826597E+03  0.24652701211E+04  0.25090619832E+04  0.50400001928E-02 0. -1.
</event>
<event>
 5   0  0.1421242E-05  0.2482310E+04  0.7818609E-02  0.8409315E-01
        1   -1    0    0  501    0  0.00000000000E+00  0.00000000000E+00  0.17220484049E+04  0.17220484049E+04  0.50400001928E-02 0. -1.
       -1   -1    0    0    0  501  0.00000000000E+00  0.00000000000E+00 -0.89455410846E+03  0.89455410848E+03  0.50400001928E-02 0.  1.
    10030    2    1    2    0    0  0.00000000000E+00  0.00000000000E+00  0.82749429645E+03  0.26166025134E+04  0.24823097918E+04 0.  0.
        3    1    3    3  502    0  0.11721805405E+04  0.38331063563E+03  0.56106190949E+03  0.13548891982E+04  0.10100000352E+00 0. -1.
       -3    1    3    3    0  502 -0.11721805405E+04 -0.38331063563E+03  0.26643238697E+03  0.12617133152E+04  0.10100000352E+00 0.  1.
</event>
<event>
 5   0  0.3579097E-05  0.2503398E+04  0.7818609E-02  0.8401776E-01
        2   -1    0    0  501    0  0.00000000000E+00  0.00000000000E+00  0.14036299837E+04  0.14036299837E+04  0.25500000920E-02 0. -1.
       -2   -1    0    0    0  501  0.00000000000E+00  0.00000000000E+00 -0.11162136579E+04  0.11162136579E+04  0.25500000920E-02 0.  1.
    10030    2    1    2    0    0  0.00000000000E+00  0.00000000000E+00  0.28741632571E+03  0.25198436416E+04  0.25033984569E+04 0.  0.
        5    1    3    3  502    0 -0.10087770380E+04 -0.31749710436E+03  0.81765363343E+03  0.13367928328E+04  0.46999998093E+01 0. -1.
       -5    1    3    3    0  502  0.10087770380E+04  0.31749710436E+03 -0.53023730771E+03  0.11830508088E+04  0.46999998093E+01 0.  1.
</event>
<event>
 5   0  0.3581449E-05  0.2490106E+04  0.7818609E-02  0.8406519E-01
        2   -1    0    0  501    0  0.00000000000E+00  0.00000000000E+00  0.13619117289E+04  0.13619117289E+04  0.25500000920E-02 0.  1.
       -2   -1    0    0    0  501  0.00000000000E+00  0.00000000000E+00 -0.11382216073E+04  0.11382216073E+04  0.25500000920E-02 0. -1.
    10030    2    1    2    0    0  0.00000000000E+00  0.00000000000E+00  0.22369012165E+03  0.25001333362E+04  0.24901063087E+04 0.  0.
        1    1    3    3  502    0  0.11771565440E+04  0.31685033259E+03  0.36597629900E+03  0.12728041145E+04  0.50400001928E-02 0.  1.
       -1    1    3    3    0  502 -0.11771565440E+04 -0.31685033259E+03 -0.14228617735E+03  0.12273292218E+04  0.50400001928E-02 0. -1.
</event>
<event>
 5   0  0.1492639E-05  0.2492970E+04  0.7818609E-02  0.8405494E-01
        1   -1    0    0  501    0  0.00000000000E+00  0.00000000000E+00  0.13836748709E+04  0.13836748709E+04  0.50400001928E-02 0. -1.
       -1   -1    0    0    0  501  0.00000000000E+00  0.00000000000E+00 -0.11228972260E+04  0.11228972260E+04  0.50400001928E-02 0.  1.
    10030    2    1    2    0    0  0.00000000000E+00  0.00000000000E+00  0.26077764497E+03  0.25065720969E+04  0.24929698548E+04 0.  0.
        5    1    3    3  502    0 -0.97599483252E+03  0.13181517686E+02 -0.64905893440E+03  0.11721942057E+04  0.46999998093E+01 0.  1.
       -5    1    3    3    0  502  0.97599483252E+03 -0.13181517686E+02  0.90983657937E+03  0.13343778913E+04  0.46999998093E+01 0. -1.
</event>
<event>
 5   0  0.1492639E-05  0.2507473E+04  0.7818609E-02  0.8400328E-01
       -1   -1    0    0    0  501  0.00000000000E+00  0.00000000000E+00  0.71788044058E+03  0.71788044060E+03  0.50400001928E-02 0. -1.
        1   -1    0    0  501    0  0.00000000000E+00  0.00000000000E+00 -0.21895787056E+04  0.21895787056E+04  0.50400001928E-02 0.  1.
    10030    2    1    2    0    0  0.00000000000E+00  0.00000000000E+00 -0.14716982650E+04  0.29074591462E+04  0.25074734103E+04 0.  0.
        5    1    3    3  502    0 -0.69640887376E+03  0.82501161185E+03 -0.14748576881E+04  0.18278010748E+04  0.46999998093E+01 0.  1.
       -5    1    3    3    0  502  0.69640887376E+03 -0.82501161185E+03  0.31594230378E+01  0.10796580714E+04  0.46999998093E+01 0. -1.
</event>
<event>
 5   0  0.3581449E-05  0.1998794E+04  0.7818609E-02  0.8607185E-01
        2   -1    0    0  501    0  0.00000000000E+00  0.00000000000E+00  0.12398681191E+04  0.12398681191E+04  0.25500000920E-02 0. -1.
       -2   -1    0    0    0  501  0.00000000000E+00  0.00000000000E+00 -0.80556500353E+03  0.80556500354E+03  0.25500000920E-02 0.  1.
    10030    2    1    2    0    0  0.00000000000E+00  0.00000000000E+00  0.43430311560E+03  0.20454331227E+04  0.19987940022E+04 0.  0.
        1    1    3    3  502    0  0.38681059869E+03 -0.43316415794E+03 -0.61517843344E+03  0.84598943964E+03  0.50400001928E-02 0.  1.
       -1    1    3    3    0  502 -0.38681059869E+03  0.43316415794E+03  0.10494815490E+04  0.11994436830E+04  0.50400001928E-02 0. -1.
</event>
<event>
 5   0  0.1421242E-05  0.2504190E+04  0.7818609E-02  0.8401494E-01
       -1   -1    0    0    0  501  0.00000000000E+00  0.00000000000E+00  0.74820731669E+03  0.74820731670E+03  0.50400001928E-02 0.  1.
        1   -1    0    0  501    0  0.00000000000E+00  0.00000000000E+00 -0.20953311481E+04  0.20953311481E+04  0.50400001928E-02 0. -1.
    10030    2    1    2    0    0  0.00000000000E+00  0.00000000000E+00 -0.13471238314E+04  0.28435384648E+04  0.25041901652E+04 0.  0.
        3    1    3    3  502    0 -0.59263469496E+03 -0.68485699939E+03  0.30817824244E+03  0.95667070123E+03  0.10100000352E+00 0.  1.
       -3    1    3    3    0  502  0.59263469496E+03  0.68485699939E+03 -0.16553020738E+04  0.18868677635E+04  0.10100000352E+00 0. -1.
</event>
<event>
 5   0  0.1429483E-05  0.2467334E+04  0.7818609E-02  0.8414716E-01
        1   -1    0    0  501    0  0.00000000000E+00  0.00000000000E+00  0.18533475798E+04  0.18533475798E+04  0.50400001928E-02 0.  1.
       -1   -1    0    0    0  501  0.00000000000E+00  0.00000000000E+00 -0.82118119254E+03  0.82118119255E+03  0.50400001928E-02 0. -1.
    10030    2    1    2    0    0  0.00000000000E+00  0.00000000000E+00  0.10321663872E+04  0.26745287723E+04  0.24673339261E+04 0.  0.
        2    1    3    3  502    0  0.96856572376E+03 -0.63348629779E+03  0.52996449625E+02  0.11585478300E+04  0.25500000920E-02 0.  1.
       -2    1    3    3    0  502 -0.96856572376E+03  0.63348629779E+03  0.97916993759E+03  0.15159809423E+04  0.25500000920E-02 0. -1.
</event>
<event>
 5   0  0.1502886E-05  0.2492116E+04  0.7818609E-02  0.8405800E-01
       -1   -1    0    0    0  501  0.00000000000E+00  0.00000000000E+00  0.78923310349E+03  0.78923310351E+03  0.50400001928E-02 0. -1.
        1   -1    0    0  501    0  0.00000000000E+00  0.00000000000E+00 -0.19673023074E+04  0.19673023074E+04  0.50400001928E-02 0.  1.
    10030    2    1    2    0    0  0.00000000000E+00  0.00000000000E+00 -0.11780692039E+04  0.27565354110E+04  0.24921156519E+04 0.  0.
        4    1    3    3  502    0 -0.13329119259E+03  0.11670757564E+04 -0.12920165505E+03  0.11817474534E+04  0.12699999809E+01 0. -1.
       -4    1    3    3    0  502  0.13329119259E+03 -0.11670757564E+04 -0.10488675489E+04  0.15747879575E+04  0.12699999809E+01 0.  1.
</event>
<event>
 5   0  0.1502886E-05  0.2079533E+04  0.7818609E-02  0.8570313E-01
       -1   -1    0    0    0  501  0.00000000000E+00  0.00000000000E+00  0.12932828513E+04  0.12932828513E+04  0.50400001928E-02 0.  1.
        1   -1    0    0  501    0  0.00000000000E+00  0.00000000000E+00 -0.83594549633E+03  0.83594549635E+03  0.50400001928E-02 0. -1.
    10030    2    1    2    0    0  0.00000000000E+00  0.00000000000E+00  0.45733735496E+03  0.21292283476E+04  0.20795326158E+04 0.  0.
        4    1    3    3  502    0 -0.93103648778E+03  0.45892395160E+03  0.16662160773E+03  0.10512870721E+04  0.12699999809E+01 0. -1.
       -4    1    3    3    0  502  0.93103648778E+03 -0.45892395160E+03  0.29071574723E+03  0.10779412755E+04  0.12699999809E+01 0.  1.
</event>
<event>
 5   0  0.1456876E-05  0.2479943E+04  0.7818609E-02  0.8410166E-01
        1   -1    0    0  501    0  0.00000000000E+00  0.00000000000E+00  0.17483691054E+04  0.17483691054E+04  0.50400001928E-02 0.  1.
       -1   -1    0    0    0  501  0.00000000000E+00  0.00000000000E+00 -0.87940784128E+03  0.87940784130E+03  0.50400001928E-02 0. -1.
    10030    2    1    2    0    0  0.00000000000E+00  0.00000000000E+00  0.86896126408E+03  0.26277769467E+04  0.24799431451E+04 0.  0.
        1    1    3    3  502    0  0.11170098360E+04  0.11128113593E+03 -0.12363916337E+03  0.11293277238E+04  0.50400001928E-02 0. -1.
       -1    1    3    3    0  502 -0.11170098360E+04 -0.11128113593E+03  0.99260042746E+03  0.14984492229E+04  0.50400001928E-02 0.  1.
</event>
<event>
 5   0  0.1421242E-05  0.2485637E+04  0.7818609E-02  0.8408120E-01
        1   -1    0    0  501    0  0.00000000000E+00  0.00000000000E+00  0.18749418924E+04  0.18749418924E+04  0.50400001928E-02 0.  1.
       -1   -1    0    0    0  501  0.00000000000E+00  0.00000000000E+00 -0.82381112678E+03  0.82381112679E+03  0.50400001928E-02 0. -1.
    10030    2    1    2    0    0  0.00000000000E+00  0.00000000000E+00  0.10511307656E+04  0.26987530192E+04  0.24856371360E+04 0.  0.
        3    1    3    3  502    0  0.11058739586E+04  0.31239675480E+03  0.10394870810E+04  0.15495426249E+04  0.10100000352E+00 0.  1.
       -3    1    3    3    0  502 -0.11058739586E+04 -0.31239675480E+03  0.11643684567E+02  0.11492103942E+04  0.10100000352E+00 0. -1.
</event>
<event>
 5   0  0.1502886E-05  0.2466800E+04  0.7818609E-02  0.8414909E-01
        1   -1    0    0  501    0  0.00000000000E+00  0.00000000000E+00  0.51222671399E+03  0.51222671401E+03  0.50400001928E-02 0.  1.
       -1   -1    0    0    0  501  0.00000000000E+00  0.00000000000E+00 -0.29699273878E+04  0.29699273878E+04  0.50400001928E-02 0. -1.
    10030    2    1    2    0    0  0.00000000000E+00  0.00000000000E+00 -0.24577006738E+04  0.34821541018E+04  0.24668004757E+04 0.  0.
        4    1    3    3  502    0  0.58777338875E+03  0.85852687938E+03 -0.29384966302E+03  0.10811545664E+04  0.12699999809E+01 0.  1.
       -4    1    3    3    0  502 -0.58777338875E+03 -0.85852687938E+03 -0.21638510108E+04  0.24009995354E+04  0.12699999809E+01 0. -1.
</event>
<event>
 5   0  0.3579097E-05  0.3114782E+04  0.7818609E-02  0.8211693E-01
       -2   -1    0    0    0  501  0.00000000000E+00  0.00000000000E+00  0.11749375626E+04  0.11749375626E+04  0.25500000920E-02 0. -1.
        2   -1    0    0  501    0  0.00000000000E+00  0.00000000000E+00 -0.20643363379E+04  0.20643363379E+04  0.25500000920E-02 0.  1.
    10030    2    1    2    0    0  0.00000000000E+00  0.00000000000E+00 -0.88939877534E+03  0.32392739005E+04  0.31147817292E+04 0.  0.
        5    1    3    3  502    0 -0.13594950782E+04 -0.64909396531E+03 -0.34083951771E+02  0.15068953677E+04  0.46999998093E+01 0. -1.
       -5    1    3    3    0  502  0.13594950782E+04  0.64909396531E+03 -0.85531482357E+03  0.17323785328E+04  0.46999998093E+01 0.  1.
</event>
<event>
 5   0  0.1429483E-05  0.2499113E+04  0.7818609E-02  0.8403302E-01
       -1   -1    0    0    0  501  0.00000000000E+00  0.00000000000E+00  0.76480341129E+03  0.76480341130E+03  0.50400001928E-02 0.  1.
        1   -1    0    0  501    0  0.00000000000E+00  0.00000000000E+00 -0.20415585538E+04  0.20415585538E+04  0.50400001928E-02 0. -1.
    10030    2    1    2    0    0  0.00000000000E+00  0.00000000000E+00 -0.12767551425E+04  0.28063619651E+04  0.24991125995E+04 0.  0.
        2    1    3    3  502    0  0.88585402425E+02  0.66207676066E+03  0.54748357519E+03  0.86367313009E+03  0.25500000920E-02 0.  1.
       -2    1    3    3    0  502 -0.88585402425E+02 -0.66207676066E+03 -0.18242387177E+04  0.19426888350E+04  0.25500000920E-02 0. -1.
</event>
<event>
 5   0  0.1421242E-05  0.2534506E+04  0.7818609E-02  0.8390795E-01
        1   -1    0    0  501    0  0.00000000000E+00  0.00000000000E+00  0.14976634594E+04  0.14976634595E+04  0.50400001928E-02 0.  1.
       -1   -1    0    0    0  501  0.00000000000E+00  0.00000000000E+00 -0.10722900911E+04  0.10722900911E+04  0.50400001928E-02 0. -1.
    10030    2    1    2    0    0  0.00000000000E+00  0.00000000000E+00  0.42537336832E+03  0.25699535506E+04  0.25345056223E+04 0.  0.
        3    1    3    3  502    0  0.19559045079E+02 -0.12614986614E+04  0.33338191084E+03  0.13049539983E+04  0.10100000352E+00 0. -1.
       -3    1    3    3    0  502 -0.19559045079E+02  0.12614986614E+04  0.91991457477E+02  0.12649995523E+04  0.10100000352E+00 0.  1.
</event>
<event>
 5   0  0.1429483E-05  0.2526798E+04  0.7818609E-02  0.8393500E-01
        1   -1    0    0  501    0  0.00000000000E+00  0.00000000000E+00  0.11548363344E+04  0.11548363344E+04  0.50400001928E-02 0. -1.
       -1   -1    0    0    0  501  0.00000000000E+00  0.00000000000E+00 -0.13821668926E+04  0.13821668926E+04  0.50400001928E-02 0.  1.
    10030    2    1    2    0    0  0.00000000000E+00  0.00000000000E+00 -0.22733055819E+03  0.25370032271E+04  0.25267976159E+04 0.  0.
        2    1    3    3  502    0 -0.68363812958E+03 -0.48375995688E+03 -0.10634201930E+04  0.13536052951E+04  0.25500000920E-02 0.  1.
       -2    1    3    3    0  502  0.68363812958E+03  0.48375995688E+03  0.83608963476E+03  0.11833979320E+04  0.25500000920E-02 0. -1.
</event>
<event>
 5   0  0.3581449E-05  0.2467508E+04  0.7818609E-02  0.8414653E-01
        2   -1    0    0  501    0  0.00000000000E+00  0.00000000000E+00  0.13871888613E+04  0.13871888613E+04  0.25500000920E-02 0. -1.
       -2   -1    0    0    0  501  0.00000000000E+00  0.00000000000E+00 -0.10972907365E+04  0.10972907365E+04  0.25500000920E-02 0.  1.
    10030    2    1    2    0    0  0.00000000000E+00  0.00000000000E+00  0.28989812476E+03  0.24844795978E+04  0.24675084497E+04 0.  0.
        1    1    3    3  502    0 -0.94062248687E+03 -0.72627103437E+03 -0.18885669856E+03  0.12032901274E+04  0.50400001928E-02 0.  1.
       -1    1    3    3    0  502  0.94062248687E+03  0.72627103437E+03  0.47875482333E+03  0.12811894704E+04  0.50400001928E-02 0. -1.
</event>
<event>
 5   0  0.1456876E-05  0.2477033E+04  0.7818609E-02  0.8411214E-01
        1   -1    0    0  501    0  0.00000000000E+00  0.00000000000E+00  0.15750122209E+04  0.15750122209E+04  0.50400001928E-02 0.  1.
       -1   -1    0    0    0  501  0.00000000000E+00  0.00000000000E+00 -0.97391209122E+03  0.97391209123E+03  0.50400001928E-02 0. -1.
    10030    2    1    2    0    0  0.00000000000E+00  0.00000000000E+00  0.60110012972E+03  0.25489243122E+04  0.24770332624E+04 0.  0.
        1    1    3    3  502    0 -0.79620776921E+03 -0.62622008386E+03  0.10338508621E+04  0.14473928321E+04  0.50400001928E-02 0.  1.
       -1    1    3    3    0  502  0.79620776921E+03  0.62622008386E+03 -0.43275073243E+03  0.11015314801E+04  0.50400001928E-02 0. -1.
</event>
<event>
 5   0  0.3704241E-05  0.2546847E+04  0.7818609E-02  0.8386484E-01
       -2   -1    0    0    0  501  0.00000000000E+00  0.00000000000E+00  0.13252244545E+04  0.13252244545E+04  0.25500000920E-02 0.  1.
        2   -1    0    0  501    0  0.00000000000E+00  0.00000000000E+00 -0.12236472067E+04  0.12236472067E+04  0.25500000920E-02 0. -1.
    10030    2    1    2    0    0  0.00000000000E+00  0.00000000000E+00  0.10157724785E+03  0.25488716612E+04  0.25468468364E+04 0.  0.
        2    1    3    3  502    0  0.10298316914E+04  0.63419144943E+03  0.44967179591E+03  0.12903320624E+04  0.25500000920E-02 0.  1.
       -2    1    3    3    0  502 -0.10298316914E+04 -0.63419144943E+03 -0.34809454806E+03  0.12585395988E+04  0.25500000920E-02 0. -1.
</event>
<event>
 5   0  0.1201438E-05  0.2496762E+04  0.7818609E-02  0.8404140E-01
       -3   -1    0    0    0  501  0.00000000000E+00  0.00000000000E+00  0.15558852272E+04  0.15558852305E+04  0.10100000352E+00 0.  1.
        3   -1    0    0  501    0  0.00000000000E+00  0.00000000000E+00 -0.10016520518E+04  0.10016520569E+04  0.10100000352E+00 0. -1.
    10030    2    1    2    0    0  0.00000000000E+00  0.00000000000E+00  0.55423317543E+03  0.25575372874E+04  0.24967624164E+04 0.  0.
        3    1    3    3  502    0  0.10310039718E+04 -0.26502932746E+03 -0.39086550738E+03  0.11340130464E+04  0.10100000352E+00 0. -1.
       -3    1    3    3    0  502 -0.10310039718E+04  0.26502932746E+03  0.94509868281E+03  0.14235242410E+04  0.10100000352E+00 0.  1.
</event>
<event>
 5   0  0.1456876E-05  0.2364342E+04  0.7818609E-02  0.8452975E-01
        1   -1    0    0  501    0  0.00000000000E+00  0.00000000000E+00  0.15341625836E+04  0.15341625836E+04  0.50400001928E-02 0. -1.
       -1   -1    0    0    0  501  0.00000000000E+00  0.00000000000E+00 -0.91093883420E+03  0.91093883421E+03  0.50400001928E-02 0.  1.
    10030    2    1    2    0    0  0.00000000000E+00  0.00000000000E+00  0.62322374937E+03  0.24451014178E+04  0.23643420018E+04 0.  0.
        1    1    3    3  502    0 -0.18357621004E+03  0.21126016583E+03  0.14994067284E+04  0.15253037795E+04  0.50400001928E-02 0. -1.
       -1    1    3    3    0  502  0.18357621004E+03 -0.21126016583E+03 -0.87618297905E+03  0.91979763827E+03  0.50400001928E-02 0.  1.
</event>
<event>
 5   0  0.1421242E-05  0.2506367E+04  0.7818609E-02  0.8400721E-01
        1   -1    0    0  501    0  0.00000000000E+00  0.00000000000E+00  0.15078314689E+04  0.15078314689E+04  0.50400001928E-02 0. -1.
       -1   -1    0    0    0  501  0.00000000000E+00  0.00000000000E+00 -0.10415411902E+04  0.10415411902E+04  0.50400001928E-02 0.  1.
    10030    2    1    2    0    0  0.00000000000E+00  0.00000000000E+00  0.46629027873E+03  0.25493726591E+04  0.25063667590E+04 0.  0.
        3    1    3    3  502    0 -0.11854549645E+04 -0.31146447634E+03 -0.32399475259E+02  0.12261171759E+04  0.10100000352E+00 0.  1.
       -3    1    3    3    0  502  0.11854549645E+04  0.31146447634E+03  0.49868975399E+03  0.13232554832E+04  0.10100000352E+00 0. -1.
</event>
<event>
 5   0  0.3579097E-05  0.2673418E+04  0.7818609E-02  0.8343682E-01
        2   -1    0    0  501    0  0.00000000000E+00  0.00000000000E+00  0.54858630747E+03  0.54858630748E+03  0.25500000920E-02 0. -1.
       -2   -1    0    0    0  501  0.00000000000E+00  0.00000000000E+00 -0.32570832751E+04  0.32570832751E+04  0.25500000920E-02 0.  1.
    10030    2    1    2    0    0  0.00000000000E+00  0.00000000000E+00 -0.27084969676E+04  0.38056695825E+04  0.26734182516E+04 0.  0.
        5    1    3    3  502    0 -0.12142870187E+04  0.20806905687E+03 -0.61595847491E+03  0.13773934184E+04  0.46999998093E+01 0.  1.
       -5    1    3    3    0  502  0.12142870187E+04 -0.20806905687E+03 -0.20925384927E+04  0.24282761642E+04  0.46999998093E+01 0. -1.
</event>
<event>
 5   0  0.3578670E-05  0.2508751E+04  0.7818609E-02  0.8399874E-01
       -2   -1    0    0    0  501  0.00000000000E+00  0.00000000000E+00  0.78243864580E+03  0.78243864581E+03  0.25500000920E-02 0. -1.
        2   -1    0    0  501    0  0.00000000000E+00  0.00000000000E+00 -0.20109669117E+04  0.20109669117E+04  0.25500000920E-02 0.  1.
    10030    2    1    2    0    0  0.00000000000E+00  0.00000000000E+00 -0.12285282659E+04  0.27934055575E+04  0.25087512648E+04 0.  0.
        4    1    3    3  502    0  0.10528412265E+04 -0.17283683302E+03  0.12020850114E+03  0.10736847375E+04  0.12699999809E+01 0.  1.
       -4    1    3    3    0  502 -0.10528412265E+04  0.17283683302E+03 -0.13487367670E+04  0.17197208200E+04  0.12699999809E+01 0. -1.
</event>
<event>
 5   0  0.1456876E-05  0.2532755E+04  0.7818609E-02  0.8391408E-01
       -1   -1    0    0    0  501  0.00000000000E+00  0.00000000000E+00  0.92125444622E+03  0.92125444623E+03  0.50400001928E-02 0.  1.
        1   -1    0    0  501    0  0.00000000000E+00  0.00000000000E+00 -0.17407920869E+04  0.17407920870E+04  0.50400001928E-02 0. -1.
    10030    2    1    2    0    0  0.00000000000E+00  0.00000000000E+00 -0.81953764073E+03  0.26620465332E+04  0.25327553771E+04 0.  0.
        1    1    3    3  502    0 -0.87287505992E+03  0.33923527256E+03 -0.13057651997E+04  0.16068647102E+04  0.50400001928E-02 0. -1.
       -1    1    3    3    0  502  0.87287505992E+03 -0.33923527256E+03  0.48622755893E+03  0.10551818229E+04  0.50400001928E-02 0.  1.
</event>
<event>
 5   0  0.1492639E-05  0.2557929E+04  0.7818609E-02  0.8382634E-01
        1   -1    0    0  501    0  0.00000000000E+00  0.00000000000E+00  0.63300766817E+03  0.63300766819E+03  0.50400001928E-02 0.  1.
       -1   -1    0    0    0  501  0.00000000000E+00  0.00000000000E+00 -0.25840925786E+04  0.25840925786E+04  0.50400001928E-02 0. -1.
    10030    2    1    2    0    0  0.00000000000E+00  0.00000000000E+00 -0.19510849104E+04  0.32171002467E+04  0.25579291761E+04 0.  0.
        5    1    3    3  502    0 -0.10592064284E+03 -0.10363467538E+04 -0.19086948836E+04  0.21744820131E+04  0.46999998093E+01 0. -1.
       -5    1    3    3    0  502  0.10592064284E+03  0.10363467538E+04 -0.42390026752E+02  0.10426182336E+04  0.46999998093E+01 0.  1.
</event>
<event>
 5   0  0.3650620E-05  0.2528206E+04  0.7818609E-02  0.8393005E-01
       -2   -1    0    0    0  501  0.00000000000E+00  0.00000000000E+00  0.97453479687E+03  0.97453479687E+03  0.25500000920E-02 0. -1.
        2   -1    0    0  501    0  0.00000000000E+00  0.00000000000E+00 -0.16397126155E+04  0.16397126155E+04  0.25500000920E-02 0.  1.
    10030    2    1    2    0    0  0.00000000000E+00  0.00000000000E+00 -0.66517781861E+03  0.26142474123E+04  0.25282064794E+04 0.  0.
        3    1    3    3  502    0 -0.11631670921E+02 -0.58414483240E+03  0.82654089088E+03  0.10121908592E+04  0.10100000352E+00 0. -1.
       -3    1    3    3    0  502  0.11631670921E+02  0.58414483240E+03 -0.14917187095E+04  0.16020565531E+04  0.10100000352E+00 0.  1.
</event>
<event>
 5   0  0.1502886E-05  0.2521103E+04  0.7818609E-02  0.8395506E-01
        1   -1    0    0  501    0  0.00000000000E+00  0.00000000000E+00  0.10462941612E+04  0.10462941612E+04  0.50400001928E-02 0.  1.
       -1   -1    0    0    0  501  0.00000000000E+00  0.00000000000E+00 -0.15186844506E+04  0.15186844506E+04  0.50400001928E-02 0. -1.
    10030    2    1    2    0    0  0.00000000000E+00  0.00000000000E+00 -0.47239028944E+03  0.25649786118E+04  0.25211034675E+04 0.  0.
        4    1    3    3  502    0  0.10054291989E+04 -0.59778923085E+03  0.24182111486E+03  0.11944533909E+04  0.12699999809E+01 0.  1.
       -4    1    3    3    0  502 -0.10054291989E+04  0.59778923085E+03 -0.71421140430E+03  0.13705252210E+04  0.12699999809E+01 0. -1.
</event>
<event>
 5   0  0.3650620E-05  0.2490758E+04  0.7818609E-02  0.8406286E-01
       -2   -1    0    0    0  501  0.00000000000E+00  0.00000000000E+00  0.89912014536E+03  0.89912014536E+03  0.25500000920E-02 0. -1.
        2   -1    0    0  501    0  0.00000000000E+00  0.00000000000E+00 -0.17249844579E+04  0.17249844579E+04  0.25500000920E-02 0.  1.
    10030    2    1    2    0    0  0.00000000000E+00  0.00000000000E+00 -0.82586431251E+03  0.26241046032E+04  0.24907575366E+04 0.  0.
        3    1    3    3  502    0  0.45030402418E+03  0.11601659581E+04 -0.36341030538E+03  0.12964666694E+04  0.10100000352E+00 0.  1.
       -3    1    3    3    0  502 -0.45030402418E+03 -0.11601659581E+04 -0.46245400713E+03  0.13276379339E+04  0.10100000352E+00 0. -1.
</event>
<event>
 5   0  0.1201438E-05  0.2350272E+04  0.7818609E-02  0.8458359E-01
        3   -1    0    0  501    0  0.00000000000E+00  0.00000000000E+00  0.15243855328E+04  0.15243855362E+04  0.10100000352E+00 0.  1.
       -3   -1    0    0    0  501  0.00000000000E+00  0.00000000000E+00 -0.90590249603E+03  0.90590250166E+03  0.10100000352E+00 0. -1.
    10030    2    1    2    0    0  0.00000000000E+00  0.00000000000E+00  0.61848303678E+03  0.24302880378E+04  0.23502720438E+04 0.  0.
        1    1    3    3  502    0 -0.47951457290E+03 -0.47104719390E+03  0.13059695767E+04  0.14688009463E+04  0.50400001928E-02 0.  1.
       -1    1    3    3    0  502  0.47951457290E+03  0.47104719390E+03 -0.68748653995E+03  0.96148709151E+03  0.50400001928E-02 0. -1.
</event>
<event>
 5   0  0.1429483E-05  0.1858310E+04  0.7818609E-02  0.8675891E-01
        1   -1    0    0  501    0  0.00000000000E+00  0.00000000000E+00  0.83174758185E+03  0.83174758186E+03  0.50400001928E-02 0.  1.
       -1   -1    0    0    0  501  0.00000000000E+00  0.00000000000E+00 -0.10379695579E+04  0.10379695579E+04  0.50400001928E-02 0. -1.
    10030    2    1    2    0    0  0.00000000000E+00  0.00000000000E+00 -0.20622197607E+03  0.18697171398E+04  0.18583096296E+04 0.  0.
        2    1    3    3  502    0  0.61136060487E+03 -0.26637691102E+03  0.54786166785E+03  0.86305901016E+03  0.25500000920E-02 0.  1.
       -2    1    3    3    0  502 -0.61136060487E+03  0.26637691102E+03 -0.75408364392E+03  0.10066581296E+04  0.25500000920E-02 0. -1.
</event>
<event>
 5   0  0.3579097E-05  0.2103995E+04  0.7818609E-02  0.8559485E-01
        2   -1    0    0  501    0  0.00000000000E+00  0.00000000000E+00  0.52050779505E+03  0.52050779506E+03  0.25500000920E-02 0. -1.
       -2   -1    0    0    0  501  0.00000000000E+00  0.00000000000E+00 -0.21261909606E+04  0.21261909606E+04  0.25500000920E-02 0.  1.
    10030    2    1    2    0    0  0.00000000000E+00  0.00000000000E+00 -0.16056831656E+04  0.26466987557E+04  0.21039952175E+04 0.  0.
        5    1    3    3  502    0 -0.43509294963E+03 -0.75766302486E+02  0.39823080123E+03  0.59469006084E+03  0.46999998093E+01 0. -1.
       -5    1    3    3    0  502  0.43509294963E+03  0.75766302486E+02 -0.20039139668E+04  0.20520086948E+04  0.46999998093E+01 0.  1.
</event>
<event>
 5   0  0.1456876E-05  0.2503085E+04  0.7818609E-02  0.8401887E-01
       -1   -1    0    0    0  501  0.00000000000E+00  0.00000000000E+00  0.15633781252E+04  0.15633781252E+04  0.50400001928E-02 0.  1.
        1   -1    0    0  501    0  0.00000000000E+00  0.00000000000E+00 -0.10019065886E+04  0.10019065886E+04  0.50400001928E-02 0. -1.
    10030    2    1    2    0    0  0.00000000000E+00  0.00000000000E+00  0.56147153657E+03  0.25652847138E+04  0.25030851717E+04 0.  0.
        1    1    3    3  502    0 -0.38128223391E+03  0.16836829679E+03  0.14901597345E+04  0.15473525971E+04  0.50400001928E-02 0.  1.
       -1    1    3    3    0  502  0.38128223391E+03 -0.16836829679E+03 -0.92868819795E+03  0.10179321167E+04  0.50400001928E-02 0. -1.
</event>
<event>
 5   0  0.1456876E-05  0.2469842E+04  0.7818609E-02  0.8413809E-01
        1   -1    0    0  501    0  0.00000000000E+00  0.00000000000E+00  0.78954231602E+03  0.78954231603E+03  0.50400001928E-02 0.  1.
       -1   -1    0    0    0  501  0.00000000000E+00  0.00000000000E+00 -0.19315360376E+04  0.19315360376E+04  0.50400001928E-02 0. -1.
    10030    2    1    2    0    0  0.00000000000E+00  0.00000000000E+00 -0.11419937216E+04  0.27210783536E+04  0.24698416440E+04 0.  0.
        1    1    3    3  502    0 -0.24892649366E+01  0.11249023502E+04 -0.11323540521E+04  0.15961319473E+04  0.50400001928E-02 0. -1.
       -1    1    3    3    0  502  0.24892649366E+01 -0.11249023502E+04 -0.96396695044E+01  0.11249464063E+04  0.50400001928E-02 0.  1.
</event>
<event>
 5   0  0.3579097E-05  0.2456142E+04  0.7818609E-02  0.8418779E-01
       -2   -1    0    0    0  501  0.00000000000E+00  0.00000000000E+00  0.12764887515E+04  0.12764887515E+04  0.25500000920E-02 0.  1.
        2   -1    0    0  501    0  0.00000000000E+00  0.00000000000E+00 -0.11814895447E+04  0.11814895447E+04  0.25500000920E-02 0. -1.
    10030    2    1    2    0    0  0.00000000000E+00  0.00000000000E+00  0.94999206795E+02  0.24579782962E+04  0.24561417824E+04 0.  0.
        5    1    3    3  502    0  0.45280460972E+03  0.91876402568E+03 -0.63048513523E+03  0.12027854943E+04  0.46999998093E+01 0. -1.
       -5    1    3    3    0  502 -0.45280460972E+03 -0.91876402568E+03  0.72548434202E+03  0.12551928019E+04  0.46999998093E+01 0.  1.
</event>
<event>
 5   0  0.1502886E-05  0.2609327E+04  0.7818609E-02  0.8365040E-01
        1   -1    0    0  501    0  0.00000000000E+00  0.00000000000E+00  0.22998287425E+04  0.22998287425E+04  0.50400001928E-02 0.  1.
       -1   -1    0    0    0  501  0.00000000000E+00  0.00000000000E+00 -0.74011904755E+03  0.74011904757E+03  0.50400001928E-02 0. -1.
    10030    2    1    2    0    0  0.00000000000E+00  0.00000000000E+00  0.15597096950E+04  0.30399477901E+04  0.26093271612E+04 0.  0.
        4    1    3    3  502    0  0.12747459370E+04  0.26918212652E+01  0.45623399217E+03  0.13539333508E+04  0.12699999809E+01 0. -1.
       -4    1    3    3    0  502 -0.12747459370E+04 -0.26918212652E+01  0.11034757028E+04  0.16860144393E+04  0.12699999809E+01 0.  1.
</event>
<event>
 5   0  0.1456876E-05  0.2494013E+04  0.7818609E-02  0.8405122E-01
        1   -1    0    0  501    0  0.00000000000E+00  0.00000000000E+00  0.14061753013E+04  0.14061753013E+04  0.50400001928E-02 0.  1.
       -1   -1    0    0    0  501  0.00000000000E+00  0.00000000000E+00 -0.11058544979E+04  0.11058544979E+04  0.50400001928E-02 0. -1.
    10030    2    1    2    0    0  0.00000000000E+00  0.00000000000E+00  0.30032080341E+03  0.25120297992E+04  0.24940130567E+04 0.  0.
        1    1    3    3  502    0 -0.65692748315E+03 -0.88574250426E+03  0.73654453481E+03  0.13261189063E+04  0.50400001928E-02 0.  1.
       -1    1    3    3    0  502  0.65692748315E+03  0.88574250426E+03 -0.43622373141E+03  0.11859108929E+04  0.50400001928E-02 0. -1.
</event>
<event>
 5   0  0.3579097E-05  0.2500608E+04  0.7818609E-02  0.8402769E-01
       -2   -1    0    0    0  501  0.00000000000E+00  0.00000000000E+00  0.86257322680E+03  0.86257322680E+03  0.25500000920E-02 0.  1.
        2   -1    0    0  501    0  0.00000000000E+00  0.00000000000E+00 -0.18123209163E+04  0.18123209163E+04  0.25500000920E-02 0. -1.
    10030    2    1    2    0    0  0.00000000000E+00  0.00000000000E+00 -0.94974768954E+03  0.26748941431E+04  0.25006075268E+04 0.  0.
        5    1    3    3  502    0 -0.57628368249E+03 -0.11286941651E+03  0.70586846014E+03  0.91821280808E+03  0.46999998093E+01 0.  1.
       -5    1    3    3    0  502  0.57628368249E+03  0.11286941651E+03 -0.16556161497E+04  0.17566813351E+04  0.46999998093E+01 0. -1.
</event>
<event>
 5   0  0.1492639E-05  0.2548924E+04  0.7818609E-02  0.8385760E-01
       -1   -1    0    0    0  501  0.00000000000E+00  0.00000000000E+00  0.13725456648E+04  0.13725456648E+04  0.50400001928E-02 0.  1.
        1   -1    0    0  501    0  0.00000000000E+00  0.00000000000E+00 -0.11833875267E+04  0.11833875267E+04  0.50400001928E-02 0. -1.
    10030    2    1    2    0    0  0.00000000000E+00  0.00000000000E+00  0.18915813807E+03  0.25559331915E+04  0.25489240236E+04 0.  0.
        5    1    3    3  502    0 -0.12438397575E+04  0.25350960303E+03 -0.18988133437E+02  0.12695617749E+04  0.46999998093E+01 0.  1.
       -5    1    3    3    0  502  0.12438397575E+04 -0.25350960303E+03  0.20814627151E+03  0.12863714166E+04  0.46999998093E+01 0. -1.
</event>
<event>
 5   0  0.3650620E-05  0.2448190E+04  0.7818609E-02  0.8421679E-01
        2   -1    0    0  501    0  0.00000000000E+00  0.00000000000E+00  0.69952164535E+03  0.69952164536E+03  0.25500000920E-02 0. -1.
       -2   -1    0    0    0  501  0.00000000000E+00  0.00000000000E+00 -0.21420477106E+04  0.21420477106E+04  0.25500000920E-02 0.  1.
    10030    2    1    2    0    0  0.00000000000E+00  0.00000000000E+00 -0.14425260652E+04  0.28415693559E+04  0.24481901388E+04 0.  0.
        3    1    3    3  502    0 -0.89723957529E+03  0.37560856314E+03  0.14131014944E+03  0.98289837557E+03  0.10100000352E+00 0. -1.
       -3    1    3    3    0  502  0.89723957529E+03 -0.37560856314E+03 -0.15838362147E+04  0.18586709804E+04  0.10100000352E+00 0.  1.
</event>
<event>
 5   0  0.1429483E-05  0.2495123E+04  0.7818609E-02  0.8404725E-01
        1   -1    0    0  501    0  0.00000000000E+00  0.00000000000E+00  0.17387071424E+04  0.17387071424E+04  0.50400001928E-02 0.  1.
       -1   -1    0    0    0  501  0.00000000000E+00  0.00000000000E+00 -0.89515321925E+03  0.89515321927E+03  0.50400001928E-02 0. -1.
    10030    2    1    2    0    0  0.00000000000E+00  0.00000000000E+00  0.84355392316E+03  0.26338603617E+04  0.24951226791E+04 0.  0.
        2    1    3    3  502    0 -0.42151300837E+03 -0.11878648041E+03  0.16549034873E+04  0.17118671083E+04  0.25500000920E-02 0.  1.
       -2    1    3    3    0  502  0.42151300837E+03  0.11878648041E+03 -0.81134956412E+03  0.92199325342E+03  0.25500000920E-02 0. -1.
</event>
<event>
 5   0  0.1502886E-05  0.2504542E+04  0.7818609E-02  0.8401369E-01
       -1   -1    0    0    0  501  0.00000000000E+00  0.00000000000E+00  0.77794073429E+03  0.77794073431E+03  0.50400001928E-02 0. -1.
        1   -1    0    0  501    0  0.00000000000E+00  0.00000000000E+00 -0.20158131376E+04  0.20158131376E+04  0.50400001928E-02 0.  1.
    10030    2    1    2    0    0  0.00000000000E+00  0.00000000000E+00 -0.12378724033E+04  0.27937538719E+04  0.25045423953E+04 0.  0.
        4    1    3    3  502    0 -0.39382553858E+03  0.11854423894E+04 -0.52036125844E+03  0.13531997878E+04  0.12699999809E+01 0. -1.
       -4    1    3    3    0  502  0.39382553858E+03 -0.11854423894E+04 -0.71751114482E+03  0.14405540841E+04  0.12699999809E+01 0.  1.
</event>
<event>
 5   0  0.1456876E-05  0.2501295E+04  0.7818609E-02  0.8402524E-01
        1   -1    0    0  501    0  0.00000000000E+00  0.00000000000E+00  0.16127972944E+04  0.16127972944E+04  0.50400001928E-02 0.  1.
       -1   -1    0    0    0  501  0.00000000000E+00  0.00000000000E+00 -0.96981778774E+03  0.96981778776E+03  0.50400001928E-02 0. -1.
    10030    2    1    2    0    0  0.00000000000E+00  0.00000000000E+00  0.64297950665E+03  0.25826150822E+04  0.25012952678E+04 0.  0.
        1    1    3    3  502    0  0.86312156745E+03  0.85317615058E+03  0.63335445696E+03  0.13689507852E+04  0.50400001928E-02 0.  1.
       -1    1    3    3    0  502 -0.86312156745E+03 -0.85317615058E+03  0.96250496938E+01  0.12136642970E+04  0.50400001928E-02 0. -1.
</event>
<event>
 5   0  0.1502886E-05  0.2470333E+04  0.7818609E-02  0.8413632E-01
       -1   -1    0    0    0  501  0.00000000000E+00  0.00000000000E+00  0.81440133282E+03  0.81440133284E+03  0.50400001928E-02 0.  1.
        1   -1    0    0  501    0  0.00000000000E+00  0.00000000000E+00 -0.18733216959E+04  0.18733216959E+04  0.50400001928E-02 0. -1.
    10030    2    1    2    0    0  0.00000000000E+00  0.00000000000E+00 -0.10589203630E+04  0.26877230287E+04  0.24703325168E+04 0.  0.
        4    1    3    3  502    0 -0.44020301819E+02 -0.37490056374E+03  0.75010698298E+03  0.83973228977E+03  0.12699999809E+01 0.  1.
       -4    1    3    3    0  502  0.44020301819E+02  0.37490056374E+03 -0.18090273460E+04  0.18479907389E+04  0.12699999809E+01 0. -1.
</event>
<event>
 5   0  0.3704241E-05  0.2533000E+04  0.7818609E-02  0.8391322E-01
        2   -1    0    0  501    0  0.00000000000E+00  0.00000000000E+00  0.12568100149E+04  0.12568100149E+04  0.25500000920E-02 0.  1.
       -2   -1    0    0    0  501  0.00000000000E+00  0.00000000000E+00 -0.12762649012E+04  0.12762649012E+04  0.25500000920E-02 0. -1.
    10030    2    1    2    0    0  0.00000000000E+00  0.00000000000E+00 -0.19454886246E+02  0.25330749161E+04  0.25330002049E+04 0.  0.
        2    1    3    3  502    0  0.12611937531E+04  0.56176833052E+01  0.10595340065E+03  0.12656489894E+04  0.25500000920E-02 0.  1.
       -2    1    3    3    0  502 -0.12611937531E+04 -0.56176833052E+01 -0.12540828689E+03  0.12674259267E+04  0.25500000920E-02 0. -1.
</event>
<event>
 5   0  0.3581449E-05  0.2478041E+04  0.7818609E-02  0.8410850E-01
       -2   -1    0    0    0  501  0.00000000000E+00  0.00000000000E+00  0.10030354942E+04  0.10030354942E+04  0.25500000920E-02 0.  1.
        2   -1    0    0  501    0  0.00000000000E+00  0.00000000000E+00 -0.15305264971E+04  0.15305264971E+04  0.25500000920E-02 0. -1.
    10030    2    1    2    0    0  0.00000000000E+00  0.00000000000E+00 -0.52749100299E+03  0.25335619913E+04  0.24780414858E+04 0.  0.
        1    1    3    3  502    0  0.48629490034E+03 -0.64082320638E+03  0.69972422818E+03  0.10661853063E+04  0.50400001928E-02 0.  1.
       -1    1    3    3    0  502 -0.48629490034E+03  0.64082320638E+03 -0.12272152312E+04  0.14673766850E+04  0.50400001928E-02 0. -1.
</event>
<event>
 5   0  0.3650620E-05  0.2498895E+04  0.7818609E-02  0.8403379E-01
       -2   -1    0    0    0  501  0.00000000000E+00  0.00000000000E+00  0.93483525462E+03  0.93483525462E+03  0.25500000920E-02 0. -1.
        2   -1    0    0  501    0  0.00000000000E+00  0.00000000000E+00 -0.16699406207E+04  0.16699406207E+04  0.25500000920E-02 0.  1.
    10030    2    1    2    0    0  0.00000000000E+00  0.00000000000E+00 -0.73510536606E+03  0.26047758753E+04  0.24988952482E+04 0.  0.
        3    1    3    3  502    0 -0.67275109060E+03  0.43656016260E+03  0.63113475522E+03  0.10205439211E+04  0.10100000352E+00 0. -1.
       -3    1    3    3    0  502  0.67275109060E+03 -0.43656016260E+03 -0.13662401213E+04  0.15842319542E+04  0.10100000352E+00 0.  1.
</event>
<event>
 5   0  0.3581449E-05  0.2508936E+04  0.7818609E-02  0.8399809E-01
       -2   -1    0    0    0  501  0.00000000000E+00  0.00000000000E+00  0.88707946708E+03  0.88707946709E+03  0.25500000920E-02 0.  1.
        2   -1    0    0  501    0  0.00000000000E+00  0.00000000000E+00 -0.17740117622E+04  0.17740117622E+04  0.25500000920E-02 0. -1.
    10030    2    1    2    0    0  0.00000000000E+00  0.00000000000E+00 -0.88693229516E+03  0.26610912293E+04  0.25089355581E+04 0.  0.
        1    1    3    3  502    0 -0.56982610541E+03 -0.33943086180E+03 -0.15728291667E+04  0.17069583147E+04  0.50400001928E-02 0. -1.
       -1    1    3    3    0  502  0.56982610541E+03  0.33943086180E+03  0.68589687157E+03  0.95413291464E+03  0.50400001928E-02 0.  1.
</event>
<event>
 5   0  0.3578670E-05  0.2491728E+04  0.7818609E-02  0.8405939E-01
       -2   -1    0    0    0  501  0.00000000000E+00  0.00000000000E+00  0.11601242878E+04  0.11601242878E+04  0.25500000920E-02 0.  1.
        2   -1    0    0  501    0  0.00000000000E+00  0.00000000000E+00 -0.13379399038E+04  0.13379399038E+04  0.25500000920E-02 0. -1.
    10030    2    1    2    0    0  0.00000000000E+00  0.00000000000E+00 -0.17781561597E+03  0.24980641916E+04  0.24917275758E+04 0.  0.
        4    1    3    3  502    0  0.28798694505E+03 -0.10144502610E+04 -0.75401723486E+03  0.12963754918E+04  0.12699999809E+01 0. -1.
       -4    1    3    3    0  502 -0.28798694505E+03  0.10144502610E+04  0.57620161888E+03  0.12016886997E+04  0.12699999809E+01 0.  1.
</event>
<event>
 5   0  0.1421242E-05  0.2478855E+04  0.7818609E-02  0.8410557E-01
        1   -1    0    0  501    0  0.00000000000E+00  0.00000000000E+00  0.21668758989E+04  0.21668758989E+04  0.50400001928E-02 0.  1.
       -1   -1    0    0    0  501  0.00000000000E+00  0.00000000000E+00 -0.70893801023E+03  0.70893801025E+03  0.50400001928E-02 0. -1.
    10030    2    1    2    0    0  0.00000000000E+00  0.00000000000E+00  0.14579378886E+04  0.28758139091E+04  0.24788551294E+04 0.  0.
        3    1    3    3  502    0  0.10441720367E+04 -0.50566263123E+03  0.22302276956E+03  0.11814097955E+04  0.10100000352E+00 0. -1.
       -3    1    3    3    0  502 -0.10441720367E+04  0.50566263123E+03  0.12349151191E+04  0.16944041137E+04  0.10100000352E+00 0.  1.
</event>
<event>
 5   0  0.1456876E-05  0.2533005E+04  0.7818609E-02  0.8391321E-01
        1   -1    0    0  501    0  0.00000000000E+00  0.00000000000E+00  0.21283883096E+04  0.21283883096E+04  0.50400001928E-02 0.  1.
       -1   -1    0    0    0  501  0.00000000000E+00  0.00000000000E+00 -0.75363546908E+03  0.75363546909E+03  0.50400001928E-02 0. -1.
    10030    2    1    2    0    0  0.00000000000E+00  0.00000000000E+00  0.13747528405E+04  0.28820237787E+04  0.25330052682E+04 0.  0.
        1    1    3    3  502    0 -0.79130935341E+03 -0.22276447193E+03  0.17835776900E+04  0.19639103542E+04  0.50400001928E-02 0.  1.
       -1    1    3    3    0  502  0.79130935341E+03  0.22276447193E+03 -0.40882484950E+03  0.91811342455E+03  0.50400001928E-02 0. -1.
</event>
<event>
 5   0  0.1201438E-05  0.2523155E+04  0.7818609E-02  0.8394783E-01
        3   -1    0    0  501    0  0.00000000000E+00  0.00000000000E+00  0.13175291779E+04  0.13175291817E+04  0.10100000352E+00 0.  1.
       -3   -1    0    0    0  501  0.00000000000E+00  0.00000000000E+00 -0.12080019579E+04  0.12080019621E+04  0.10100000352E+00 0. -1.
    10030    2    1    2    0    0  0.00000000000E+00  0.00000000000E+00  0.10952721996E+03  0.25255311439E+04  0.25231550382E+04 0.  0.
        3    1    3    3  502    0 -0.78992422452E+03 -0.24569802022E+03 -0.89861960092E+03  0.12214192544E+04  0.10100000352E+00 0. -1.
       -3    1    3    3    0  502  0.78992422452E+03  0.24569802022E+03  0.10081468209E+04  0.13041118895E+04  0.10100000352E+00 0.  1.
</event>
<event>
 5   0  0.1456876E-05  0.2492146E+04  0.7818609E-02  0.8405789E-01
        1   -1    0    0  501    0  0.00000000000E+00  0.00000000000E+00  0.16970410212E+04  0.16970410212E+04  0.50400001928E-02 0. -1.
       -1   -1    0    0    0  501  0.00000000000E+00  0.00000000000E+00 -0.91494433432E+03  0.91494433434E+03  0.50400001928E-02 0.  1.
    10030    2    1    2    0    0  0.00000000000E+00  0.00000000000E+00  0.78209668684E+03  0.26119853555E+04  0.24921461173E+04 0.  0.
        1    1    3    3  502    0  0.88458370213E+03  0.71218427810E+03 -0.14645086730E+03  0.11450513650E+04  0.50400001928E-02 0.  1.
       -1    1    3    3    0  502 -0.88458370213E+03 -0.71218427810E+03  0.92854755414E+03  0.14669339905E+04  0.50400001928E-02 0. -1.
</event>
<event>
 5   0  0.1502886E-05  0.2453780E+04  0.7818609E-02  0.8419639E-01
        1   -1    0    0  501    0  0.00000000000E+00  0.00000000000E+00  0.13364397775E+04  0.13364397775E+04  0.50400001928E-02 0. -1.
       -1   -1    0    0    0  501  0.00000000000E+00  0.00000000000E+00 -0.11263204067E+04  0.11263204067E+04  0.50400001928E-02 0.  1.
    10030    2    1    2    0    0  0.00000000000E+00  0.00000000000E+00  0.21011937081E+03  0.24627601843E+04  0.24537802622E+04 0.  0.
        4    1    3    3  502    0 -0.74081732500E+03  0.87126713841E+03  0.55091625187E+03  0.12694199719E+04  0.12699999809E+01 0. -1.
       -4    1    3    3    0  502  0.74081732500E+03 -0.87126713841E+03 -0.34079688106E+03  0.11933402124E+04  0.12699999809E+01 0.  1.
</event>
<event>
 5   0  0.1421242E-05  0.2453948E+04  0.7818609E-02  0.8419578E-01
       -1   -1    0    0    0  501  0.00000000000E+00  0.00000000000E+00  0.86570278797E+03  0.86570278798E+03  0.50400001928E-02 0. -1.
        1   -1    0    0  501    0  0.00000000000E+00  0.00000000000E+00 -0.17390088671E+04  0.17390088671E+04  0.50400001928E-02 0.  1.
    10030    2    1    2    0    0  0.00000000000E+00  0.00000000000E+00 -0.87330607914E+03  0.26047116551E+04  0.24539476967E+04 0.  0.
        3    1    3    3  502    0  0.63598786264E+03 -0.46253165625E+03  0.56304326825E+03  0.96717828066E+03  0.10100000352E+00 0. -1.
       -3    1    3    3    0  502 -0.63598786264E+03  0.46253165625E+03 -0.14363493474E+04  0.16375333744E+04  0.10100000352E+00 0.  1.
</event>
<event>
 5   0  0.3578670E-05  0.2332461E+04  0.7818609E-02  0.8465231E-01
       -2   -1    0    0    0  501  0.00000000000E+00  0.00000000000E+00  0.10368281733E+04  0.10368281733E+04  0.25500000920E-02 0.  1.
        2   -1    0    0  501    0  0.00000000000E+00  0.00000000000E+00 -0.13117832068E+04  0.13117832068E+04  0.25500000920E-02 0. -1.
    10030    2    1    2    0    0  0.00000000000E+00  0.00000000000E+00 -0.27495503356E+03  0.23486113801E+04  0.23324611774E+04 0.  0.
        4    1    3    3  502    0  0.79850669509E+03  0.84080732585E+03 -0.12026443901E+02  0.11596189674E+04  0.12699999809E+01 0. -1.
       -4    1    3    3    0  502 -0.79850669509E+03 -0.84080732585E+03 -0.26292858966E+03  0.11889924127E+04  0.12699999809E+01 0.  1.
</event>
<event>
 5   0  0.1429483E-05  0.2554038E+04  0.7818609E-02  0.8383983E-01
        1   -1    0    0  501    0  0.00000000000E+00  0.00000000000E+00  0.14727623837E+04  0.14727623837E+04  0.50400001928E-02 0.  1.
       -1   -1    0    0    0  501  0.00000000000E+00  0.00000000000E+00 -0.11072916110E+04  0.11072916110E+04  0.50400001928E-02 0. -1.
    10030    2    1    2    0    0  0.00000000000E+00  0.00000000000E+00  0.36547077275E+03  0.25800539947E+04  0.25540379265E+04 0.  0.
        2    1    3    3  502    0 -0.60929180630E+03  0.79169875669E+03 -0.62082571332E+03  0.11762006601E+04  0.25500000920E-02 0. -1.
       -2    1    3    3    0  502  0.60929180630E+03 -0.79169875669E+03  0.98629648607E+03  0.14038533346E+04  0.25500000920E-02 0.  1.
</event>
<event>
 5   0  0.1421242E-05  0.2474588E+04  0.7818609E-02  0.8412095E-01
       -1   -1    0    0    0  501  0.00000000000E+00  0.00000000000E+00  0.75066944973E+03  0.75066944974E+03  0.50400001928E-02 0.  1.
        1   -1    0    0  501    0  0.00000000000E+00  0.00000000000E+00 -0.20393743070E+04  0.20393743070E+04  0.50400001928E-02 0. -1.
    10030    2    1    2    0    0  0.00000000000E+00  0.00000000000E+00 -0.12887048572E+04  0.27900437567E+04  0.24745876334E+04 0.  0.
        3    1    3    3  502    0  0.22089386150E+03 -0.76978260912E+02 -0.20142158837E+04  0.20277537787E+04  0.10100000352E+00 0. -1.
       -3    1    3    3    0  502 -0.22089386150E+03  0.76978260912E+02  0.72551102651E+03  0.76228997796E+03  0.10100000352E+00 0.  1.
</event>
<event>
 5   0  0.3579097E-05  0.2899873E+04  0.7818609E-02  0.8272915E-01
        2   -1    0    0  501    0  0.00000000000E+00  0.00000000000E+00  0.14409548343E+04  0.14409548343E+04  0.25500000920E-02 0.  1.
       -2   -1    0    0    0  501  0.00000000000E+00  0.00000000000E+00 -0.14589743920E+04  0.14589743920E+04  0.25500000920E-02 0. -1.
    10030    2    1    2    0    0  0.00000000000E+00  0.00000000000E+00 -0.18019557644E+02  0.28999292263E+04  0.28998732409E+04 0.  0.
        5    1    3    3  502    0  0.68292673056E+03 -0.12567528186E+04  0.22864486071E+03  0.14484878766E+04  0.46999998093E+01 0.  1.
       -5    1    3    3    0  502 -0.68292673056E+03  0.12567528186E+04 -0.24666441836E+03  0.14514413497E+04  0.46999998093E+01 0. -1.
</event>
<event>
 5   0  0.1429483E-05  0.2538510E+04  0.7818609E-02  0.8389393E-01
       -1   -1    0    0    0  501  0.00000000000E+00  0.00000000000E+00  0.11061675233E+04  0.11061675233E+04  0.50400001928E-02 0.  1.
        1   -1    0    0  501    0  0.00000000000E+00  0.00000000000E+00 -0.14563870771E+04  0.14563870772E+04  0.50400001928E-02 0. -1.
    10030    2    1    2    0    0  0.00000000000E+00  0.00000000000E+00 -0.35021955383E+03  0.25625546005E+04  0.25385098669E+04 0.  0.
        2    1    3    3  502    0  0.93173676245E+03 -0.29797063101E+03 -0.99152750629E+03  0.13928555873E+04  0.25500000920E-02 0. -1.
       -2    1    3    3    0  502 -0.93173676245E+03  0.29797063101E+03  0.64130795246E+03  0.11696990131E+04  0.25500000920E-02 0.  1.
</event>
<event>
 5   0  0.1492639E-05  0.2503481E+04  0.7818609E-02  0.8401746E-01
       -1   -1    0    0    0  501  0.00000000000E+00  0.00000000000E+00  0.13306121558E+04  0.13306121558E+04  0.50400001928E-02 0.  1.
        1   -1    0    0  501    0  0.00000000000E+00  0.00000000000E+00 -0.11775438748E+04  0.11775438748E+04  0.50400001928E-02 0. -1.
    10030    2    1    2    0    0  0.00000000000E+00  0.00000000000E+00  0.15306828106E+03  0.25081560306E+04  0.25034809317E+04 0.  0.
        5    1    3    3  502    0  0.70585765168E+03 -0.53697353501E+03 -0.80843669885E+03  0.12000698262E+04  0.46999998093E+01 0. -1.
       -5    1    3    3    0  502 -0.70585765168E+03  0.53697353501E+03  0.96150497991E+03  0.13080862044E+04  0.46999998093E+01 0.  1.
</event>
<event>
 5   0  0.1492639E-05  0.2478921E+04  0.7818609E-02  0.8410534E-01
        1   -1    0    0  501    0  0.00000000000E+00  0.00000000000E+00  0.21512856596E+04  0.21512856596E+04  0.50400001928E-02 0. -1.
       -1   -1    0    0    0  501  0.00000000000E+00  0.00000000000E+00 -0.71411365545E+03  0.71411365547E+03  0.50400001928E-02 0.  1.
    10030    2    1    2    0    0  0.00000000000E+00  0.00000000000E+00  0.14371720042E+04  0.28653993151E+04  0.24789211091E+04 0.  0.
        5    1    3    3  502    0 -0.34481538830E+03  0.62478614860E+03 -0.45281204520E+03  0.84517230300E+03  0.46999998093E+01 0.  1.
       -5    1    3    3    0  502  0.34481538830E+03 -0.62478614860E+03  0.18899840494E+04  0.20202270121E+04  0.46999998093E+01 0. -1.
</event>
<event>
 5   0  0.3704241E-05  0.2494252E+04  0.7818609E-02  0.8405036E-01
        2   -1    0    0  501    0  0.00000000000E+00  0.00000000000E+00  0.23375794724E+04  0.23375794724E+04  0.25500000920E-02 0. -1.
       -2   -1    0    0    0  501  0.00000000000E+00  0.00000000000E+00 -0.66535628673E+03  0.66535628673E+03  0.25500000920E-02 0.  1.
    10030    2    1    2    0    0  0.00000000000E+00  0.00000000000E+00  0.16722231856E+04  0.30029357591E+04  0.24942519501E+04 0.  0.
        2    1    3    3  502    0  0.36043855569E+03  0.79272951843E+03  0.19109208105E+04  0.20999891394E+04  0.25500000920E-02 0. -1.
       -2    1    3    3    0  502 -0.36043855569E+03 -0.79272951843E+03 -0.23869762486E+03  0.90294661964E+03  0.25500000920E-02 0.  1.
</event>
<event>
 5   0  0.3704241E-05  0.2499993E+04  0.7818609E-02  0.8402988E-01
       -2   -1    0    0    0  501  0.00000000000E+00  0.00000000000E+00  0.14262099951E+04  0.14262099951E+04  0.25500000920E-02 0. -1.
        2   -1    0    0  501    0  0.00000000000E+00  0.00000000000E+00 -0.10955544192E+04  0.10955544192E+04  0.25500000920E-02 0.  1.
    10030    2    1    2    0    0  0.00000000000E+00  0.00000000000E+00  0.33065557584E+03  0.25217644143E+04  0.24999925302E+04 0.  0.
        2    1    3    3  502    0  0.39246052712E+03  0.45278422243E+03 -0.94124544166E+03  0.11157875241E+04  0.25500000920E-02 0.  1.
       -2    1    3    3    0  502 -0.39246052712E+03 -0.45278422243E+03  0.12719010175E+04  0.14059768902E+04  0.25500000920E-02 0. -1.
</event>
<event>
 5   0  0.3579097E-05  0.2480802E+04  0.7818609E-02  0.8409857E-01
        2   -1    0    0  501    0  0.00000000000E+00  0.00000000000E+00  0.48622420139E+03  0.48622420140E+03  0.25500000920E-02 0.  1.
       -2   -1    0    0    0  501  0.00000000000E+00  0.00000000000E+00 -0.31643737523E+04  0.31643737523E+04  0.25500000920E-02 0. -1.
    10030    2    1    2    0    0  0.00000000000E+00  0.00000000000E+00 -0.26781495509E+04  0.36505979537E+04  0.24808023707E+04 0.  0.
        5    1    3    3  502    0 -0.11488442822E+03 -0.14330023973E+03  0.46609039825E+03  0.50099475037E+03  0.46999998093E+01 0.  1.
       -5    1    3    3    0  502  0.11488442822E+03  0.14330023973E+03 -0.31442399491E+04  0.31496032033E+04  0.46999998093E+01 0. -1.
</event>
<event>
 5   0  0.3578670E-05  0.2384051E+04  0.7818609E-02  0.8445499E-01
        2   -1    0    0  501    0  0.00000000000E+00  0.00000000000E+00  0.19867268101E+04  0.19867268101E+04  0.25500000920E-02 0.  1.
       -2   -1    0    0    0  501  0.00000000000E+00  0.00000000000E+00 -0.71520873229E+03  0.71520873230E+03  0.25500000920E-02 0. -1.
    10030    2    1    2    0    0  0.00000000000E+00  0.00000000000E+00  0.12715180778E+04  0.27019355424E+04  0.23840506398E+04 0.  0.
        4    1    3    3  502    0 -0.44861171402E+03  0.27077435177E+03  0.18491993430E+04  0.19220070350E+04  0.12699999809E+01 0.  1.
       -4    1    3    3    0  502  0.44861171402E+03 -0.27077435177E+03 -0.57768126522E+03  0.77992850738E+03  0.12699999809E+01 0. -1.
</event>
<event>
 5   0  0.1456876E-05  0.2127736E+04  0.7818609E-02  0.8549123E-01
        1   -1    0    0  501    0  0.00000000000E+00  0.00000000000E+00  0.14552371687E+04  0.14552371687E+04  0.50400001928E-02 0.  1.
       -1   -1    0    0    0  501  0.00000000000E+00  0.00000000000E+00 -0.77775307127E+03  0.77775307129E+03  0.50400001928E-02 0. -1.
    10030    2    1    2    0    0  0.00000000000E+00  0.00000000000E+00  0.67748409744E+03  0.22329902400E+04  0.21277360526E+04 0.  0.
        1    1    3    3  502    0  0.89484469675E+03  0.29607697959E+03  0.85651006450E+03  0.12735847438E+04  0.50400001928E-02 0.  1.
       -1    1    3    3    0  502 -0.89484469675E+03 -0.29607697959E+03 -0.17902596706E+03  0.95940549616E+03  0.50400001928E-02 0. -1.
</event>
<event>
 5   0  0.3578670E-05  0.2510885E+04  0.7818609E-02  0.8399118E-01
       -2   -1    0    0    0  501  0.00000000000E+00  0.00000000000E+00  0.74492055439E+03  0.74492055439E+03  0.25500000920E-02 0. -1.
        2   -1    0    0  501    0  0.00000000000E+00  0.00000000000E+00 -0.21158437790E+04  0.21158437790E+04  0.25500000920E-02 0.  1.
    10030    2    1    2    0    0  0.00000000000E+00  0.00000000000E+00 -0.13709232246E+04  0.28607643334E+04  0.25108847213E+04 0.  0.
        4    1    3    3  502    0  0.25592689425E+03  0.12278255875E+04 -0.74868920522E+03  0.14606818228E+04  0.12699999809E+01 0.  1.
       -4    1    3    3    0  502 -0.25592689425E+03 -0.12278255875E+04 -0.62223401939E+03  0.14000825106E+04  0.12699999809E+01 0. -1.
</event>
<event>
 5   0  0.1502886E-05  0.2459011E+04  0.7818609E-02  0.8417735E-01
       -1   -1    0    0    0  501  0.00000000000E+00  0.00000000000E+00  0.81246011564E+03  0.81246011566E+03  0.50400001928E-02 0. -1.
        1   -1    0    0  501    0  0.00000000000E+00  0.00000000000E+00 -0.18606245417E+04  0.18606245417E+04  0.50400001928E-02 0.  1.
    10030    2    1    2    0    0  0.00000000000E+00  0.00000000000E+00 -0.10481644260E+04  0.26730846573E+04  0.24590105574E+04 0.  0.
        4    1    3    3  502    0  0.34076478382E+03 -0.47949232451E+03  0.64956088237E+03  0.87633582602E+03  0.12699999809E+01 0. -1.
       -4    1    3    3    0  502 -0.34076478382E+03  0.47949232451E+03 -0.16977253084E+04  0.17967488313E+04  0.12699999809E+01 0.  1.
</event>
<event>
 5   0  0.3581449E-05  0.2482211E+04  0.7818609E-02  0.8409351E-01
        2   -1    0    0  501    0  0.00000000000E+00  0.00000000000E+00  0.99741417456E+03  0.99741417456E+03  0.25500000920E-02 0. -1.
       -2   -1    0    0    0  501  0.00000000000E+00  0.00000000000E+00 -0.15443358580E+04  0.15443358580E+04  0.25500000920E-02 0.  1.
    10030    2    1    2    0    0  0.00000000000E+00  0.00000000000E+00 -0.54692168342E+03  0.25417500325E+04  0.24822106881E+04 0.  0.
        1    1    3    3  502    0  0.13645613659E+03 -0.79903750997E+03 -0.12358235522E+04  0.14779516473E+04  0.50400001928E-02 0.  1.
       -1    1    3    3    0  502 -0.13645613659E+03  0.79903750997E+03  0.68890186880E+03  0.10637983852E+04  0.50400001928E-02 0. -1.
</event>
<event>
 5   0  0.1421242E-05  0.2553979E+04  0.7818609E-02  0.8384004E-01
        1   -1    0    0  501    0  0.00000000000E+00  0.00000000000E+00  0.12230912775E+04  0.12230912775E+04  0.50400001928E-02 0. -1.
       -1   -1    0    0    0  501  0.00000000000E+00  0.00000000000E+00 -0.13332625741E+04  0.13332625741E+04  0.50400001928E-02 0.  1.
    10030    2    1    2    0    0  0.00000000000E+00  0.00000000000E+00 -0.11017129660E+03  0.25563538517E+04  0.25539787197E+04 0.  0.
        3    1    3    3  502    0 -0.79832880874E+03 -0.57808511309E+02 -0.10510140420E+04  0.13210984965E+04  0.10100000352E+00 0.  1.
       -3    1    3    3    0  502  0.79832880874E+03  0.57808511309E+02  0.94084274536E+03  0.12352553552E+04  0.10100000352E+00 0. -1.
</event>
<event>
 5   0  0.3650620E-05  0.2490810E+04  0.7818609E-02  0.8406267E-01
       -2   -1    0    0    0  501  0.00000000000E+00  0.00000000000E+00  0.11824034342E+04  0.11824034342E+04  0.25500000920E-02 0. -1.
        2   -1    0    0  501    0  0.00000000000E+00  0.00000000000E+00 -0.13117632437E+04  0.13117632437E+04  0.25500000920E-02 0.  1.
    10030    2    1    2    0    0  0.00000000000E+00  0.00000000000E+00 -0.12935980950E+03  0.24941666779E+04  0.24908097994E+04 0.  0.
        3    1    3    3  502    0  0.47424604490E+03 -0.10621438028E+04 -0.51022290788E+03  0.12701914008E+04  0.10100000352E+00 0. -1.
       -3    1    3    3    0  502 -0.47424604490E+03  0.10621438028E+04  0.38086309838E+03  0.12239752770E+04  0.10100000352E+00 0.  1.
</event>
<event>
 5   0  0.1492639E-05  0.2503130E+04  0.7818609E-02  0.8401871E-01
        1   -1    0    0  501    0  0.00000000000E+00  0.00000000000E+00  0.15047190769E+04  0.15047190770E+04  0.50400001928E-02 0.  1.
       -1   -1    0    0    0  501  0.00000000000E+00  0.00000000000E+00 -0.10410014805E+04  0.10410014805E+04  0.50400001928E-02 0. -1.
    10030    2    1    2    0    0  0.00000000000E+00  0.00000000000E+00  0.46371759643E+03  0.25457205575E+04  0.25031298703E+04 0.  0.
        5    1    3    3  502    0 -0.81326933751E+03 -0.80654511951E+03 -0.28117526099E+03  0.11794081832E+04  0.46999998093E+01 0. -1.
       -5    1    3    3    0  502  0.81326933751E+03  0.80654511951E+03  0.74489285743E+03  0.13663123743E+04  0.46999998093E+01 0.  1.
</event>
<event>
 5   0  0.3581449E-05  0.2518760E+04  0.7818609E-02  0.8396332E-01
        2   -1    0    0  501    0  0.00000000000E+00  0.00000000000E+00  0.16285831635E+04  0.16285831635E+04  0.25500000920E-02 0. -1.
       -2   -1    0    0    0  501  0.00000000000E+00  0.00000000000E+00 -0.97387617808E+03  0.97387617808E+03  0.25500000920E-02 0.  1.
    10030    2    1    2    0    0  0.00000000000E+00  0.00000000000E+00  0.65470698540E+03  0.26024593416E+04  0.25187602879E+04 0.  0.
        1    1    3    3  502    0 -0.52127798363E+02 -0.39455884824E+03  0.15618990816E+04  0.16118072879E+04  0.50400001928E-02 0. -1.
       -1    1    3    3    0  502  0.52127798363E+02  0.39455884824E+03 -0.90719209619E+03  0.99065205371E+03  0.50400001928E-02 0.  1.
</event>
<event>
 5   0  0.3650620E-05  0.2508654E+04  0.7818609E-02  0.8399909E-01
       -2   -1    0    0    0  501  0.00000000000E+00  0.00000000000E+00  0.82874179780E+03  0.82874179780E+03  0.25500000920E-02 0. -1.
        2   -1    0    0  501    0  0.00000000000E+00  0.00000000000E+00 -0.18984644412E+04  0.18984644412E+04  0.25500000920E-02 0.  1.
    10030    2    1    2    0    0  0.00000000000E+00  0.00000000000E+00 -0.10697226434E+04  0.27272062390E+04  0.25086544872E+04 0.  0.
        3    1    3    3  502    0 -0.12027585099E+03  0.93706438708E+03  0.36211464179E+03  0.10117721927E+04  0.10100000352E+00 0. -1.
       -3    1    3    3    0  502  0.12027585099E+03 -0.93706438708E+03 -0.14318372852E+04  0.17154340464E+04  0.10100000352E+00 0.  1.
</event>
<event>
 5   0  0.1201438E-05  0.2497420E+04  0.7818609E-02  0.8403905E-01
        3   -1    0    0  501    0  0.00000000000E+00  0.00000000000E+00  0.14438137874E+04  0.14438137910E+04  0.10100000352E+00 0. -1.
       -3   -1    0    0    0  501  0.00000000000E+00  0.00000000000E+00 -0.10799706289E+04  0.10799706337E+04  0.10100000352E+00 0.  1.
    10030    2    1    2    0    0  0.00000000000E+00  0.00000000000E+00  0.36384315850E+03  0.25237844246E+04  0.24974198642E+04 0.  0.
        3    1    3    3  502    0 -0.38882046517E+03 -0.56883559712E+03  0.12343188564E+04  0.14136118067E+04  0.10100000352E+00 0. -1.
       -3    1    3    3    0  502  0.38882046517E+03  0.56883559712E+03 -0.87047569789E+03  0.11101726179E+04  0.10100000352E+00 0.  1.
</event>
<event>
 5   0  0.1502886E-05  0.2531550E+04  0.7818609E-02  0.8391831E-01
        1   -1    0    0  501    0  0.00000000000E+00  0.00000000000E+00  0.14872891556E+04  0.14872891556E+04  0.50400001928E-02 0.  1.
       -1   -1    0    0    0  501  0.00000000000E+00  0.00000000000E+00 -0.10772528291E+04  0.10772528292E+04  0.50400001928E-02 0. -1.
    10030    2    1    2    0    0  0.00000000000E+00  0.00000000000E+00  0.41003632640E+03  0.25645419847E+04  0.25315500790E+04 0.  0.
        4    1    3    3  502    0  0.74346568338E+02 -0.99927476046E+03 -0.57843469713E+03  0.11570072475E+04  0.12699999809E+01 0. -1.
       -4    1    3    3    0  502 -0.74346568338E+02  0.99927476046E+03  0.98847102353E+03  0.14075347372E+04  0.12699999809E+01 0.  1.
</event>
<event>
 5   0  0.1502886E-05  0.2320686E+04  0.7818609E-02  0.8469809E-01
        1   -1    0    0  501    0  0.00000000000E+00  0.00000000000E+00  0.24924880546E+04  0.24924880546E+04  0.50400001928E-02 0.  1.
       -1   -1    0    0    0  501  0.00000000000E+00  0.00000000000E+00 -0.54018128527E+03  0.54018128529E+03  0.50400001928E-02 0. -1.
    10030    2    1    2    0    0  0.00000000000E+00  0.00000000000E+00  0.19523067694E+04  0.30326693399E+04  0.23206855891E+04 0.  0.
        4    1    3    3  502    0 -0.52716070135E+03  0.35379059952E+03 -0.29307572658E+03  0.69925759758E+03  0.12699999809E+01 0. -1.
       -4    1    3    3    0  502  0.52716070135E+03 -0.35379059952E+03  0.22453824959E+04  0.23334117423E+04  0.12699999809E+01 0.  1.
</event>
<event>
 5   0  0.3578670E-05  0.2108542E+04  0.7818609E-02  0.8557490E-01
       -2   -1    0    0    0  501  0.00000000000E+00  0.00000000000E+00  0.46889347508E+03  0.46889347509E+03  0.25500000920E-02 0. -1.
        2   -1    0    0  501    0  0.00000000000E+00  0.00000000000E+00 -0.23704467222E+04  0.23704467222E+04  0.25500000920E-02 0.  1.
    10030    2    1    2    0    0  0.00000000000E+00  0.00000000000E+00 -0.19015532471E+04  0.28393401972E+04  0.21085416771E+04 0.  0.
        4    1    3    3  502    0 -0.17983720624E+03  0.13451586032E+03 -0.23378615546E+04  0.23486238947E+04  0.12699999809E+01 0.  1.
       -4    1    3    3    0  502  0.17983720624E+03 -0.13451586032E+03  0.43630830754E+03  0.49071630252E+03  0.12699999809E+01 0. -1.
</event>
<event>
 5   0  0.3581449E-05  0.2470442E+04  0.7818609E-02  0.8413592E-01
        2   -1    0    0  501    0  0.00000000000E+00  0.00000000000E+00  0.13431352584E+04  0.13431352585E+04  0.25500000920E-02 0. -1.
       -2   -1    0    0    0  501  0.00000000000E+00  0.00000000000E+00 -0.11359770036E+04  0.11359770036E+04  0.25500000920E-02 0.  1.
    10030    2    1    2    0    0  0.00000000000E+00  0.00000000000E+00  0.20715825487E+03  0.24791122620E+04  0.24704418765E+04 0.  0.
        1    1    3    3  502    0 -0.82314358677E+02  0.65077926948E+03 -0.94674675583E+03  0.11517893605E+04  0.50400001928E-02 0.  1.
       -1    1    3    3    0  502  0.82314358677E+02 -0.65077926948E+03  0.11539050107E+04  0.13273229015E+04  0.50400001928E-02 0. -1.
</event>
<event>
 5   0  0.1456876E-05  0.2513581E+04  0.7818609E-02  0.8398163E-01
        1   -1    0    0  501    0  0.00000000000E+00  0.00000000000E+00  0.10456809599E+04  0.10456809599E+04  0.50400001928E-02 0. -1.
       -1   -1    0    0    0  501  0.00000000000E+00  0.00000000000E+00 -0.15105202953E+04  0.15105202953E+04  0.50400001928E-02 0.  1.
    10030    2    1    2    0    0  0.00000000000E+00  0.00000000000E+00 -0.46483933545E+03  0.25562012552E+04  0.25135809614E+04 0.  0.
        1    1    3    3  502    0 -0.90025940115E+02 -0.43579830495E+03 -0.14277204784E+04  0.14954633385E+04  0.50400001928E-02 0.  1.
       -1    1    3    3    0  502  0.90025940115E+02  0.43579830495E+03  0.96288114291E+03  0.10607379167E+04  0.50400001928E-02 0. -1.
</event>
<event>
 5   0  0.3579097E-05  0.2522329E+04  0.7818609E-02  0.8395074E-01
        2   -1    0    0  501    0  0.00000000000E+00  0.00000000000E+00  0.26105454366E+04  0.26105454366E+04  0.25500000920E-02 0. -1.
       -2   -1    0    0    0  501  0.00000000000E+00  0.00000000000E+00 -0.60927328085E+03  0.60927328085E+03  0.25500000920E-02 0.  1.
    10030    2    1    2    0    0  0.00000000000E+00  0.00000000000E+00  0.20012721557E+04  0.32198187174E+04  0.25223287517E+04 0.  0.
        5    1    3    3  502    0  0.53094854692E+03  0.82448355231E+03  0.20129092797E+04  0.22390858281E+04  0.46999998093E+01 0. -1.
       -5    1    3    3    0  502 -0.53094854692E+03 -0.82448355231E+03 -0.11637123956E+02  0.98073288930E+03  0.46999998093E+01 0.  1.
</event>
<event>
 5   0  0.1502886E-05  0.2498186E+04  0.7818609E-02  0.8403632E-01
       -1   -1    0    0    0  501  0.00000000000E+00  0.00000000000E+00  0.71353343759E+03  0.71353343761E+03  0.50400001928E-02 0. -1.
        1   -1    0    0  501    0  0.00000000000E+00  0.00000000000E+00 -0.21866293062E+04  0.21866293062E+04  0.50400001928E-02 0.  1.
    10030    2    1    2    0    0  0.00000000000E+00  0.00000000000E+00 -0.14730958686E+04  0.29001627438E+04  0.24981858423E+04 0.  0.
        4    1    3    3  502    0  0.55343583994E+03 -0.10758022850E+04 -0.10973450827E+04  0.16333430836E+04  0.12699999809E+01 0.  1.
       -4    1    3    3    0  502 -0.55343583994E+03  0.10758022850E+04 -0.37575078596E+03  0.12668196602E+04  0.12699999809E+01 0. -1.
</event>
<event>
 5   0  0.1492639E-05  0.2488427E+04  0.7818609E-02  0.8407120E-01
       -1   -1    0    0    0  501  0.00000000000E+00  0.00000000000E+00  0.15105015597E+04  0.15105015597E+04  0.50400001928E-02 0. -1.
        1   -1    0    0  501    0  0.00000000000E+00  0.00000000000E+00 -0.10248700265E+04  0.10248700265E+04  0.50400001928E-02 0.  1.
    10030    2    1    2    0    0  0.00000000000E+00  0.00000000000E+00  0.48563153317E+03  0.25353715862E+04  0.24884274340E+04 0.  0.
        5    1    3    3  502    0  0.19096749253E+02  0.11561156510E+04  0.71091476424E+03  0.13573466677E+04  0.46999998093E+01 0. -1.
       -5    1    3    3    0  502 -0.19096749253E+02 -0.11561156510E+04 -0.22528323107E+03  0.11780249185E+04  0.46999998093E+01 0.  1.
</event>
<event>
 5   0  0.1429483E-05  0.1978915E+04  0.7818609E-02  0.8616543E-01
        1   -1    0    0  501    0  0.00000000000E+00  0.00000000000E+00  0.95159476369E+03  0.95159476370E+03  0.50400001928E-02 0. -1.
       -1   -1    0    0    0  501  0.00000000000E+00  0.00000000000E+00 -0.10288262293E+04  0.10288262293E+04  0.50400001928E-02 0.  1.
    10030    2    1    2    0    0  0.00000000000E+00  0.00000000000E+00 -0.77231465579E+02  0.19804209930E+04  0.19789145030E+04 0.  0.
        2    1    3    3  502    0 -0.71078941741E+02 -0.29345463214E+03 -0.98159512312E+03  0.10269843343E+04  0.25500000920E-02 0.  1.
       -2    1    3    3    0  502  0.71078941741E+02  0.29345463214E+03  0.90436365754E+03  0.95343665871E+03  0.25500000920E-02 0. -1.
</event>
<event>
 5   0  0.3578670E-05  0.2506776E+04  0.7818609E-02  0.8400575E-01
       -2   -1    0    0    0  501  0.00000000000E+00  0.00000000000E+00  0.21024291532E+04  0.21024291532E+04  0.25500000920E-02 0. -1.
        2   -1    0    0  501    0  0.00000000000E+00  0.00000000000E+00 -0.74722229249E+03  0.74722229249E+03  0.25500000920E-02 0.  1.
    10030    2    1    2    0    0  0.00000000000E+00  0.00000000000E+00  0.13552068607E+04  0.28496514457E+04  0.25067763615E+04 0.  0.
        4    1    3    3  502    0 -0.77393274686E+02 -0.26150952169E+03 -0.71308394233E+03  0.76345744518E+03  0.12699999809E+01 0.  1.
       -4    1    3    3    0  502  0.77393274686E+02  0.26150952169E+03  0.20682908030E+04  0.20861940005E+04  0.12699999809E+01 0. -1.
</event>
<event>
 5   0  0.1456876E-05  0.2508092E+04  0.7818609E-02  0.8400108E-01
        1   -1    0    0  501    0  0.00000000000E+00  0.00000000000E+00  0.14080369688E+04  0.14080369688E+04  0.50400001928E-02 0.  1.
       -1   -1    0    0    0  501  0.00000000000E+00  0.00000000000E+00 -0.11168967575E+04  0.11168967575E+04  0.50400001928E-02 0. -1.
    10030    2    1    2    0    0  0.00000000000E+00  0.00000000000E+00  0.29114021129E+03  0.25249337263E+04  0.25080924424E+04 0.  0.
        1    1    3    3  502    0 -0.11734273396E+04 -0.31972530029E+03 -0.16222120482E+03  0.12269766535E+04  0.50400001928E-02 0. -1.
       -1    1    3    3    0  502  0.11734273396E+04  0.31972530029E+03  0.45336141611E+03  0.12979570727E+04  0.50400001928E-02 0.  1.
</event>
<event>
 5   0  0.1421242E-05  0.2486553E+04  0.7818609E-02  0.8407792E-01
       -1   -1    0    0    0  501  0.00000000000E+00  0.00000000000E+00  0.19228087138E+04  0.19228087138E+04  0.50400001928E-02 0. -1.
        1   -1    0    0  501    0  0.00000000000E+00  0.00000000000E+00 -0.80389494901E+03  0.80389494902E+03  0.50400001928E-02 0.  1.
    10030    2    1    2    0    0  0.00000000000E+00  0.00000000000E+00  0.11189137647E+04  0.27267036628E+04  0.24865528049E+04 0.  0.
        3    1    3    3  502    0 -0.83971238959E+03 -0.68453099259E+03 -0.10939985099E+03  0.10888837930E+04  0.10100000352E+00 0.  1.
       -3    1    3    3    0  502  0.83971238959E+03  0.68453099259E+03  0.12283136157E+04  0.16378198698E+04  0.10100000352E+00 0. -1.
</event>
<event>
 5   0  0.3704241E-05  0.2505156E+04  0.7818609E-02  0.8401151E-01
        2   -1    0    0  501    0  0.00000000000E+00  0.00000000000E+00  0.11309179683E+04  0.11309179683E+04  0.25500000920E-02 0.  1.
       -2   -1    0    0    0  501  0.00000000000E+00  0.00000000000E+00 -0.13873255199E+04  0.13873255199E+04  0.25500000920E-02 0. -1.
    10030    2    1    2    0    0  0.00000000000E+00  0.00000000000E+00 -0.25640755162E+03  0.25182434883E+04  0.25051557703E+04 0.  0.
        2    1    3    3  502    0  0.90872211283E+03 -0.70497565419E+03 -0.62696606314E+03  0.13099057202E+04  0.25500000920E-02 0. -1.
       -2    1    3    3    0  502 -0.90872211283E+03  0.70497565419E+03  0.37055851152E+03  0.12083377681E+04  0.25500000920E-02 0.  1.
</event>
<event>
 5   0  0.3578670E-05  0.2501375E+04  0.7818609E-02  0.8402496E-01
        2   -1    0    0  501    0  0.00000000000E+00  0.00000000000E+00  0.12843407103E+04  0.12843407103E+04  0.25500000920E-02 0. -1.
       -2   -1    0    0    0  501  0.00000000000E+00  0.00000000000E+00 -0.12179159425E+04  0.12179159425E+04  0.25500000920E-02 0.  1.
    10030    2    1    2    0    0  0.00000000000E+00  0.00000000000E+00  0.66424767789E+02  0.25022566527E+04  0.25013748432E+04 0.  0.
        4    1    3    3  502    0  0.59049284183E+03 -0.11021325901E+04  0.62194500530E+02  0.12518976840E+04  0.12699999809E+01 0. -1.
       -4    1    3    3    0  502 -0.59049284183E+03  0.11021325901E+04  0.42302672594E+01  0.12503589687E+04  0.12699999809E+01 0.  1.
</event>
<event>
 5   0  0.1492639E-05  0.2528133E+04  0.7818609E-02  0.8393031E-01
       -1   -1    0    0    0  501  0.00000000000E+00  0.00000000000E+00  0.14726818293E+04  0.14726818293E+04  0.50400001928E-02 0. -1.
        1   -1    0    0  501    0  0.00000000000E+00  0.00000000000E+00 -0.10850033281E+04  0.10850033281E+04  0.50400001928E-02 0.  1.
    10030    2    1    2    0    0  0.00000000000E+00  0.00000000000E+00  0.38767850116E+03  0.25576851575E+04  0.25281334507E+04 0.  0.
        5    1    3    3  502    0  0.31058039466E+03  0.50686763502E+03 -0.93475774015E+03  0.11077766489E+04  0.46999998093E+01 0.  1.
       -5    1    3    3    0  502 -0.31058039466E+03 -0.50686763502E+03  0.13224362413E+04  0.14499085086E+04  0.46999998093E+01 0. -1.
</event>
<event>
 5   0  0.3578670E-05  0.2559965E+04  0.7818609E-02  0.8381929E-01
       -2   -1    0    0    0  501  0.00000000000E+00  0.00000000000E+00  0.14939513255E+04  0.14939513255E+04  0.25500000920E-02 0. -1.
        2   -1    0    0  501    0  0.00000000000E+00  0.00000000000E+00 -0.10966585971E+04  0.10966585971E+04  0.25500000920E-02 0.  1.
    10030    2    1    2    0    0  0.00000000000E+00  0.00000000000E+00  0.39729272848E+03  0.25906099226E+04  0.25599645035E+04 0.  0.
        4    1    3    3  502    0 -0.10309137032E+04  0.69214253656E+03 -0.11573086618E+03  0.12470924587E+04  0.12699999809E+01 0.  1.
       -4    1    3    3    0  502  0.10309137032E+04 -0.69214253656E+03  0.51302359465E+03  0.13435174639E+04  0.12699999809E+01 0. -1.
</event>
<event>
 5   0  0.1429483E-05  0.2524387E+04  0.7818609E-02  0.8394349E-01
        1   -1    0    0  501    0  0.00000000000E+00  0.00000000000E+00  0.17719326493E+04  0.17719326493E+04  0.50400001928E-02 0.  1.
       -1   -1    0    0    0  501  0.00000000000E+00  0.00000000000E+00 -0.89909298524E+03  0.89909298526E+03  0.50400001928E-02 0. -1.
    10030    2    1    2    0    0  0.00000000000E+00  0.00000000000E+00  0.87283966408E+03  0.26710256346E+04  0.25243868288E+04 0.  0.
        2    1    3    3  502    0 -0.13292634632E+03  0.12548043355E+04  0.40417187035E+03  0.13249748053E+04  0.25500000920E-02 0. -1.
       -2    1    3    3    0  502  0.13292634632E+03 -0.12548043355E+04  0.46866779373E+03  0.13460508292E+04  0.25500000920E-02 0.  1.
</event>
<event>
 5   0  0.3579097E-05  0.2476285E+04  0.7818609E-02  0.8411483E-01
       -2   -1    0    0    0  501  0.00000000000E+00  0.00000000000E+00  0.14046487391E+04  0.14046487391E+04  0.25500000920E-02 0. -1.
        2   -1    0    0  501    0  0.00000000000E+00  0.00000000000E+00 -0.10913734639E+04  0.10913734639E+04  0.25500000920E-02 0.  1.
    10030    2    1    2    0    0  0.00000000000E+00  0.00000000000E+00  0.31327527519E+03  0.24960222030E+04  0.24762846040E+04 0.  0.
        5    1    3    3  502    0 -0.57545085050E+03 -0.94394716480E+03  0.71857050721E+03  0.13185391898E+04  0.46999998093E+01 0. -1.
       -5    1    3    3    0  502  0.57545085050E+03  0.94394716480E+03 -0.40529523202E+03  0.11774830132E+04  0.46999998093E+01 0.  1.
</event>
<event>
 5   0  0.1502886E-05  0.2578274E+04  0.7818609E-02  0.8375619E-01
       -1   -1    0    0    0  501  0.00000000000E+00  0.00000000000E+00  0.13007876765E+04  0.13007876765E+04  0.50400001928E-02 0. -1.
        1   -1    0    0  501    0  0.00000000000E+00  0.00000000000E+00 -0.12775908418E+04  0.12775908418E+04  0.50400001928E-02 0.  1.
    10030    2    1    2    0    0  0.00000000000E+00  0.00000000000E+00  0.23196834765E+02  0.25783785183E+04  0.25782741690E+04 0.  0.
        4    1    3    3  502    0 -0.13097952475E+03  0.12662441275E+04 -0.19173955254E+03  0.12873598934E+04  0.12699999809E+01 0. -1.
       -4    1    3    3    0  502  0.13097952475E+03 -0.12662441275E+04  0.21493638730E+03  0.12910186249E+04  0.12699999809E+01 0.  1.
</event>
<event>
 5   0  0.3650620E-05  0.2476075E+04  0.7818609E-02  0.8411559E-01
       -2   -1    0    0    0  501  0.00000000000E+00  0.00000000000E+00  0.77818441509E+03  0.77818441510E+03  0.25500000920E-02 0. -1.
        2   -1    0    0  501    0  0.00000000000E+00  0.00000000000E+00 -0.19696322582E+04  0.19696322582E+04  0.25500000920E-02 0.  1.
    10030    2    1    2    0    0  0.00000000000E+00  0.00000000000E+00 -0.11914478431E+04  0.27478166733E+04  0.24760752224E+04 0.  0.
        3    1    3    3  502    0  0.52451649593E+03 -0.10757594422E+04 -0.94728987432E+03  0.15263466344E+04  0.10100000352E+00 0. -1.
       -3    1    3    3    0  502 -0.52451649593E+03  0.10757594422E+04 -0.24415796878E+03  0.12214700389E+04  0.10100000352E+00 0.  1.
</event>
<event>
 5   0  0.1429483E-05  0.2496789E+04  0.7818609E-02  0.8404130E-01
       -1   -1    0    0    0  501  0.00000000000E+00  0.00000000000E+00  0.11635091467E+04  0.11635091467E+04  0.50400001928E-02 0.  1.
        1   -1    0    0  501    0  0.00000000000E+00  0.00000000000E+00 -0.13394727156E+04  0.13394727156E+04  0.50400001928E-02 0. -1.
    10030    2    1    2    0    0  0.00000000000E+00  0.00000000000E+00 -0.17596356888E+03  0.25029818623E+04  0.24967889429E+04 0.  0.
        2    1    3    3  502    0 -0.90065624304E+03  0.77671576146E+03 -0.46842237089E+03  0.12782365039E+04  0.25500000920E-02 0. -1.
       -2    1    3    3    0  502  0.90065624304E+03 -0.77671576146E+03  0.29245880201E+03  0.12247453585E+04  0.25500000920E-02 0.  1.
</event>
<event>
 5   0  0.3704241E-05  0.2485539E+04  0.7818609E-02  0.8408155E-01
        2   -1    0    0  501    0  0.00000000000E+00  0.00000000000E+00  0.21589787394E+04  0.21589787394E+04  0.25500000920E-02 0.  1.
       -2   -1    0    0    0  501  0.00000000000E+00  0.00000000000E+00 -0.71537361244E+03  0.71537361245E+03  0.25500000920E-02 0. -1.
    10030    2    1    2    0    0  0.00000000000E+00  0.00000000000E+00  0.14436051269E+04  0.28743523518E+04  0.24855393137E+04 0.  0.
        2    1    3    3  502    0  0.15326903865E+03 -0.11782129882E+04  0.30038070445E+03  0.12255226687E+04  0.25500000920E-02 0. -1.
       -2    1    3    3    0  502 -0.15326903865E+03  0.11782129882E+04  0.11432244225E+04  0.16488296831E+04  0.25500000920E-02 0.  1.
</event>
<event>
 5   0  0.3578670E-05  0.2226344E+04  0.7818609E-02  0.8507543E-01
       -2   -1    0    0    0  501  0.00000000000E+00  0.00000000000E+00  0.17119036965E+04  0.17119036965E+04  0.25500000920E-02 0. -1.
        2   -1    0    0  501    0  0.00000000000E+00  0.00000000000E+00 -0.72384426075E+03  0.72384426076E+03  0.25500000920E-02 0.  1.
    10030    2    1    2    0    0  0.00000000000E+00  0.00000000000E+00  0.98805943573E+03  0.24357479572E+04  0.22263437881E+04 0.  0.
        4    1    3    3  502    0 -0.19201100942E+03 -0.41599195792E+03  0.16039629839E+04  0.16681176228E+04  0.12699999809E+01 0. -1.
       -4    1    3    3    0  502  0.19201100942E+03  0.41599195792E+03 -0.61590354819E+03  0.76763033445E+03  0.12699999809E+01 0.  1.
</event>
<event>
 5   0  0.3579097E-05  0.2519079E+04  0.7818609E-02  0.8396220E-01
        2   -1    0    0  501    0  0.00000000000E+00  0.00000000000E+00  0.13937373154E+04  0.13937373154E+04  0.25500000920E-02 0. -1.
       -2   -1    0    0    0  501  0.00000000000E+00  0.00000000000E+00 -0.11382631610E+04  0.11382631610E+04  0.25500000920E-02 0.  1.
    10030    2    1    2    0    0  0.00000000000E+00  0.00000000000E+00  0.25547415449E+03  0.25320004764E+04  0.25190790716E+04 0.  0.
        5    1    3    3  502    0  0.83723639865E+03  0.58812642904E+03 -0.61057838588E+03  0.11915055766E+04  0.46999998093E+01 0.  1.
       -5    1    3    3    0  502 -0.83723639865E+03 -0.58812642904E+03  0.86605254036E+03  0.13404948998E+04  0.46999998093E+01 0. -1.
</event>
<event>
 5   0  0.1456876E-05  0.2491377E+04  0.7818609E-02  0.8406064E-01
        1   -1    0    0  501    0  0.00000000000E+00  0.00000000000E+00  0.73173186751E+03  0.73173186753E+03  0.50400001928E-02 0. -1.
       -1   -1    0    0    0  501  0.00000000000E+00  0.00000000000E+00 -0.21206392424E+04  0.21206392424E+04  0.50400001928E-02 0.  1.
    10030    2    1    2    0    0  0.00000000000E+00  0.00000000000E+00 -0.13889073749E+04  0.28523711100E+04  0.24913765779E+04 0.  0.
        1    1    3    3  502    0  0.10337432747E+04 -0.18613263087E+03  0.72259209525E+02  0.10528494230E+04  0.50400001928E-02 0.  1.
       -1    1    3    3    0  502 -0.10337432747E+04  0.18613263087E+03 -0.14611665844E+04  0.17995216869E+04  0.50400001928E-02 0. -1.
</event>
<event>
 5   0  0.1429483E-05  0.2472242E+04  0.7818609E-02  0.8412942E-01
        1   -1    0    0  501    0  0.00000000000E+00  0.00000000000E+00  0.18168676685E+04  0.18168676685E+04  0.50400001928E-02 0.  1.
       -1   -1    0    0    0  501  0.00000000000E+00  0.00000000000E+00 -0.84100552134E+03  0.84100552135E+03  0.50400001928E-02 0. -1.
    10030    2    1    2    0    0  0.00000000000E+00  0.00000000000E+00  0.97586214715E+03  0.26578731899E+04  0.24722424968E+04 0.  0.
        2    1    3    3  502    0  0.11145649039E+04 -0.53303535039E+03  0.44473815348E+03  0.13130779242E+04  0.25500000920E-02 0. -1.
       -2    1    3    3    0  502 -0.11145649039E+04  0.53303535039E+03  0.53112399367E+03  0.13447952657E+04  0.25500000920E-02 0.  1.
</event>
<event>
 5   0  0.3579097E-05  0.2452365E+04  0.7818609E-02  0.8420155E-01
       -2   -1    0    0    0  501  0.00000000000E+00  0.00000000000E+00  0.17471937344E+04  0.17471937344E+04  0.25500000920E-02 0. -1.
        2   -1    0    0  501    0  0.00000000000E+00  0.00000000000E+00 -0.86053610067E+03  0.86053610067E+03  0.25500000920E-02 0.  1.
    10030    2    1    2    0    0  0.00000000000E+00  0.00000000000E+00  0.88665763368E+03  0.26077298350E+04  0.24523648042E+04 0.  0.
        5    1    3    3  502    0 -0.50096748843E+03 -0.22214930331E+03  0.16097174174E+04  0.17004502319E+04  0.46999998093E+01 0. -1.
       -5    1    3    3    0  502  0.50096748843E+03  0.22214930331E+03 -0.72305978369E+03  0.90727960311E+03  0.46999998093E+01 0.  1.
</event>
<event>
 5   0  0.1421242E-05  0.2472505E+04  0.7818609E-02  0.8412847E-01
       -1   -1    0    0    0  501  0.00000000000E+00  0.00000000000E+00  0.10646353712E+04  0.10646353712E+04  0.50400001928E-02 0. -1.
        1   -1    0    0  501    0  0.00000000000E+00  0.00000000000E+00 -0.14355340580E+04  0.14355340580E+04  0.50400001928E-02 0.  1.
    10030    2    1    2    0    0  0.00000000000E+00  0.00000000000E+00 -0.37089868682E+03  0.25001694292E+04  0.24725050736E+04 0.  0.
        3    1    3    3  502    0  0.64093637098E+02  0.97280449670E+03 -0.95412826410E+03  0.13641177873E+04  0.10100000352E+00 0.  1.
       -3    1    3    3    0  502 -0.64093637098E+02 -0.97280449670E+03  0.58322957727E+03  0.11360516419E+04  0.10100000352E+00 0. -1.
</event>
<event>
 5   0  0.3581449E-05  0.2638733E+04  0.7818609E-02  0.8355162E-01
       -2   -1    0    0    0  501  0.00000000000E+00  0.00000000000E+00  0.10794427398E+04  0.10794427398E+04  0.25500000920E-02 0. -1.
        2   -1    0    0  501    0  0.00000000000E+00  0.00000000000E+00 -0.16126170696E+04  0.16126170696E+04  0.25500000920E-02 0.  1.
    10030    2    1    2    0    0  0.00000000000E+00  0.00000000000E+00 -0.53317432981E+03  0.26920598094E+04  0.26387328685E+04 0.  0.
        1    1    3    3  502    0 -0.17197166367E+03  0.94154546381E+03 -0.11930392652E+04  0.15295178331E+04  0.50400001928E-02 0.  1.
       -1    1    3    3    0  502  0.17197166367E+03 -0.94154546381E+03  0.65986493539E+03  0.11625419762E+04  0.50400001928E-02 0. -1.
</event>
<event>
 5   0  0.1456876E-05  0.2458373E+04  0.7818609E-02  0.8417967E-01
        1   -1    0    0  501    0  0.00000000000E+00  0.00000000000E+00  0.92167546994E+03  0.92167546995E+03  0.50400001928E-02 0.  1.
       -1   -1    0    0    0  501  0.00000000000E+00  0.00000000000E+00 -0.16392968992E+04  0.16392968992E+04  0.50400001928E-02 0. -1.
    10030    2    1    2    0    0  0.00000000000E+00  0.00000000000E+00 -0.71762142924E+03  0.25609723691E+04  0.24583732344E+04 0.  0.
        1    1    3    3  502    0  0.51975228864E+03 -0.96296709068E+03  0.22442266999E+03  0.11170557704E+04  0.50400001928E-02 0.  1.
       -1    1    3    3    0  502 -0.51975228864E+03  0.96296709068E+03 -0.94204409923E+03  0.14439165988E+04  0.50400001928E-02 0. -1.
</event>
<event>
 5   0  0.3581449E-05  0.2402312E+04  0.7818609E-02  0.8438638E-01
       -2   -1    0    0    0  501  0.00000000000E+00  0.00000000000E+00  0.12394217921E+04  0.12394217922E+04  0.25500000920E-02 0. -1.
        2   -1    0    0  501    0  0.00000000000E+00  0.00000000000E+00 -0.11640720799E+04  0.11640720799E+04  0.25500000920E-02 0.  1.
    10030    2    1    2    0    0  0.00000000000E+00  0.00000000000E+00  0.75349712241E+02  0.24034938721E+04  0.24023124722E+04 0.  0.
        1    1    3    3  502    0 -0.38863207743E+03 -0.10923823355E+04  0.35158422488E+03  0.12115880182E+04  0.50400001928E-02 0. -1.
       -1    1    3    3    0  502  0.38863207743E+03  0.10923823355E+04 -0.27623451264E+03  0.11919058539E+04  0.50400001928E-02 0.  1.
</event>
<event>
 5   0  0.3581449E-05  0.2515680E+04  0.7818609E-02  0.8397421E-01
        2   -1    0    0  501    0  0.00000000000E+00  0.00000000000E+00  0.14945751585E+04  0.14945751585E+04  0.25500000920E-02 0. -1.
       -2   -1    0    0    0  501  0.00000000000E+00  0.00000000000E+00 -0.10586031151E+04  0.10586031151E+04  0.25500000920E-02 0.  1.
    10030    2    1    2    0    0  0.00000000000E+00  0.00000000000E+00  0.43597204340E+03  0.25531782736E+04  0.25156803601E+04 0.  0.
        1    1    3    3  502    0 -0.68298816351E+03  0.10324332763E+04 -0.84326266152E+01  0.12379266581E+04  0.50400001928E-02 0. -1.
       -1    1    3    3    0  502  0.68298816351E+03 -0.10324332763E+04  0.44440467001E+03  0.13152516156E+04  0.50400001928E-02 0.  1.
</event>
<event>
 5   0  0.3579097E-05  0.2510389E+04  0.7818609E-02  0.8399294E-01
       -2   -1    0    0    0  501  0.00000000000E+00  0.00000000000E+00  0.80598899717E+03  0.80598899717E+03  0.25500000920E-02 0.  1.
        2   -1    0    0  501    0  0.00000000000E+00  0.00000000000E+00 -0.19547571270E+04  0.19547571270E+04  0.25500000920E-02 0. -1.
    10030    2    1    2    0    0  0.00000000000E+00  0.00000000000E+00 -0.11487681298E+04  0.27607461242E+04  0.25103886046E+04 0.  0.
        5    1    3    3  502    0 -0.17901849041E+03 -0.42508860865E+03 -0.18581695132E+04  0.19145662628E+04  0.46999998093E+01 0. -1.
       -5    1    3    3    0  502  0.17901849041E+03  0.42508860865E+03  0.70940138332E+03  0.84617986135E+03  0.46999998093E+01 0.  1.
</event>
<event>
 5   0  0.3650620E-05  0.2370320E+04  0.7818609E-02  0.8450699E-01
       -2   -1    0    0    0  501  0.00000000000E+00  0.00000000000E+00  0.65206951550E+03  0.65206951551E+03  0.25500000920E-02 0.  1.
        2   -1    0    0  501    0  0.00000000000E+00  0.00000000000E+00 -0.21540721793E+04  0.21540721793E+04  0.25500000920E-02 0. -1.
    10030    2    1    2    0    0  0.00000000000E+00  0.00000000000E+00 -0.15020026638E+04  0.28061416948E+04  0.23703204866E+04 0.  0.
        3    1    3    3  502    0  0.87698724913E+03  0.78605609886E+03 -0.90812120094E+03  0.14871701152E+04  0.10100000352E+00 0.  1.
       -3    1    3    3    0  502 -0.87698724913E+03 -0.78605609886E+03 -0.59388146283E+03  0.13189715796E+04  0.10100000352E+00 0. -1.
</event>
<event>
 5   0  0.1502886E-05  0.2486059E+04  0.7818609E-02  0.8407969E-01
        1   -1    0    0  501    0  0.00000000000E+00  0.00000000000E+00  0.16958172723E+04  0.16958172723E+04  0.50400001928E-02 0. -1.
       -1   -1    0    0    0  501  0.00000000000E+00  0.00000000000E+00 -0.91113703128E+03  0.91113703129E+03  0.50400001928E-02 0.  1.
    10030    2    1    2    0    0  0.00000000000E+00  0.00000000000E+00  0.78468024099E+03  0.26069543036E+04  0.24860586599E+04 0.  0.
        4    1    3    3  502    0  0.10260134251E+04  0.60152662902E+03  0.13405327106E+02  0.11894196692E+04  0.12699999809E+01 0.  1.
       -4    1    3    3    0  502 -0.10260134251E+04 -0.60152662902E+03  0.77127491388E+03  0.14175346343E+04  0.12699999809E+01 0. -1.
</event>
<event>
 5   0  0.1421242E-05  0.2429602E+04  0.7818609E-02  0.8428503E-01
       -1   -1    0    0    0  501  0.00000000000E+00  0.00000000000E+00  0.12318888023E+04  0.12318888023E+04  0.50400001928E-02 0.  1.
        1   -1    0    0  501    0  0.00000000000E+00  0.00000000000E+00 -0.11979502181E+04  0.11979502181E+04  0.50400001928E-02 0. -1.
    10030    2    1    2    0    0  0.00000000000E+00  0.00000000000E+00  0.33938584206E+02  0.24298390205E+04  0.24296019917E+04 0.  0.
        3    1    3    3  502    0 -0.11132722848E+04  0.46928592407E+03 -0.11007455612E+03  0.12131450353E+04  0.10100000352E+00 0. -1.
       -3    1    3    3    0  502  0.11132722848E+04 -0.46928592407E+03  0.14401314032E+03  0.12166939851E+04  0.10100000352E+00 0.  1.
</event>
<event>
 5   0  0.1429483E-05  0.2493370E+04  0.7818609E-02  0.8405351E-01
       -1   -1    0    0    0  501  0.00000000000E+00  0.00000000000E+00  0.93239418123E+03  0.93239418124E+03  0.50400001928E-02 0.  1.
        1   -1    0    0  501    0  0.00000000000E+00  0.00000000000E+00 -0.16669170944E+04  0.16669170944E+04  0.50400001928E-02 0. -1.
    10030    2    1    2    0    0  0.00000000000E+00  0.00000000000E+00 -0.73452291315E+03  0.25993112756E+04  0.24933702488E+04 0.  0.
        2    1    3    3  502    0  0.55536667574E+02 -0.12415077541E+04 -0.26407096845E+03  0.12704956912E+04  0.25500000920E-02 0.  1.
       -2    1    3    3    0  502 -0.55536667574E+02  0.12415077541E+04 -0.47045194471E+03  0.13288155844E+04  0.25500000920E-02 0. -1.
</event>
<event>
 5   0  0.1456876E-05  0.2506978E+04  0.7818609E-02  0.8400504E-01
        1   -1    0    0  501    0  0.00000000000E+00  0.00000000000E+00  0.88515748138E+03  0.88515748140E+03  0.50400001928E-02 0. -1.
       -1   -1    0    0    0  501  0.00000000000E+00  0.00000000000E+00 -0.17750899968E+04  0.17750899969E+04  0.50400001928E-02 0.  1.
    10030    2    1    2    0    0  0.00000000000E+00  0.00000000000E+00 -0.88993251546E+03  0.26602474782E+04  0.25069776153E+04 0.  0.
        1    1    3    3  502    0  0.11089824452E+03 -0.44939559000E+03 -0.16810793527E+04  0.17436406187E+04  0.50400001928E-02 0.  1.
       -1    1    3    3    0  502 -0.11089824452E+03  0.44939559000E+03  0.79114683723E+03  0.91660685959E+03  0.50400001928E-02 0. -1.
</event>
<event>
 5   0  0.3581449E-05  0.2476501E+04  0.7818609E-02  0.8411405E-01
        2   -1    0    0  501    0  0.00000000000E+00  0.00000000000E+00  0.11888503042E+04  0.11888503042E+04  0.25500000920E-02 0. -1.
       -2   -1    0    0    0  501  0.00000000000E+00  0.00000000000E+00 -0.12897033033E+04  0.12897033033E+04  0.25500000920E-02 0.  1.
    10030    2    1    2    0    0  0.00000000000E+00  0.00000000000E+00 -0.10085299910E+03  0.24785536076E+04  0.24765008900E+04 0.  0.
        1    1    3    3  502    0 -0.79615114676E+03 -0.14764458404E+03  0.88715766042E+03  0.12011262574E+04  0.50400001928E-02 0. -1.
       -1    1    3    3    0  502  0.79615114676E+03  0.14764458404E+03 -0.98801065953E+03  0.12774273502E+04  0.50400001928E-02 0.  1.
</event>
<event>
 5   0  0.1421242E-05  0.2489086E+04  0.7818609E-02  0.8406884E-01
        1   -1    0    0  501    0  0.00000000000E+00  0.00000000000E+00  0.10559782708E+04  0.10559782709E+04  0.50400001928E-02 0.  1.
       -1   -1    0    0    0  501  0.00000000000E+00  0.00000000000E+00 -0.14667793620E+04  0.14667793620E+04  0.50400001928E-02 0. -1.
    10030    2    1    2    0    0  0.00000000000E+00  0.00000000000E+00 -0.41080109115E+03  0.25227576329E+04  0.24890858839E+04 0.  0.
        3    1    3    3  502    0 -0.24053635202E+02  0.60965254863E+03  0.89400021520E+03  0.10823544717E+04  0.10100000352E+00 0.  1.
       -3    1    3    3    0  502  0.24053635202E+02 -0.60965254863E+03 -0.13048013064E+04  0.14404031612E+04  0.10100000352E+00 0. -1.
</event>
<event>
 5   0  0.3704241E-05  0.2415055E+04  0.7818609E-02  0.8433888E-01
        2   -1    0    0  501    0  0.00000000000E+00  0.00000000000E+00  0.15950998077E+04  0.15950998077E+04  0.25500000920E-02 0.  1.
       -2   -1    0    0    0  501  0.00000000000E+00  0.00000000000E+00 -0.91412663683E+03  0.91412663683E+03  0.25500000920E-02 0. -1.
    10030    2    1    2    0    0  0.00000000000E+00  0.00000000000E+00  0.68097317089E+03  0.25092264446E+04  0.24150554633E+04 0.  0.
        2    1    3    3  502    0 -0.40433002244E+03 -0.10303345833E+04  0.84206440990E+03  0.13907352699E+04  0.25500000920E-02 0.  1.
       -2    1    3    3    0  502  0.40433002244E+03  0.10303345833E+04 -0.16109123901E+03  0.11184911747E+04  0.25500000920E-02 0. -1.
</event>
<event>
 5   0  0.1492639E-05  0.2427446E+04  0.7818609E-02  0.8429299E-01
        1   -1    0    0  501    0  0.00000000000E+00  0.00000000000E+00  0.18199059908E+04  0.18199059908E+04  0.50400001928E-02 0. -1.
       -1   -1    0    0    0  501  0.00000000000E+00  0.00000000000E+00 -0.80945046882E+03  0.80945046884E+03  0.50400001928E-02 0.  1.
    10030    2    1    2    0    0  0.00000000000E+00  0.00000000000E+00  0.10104555219E+04  0.26293564596E+04  0.24274461950E+04 0.  0.
        5    1    3    3  502    0  0.39843260899E+03  0.20020161248E+03  0.17279589758E+04  0.17845709685E+04  0.46999998093E+01 0. -1.
       -5    1    3    3    0  502 -0.39843260899E+03 -0.20020161248E+03 -0.71750345391E+03  0.84478549106E+03  0.46999998093E+01 0.  1.
</event>
<event>
 5   0  0.3578670E-05  0.2438714E+04  0.7818609E-02  0.8425150E-01
       -2   -1    0    0    0  501  0.00000000000E+00  0.00000000000E+00  0.70935098211E+03  0.70935098212E+03  0.25500000920E-02 0.  1.
        2   -1    0    0  501    0  0.00000000000E+00  0.00000000000E+00 -0.20960446830E+04  0.20960446830E+04  0.25500000920E-02 0. -1.
    10030    2    1    2    0    0  0.00000000000E+00  0.00000000000E+00 -0.13866937009E+04  0.28053956651E+04  0.24387138860E+04 0.  0.
        4    1    3    3  502    0  0.64288653481E+03  0.28193037932E+03  0.45357972837E+03  0.83577749331E+03  0.12699999809E+01 0.  1.
       -4    1    3    3    0  502 -0.64288653481E+03 -0.28193037932E+03 -0.18402734292E+04  0.19696181718E+04  0.12699999809E+01 0. -1.
</event>
<event>
 5   0  0.3581449E-05  0.2464999E+04  0.7818609E-02  0.8415562E-01
        2   -1    0    0  501    0  0.00000000000E+00  0.00000000000E+00  0.22926441157E+04  0.22926441157E+04  0.25500000920E-02 0. -1.
       -2   -1    0    0    0  501  0.00000000000E+00  0.00000000000E+00 -0.66257790080E+03  0.66257790081E+03  0.25500000920E-02 0.  1.
    10030    2    1    2    0    0  0.00000000000E+00  0.00000000000E+00  0.16300662149E+04  0.29552220165E+04  0.24649992499E+04 0.  0.
        1    1    3    3  502    0 -0.40151898595E+02 -0.45897248436E+03  0.21855228609E+04  0.22335572730E+04  0.50400001928E-02 0. -1.
       -1    1    3    3    0  502  0.40151898595E+02  0.45897248436E+03 -0.55545664601E+03  0.72166474348E+03  0.50400001928E-02 0.  1.
</event>
<event>
 5   0  0.3650620E-05  0.2590310E+04  0.7818609E-02  0.8371500E-01
        2   -1    0    0  501    0  0.00000000000E+00  0.00000000000E+00  0.20100009195E+04  0.20100009195E+04  0.25500000920E-02 0. -1.
       -2   -1    0    0    0  501  0.00000000000E+00  0.00000000000E+00 -0.83454022003E+03  0.83454022004E+03  0.25500000920E-02 0.  1.
    10030    2    1    2    0    0  0.00000000000E+00  0.00000000000E+00  0.11754606995E+04  0.28445411396E+04  0.25903101047E+04 0.  0.
        3    1    3    3  502    0 -0.87869069077E+03 -0.93794455516E+03  0.41206362665E+03  0.13496791327E+04  0.10100000352E+00 0.  1.
       -3    1    3    3    0  502  0.87869069077E+03  0.93794455516E+03  0.76339707284E+03  0.14948620069E+04  0.10100000352E+00 0. -1.
</event>
<event>
 5   0  0.1502886E-05  0.2501367E+04  0.7818609E-02  0.8402499E-01
        1   -1    0    0  501    0  0.00000000000E+00  0.00000000000E+00  0.17428689760E+04  0.17428689760E+04  0.50400001928E-02 0. -1.
       -1   -1    0    0    0  501  0.00000000000E+00  0.00000000000E+00 -0.89749079011E+03  0.89749079013E+03  0.50400001928E-02 0.  1.
    10030    2    1    2    0    0  0.00000000000E+00  0.00000000000E+00  0.84537818586E+03  0.26403597661E+04  0.25013667099E+04 0.  0.
        4    1    3    3  502    0 -0.11107417941E+03 -0.12205177906E+04  0.68595959149E+03  0.14044726144E+04  0.12699999809E+01 0.  1.
       -4    1    3    3    0  502  0.11107417941E+03  0.12205177906E+04  0.15941859437E+03  0.12358871517E+04  0.12699999809E+01 0. -1.
</event>
<event>
 5   0  0.3578670E-05  0.2526914E+04  0.7818609E-02  0.8393459E-01
       -2   -1    0    0    0  501  0.00000000000E+00  0.00000000000E+00  0.92414718364E+03  0.92414718364E+03  0.25500000920E-02 0. -1.
        2   -1    0    0  501    0  0.00000000000E+00  0.00000000000E+00 -0.17273480201E+04  0.17273480201E+04  0.25500000920E-02 0.  1.
    10030    2    1    2    0    0  0.00000000000E+00  0.00000000000E+00 -0.80320083645E+03  0.26514952037E+04  0.25269141718E+04 0.  0.
        4    1    3    3  502    0 -0.34922935671E+03 -0.10618112074E+04 -0.10196364265E+04  0.15129653793E+04  0.12699999809E+01 0.  1.
       -4    1    3    3    0  502  0.34922935671E+03  0.10618112074E+04  0.21643559003E+03  0.11385298245E+04  0.12699999809E+01 0. -1.
</event>
<event>
 5   0  0.3578670E-05  0.2503629E+04  0.7818609E-02  0.8401694E-01
       -2   -1    0    0    0  501  0.00000000000E+00  0.00000000000E+00  0.73036303650E+03  0.73036303651E+03  0.25500000920E-02 0.  1.
        2   -1    0    0  501    0  0.00000000000E+00  0.00000000000E+00 -0.21455622129E+04  0.21455622129E+04  0.25500000920E-02 0. -1.
    10030    2    1    2    0    0  0.00000000000E+00  0.00000000000E+00 -0.14151991764E+04  0.28759252494E+04  0.25036288326E+04 0.  0.
        4    1    3    3  502    0  0.10022742858E+04  0.30318634493E+03 -0.14955812007E+04  0.18257164195E+04  0.12699999809E+01 0.  1.
       -4    1    3    3    0  502 -0.10022742858E+04 -0.30318634493E+03  0.80382024310E+02  0.10502088299E+04  0.12699999809E+01 0. -1.
</event>
<event>
 5   0  0.1429483E-05  0.2590643E+04  0.7818609E-02  0.8371386E-01
       -1   -1    0    0    0  501  0.00000000000E+00  0.00000000000E+00  0.10882456683E+04  0.10882456683E+04  0.50400001928E-02 0.  1.
        1   -1    0    0  501    0  0.00000000000E+00  0.00000000000E+00 -0.15418006132E+04  0.15418006132E+04  0.50400001928E-02 0. -1.
    10030    2    1    2    0    0  0.00000000000E+00  0.00000000000E+00 -0.45355494494E+03  0.26300462815E+04  0.25906430389E+04 0.  0.
        2    1    3    3  502    0  0.33830465780E+03 -0.39213187078E+03  0.97856367510E+03  0.11071604725E+04  0.25500000920E-02 0.  1.
       -2    1    3    3    0  502 -0.33830465780E+03  0.39213187078E+03 -0.14321186200E+04  0.15228858091E+04  0.25500000920E-02 0. -1.
</event>
<event>
 5   0  0.3581449E-05  0.2660653E+04  0.7818609E-02  0.8347886E-01
       -2   -1    0    0    0  501  0.00000000000E+00  0.00000000000E+00  0.75022299578E+03  0.75022299579E+03  0.25500000920E-02 0.  1.
        2   -1    0    0  501    0  0.00000000000E+00  0.00000000000E+00 -0.23589899676E+04  0.23589899676E+04  0.25500000920E-02 0. -1.
    10030    2    1    2    0    0  0.00000000000E+00  0.00000000000E+00 -0.16087669719E+04  0.31092129634E+04  0.26606529428E+04 0.  0.
        1    1    3    3  502    0  0.11784655446E+04 -0.25655898206E+03 -0.14834213979E+03  0.12151579903E+04  0.50400001928E-02 0.  1.
       -1    1    3    3    0  502 -0.11784655446E+04  0.25655898206E+03 -0.14604248321E+04  0.18940549731E+04  0.50400001928E-02 0. -1.
</event>
<event>
 5   0  0.1492639E-05  0.2489249E+04  0.7818609E-02  0.8406826E-01
        1   -1    0    0  501    0  0.00000000000E+00  0.00000000000E+00  0.11356835365E+04  0.11356835365E+04  0.50400001928E-02 0. -1.
       -1   -1    0    0    0  501  0.00000000000E+00  0.00000000000E+00 -0.13640155849E+04  0.13640155849E+04  0.50400001928E-02 0.  1.
    10030    2    1    2    0    0  0.00000000000E+00  0.00000000000E+00 -0.22833204845E+03  0.24996991214E+04  0.24892489175E+04 0.  0.
        5    1    3    3  502    0 -0.39813289776E+03 -0.10489945559E+03  0.10653091463E+04  0.11421118016E+04  0.46999998093E+01 0. -1.
       -5    1    3    3    0  502  0.39813289776E+03  0.10489945559E+03 -0.12936411948E+04  0.13575873198E+04  0.46999998093E+01 0.  1.
</event>
<event>
 5   0  0.1492639E-05  0.2527988E+04  0.7818609E-02  0.8393082E-01
        1   -1    0    0  501    0  0.00000000000E+00  0.00000000000E+00  0.13942491618E+04  0.13942491618E+04  0.50400001928E-02 0. -1.
       -1   -1    0    0    0  501  0.00000000000E+00  0.00000000000E+00 -0.11459073957E+04  0.11459073957E+04  0.50400001928E-02 0.  1.
    10030    2    1    2    0    0  0.00000000000E+00  0.00000000000E+00  0.24834176612E+03  0.25401565576E+04  0.25279876788E+04 0.  0.
        5    1    3    3  502    0 -0.12027824455E+04 -0.85681509652E+02  0.50498254007E+03  0.13073088342E+04  0.46999998093E+01 0. -1.
       -5    1    3    3    0  502  0.12027824455E+04  0.85681509652E+02 -0.25664077395E+03  0.12328477234E+04  0.46999998093E+01 0.  1.
</event>
<event>
 5   0  0.1492639E-05  0.2452241E+04  0.7818609E-02  0.8420200E-01
        1   -1    0    0  501    0  0.00000000000E+00  0.00000000000E+00  0.13412293716E+04  0.13412293716E+04  0.50400001928E-02 0.  1.
       -1   -1    0    0    0  501  0.00000000000E+00  0.00000000000E+00 -0.11208904234E+04  0.11208904234E+04  0.50400001928E-02 0. -1.
    10030    2    1    2    0    0  0.00000000000E+00  0.00000000000E+00  0.22033894821E+03  0.24621197950E+04  0.24522407371E+04 0.  0.
        5    1    3    3  502    0 -0.82498976188E+03  0.90692878621E+03  0.12510008086E+03  0.12323960608E+04  0.46999998093E+01 0.  1.
       -5    1    3    3    0  502  0.82498976188E+03 -0.90692878621E+03  0.95238867348E+02  0.12297237341E+04  0.46999998093E+01 0. -1.
</event>
<event>
 5   0  0.1429483E-05  0.2498992E+04  0.7818609E-02  0.8403345E-01
       -1   -1    0    0    0  501  0.00000000000E+00  0.00000000000E+00  0.85853450169E+03  0.85853450171E+03  0.50400001928E-02 0. -1.
        1   -1    0    0  501    0  0.00000000000E+00  0.00000000000E+00 -0.18184945298E+04  0.18184945298E+04  0.50400001928E-02 0.  1.
    10030    2    1    2    0    0  0.00000000000E+00  0.00000000000E+00 -0.95996002806E+03  0.26770290315E+04  0.24989920328E+04 0.  0.
        2    1    3    3  502    0  0.70720029812E+02  0.26592337599E+02 -0.18160452354E+04  0.18176162335E+04  0.25500000920E-02 0.  1.
       -2    1    3    3    0  502 -0.70720029812E+02 -0.26592337599E+02  0.85608520738E+03  0.85941279798E+03  0.25500000920E-02 0. -1.
</event>
<event>
 5   0  0.3650620E-05  0.2501068E+04  0.7818609E-02  0.8402605E-01
       -2   -1    0    0    0  501  0.00000000000E+00  0.00000000000E+00  0.87595121345E+03  0.87595121345E+03  0.25500000920E-02 0. -1.
        2   -1    0    0  501    0  0.00000000000E+00  0.00000000000E+00 -0.17852990298E+04  0.17852990298E+04  0.25500000920E-02 0.  1.
    10030    2    1    2    0    0  0.00000000000E+00  0.00000000000E+00 -0.90934781631E+03  0.26612502432E+04  0.25010676532E+04 0.  0.
        3    1    3    3  502    0 -0.10392447263E+04 -0.17730216161E+03 -0.11703339686E+04  0.15751657900E+04  0.10100000352E+00 0.  1.
       -3    1    3    3    0  502  0.10392447263E+04  0.17730216161E+03  0.26098615231E+03  0.10860844532E+04  0.10100000352E+00 0. -1.
</event>
<event>
 5   0  0.3579097E-05  0.2534884E+04  0.7818609E-02  0.8390662E-01
        2   -1    0    0  501    0  0.00000000000E+00  0.00000000000E+00  0.14114529514E+04  0.14114529514E+04  0.25500000920E-02 0.  1.
       -2   -1    0    0    0  501  0.00000000000E+00  0.00000000000E+00 -0.11381242308E+04  0.11381242308E+04  0.25500000920E-02 0. -1.
    10030    2    1    2    0    0  0.00000000000E+00  0.00000000000E+00  0.27332872062E+03  0.25495771822E+04  0.25348836696E+04 0.  0.
        5    1    3    3  502    0 -0.77337459139E+03 -0.33343361960E+03  0.10893084426E+04  0.13769172852E+04  0.46999998093E+01 0.  1.
       -5    1    3    3    0  502  0.77337459139E+03  0.33343361960E+03 -0.81597972197E+03  0.11726598970E+04  0.46999998093E+01 0. -1.
</event>
<event>
 5   0  0.3704241E-05  0.2523289E+04  0.7818609E-02  0.8394735E-01
        2   -1    0    0  501    0  0.00000000000E+00  0.00000000000E+00  0.14222892617E+04  0.14222892617E+04  0.25500000920E-02 0. -1.
       -2   -1    0    0    0  501  0.00000000000E+00  0.00000000000E+00 -0.11191442995E+04  0.11191442995E+04  0.25500000920E-02 0.  1.
    10030    2    1    2    0    0  0.00000000000E+00  0.00000000000E+00  0.30314496224E+03  0.25414335611E+04  0.25232890595E+04 0.  0.
        2    1    3    3  502    0  0.24262852532E+02  0.11209457388E+03 -0.11138829320E+04  0.11197718811E+04  0.25500000920E-02 0.  1.
       -2    1    3    3    0  502 -0.24262852532E+02 -0.11209457388E+03  0.14170278942E+04  0.14216616801E+04  0.25500000920E-02 0. -1.
</event>
<event>
 5   0  0.1502886E-05  0.2517136E+04  0.7818609E-02  0.8396906E-01
       -1   -1    0    0    0  501  0.00000000000E+00  0.00000000000E+00  0.92270248233E+03  0.92270248235E+03  0.50400001928E-02 0. -1.
        1   -1    0    0  501    0  0.00000000000E+00  0.00000000000E+00 -0.17166887176E+04  0.17166887176E+04  0.50400001928E-02 0.  1.
    10030    2    1    2    0    0  0.00000000000E+00  0.00000000000E+00 -0.79398623527E+03  0.26393912000E+04  0.25171356270E+04 0.  0.
        4    1    3    3  502    0  0.27690741807E+03 -0.45954070313E+03  0.79678173592E+03  0.96058217952E+03  0.12699999809E+01 0. -1.
       -4    1    3    3    0  502 -0.27690741807E+03  0.45954070313E+03 -0.15907679712E+04  0.16788090204E+04  0.12699999809E+01 0.  1.
</event>
<event>
 5   0  0.3581449E-05  0.2487284E+04  0.7818609E-02  0.8407530E-01
       -2   -1    0    0    0  501  0.00000000000E+00  0.00000000000E+00  0.90494449265E+03  0.90494449266E+03  0.25500000920E-02 0.  1.
        2   -1    0    0  501    0  0.00000000000E+00  0.00000000000E+00 -0.17091059435E+04  0.17091059435E+04  0.25500000920E-02 0. -1.
    10030    2    1    2    0    0  0.00000000000E+00  0.00000000000E+00 -0.80416145083E+03  0.26140504361E+04  0.24872844718E+04 0.  0.
        1    1    3    3  502    0  0.64259475973E+03  0.16399890412E+03 -0.15077556574E+04  0.16471644691E+04  0.50400001928E-02 0. -1.
       -1    1    3    3    0  502 -0.64259475973E+03 -0.16399890412E+03  0.70359420656E+03  0.96688596706E+03  0.50400001928E-02 0.  1.
</event>
<event>
 5   0  0.1429483E-05  0.2503058E+04  0.7818609E-02  0.8401897E-01
       -1   -1    0    0    0  501  0.00000000000E+00  0.00000000000E+00  0.11495422109E+04  0.11495422109E+04  0.50400001928E-02 0. -1.
        1   -1    0    0  501    0  0.00000000000E+00  0.00000000000E+00 -0.13625644298E+04  0.13625644298E+04  0.50400001928E-02 0.  1.
    10030    2    1    2    0    0  0.00000000000E+00  0.00000000000E+00 -0.21302221888E+03  0.25121066408E+04  0.25030583910E+04 0.  0.
        2    1    3    3  502    0 -0.17227971593E+03  0.62377244579E+03  0.96860027319E+03  0.11648857686E+04  0.25500000920E-02 0. -1.
       -2    1    3    3    0  502  0.17227971593E+03 -0.62377244579E+03 -0.11816224921E+04  0.13472208722E+04  0.25500000920E-02 0.  1.
</event>
<event>
 5   0  0.1456876E-05  0.2509175E+04  0.7818609E-02  0.8399724E-01
       -1   -1    0    0    0  501  0.00000000000E+00  0.00000000000E+00  0.92567864099E+03  0.92567864101E+03  0.50400001928E-02 0.  1.
        1   -1    0    0  501    0  0.00000000000E+00  0.00000000000E+00 -0.17003629423E+04  0.17003629423E+04  0.50400001928E-02 0. -1.
    10030    2    1    2    0    0  0.00000000000E+00  0.00000000000E+00 -0.77468430128E+03  0.26260415833E+04  0.25091748904E+04 0.  0.
        1    1    3    3  502    0  0.24595931749E+03  0.12287239911E+04 -0.45126921647E+03  0.13318793256E+04  0.50400001928E-02 0.  1.
       -1    1    3    3    0  502 -0.24595931749E+03 -0.12287239911E+04 -0.32341508481E+03  0.12941622577E+04  0.50400001928E-02 0. -1.
</event>
<event>
 5   0  0.1421242E-05  0.2508588E+04  0.7818609E-02  0.8399932E-01
       -1   -1    0    0    0  501  0.00000000000E+00  0.00000000000E+00  0.87122238262E+03  0.87122238264E+03  0.50400001928E-02 0.  1.
        1   -1    0    0  501    0  0.00000000000E+00  0.00000000000E+00 -0.18058001422E+04  0.18058001422E+04  0.50400001928E-02 0. -1.
    10030    2    1    2    0    0  0.00000000000E+00  0.00000000000E+00 -0.93457775955E+03  0.26770225248E+04  0.25085880510E+04 0.  0.
        3    1    3    3  502    0  0.65964142575E+03 -0.78641456894E+03 -0.12365790433E+04  0.16070788485E+04  0.10100000352E+00 0. -1.
       -3    1    3    3    0  502 -0.65964142575E+03  0.78641456894E+03  0.30200128378E+03  0.10699436763E+04  0.10100000352E+00 0.  1.
</event>
<event>
 5   0  0.1429483E-05  0.2345023E+04  0.7818609E-02  0.8460378E-01
       -1   -1    0    0    0  501  0.00000000000E+00  0.00000000000E+00  0.10570521184E+04  0.10570521184E+04  0.50400001928E-02 0.  1.
        1   -1    0    0  501    0  0.00000000000E+00  0.00000000000E+00 -0.13005822296E+04  0.13005822296E+04  0.50400001928E-02 0. -1.
    10030    2    1    2    0    0  0.00000000000E+00  0.00000000000E+00 -0.24353011124E+03  0.23576343480E+04  0.23450229858E+04 0.  0.
        2    1    3    3  502    0 -0.23426892379E+03  0.11047776666E+04 -0.43868655512E+03  0.12115533479E+04  0.25500000920E-02 0.  1.
       -2    1    3    3    0  502  0.23426892379E+03 -0.11047776666E+04  0.19515644389E+03  0.11460810001E+04  0.25500000920E-02 0. -1.
</event>
<event>
 5   0  0.1421242E-05  0.2532232E+04  0.7818609E-02  0.8391592E-01
        1   -1    0    0  501    0  0.00000000000E+00  0.00000000000E+00  0.14217966611E+04  0.14217966611E+04  0.50400001928E-02 0.  1.
       -1   -1    0    0    0  501  0.00000000000E+00  0.00000000000E+00 -0.11274819451E+04  0.11274819451E+04  0.50400001928E-02 0. -1.
    10030    2    1    2    0    0  0.00000000000E+00  0.00000000000E+00  0.29431471604E+03  0.25492786062E+04  0.25322322681E+04 0.  0.
        3    1    3    3  502    0 -0.12048708327E+04 -0.36360192467E+03  0.28639957356E+03  0.12907148442E+04  0.10100000352E+00 0. -1.
       -3    1    3    3    0  502  0.12048708327E+04  0.36360192467E+03  0.79151424767E+01  0.12585637619E+04  0.10100000352E+00 0.  1.
</event>
<event>
 5   0  0.1456876E-05  0.2530098E+04  0.7818609E-02  0.8392341E-01
        1   -1    0    0  501    0  0.00000000000E+00  0.00000000000E+00  0.14104322573E+04  0.14104322573E+04  0.50400001928E-02 0.  1.
       -1   -1    0    0    0  501  0.00000000000E+00  0.00000000000E+00 -0.11346512298E+04  0.11346512298E+04  0.50400001928E-02 0. -1.
    10030    2    1    2    0    0  0.00000000000E+00  0.00000000000E+00  0.27578102755E+03  0.25450834872E+04  0.25300977810E+04 0.  0.
        1    1    3    3  502    0 -0.10219071207E+04  0.56864187031E+03 -0.34735754943E+03  0.12199610679E+04  0.50400001928E-02 0. -1.
       -1    1    3    3    0  502  0.10219071207E+04 -0.56864187031E+03  0.62313857697E+03  0.13251224193E+04  0.50400001928E-02 0.  1.
</event>
<event>
 5   0  0.1429483E-05  0.2501374E+04  0.7818609E-02  0.8402496E-01
       -1   -1    0    0    0  501  0.00000000000E+00  0.00000000000E+00  0.15413864990E+04  0.15413864990E+04  0.50400001928E-02 0. -1.
        1   -1    0    0  501    0  0.00000000000E+00  0.00000000000E+00 -0.10148126886E+04  0.10148126886E+04  0.50400001928E-02 0.  1.
    10030    2    1    2    0    0  0.00000000000E+00  0.00000000000E+00  0.52657381035E+03  0.25561991876E+04  0.25013744840E+04 0.  0.
        2    1    3    3  502    0 -0.28189377995E+03  0.16782912144E+03 -0.97005736383E+03  0.10240322291E+04  0.25500000920E-02 0.  1.
       -2    1    3    3    0  502  0.28189377995E+03 -0.16782912144E+03  0.14966311742E+04  0.15321669585E+04  0.25500000920E-02 0. -1.
</event>
<event>
 5   0  0.3704241E-05  0.2377893E+04  0.7818609E-02  0.8447827E-01
       -2   -1    0    0    0  501  0.00000000000E+00  0.00000000000E+00  0.60046361914E+03  0.60046361915E+03  0.25500000920E-02 0.  1.
        2   -1    0    0  501    0  0.00000000000E+00  0.00000000000E+00 -0.23541703750E+04  0.23541703750E+04  0.25500000920E-02 0. -1.
    10030    2    1    2    0    0  0.00000000000E+00  0.00000000000E+00 -0.17537067559E+04  0.29546339942E+04  0.23778929021E+04 0.  0.
        2    1    3    3  502    0  0.19838788054E+03  0.88921788272E+03 -0.18260191141E+04  0.20406890991E+04  0.25500000920E-02 0. -1.
       -2    1    3    3    0  502 -0.19838788054E+03 -0.88921788272E+03  0.72312358203E+02  0.91394489509E+03  0.25500000920E-02 0.  1.
</event>
<event>
 5   0  0.1429483E-05  0.2472543E+04  0.7818609E-02  0.8412833E-01
        1   -1    0    0  501    0  0.00000000000E+00  0.00000000000E+00  0.15272703614E+04  0.15272703614E+04  0.50400001928E-02 0. -1.
       -1   -1    0    0    0  501  0.00000000000E+00  0.00000000000E+00 -0.10007183706E+04  0.10007183706E+04  0.50400001928E-02 0.  1.
    10030    2    1    2    0    0  0.00000000000E+00  0.00000000000E+00  0.52655199082E+03  0.25279887320E+04  0.24725432312E+04 0.  0.
        2    1    3    3  502    0 -0.47116150560E+02 -0.12316371170E+04  0.36143720068E+03  0.12844402554E+04  0.25500000920E-02 0.  1.
       -2    1    3    3    0  502  0.47116150560E+02  0.12316371170E+04  0.16511479014E+03  0.12435484766E+04  0.25500000920E-02 0. -1.
</event>
<event>
 5   0  0.1492639E-05  0.2531724E+04  0.7818609E-02  0.8391770E-01
        1   -1    0    0  501    0  0.00000000000E+00  0.00000000000E+00  0.11947630265E+04  0.11947630265E+04  0.50400001928E-02 0.  1.
       -1   -1    0    0    0  501  0.00000000000E+00  0.00000000000E+00 -0.13411919109E+04  0.13411919109E+04  0.50400001928E-02 0. -1.
    10030    2    1    2    0    0  0.00000000000E+00  0.00000000000E+00 -0.14642888444E+03  0.25359549374E+04  0.25317239238E+04 0.  0.
        5    1    3    3  502    0 -0.55955558428E+03  0.96365682304E+03 -0.67475739707E+03  0.13027112341E+04  0.46999998093E+01 0.  1.
       -5    1    3    3    0  502  0.55955558428E+03 -0.96365682304E+03  0.52832851264E+03  0.12332437033E+04  0.46999998093E+01 0. -1.
</event>
<event>
 5   0  0.3650620E-05  0.2499246E+04  0.7818609E-02  0.8403254E-01
       -2   -1    0    0    0  501  0.00000000000E+00  0.00000000000E+00  0.12478342824E+04  0.12478342824E+04  0.25500000920E-02 0.  1.
        2   -1    0    0  501    0  0.00000000000E+00  0.00000000000E+00 -0.12514140249E+04  0.12514140249E+04  0.25500000920E-02 0. -1.
    10030    2    1    2    0    0  0.00000000000E+00  0.00000000000E+00 -0.35797424416E+01  0.24992483073E+04  0.24992457436E+04 0.  0.
        3    1    3    3  502    0 -0.35905737326E+03  0.79905472429E+02  0.11924685413E+04  0.12479135843E+04  0.10100000352E+00 0.  1.
       -3    1    3    3    0  502  0.35905737326E+03 -0.79905472429E+02 -0.11960482837E+04  0.12513347230E+04  0.10100000352E+00 0. -1.
</event>
<event>
 5   0  0.3650620E-05  0.2534403E+04  0.7818609E-02  0.8390831E-01
        2   -1    0    0  501    0  0.00000000000E+00  0.00000000000E+00  0.15417013013E+04  0.15417013013E+04  0.25500000920E-02 0. -1.
       -2   -1    0    0    0  501  0.00000000000E+00  0.00000000000E+00 -0.10415763519E+04  0.10415763519E+04  0.25500000920E-02 0.  1.
    10030    2    1    2    0    0  0.00000000000E+00  0.00000000000E+00  0.50012494939E+03  0.25832776531E+04  0.25344029806E+04 0.  0.
        3    1    3    3  502    0 -0.62998457243E+03  0.51421972709E+03 -0.74053162042E+03  0.10998588911E+04  0.10100000352E+00 0.  1.
       -3    1    3    3    0  502  0.62998457243E+03 -0.51421972709E+03  0.12406565698E+04  0.14834187621E+04  0.10100000352E+00 0. -1.
</event>
<event>
 5   0  0.3578670E-05  0.2471205E+04  0.7818609E-02  0.8413316E-01
        2   -1    0    0  501    0  0.00000000000E+00  0.00000000000E+00  0.21615421594E+04  0.21615421594E+04  0.25500000920E-02 0. -1.
       -2   -1    0    0    0  501  0.00000000000E+00  0.00000000000E+00 -0.70630769846E+03  0.70630769847E+03  0.25500000920E-02 0.  1.
    10030    2    1    2    0    0  0.00000000000E+00  0.00000000000E+00  0.14552344609E+04  0.28678498579E+04  0.24712052669E+04 0.  0.
        4    1    3    3  502    0 -0.87349311898E+03 -0.84782658264E+03  0.48167714048E+03  0.13091274284E+04  0.12699999809E+01 0.  1.
       -4    1    3    3    0  502  0.87349311898E+03  0.84782658264E+03  0.97355732047E+03  0.15587224295E+04  0.12699999809E+01 0. -1.
</event>
<event>
 5   0  0.3650620E-05  0.2120056E+04  0.7818609E-02  0.8552460E-01
       -2   -1    0    0    0  501  0.00000000000E+00  0.00000000000E+00  0.54345205047E+03  0.54345205048E+03  0.25500000920E-02 0. -1.
        2   -1    0    0  501    0  0.00000000000E+00  0.00000000000E+00 -0.20676331750E+04  0.20676331750E+04  0.25500000920E-02 0.  1.
    10030    2    1    2    0    0  0.00000000000E+00  0.00000000000E+00 -0.15241811245E+04  0.26110852254E+04  0.21200561205E+04 0.  0.
        3    1    3    3  502    0 -0.63585818291E+03 -0.72311991499E+03 -0.21621928588E+03  0.98689859156E+03  0.10100000352E+00 0. -1.
       -3    1    3    3    0  502  0.63585818291E+03  0.72311991499E+03 -0.13079618386E+04  0.16241866339E+04  0.10100000352E+00 0.  1.
</event>
<event>
 5   0  0.3581449E-05  0.2481369E+04  0.7818609E-02  0.8409653E-01
        2   -1    0    0  501    0  0.00000000000E+00  0.00000000000E+00  0.18466972616E+04  0.18466972616E+04  0.25500000920E-02 0. -1.
       -2   -1    0    0    0  501  0.00000000000E+00  0.00000000000E+00 -0.83354131401E+03  0.83354131401E+03  0.25500000920E-02 0.  1.
    10030    2    1    2    0    0  0.00000000000E+00  0.00000000000E+00  0.10131559476E+04  0.26802385756E+04  0.24813693494E+04 0.  0.
        1    1    3    3  502    0  0.72109437382E+03 -0.40631692978E+02  0.15962244489E+04  0.17520161305E+04  0.50400001928E-02 0. -1.
       -1    1    3    3    0  502 -0.72109437382E+03  0.40631692978E+02 -0.58306850126E+03  0.92822244511E+03  0.50400001928E-02 0.  1.
</event>
<event>
 5   0  0.3579097E-05  0.2514687E+04  0.7818609E-02  0.8397772E-01
        2   -1    0    0  501    0  0.00000000000E+00  0.00000000000E+00  0.22939157774E+04  0.22939157774E+04  0.25500000920E-02 0.  1.
       -2   -1    0    0    0  501  0.00000000000E+00  0.00000000000E+00 -0.68917639448E+03  0.68917639448E+03  0.25500000920E-02 0. -1.
    10030    2    1    2    0    0  0.00000000000E+00  0.00000000000E+00  0.16047393829E+04  0.29830921719E+04  0.25146869425E+04 0.  0.
        5    1    3    3  502    0 -0.10520094632E+04  0.48798077110E+03  0.13787071009E+04  0.18015838875E+04  0.46999998093E+01 0.  1.
       -5    1    3    3    0  502  0.10520094632E+04 -0.48798077110E+03  0.22603228196E+03  0.11815082844E+04  0.46999998093E+01 0. -1.
</event>
<event>
 5   0  0.3579097E-05  0.2472664E+04  0.7818609E-02  0.8412789E-01
       -2   -1    0    0    0  501  0.00000000000E+00  0.00000000000E+00  0.79142890690E+03  0.79142890691E+03  0.25500000920E-02 0. -1.
        2   -1    0    0  501    0  0.00000000000E+00  0.00000000000E+00 -0.19313374290E+04  0.19313374290E+04  0.25500000920E-02 0.  1.
    10030    2    1    2    0    0  0.00000000000E+00  0.00000000000E+00 -0.11399085221E+04  0.27227663359E+04  0.24726635601E+04 0.  0.
        5    1    3    3  502    0 -0.65149987332E+03 -0.21762931056E+03 -0.17018775642E+04  0.18352721692E+04  0.46999998093E+01 0.  1.
       -5    1    3    3    0  502  0.65149987332E+03  0.21762931056E+03  0.56196904203E+03  0.88749416671E+03  0.46999998093E+01 0. -1.
</event>
<event>
 5   0  0.1492639E-05  0.2476330E+04  0.7818609E-02  0.8411467E-01
        1   -1    0    0  501    0  0.00000000000E+00  0.00000000000E+00  0.16122336345E+04  0.16122336345E+04  0.50400001928E-02 0.  1.
       -1   -1    0    0    0  501  0.00000000000E+00  0.00000000000E+00 -0.95088758741E+03  0.95088758743E+03  0.50400001928E-02 0. -1.
    10030    2    1    2    0    0  0.00000000000E+00  0.00000000000E+00  0.66134604710E+03  0.25631212219E+04  0.24763303100E+04 0.  0.
        5    1    3    3  502    0  0.47592000967E+03  0.91448480039E+03 -0.37910787589E+03  0.10984203099E+04  0.46999998093E+01 0.  1.
       -5    1    3    3    0  502 -0.47592000967E+03 -0.91448480039E+03  0.10404539230E+04  0.14647009120E+04  0.46999998093E+01 0. -1.
</event>
<event>
 5   0  0.1456876E-05  0.2498228E+04  0.7818609E-02  0.8403617E-01
       -1   -1    0    0    0  501  0.00000000000E+00  0.00000000000E+00  0.10215972797E+04  0.10215972797E+04  0.50400001928E-02 0.  1.
        1   -1    0    0  501    0  0.00000000000E+00  0.00000000000E+00 -0.15273001880E+04  0.15273001880E+04  0.50400001928E-02 0. -1.
    10030    2    1    2    0    0  0.00000000000E+00  0.00000000000E+00 -0.50570290828E+03  0.25488974677E+04  0.24982279459E+04 0.  0.
        1    1    3    3  502    0 -0.56804719381E+03 -0.10113484692E+04  0.21999444362E+03  0.11806358015E+04  0.50400001928E-02 0.  1.
       -1    1    3    3    0  502  0.56804719381E+03  0.10113484692E+04 -0.72569735189E+03  0.13682616662E+04  0.50400001928E-02 0. -1.
</event>
<event>
 5   0  0.1421242E-05  0.2454053E+04  0.7818609E-02  0.8419540E-01
       -1   -1    0    0    0  501  0.00000000000E+00  0.00000000000E+00  0.98900134613E+03  0.98900134614E+03  0.50400001928E-02 0. -1.
        1   -1    0    0  501    0  0.00000000000E+00  0.00000000000E+00 -0.15223380384E+04  0.15223380384E+04  0.50400001928E-02 0.  1.
    10030    2    1    2    0    0  0.00000000000E+00  0.00000000000E+00 -0.53333669227E+03  0.25113393846E+04  0.24540532751E+04 0.  0.
        3    1    3    3  502    0  0.84047149553E+02 -0.37778762421E+03  0.92490381556E+03  0.10026138292E+04  0.10100000352E+00 0. -1.
       -3    1    3    3    0  502 -0.84047149553E+02  0.37778762421E+03 -0.14582405078E+04  0.15087255553E+04  0.10100000352E+00 0.  1.
</event>
<event>
 5   0  0.1456876E-05  0.2498746E+04  0.7818609E-02  0.8403432E-01
       -1   -1    0    0    0  501  0.00000000000E+00  0.00000000000E+00  0.71870513693E+03  0.71870513695E+03  0.50400001928E-02 0.  1.
        1   -1    0    0  501    0  0.00000000000E+00  0.00000000000E+00 -0.21718680951E+04  0.21718680951E+04  0.50400001928E-02 0. -1.
    10030    2    1    2    0    0  0.00000000000E+00  0.00000000000E+00 -0.14531629582E+04  0.28905732321E+04  0.24987458908E+04 0.  0.
        1    1    3    3  502    0  0.75119086345E+03 -0.72340478884E+03 -0.15224551798E+04  0.18453920928E+04  0.50400001928E-02 0. -1.
       -1    1    3    3    0  502 -0.75119086345E+03  0.72340478884E+03  0.69292221582E+02  0.10451811393E+04  0.50400001928E-02 0.  1.
</event>
<event>
 5   0  0.1502886E-05  0.2504827E+04  0.7818609E-02  0.8401268E-01
        1   -1    0    0  501    0  0.00000000000E+00  0.00000000000E+00  0.14375596507E+04  0.14375596507E+04  0.50400001928E-02 0. -1.
       -1   -1    0    0    0  501  0.00000000000E+00  0.00000000000E+00 -0.10911126389E+04  0.10911126390E+04  0.50400001928E-02 0.  1.
    10030    2    1    2    0    0  0.00000000000E+00  0.00000000000E+00  0.34644701177E+03  0.25286722897E+04  0.25048269434E+04 0.  0.
        4    1    3    3  502    0  0.49534622798E+03 -0.81987833197E+03 -0.64128411577E+03  0.11527425102E+04  0.12699999809E+01 0.  1.
       -4    1    3    3    0  502 -0.49534622798E+03  0.81987833197E+03  0.98773112754E+03  0.13759297795E+04  0.12699999809E+01 0. -1.
</event>
<event>
 5   0  0.3578670E-05  0.2495429E+04  0.7818609E-02  0.8404616E-01
       -2   -1    0    0    0  501  0.00000000000E+00  0.00000000000E+00  0.95754851624E+03  0.95754851625E+03  0.25500000920E-02 0.  1.
        2   -1    0    0  501    0  0.00000000000E+00  0.00000000000E+00 -0.16258099724E+04  0.16258099724E+04  0.25500000920E-02 0. -1.
    10030    2    1    2    0    0  0.00000000000E+00  0.00000000000E+00 -0.66826145612E+03  0.25833584886E+04  0.24954293632E+04 0.  0.
        4    1    3    3  502    0 -0.21687117636E+03 -0.10000021289E+04 -0.10732580717E+04  0.14828762141E+04  0.12699999809E+01 0. -1.
       -4    1    3    3    0  502  0.21687117636E+03  0.10000021289E+04  0.40499661555E+03  0.11004822745E+04  0.12699999809E+01 0.  1.
</event>
<event>
 5   0  0.3579097E-05  0.2486061E+04  0.7818609E-02  0.8407968E-01
       -2   -1    0    0    0  501  0.00000000000E+00  0.00000000000E+00  0.13462293857E+04  0.13462293857E+04  0.25500000920E-02 0. -1.
        2   -1    0    0  501    0  0.00000000000E+00  0.00000000000E+00 -0.11477429647E+04  0.11477429647E+04  0.25500000920E-02 0.  1.
    10030    2    1    2    0    0  0.00000000000E+00  0.00000000000E+00  0.19848642094E+03  0.24939723504E+04  0.24860613881E+04 0.  0.
        5    1    3    3  502    0  0.85831564190E+03  0.88991618978E+03  0.22789579523E+03  0.12572251785E+04  0.46999998093E+01 0. -1.
       -5    1    3    3    0  502 -0.85831564190E+03 -0.88991618978E+03 -0.29409374292E+02  0.12367471719E+04  0.46999998093E+01 0.  1.
</event>
<event>
 5   0  0.1456876E-05  0.2554030E+04  0.7818609E-02  0.8383986E-01
        1   -1    0    0  501    0  0.00000000000E+00  0.00000000000E+00  0.12552768015E+04  0.12552768015E+04  0.50400001928E-02 0. -1.
       -1   -1    0    0    0  501  0.00000000000E+00  0.00000000000E+00 -0.12991296080E+04  0.12991296080E+04  0.50400001928E-02 0.  1.
    10030    2    1    2    0    0  0.00000000000E+00  0.00000000000E+00 -0.43852806549E+02  0.25544064095E+04  0.25540299600E+04 0.  0.
        1    1    3    3  502    0 -0.77764032525E+03  0.41949893834E+02  0.99029143857E+03  0.12598259413E+04  0.50400001928E-02 0. -1.
       -1    1    3    3    0  502  0.77764032525E+03 -0.41949893834E+02 -0.10341442451E+04  0.12945804683E+04  0.50400001928E-02 0.  1.
</event>
<event>
 5   0  0.3650620E-05  0.2564323E+04  0.7818609E-02  0.8380422E-01
       -2   -1    0    0    0  501  0.00000000000E+00  0.00000000000E+00  0.12188968502E+04  0.12188968502E+04  0.25500000920E-02 0. -1.
        2   -1    0    0  501    0  0.00000000000E+00  0.00000000000E+00 -0.13487099928E+04  0.13487099928E+04  0.25500000920E-02 0.  1.
    10030    2    1    2    0    0  0.00000000000E+00  0.00000000000E+00 -0.12981314266E+03  0.25676068430E+04  0.25643231950E+04 0.  0.
        3    1    3    3  502    0 -0.49070799679E+02  0.11423900795E+04  0.51590113192E+03  0.12544389285E+04  0.10100000352E+00 0. -1.
       -3    1    3    3    0  502  0.49070799679E+02 -0.11423900795E+04 -0.64571427458E+03  0.13131679145E+04  0.10100000352E+00 0.  1.
</event>
<event>
 5   0  0.3581449E-05  0.2551078E+04  0.7818609E-02  0.8385011E-01
       -2   -1    0    0    0  501  0.00000000000E+00  0.00000000000E+00  0.12012047397E+04  0.12012047397E+04  0.25500000920E-02 0. -1.
        2   -1    0    0  501    0  0.00000000000E+00  0.00000000000E+00 -0.13544732572E+04  0.13544732572E+04  0.25500000920E-02 0.  1.
    10030    2    1    2    0    0  0.00000000000E+00  0.00000000000E+00 -0.15326851757E+03  0.25556779969E+04  0.25510779653E+04 0.  0.
        1    1    3    3  502    0 -0.47525313335E+02 -0.47568776347E+03 -0.12613325640E+04  0.13488874456E+04  0.50400001928E-02 0.  1.
       -1    1    3    3    0  502  0.47525313335E+02  0.47568776347E+03  0.11080640464E+04  0.12067905513E+04  0.50400001928E-02 0. -1.
</event>
<event>
 5   0  0.3704241E-05  0.2226435E+04  0.7818609E-02  0.8507505E-01
       -2   -1    0    0    0  501  0.00000000000E+00  0.00000000000E+00  0.67899529963E+03  0.67899529963E+03  0.25500000920E-02 0.  1.
        2   -1    0    0  501    0  0.00000000000E+00  0.00000000000E+00 -0.18251271791E+04  0.18251271791E+04  0.25500000920E-02 0. -1.
    10030    2    1    2    0    0  0.00000000000E+00  0.00000000000E+00 -0.11461318795E+04  0.25041224787E+04  0.22264346169E+04 0.  0.
        2    1    3    3  502    0  0.70214146012E+03 -0.94566756171E+02  0.39269554248E+03  0.81003412921E+03  0.25500000920E-02 0.  1.
       -2    1    3    3    0  502 -0.70214146012E+03  0.94566756171E+02 -0.15388274219E+04  0.16940883495E+04  0.25500000920E-02 0. -1.
</event>
<event>
 5   0  0.1429483E-05  0.2458172E+04  0.7818609E-02  0.8418040E-01
       -1   -1    0    0    0  501  0.00000000000E+00  0.00000000000E+00  0.15457196828E+04  0.15457196828E+04  0.50400001928E-02 0.  1.
        1   -1    0    0  501    0  0.00000000000E+00  0.00000000000E+00 -0.97731328566E+03  0.97731328567E+03  0.50400001928E-02 0. -1.
    10030    2    1    2    0    0  0.00000000000E+00  0.00000000000E+00  0.56840639714E+03  0.25230329685E+04  0.24581719890E+04 0.  0.
        2    1    3    3  502    0  0.70889779568E+03  0.62757888322E+03 -0.52022474095E+03  0.10802893689E+04  0.25500000920E-02 0. -1.
       -2    1    3    3    0  502 -0.70889779568E+03 -0.62757888322E+03  0.10886311381E+04  0.14427435996E+04  0.25500000920E-02 0.  1.
</event>
<event>
 5   0  0.1502886E-05  0.2506446E+04  0.7818609E-02  0.8400693E-01
       -1   -1    0    0    0  501  0.00000000000E+00  0.00000000000E+00  0.13106982969E+04  0.13106982969E+04  0.50400001928E-02 0. -1.
        1   -1    0    0  501    0  0.00000000000E+00  0.00000000000E+00 -0.11982680960E+04  0.11982680960E+04  0.50400001928E-02 0.  1.
    10030    2    1    2    0    0  0.00000000000E+00  0.00000000000E+00  0.11243020096E+03  0.25089663929E+04  0.25064460518E+04 0.  0.
        4    1    3    3  502    0 -0.46339732264E+03 -0.94640913007E+03  0.73523267367E+03  0.12849108986E+04  0.12699999809E+01 0. -1.
       -4    1    3    3    0  502  0.46339732264E+03  0.94640913007E+03 -0.62280247271E+03  0.12240554943E+04  0.12699999809E+01 0.  1.
</event>
<event>
 5   0  0.3579097E-05  0.2437892E+04  0.7818609E-02  0.8425452E-01
       -2   -1    0    0    0  501  0.00000000000E+00  0.00000000000E+00  0.69490242939E+03  0.69490242940E+03  0.25500000920E-02 0. -1.
        2   -1    0    0  501    0  0.00000000000E+00  0.00000000000E+00 -0.21381848049E+04  0.21381848049E+04  0.25500000920E-02 0.  1.
    10030    2    1    2    0    0  0.00000000000E+00  0.00000000000E+00 -0.14432823755E+04  0.28330872343E+04  0.24378923811E+04 0.  0.
        5    1    3    3  502    0 -0.99717757474E+03 -0.41885250485E+03 -0.13749129685E+04  0.17493451052E+04  0.46999998093E+01 0.  1.
       -5    1    3    3    0  502  0.99717757474E+03  0.41885250485E+03 -0.68369407009E+02  0.10837421290E+04  0.46999998093E+01 0. -1.
</event>
<event>
 5   0  0.1429483E-05  0.2473639E+04  0.7818609E-02  0.8412437E-01
       -1   -1    0    0    0  501  0.00000000000E+00  0.00000000000E+00  0.93419750321E+03  0.93419750322E+03  0.50400001928E-02 0. -1.
        1   -1    0    0  501    0  0.00000000000E+00  0.00000000000E+00 -0.16374725793E+04  0.16374725793E+04  0.50400001928E-02 0.  1.
    10030    2    1    2    0    0  0.00000000000E+00  0.00000000000E+00 -0.70327507607E+03  0.25716700825E+04  0.24736392584E+04 0.  0.
        2    1    3    3  502    0 -0.65971288408E+03 -0.94005652333E+03  0.12568230842E+03  0.11553022977E+04  0.25500000920E-02 0. -1.
       -2    1    3    3    0  502  0.65971288408E+03  0.94005652333E+03 -0.82895738449E+03  0.14163677848E+04  0.25500000920E-02 0.  1.
</event>
<event>
 5   0  0.1492639E-05  0.2472298E+04  0.7818609E-02  0.8412921E-01
        1   -1    0    0  501    0  0.00000000000E+00  0.00000000000E+00  0.10282381909E+04  0.10282381909E+04  0.50400001928E-02 0. -1.
       -1   -1    0    0    0  501  0.00000000000E+00  0.00000000000E+00 -0.14860998077E+04  0.14860998077E+04  0.50400001928E-02 0.  1.
    10030    2    1    2    0    0  0.00000000000E+00  0.00000000000E+00 -0.45786161680E+03  0.25143379986E+04  0.24722981841E+04 0.  0.
        5    1    3    3  502    0  0.20762816738E+03 -0.11967934164E+04 -0.46221872708E+03  0.12996507912E+04  0.46999998093E+01 0.  1.
       -5    1    3    3    0  502 -0.20762816738E+03  0.11967934164E+04  0.43571102765E+01  0.12146872074E+04  0.46999998093E+01 0. -1.
</event>
<event>
 5   0  0.1502886E-05  0.2431479E+04  0.7818609E-02  0.8427812E-01
       -1   -1    0    0    0  501  0.00000000000E+00  0.00000000000E+00  0.81565707101E+03  0.81565707102E+03  0.50400001928E-02 0. -1.
        1   -1    0    0  501    0  0.00000000000E+00  0.00000000000E+00 -0.18120632925E+04  0.18120632925E+04  0.50400001928E-02 0.  1.
    10030    2    1    2    0    0  0.00000000000E+00  0.00000000000E+00 -0.99640622145E+03  0.26277203635E+04  0.24314787580E+04 0.  0.
        4    1    3    3  502    0 -0.95425687476E+03 -0.60623644994E+03 -0.15026208170E+02  0.11306441598E+04  0.12699999809E+01 0. -1.
       -4    1    3    3    0  502  0.95425687476E+03  0.60623644994E+03 -0.98138001328E+03  0.14970762037E+04  0.12699999809E+01 0.  1.
</event>
<event>
 5   0  0.1421242E-05  0.2477046E+04  0.7818609E-02  0.8411209E-01
        1   -1    0    0  501    0  0.00000000000E+00  0.00000000000E+00  0.12246398783E+04  0.12246398783E+04  0.50400001928E-02 0.  1.
       -1   -1    0    0    0  501  0.00000000000E+00  0.00000000000E+00 -0.12525631575E+04  0.12525631575E+04  0.50400001928E-02 0. -1.
    10030    2    1    2    0    0  0.00000000000E+00  0.00000000000E+00 -0.27923279208E+02  0.24772030358E+04  0.24770456538E+04 0.  0.
        3    1    3    3  502    0  0.96028649896E+03  0.36415006918E+02 -0.79533232313E+03  0.12474092060E+04  0.10100000352E+00 0. -1.
       -3    1    3    3    0  502 -0.96028649896E+03 -0.36415006918E+02  0.76740904392E+03  0.12297938298E+04  0.10100000352E+00 0.  1.
</event>
<event>
 5   0  0.1492639E-05  0.2523460E+04  0.7818609E-02  0.8394675E-01
       -1   -1    0    0    0  501  0.00000000000E+00  0.00000000000E+00  0.93322858871E+03  0.93322858872E+03  0.50400001928E-02 0.  1.
        1   -1    0    0  501    0  0.00000000000E+00  0.00000000000E+00 -0.17058659504E+04  0.17058659504E+04  0.50400001928E-02 0. -1.
    10030    2    1    2    0    0  0.00000000000E+00  0.00000000000E+00 -0.77263736171E+03  0.26390945391E+04  0.25234602224E+04 0.  0.
        5    1    3    3  502    0  0.51431338853E+03 -0.45089728349E+03 -0.14951454302E+04  0.16441741298E+04  0.46999998093E+01 0. -1.
       -5    1    3    3    0  502 -0.51431338853E+03  0.45089728349E+03  0.72250806846E+03  0.99492040931E+03  0.46999998093E+01 0.  1.
</event>
<event>
 5   0  0.1456876E-05  0.2539761E+04  0.7818609E-02  0.8388956E-01
        1   -1    0    0  501    0  0.00000000000E+00  0.00000000000E+00  0.93921268770E+03  0.93921268772E+03  0.50400001928E-02 0. -1.
       -1   -1    0    0    0  501  0.00000000000E+00  0.00000000000E+00 -0.17169660137E+04  0.17169660137E+04  0.50400001928E-02 0.  1.
    10030    2    1    2    0    0  0.00000000000E+00  0.00000000000E+00 -0.77775332601E+03  0.26561787014E+04  0.25397608269E+04 0.  0.
        1    1    3    3  502    0  0.54228348485E+03 -0.11451076213E+04 -0.29980574140E+03  0.13020085733E+04  0.50400001928E-02 0. -1.
       -1    1    3    3    0  502 -0.54228348485E+03  0.11451076213E+04 -0.47794758461E+03  0.13541701281E+04  0.50400001928E-02 0.  1.
</event>
<event>
 5   0  0.3581449E-05  0.2509044E+04  0.7818609E-02  0.8399771E-01
       -2   -1    0    0    0  501  0.00000000000E+00  0.00000000000E+00  0.11048491486E+04  0.11048491486E+04  0.25500000920E-02 0.  1.
        2   -1    0    0  501    0  0.00000000000E+00  0.00000000000E+00 -0.14244707007E+04  0.14244707007E+04  0.25500000920E-02 0. -1.
    10030    2    1    2    0    0  0.00000000000E+00  0.00000000000E+00 -0.31962155204E+03  0.25293198493E+04  0.25090438345E+04 0.  0.
        1    1    3    3  502    0 -0.89797286474E+03 -0.65385084911E+03 -0.74757400726E+03  0.13389335663E+04  0.50400001928E-02 0. -1.
       -1    1    3    3    0  502  0.89797286474E+03  0.65385084911E+03  0.42795245522E+03  0.11903862830E+04  0.50400001928E-02 0.  1.
</event>
<event>
 5   0  0.1456876E-05  0.2452637E+04  0.7818609E-02  0.8420056E-01
        1   -1    0    0  501    0  0.00000000000E+00  0.00000000000E+00  0.14175928342E+04  0.14175928342E+04  0.50400001928E-02 0. -1.
       -1   -1    0    0    0  501  0.00000000000E+00  0.00000000000E+00 -0.10608527143E+04  0.10608527143E+04  0.50400001928E-02 0.  1.
    10030    2    1    2    0    0  0.00000000000E+00  0.00000000000E+00  0.35674011993E+03  0.24784455485E+04  0.24526371162E+04 0.  0.
        1    1    3    3  502    0 -0.34677569538E+03  0.91618274772E+03  0.92384069354E+03  0.13465236118E+04  0.50400001928E-02 0. -1.
       -1    1    3    3    0  502  0.34677569538E+03 -0.91618274772E+03 -0.56710057360E+03  0.11319219367E+04  0.50400001928E-02 0.  1.
</event>
<event>
 5   0  0.3581449E-05  0.2600196E+04  0.7818609E-02  0.8368135E-01
       -2   -1    0    0    0  501  0.00000000000E+00  0.00000000000E+00  0.64802025487E+03  0.64802025488E+03  0.25500000920E-02 0.  1.
        2   -1    0    0  501    0  0.00000000000E+00  0.00000000000E+00 -0.26083356812E+04  0.26083356812E+04  0.25500000920E-02 0. -1.
    10030    2    1    2    0    0  0.00000000000E+00  0.00000000000E+00 -0.19603154263E+04  0.32563559360E+04  0.26001956487E+04 0.  0.
        1    1    3    3  502    0 -0.54876758251E+03 -0.89146240445E+03 -0.14626231160E+02  0.10469312321E+04  0.50400001928E-02 0.  1.
       -1    1    3    3    0  502  0.54876758251E+03  0.89146240445E+03 -0.19456891951E+04  0.22094247039E+04  0.50400001928E-02 0. -1.
</event>
<event>
 5   0  0.3579097E-05  0.2516923E+04  0.7818609E-02  0.8396981E-01
        2   -1    0    0  501    0  0.00000000000E+00  0.00000000000E+00  0.20210122700E+04  0.20210122700E+04  0.25500000920E-02 0. -1.
       -2   -1    0    0    0  501  0.00000000000E+00  0.00000000000E+00 -0.78362980619E+03  0.78362980619E+03  0.25500000920E-02 0.  1.
    10030    2    1    2    0    0  0.00000000000E+00  0.00000000000E+00  0.12373824638E+04  0.28046420762E+04  0.25169230846E+04 0.  0.
        5    1    3    3  502    0 -0.79847143306E+03 -0.70062705881E+03  0.13705586802E+04  0.17340380880E+04  0.46999998093E+01 0. -1.
       -5    1    3    3    0  502  0.79847143306E+03  0.70062705881E+03 -0.13317621632E+03  0.10706039882E+04  0.46999998093E+01 0.  1.
</event>
<event>
 5   0  0.1429483E-05  0.2514343E+04  0.7818609E-02  0.8397894E-01
        1   -1    0    0  501    0  0.00000000000E+00  0.00000000000E+00  0.97054818339E+03  0.97054818340E+03  0.50400001928E-02 0.  1.
       -1   -1    0    0    0  501  0.00000000000E+00  0.00000000000E+00 -0.16284408138E+04  0.16284408138E+04  0.50400001928E-02 0. -1.
    10030    2    1    2    0    0  0.00000000000E+00  0.00000000000E+00 -0.65789263042E+03  0.25989889972E+04  0.25143430741E+04 0.  0.
        2    1    3    3  502    0  0.11094177726E+04 -0.95214009646E+01  0.28221284643E+03  0.11447893002E+04  0.25500000920E-02 0.  1.
       -2    1    3    3    0  502 -0.11094177726E+04  0.95214009646E+01 -0.94010547685E+03  0.14541996970E+04  0.25500000920E-02 0. -1.
</event>
<event>
 5   0  0.1456876E-05  0.2483193E+04  0.7818609E-02  0.8408998E-01
        1   -1    0    0  501    0  0.00000000000E+00  0.00000000000E+00  0.16325664834E+04  0.16325664834E+04  0.50400001928E-02 0.  1.
       -1   -1    0    0    0  501  0.00000000000E+00  0.00000000000E+00 -0.94425674090E+03  0.94425674091E+03  0.50400001928E-02 0. -1.
    10030    2    1    2    0    0  0.00000000000E+00  0.00000000000E+00  0.68830974249E+03  0.25768232243E+04  0.24831930307E+04 0.  0.
        1    1    3    3  502    0  0.37299467134E+03  0.37992747194E+03  0.15080942065E+04  0.15993179935E+04  0.50400001928E-02 0.  1.
       -1    1    3    3    0  502 -0.37299467134E+03 -0.37992747194E+03 -0.81978446399E+03  0.97750523078E+03  0.50400001928E-02 0. -1.
</event>
<event>
 5   0  0.3704241E-05  0.2499717E+04  0.7818609E-02  0.8403086E-01
       -2   -1    0    0    0  501  0.00000000000E+00  0.00000000000E+00  0.14232206160E+04  0.14232206160E+04  0.25500000920E-02 0. -1.
        2   -1    0    0  501    0  0.00000000000E+00  0.00000000000E+00 -0.10976137803E+04  0.10976137803E+04  0.25500000920E-02 0.  1.
    10030    2    1    2    0    0  0.00000000000E+00  0.00000000000E+00  0.32560683572E+03  0.25208343963E+04  0.24997172325E+04 0.  0.
        2    1    3    3  502    0  0.35351298417E+03  0.80219012308E+03  0.10612088255E+04  0.13764608948E+04  0.25500000920E-02 0. -1.
       -2    1    3    3    0  502 -0.35351298417E+03 -0.80219012308E+03 -0.73560198982E+03  0.11443735015E+04  0.25500000920E-02 0.  1.
</event>
<event>
 5   0  0.1421242E-05  0.2759033E+04  0.7818609E-02  0.8316101E-01
        1   -1    0    0  501    0  0.00000000000E+00  0.00000000000E+00  0.11352446537E+04  0.11352446537E+04  0.50400001928E-02 0. -1.
       -1   -1    0    0    0  501  0.00000000000E+00  0.00000000000E+00 -0.16763480152E+04  0.16763480152E+04  0.50400001928E-02 0.  1.
    10030    2    1    2    0    0  0.00000000000E+00  0.00000000000E+00 -0.54110336149E+03  0.28115926689E+04  0.27590325275E+04 0.  0.
        3    1    3    3  502    0 -0.59820362830E+03 -0.10194870416E+04 -0.99534192828E+03  0.15452854019E+04  0.10100000352E+00 0.  1.
       -3    1    3    3    0  502  0.59820362830E+03  0.10194870416E+04  0.45423856679E+03  0.12663072670E+04  0.10100000352E+00 0. -1.
</event>
<event>
 5   0  0.1421242E-05  0.2519190E+04  0.7818609E-02  0.8396181E-01
        1   -1    0    0  501    0  0.00000000000E+00  0.00000000000E+00  0.17977206464E+04  0.17977206464E+04  0.50400001928E-02 0. -1.
       -1   -1    0    0    0  501  0.00000000000E+00  0.00000000000E+00 -0.88255073274E+03  0.88255073275E+03  0.50400001928E-02 0.  1.
    10030    2    1    2    0    0  0.00000000000E+00  0.00000000000E+00  0.91516991369E+03  0.26802713792E+04  0.25191900871E+04 0.  0.
        3    1    3    3  502    0 -0.10622112656E+04  0.38087241369E+03  0.10530341604E+04  0.15434498765E+04  0.10100000352E+00 0. -1.
       -3    1    3    3    0  502  0.10622112656E+04 -0.38087241369E+03 -0.13786424672E+03  0.11368215027E+04  0.10100000352E+00 0.  1.
</event>
<event>
 5   0  0.3704241E-05  0.2477912E+04  0.7818609E-02  0.8410897E-01
        2   -1    0    0  501    0  0.00000000000E+00  0.00000000000E+00  0.21630154504E+04  0.21630154505E+04  0.25500000920E-02 0. -1.
       -2   -1    0    0    0  501  0.00000000000E+00  0.00000000000E+00 -0.70966291540E+03  0.70966291540E+03  0.25500000920E-02 0.  1.
    10030    2    1    2    0    0  0.00000000000E+00  0.00000000000E+00  0.14533525351E+04  0.28726783659E+04  0.24779119037E+04 0.  0.
        2    1    3    3  502    0  0.77456572592E+03 -0.19514834022E+03 -0.37129701924E+03  0.88084982543E+03  0.25500000920E-02 0.  1.
       -2    1    3    3    0  502 -0.77456572592E+03  0.19514834022E+03  0.18246495543E+04  0.19918285404E+04  0.25500000920E-02 0. -1.
</event>
<event>
 5   0  0.1492639E-05  0.2490129E+04  0.7818609E-02  0.8406510E-01
       -1   -1    0    0    0  501  0.00000000000E+00  0.00000000000E+00  0.63866631199E+03  0.63866631201E+03  0.50400001928E-02 0.  1.
        1   -1    0    0  501    0  0.00000000000E+00  0.00000000000E+00 -0.24272238081E+04  0.24272238081E+04  0.50400001928E-02 0. -1.
    10030    2    1    2    0    0  0.00000000000E+00  0.00000000000E+00 -0.17885574961E+04  0.30658901201E+04  0.24901293765E+04 0.  0.
        5    1    3    3  502    0  0.14128111736E+03 -0.99144801428E+03  0.16517842929E+02  0.10016109266E+04  0.46999998093E+01 0.  1.
       -5    1    3    3    0  502 -0.14128111736E+03  0.99144801428E+03 -0.18050753390E+04  0.20642791935E+04  0.46999998093E+01 0. -1.
</event>
<event>
 5   0  0.3650620E-05  0.2413228E+04  0.7818609E-02  0.8434568E-01
       -2   -1    0    0    0  501  0.00000000000E+00  0.00000000000E+00  0.97436371359E+03  0.97436371360E+03  0.25500000920E-02 0. -1.
        2   -1    0    0  501    0  0.00000000000E+00  0.00000000000E+00 -0.14942242325E+04  0.14942242325E+04  0.25500000920E-02 0.  1.
    10030    2    1    2    0    0  0.00000000000E+00  0.00000000000E+00 -0.51986051891E+03  0.24685879461E+04  0.24132284369E+04 0.  0.
        3    1    3    3  502    0  0.67370452395E+03  0.58036796710E+03  0.57438572853E+03  0.10585951720E+04  0.10100000352E+00 0. -1.
       -3    1    3    3    0  502 -0.67370452395E+03 -0.58036796710E+03 -0.10942462474E+04  0.14099927741E+04  0.10100000352E+00 0.  1.
</event>
<event>
 5   0  0.3650620E-05  0.2477972E+04  0.7818609E-02  0.8410875E-01
       -2   -1    0    0    0  501  0.00000000000E+00  0.00000000000E+00  0.15151252847E+04  0.15151252847E+04  0.25500000920E-02 0. -1.
        2   -1    0    0  501    0  0.00000000000E+00  0.00000000000E+00 -0.10131748423E+04  0.10131748423E+04  0.25500000920E-02 0.  1.
    10030    2    1    2    0    0  0.00000000000E+00  0.00000000000E+00  0.50195044246E+03  0.25283001270E+04  0.24779724142E+04 0.  0.
        3    1    3    3  502    0  0.10934179917E+04  0.52683855280E+03  0.50495874627E+03  0.13145741177E+04  0.10100000352E+00 0. -1.
       -3    1    3    3    0  502 -0.10934179917E+04 -0.52683855280E+03 -0.30083038070E+01  0.12137260092E+04  0.10100000352E+00 0.  1.
</event>
<event>
 5   0  0.3704241E-05  0.2467210E+04  0.7818609E-02  0.8414761E-01
        2   -1    0    0  501    0  0.00000000000E+00  0.00000000000E+00  0.17480983596E+04  0.17480983596E+04  0.25500000920E-02 0.  1.
       -2   -1    0    0    0  501  0.00000000000E+00  0.00000000000E+00 -0.87053527007E+03  0.87053527007E+03  0.25500000920E-02 0. -1.
    10030    2    1    2    0    0  0.00000000000E+00  0.00000000000E+00  0.87756308955E+03  0.26186336297E+04  0.24672099851E+04 0.  0.
        2    1    3    3  502    0 -0.28980996760E+03  0.50383413518E+02 -0.83276673415E+03  0.88319235685E+03  0.25500000920E-02 0. -1.
       -2    1    3    3    0  502  0.28980996760E+03 -0.50383413518E+02  0.17103298237E+04  0.17354412729E+04  0.25500000920E-02 0.  1.
</event>
<event>
 5   0  0.1502886E-05  0.2476362E+04  0.7818609E-02  0.8411456E-01
       -1   -1    0    0    0  501  0.00000000000E+00  0.00000000000E+00  0.96024965414E+03  0.96024965415E+03  0.50400001928E-02 0. -1.
        1   -1    0    0  501    0  0.00000000000E+00  0.00000000000E+00 -0.15965551974E+04  0.15965551974E+04  0.50400001928E-02 0.  1.
    10030    2    1    2    0    0  0.00000000000E+00  0.00000000000E+00 -0.63630554328E+03  0.25568048516E+04  0.24763615052E+04 0.  0.
        4    1    3    3  502    0 -0.10060081138E+04  0.53582936783E+03  0.18121604282E+03  0.11541257746E+04  0.12699999809E+01 0. -1.
       -4    1    3    3    0  502  0.10060081138E+04 -0.53582936783E+03 -0.81752158611E+03  0.14026790770E+04  0.12699999809E+01 0.  1.
</event>
<event>
 5   0  0.3581449E-05  0.2537103E+04  0.7818609E-02  0.8389885E-01
        2   -1    0    0  501    0  0.00000000000E+00  0.00000000000E+00  0.15279194898E+04  0.15279194898E+04  0.25500000920E-02 0.  1.
       -2   -1    0    0    0  501  0.00000000000E+00  0.00000000000E+00 -0.10532122367E+04  0.10532122367E+04  0.25500000920E-02 0. -1.
    10030    2    1    2    0    0  0.00000000000E+00  0.00000000000E+00  0.47470725318E+03  0.25811317265E+04  0.25371034692E+04 0.  0.
        1    1    3    3  502    0  0.22219054354E+03 -0.27052816545E+03  0.14778034107E+04  0.15187024220E+04  0.50400001928E-02 0.  1.
       -1    1    3    3    0  502 -0.22219054354E+03  0.27052816545E+03 -0.10030961575E+04  0.10624293045E+04  0.50400001928E-02 0. -1.
</event>
<event>
 5   0  0.3704241E-05  0.2436112E+04  0.7818609E-02  0.8426106E-01
        2   -1    0    0  501    0  0.00000000000E+00  0.00000000000E+00  0.11037609764E+04  0.11037609764E+04  0.25500000920E-02 0.  1.
       -2   -1    0    0    0  501  0.00000000000E+00  0.00000000000E+00 -0.13441859243E+04  0.13441859243E+04  0.25500000920E-02 0. -1.
    10030    2    1    2    0    0  0.00000000000E+00  0.00000000000E+00 -0.24042494789E+03  0.24479469007E+04  0.24361116298E+04 0.  0.
        2    1    3    3  502    0 -0.10446695707E+04 -0.36864522595E+03 -0.62905800793E+03  0.12739496818E+04  0.25500000920E-02 0.  1.
       -2    1    3    3    0  502  0.10446695707E+04  0.36864522595E+03  0.38863306004E+03  0.11739972189E+04  0.25500000920E-02 0. -1.
</event>
<event>
 5   0  0.3581449E-05  0.2437894E+04  0.7818609E-02  0.8425451E-01
       -2   -1    0    0    0  501  0.00000000000E+00  0.00000000000E+00  0.12928611510E+04  0.12928611510E+04  0.25500000920E-02 0. -1.
        2   -1    0    0  501    0  0.00000000000E+00  0.00000000000E+00 -0.11492585233E+04  0.11492585233E+04  0.25500000920E-02 0.  1.
    10030    2    1    2    0    0  0.00000000000E+00  0.00000000000E+00  0.14360262769E+03  0.24421196743E+04  0.24378939249E+04 0.  0.
        1    1    3    3  502    0 -0.87202921130E+03 -0.62177582222E+03  0.65486828481E+03  0.12553456054E+04  0.50400001928E-02 0. -1.
       -1    1    3    3    0  502  0.87202921130E+03  0.62177582222E+03 -0.51126565712E+03  0.11867740689E+04  0.50400001928E-02 0.  1.
</event>
<event>
 5   0  0.3650620E-05  0.2440769E+04  0.7818609E-02  0.8424396E-01
       -2   -1    0    0    0  501  0.00000000000E+00  0.00000000000E+00  0.12659734096E+04  0.12659734096E+04  0.25500000920E-02 0.  1.
        2   -1    0    0  501    0  0.00000000000E+00  0.00000000000E+00 -0.11764371474E+04  0.11764371474E+04  0.25500000920E-02 0. -1.
    10030    2    1    2    0    0  0.00000000000E+00  0.00000000000E+00  0.89536262251E+02  0.24424105570E+04  0.24407688515E+04 0.  0.
        3    1    3    3  502    0  0.47203994024E+03 -0.10098604428E+04  0.54178955568E+03  0.12394255734E+04  0.10100000352E+00 0. -1.
       -3    1    3    3    0  502 -0.47203994024E+03  0.10098604428E+04 -0.45225329343E+03  0.12029849836E+04  0.10100000352E+00 0.  1.
</event>
<event>
 5   0  0.1429483E-05  0.2500549E+04  0.7818609E-02  0.8402790E-01
       -1   -1    0    0    0  501  0.00000000000E+00  0.00000000000E+00  0.94086275245E+03  0.94086275246E+03  0.50400001928E-02 0.  1.
        1   -1    0    0  501    0  0.00000000000E+00  0.00000000000E+00 -0.16614386489E+04  0.16614386489E+04  0.50400001928E-02 0. -1.
    10030    2    1    2    0    0  0.00000000000E+00  0.00000000000E+00 -0.72057589646E+03  0.26023014014E+04  0.25005485320E+04 0.  0.
        2    1    3    3  502    0 -0.70649182410E+03  0.93053944577E+03 -0.82354374360E+03  0.14294259880E+04  0.25500000920E-02 0. -1.
       -2    1    3    3    0  502  0.70649182410E+03 -0.93053944577E+03  0.10296784714E+03  0.11728754133E+04  0.25500000920E-02 0.  1.
</event>
<event>
 5   0  0.3650620E-05  0.2474246E+04  0.7818609E-02  0.8412218E-01
       -2   -1    0    0    0  501  0.00000000000E+00  0.00000000000E+00  0.14307276470E+04  0.14307276470E+04  0.25500000920E-02 0. -1.
        2   -1    0    0  501    0  0.00000000000E+00  0.00000000000E+00 -0.10697170487E+04  0.10697170487E+04  0.25500000920E-02 0.  1.
    10030    2    1    2    0    0  0.00000000000E+00  0.00000000000E+00  0.36101059838E+03  0.25004446957E+04  0.24742463548E+04 0.  0.
        3    1    3    3  502    0 -0.34527152558E+03  0.10963386499E+04  0.64284578038E+03  0.13169743996E+04  0.10100000352E+00 0. -1.
       -3    1    3    3    0  502  0.34527152558E+03 -0.10963386499E+04 -0.28183518200E+03  0.11834702961E+04  0.10100000352E+00 0.  1.
</event>
<event>
 5   0  0.3578670E-05  0.2436125E+04  0.7818609E-02  0.8426101E-01
        2   -1    0    0  501    0  0.00000000000E+00  0.00000000000E+00  0.23280592880E+04  0.23280592880E+04  0.25500000920E-02 0.  1.
       -2   -1    0    0    0  501  0.00000000000E+00  0.00000000000E+00 -0.63730165208E+03  0.63730165209E+03  0.25500000920E-02 0. -1.
    10030    2    1    2    0    0  0.00000000000E+00  0.00000000000E+00  0.16907576360E+04  0.29653609401E+04  0.24361248165E+04 0.  0.
        4    1    3    3  502    0  0.25283945468E+03  0.21256390337E+03 -0.58174083043E+03  0.66898072434E+03  0.12699999809E+01 0. -1.
       -4    1    3    3    0  502 -0.25283945468E+03 -0.21256390337E+03  0.22724984664E+04  0.22963802158E+04  0.12699999809E+01 0.  1.
</event>
<event>
 5   0  0.1456876E-05  0.2483758E+04  0.7818609E-02  0.8408795E-01
        1   -1    0    0  501    0  0.00000000000E+00  0.00000000000E+00  0.10353771090E+04  0.10353771090E+04  0.50400001928E-02 0.  1.
       -1   -1    0    0    0  501  0.00000000000E+00  0.00000000000E+00 -0.14895673010E+04  0.14895673010E+04  0.50400001928E-02 0. -1.
    10030    2    1    2    0    0  0.00000000000E+00  0.00000000000E+00 -0.45419019205E+03  0.25249444100E+04  0.24837583504E+04 0.  0.
        1    1    3    3  502    0  0.66936234052E+03  0.65349257936E+03  0.60325116730E+03  0.11131084696E+04  0.50400001928E-02 0.  1.
       -1    1    3    3    0  502 -0.66936234052E+03 -0.65349257936E+03 -0.10574413593E+04  0.14118359404E+04  0.50400001928E-02 0. -1.
</event>
<event>
 5   0  0.1429483E-05  0.2503600E+04  0.7818609E-02  0.8401704E-01
        1   -1    0    0  501    0  0.00000000000E+00  0.00000000000E+00  0.15823798261E+04  0.15823798261E+04  0.50400001928E-02 0. -1.
       -1   -1    0    0    0  501  0.00000000000E+00  0.00000000000E+00 -0.99028298315E+03  0.99028298316E+03  0.50400001928E-02 0.  1.
    10030    2    1    2    0    0  0.00000000000E+00  0.00000000000E+00  0.59209684295E+03  0.25726628093E+04  0.25036004591E+04 0.  0.
        2    1    3    3  502    0  0.11913884695E+04 -0.34418156200E+03  0.47145087151E+03  0.13267001761E+04  0.25500000920E-02 0.  1.
       -2    1    3    3    0  502 -0.11913884695E+04  0.34418156200E+03  0.12064597144E+03  0.12459626332E+04  0.25500000920E-02 0. -1.
</event>
<event>
 5   0  0.1492639E-05  0.2551342E+04  0.7818609E-02  0.8384920E-01
        1   -1    0    0  501    0  0.00000000000E+00  0.00000000000E+00  0.25896393021E+04  0.25896393021E+04  0.50400001928E-02 0. -1.
       -1   -1    0    0    0  501  0.00000000000E+00  0.00000000000E+00 -0.62840281120E+03  0.62840281122E+03  0.50400001928E-02 0.  1.
    10030    2    1    2    0    0  0.00000000000E+00  0.00000000000E+00  0.19612364909E+04  0.32180421133E+04  0.25513420919E+04 0.  0.
        5    1    3    3  502    0  0.23547077003E+03 -0.96095955824E+03 -0.35052229641E+02  0.99002045681E+03  0.46999998093E+01 0.  1.
       -5    1    3    3    0  502 -0.23547077003E+03  0.96095955824E+03  0.19962887205E+04  0.22280216565E+04  0.46999998093E+01 0. -1.
</event>
<event>
 5   0  0.1421242E-05  0.2519866E+04  0.7818609E-02  0.8395942E-01
        1   -1    0    0  501    0  0.00000000000E+00  0.00000000000E+00  0.16748278415E+04  0.16748278415E+04  0.50400001928E-02 0.  1.
       -1   -1    0    0    0  501  0.00000000000E+00  0.00000000000E+00 -0.94781740426E+03  0.94781740427E+03  0.50400001928E-02 0. -1.
    10030    2    1    2    0    0  0.00000000000E+00  0.00000000000E+00  0.72701043726E+03  0.26226452458E+04  0.25198658515E+04 0.  0.
        3    1    3    3  502    0  0.11828763074E+03  0.67224880586E+03  0.14657187680E+04  0.16168617559E+04  0.10100000352E+00 0.  1.
       -3    1    3    3    0  502 -0.11828763074E+03 -0.67224880586E+03 -0.73870833071E+03  0.10057834899E+04  0.10100000352E+00 0. -1.
</event>
<event>
 5   0  0.3578670E-05  0.2471825E+04  0.7818609E-02  0.8413092E-01
       -2   -1    0    0    0  501  0.00000000000E+00  0.00000000000E+00  0.52351466603E+03  0.52351466603E+03  0.25500000920E-02 0.  1.
        2   -1    0    0  501    0  0.00000000000E+00  0.00000000000E+00 -0.29177391877E+04  0.29177391877E+04  0.25500000920E-02 0. -1.
    10030    2    1    2    0    0  0.00000000000E+00  0.00000000000E+00 -0.23942245217E+04  0.34412538538E+04  0.24718246349E+04 0.  0.
        4    1    3    3  502    0  0.12142934159E+04 -0.11034112033E+03 -0.14783004652E+04  0.19162613446E+04  0.12699999809E+01 0. -1.
       -4    1    3    3    0  502 -0.12142934159E+04  0.11034112033E+03 -0.91592405650E+03  0.15249925091E+04  0.12699999809E+01 0.  1.
</event>
<event>
 5   0  0.1456876E-05  0.2500888E+04  0.7818609E-02  0.8402669E-01
        1   -1    0    0  501    0  0.00000000000E+00  0.00000000000E+00  0.12289846000E+04  0.12289846000E+04  0.50400001928E-02 0. -1.
       -1   -1    0    0    0  501  0.00000000000E+00  0.00000000000E+00 -0.12722785083E+04  0.12722785083E+04  0.50400001928E-02 0.  1.
    10030    2    1    2    0    0  0.00000000000E+00  0.00000000000E+00 -0.43293908292E+02  0.25012631083E+04  0.25008883970E+04 0.  0.
        1    1    3    3  502    0 -0.96376495870E+03  0.37079807590E+03  0.68363710999E+03  0.12384239205E+04  0.50400001928E-02 0. -1.
       -1    1    3    3    0  502  0.96376495870E+03 -0.37079807590E+03 -0.72693101829E+03  0.12628391877E+04  0.50400001928E-02 0.  1.
</event>
<event>
 5   0  0.3579097E-05  0.2520120E+04  0.7818609E-02  0.8395852E-01
        2   -1    0    0  501    0  0.00000000000E+00  0.00000000000E+00  0.14605002876E+04  0.14605002876E+04  0.25500000920E-02 0.  1.
       -2   -1    0    0    0  501  0.00000000000E+00  0.00000000000E+00 -0.10871284727E+04  0.10871284727E+04  0.25500000920E-02 0. -1.
    10030    2    1    2    0    0  0.00000000000E+00  0.00000000000E+00  0.37337181497E+03  0.25476287603E+04  0.25201201932E+04 0.  0.
        5    1    3    3  502    0  0.37946805871E+03 -0.62075598226E+03 -0.85332729464E+03  0.11213935789E+04  0.46999998093E+01 0. -1.
       -5    1    3    3    0  502 -0.37946805871E+03  0.62075598226E+03  0.12266991096E+04  0.14262351814E+04  0.46999998093E+01 0.  1.
</event>
<event>
 5   0  0.3579097E-05  0.2610791E+04  0.7818609E-02  0.8364545E-01
        2   -1    0    0  501    0  0.00000000000E+00  0.00000000000E+00  0.17014585702E+04  0.17014585702E+04  0.25500000920E-02 0.  1.
       -2   -1    0    0    0  501  0.00000000000E+00  0.00000000000E+00 -0.10015273951E+04  0.10015273951E+04  0.25500000920E-02 0. -1.
    10030    2    1    2    0    0  0.00000000000E+00  0.00000000000E+00  0.69993117513E+03  0.27029859652E+04  0.26107909680E+04 0.  0.
        5    1    3    3  502    0  0.47265050007E+02  0.18964216790E+03  0.16862163307E+04  0.16975116320E+04  0.46999998093E+01 0.  1.
       -5    1    3    3    0  502 -0.47265050007E+02 -0.18964216790E+03 -0.98628515556E+03  0.10054743333E+04  0.46999998093E+01 0. -1.
</event>
<event>
 5   0  0.3579097E-05  0.2473566E+04  0.7818609E-02  0.8412464E-01
        2   -1    0    0  501    0  0.00000000000E+00  0.00000000000E+00  0.27308515309E+04  0.27308515309E+04  0.25500000920E-02 0.  1.
       -2   -1    0    0    0  501  0.00000000000E+00  0.00000000000E+00 -0.56013019514E+03  0.56013019514E+03  0.25500000920E-02 0. -1.
    10030    2    1    2    0    0  0.00000000000E+00  0.00000000000E+00  0.21707213358E+04  0.32909817260E+04  0.24735661713E+04 0.  0.
        5    1    3    3  502    0  0.10968968292E+03 -0.83557843071E+03  0.22896934770E+04  0.24398650473E+04  0.46999998093E+01 0.  1.
       -5    1    3    3    0  502 -0.10968968292E+03  0.83557843071E+03 -0.11897214126E+03  0.85111667873E+03  0.46999998093E+01 0. -1.
</event>
<event>
 5   0  0.3704241E-05  0.2236562E+04  0.7818609E-02  0.8503362E-01
       -2   -1    0    0    0  501  0.00000000000E+00  0.00000000000E+00  0.12955542706E+04  0.12955542706E+04  0.25500000920E-02 0.  1.
        2   -1    0    0  501    0  0.00000000000E+00  0.00000000000E+00 -0.96526452447E+03  0.96526452448E+03  0.25500000920E-02 0. -1.
    10030    2    1    2    0    0  0.00000000000E+00  0.00000000000E+00  0.33028974608E+03  0.22608187950E+04  0.22365621627E+04 0.  0.
        2    1    3    3  502    0 -0.67316507277E+03  0.47197132664E+03 -0.60112964171E+03  0.10184620732E+04  0.25500000920E-02 0. -1.
       -2    1    3    3    0  502  0.67316507277E+03 -0.47197132664E+03  0.93141938779E+03  0.12423567218E+04  0.25500000920E-02 0.  1.
</event>
<event>
 5   0  0.1502886E-05  0.2498051E+04  0.7818609E-02  0.8403680E-01
       -1   -1    0    0    0  501  0.00000000000E+00  0.00000000000E+00  0.10907513783E+04  0.10907513783E+04  0.50400001928E-02 0. -1.
        1   -1    0    0  501    0  0.00000000000E+00  0.00000000000E+00 -0.14302659875E+04  0.14302659875E+04  0.50400001928E-02 0.  1.
    10030    2    1    2    0    0  0.00000000000E+00  0.00000000000E+00 -0.33951460921E+03  0.25210173658E+04  0.24980509180E+04 0.  0.
        4    1    3    3  502    0 -0.33737413344E+03  0.10073541409E+04  0.49315264945E+03  0.11712321801E+04  0.12699999809E+01 0. -1.
       -4    1    3    3    0  502  0.33737413344E+03 -0.10073541409E+04 -0.83266725866E+03  0.13497851857E+04  0.12699999809E+01 0.  1.
</event>
<event>
 5   0  0.3581449E-05  0.2491678E+04  0.7818609E-02  0.8405956E-01
        2   -1    0    0  501    0  0.00000000000E+00  0.00000000000E+00  0.19093167590E+04  0.19093167590E+04  0.25500000920E-02 0. -1.
       -2   -1    0    0    0  501  0.00000000000E+00  0.00000000000E+00 -0.81291619386E+03  0.81291619386E+03  0.25500000920E-02 0.  1.
    10030    2    1    2    0    0  0.00000000000E+00  0.00000000000E+00  0.10964005651E+04  0.27222329529E+04  0.24916777581E+04 0.  0.
        1    1    3    3  502    0  0.66219793616E+03  0.11746418930E+03 -0.59755628678E+03  0.89965407703E+03  0.50400001928E-02 0.  1.
       -1    1    3    3    0  502 -0.66219793616E+03 -0.11746418930E+03  0.16939568519E+04  0.18225788758E+04  0.50400001928E-02 0. -1.
</event>
<event>
 5   0  0.3579097E-05  0.1910712E+04  0.7818609E-02  0.8649543E-01
       -2   -1    0    0    0  501  0.00000000000E+00  0.00000000000E+00  0.12291327395E+04  0.12291327395E+04  0.25500000920E-02 0.  1.
        2   -1    0    0  501    0  0.00000000000E+00  0.00000000000E+00 -0.74255985844E+03  0.74255985844E+03  0.25500000920E-02 0. -1.
    10030    2    1    2    0    0  0.00000000000E+00  0.00000000000E+00  0.48657288104E+03  0.19716925979E+04  0.19107115251E+04 0.  0.
        5    1    3    3  502    0  0.34735428044E+03  0.45352262277E+03  0.10334565796E+04  0.11808439175E+04  0.46999998093E+01 0.  1.
       -5    1    3    3    0  502 -0.34735428044E+03 -0.45352262277E+03 -0.54688369861E+03  0.79084868041E+03  0.46999998093E+01 0. -1.
</event>
<event>
 5   0  0.3578670E-05  0.2415795E+04  0.7818609E-02  0.8433614E-01
        2   -1    0    0  501    0  0.00000000000E+00  0.00000000000E+00  0.16843000778E+04  0.16843000778E+04  0.25500000920E-02 0. -1.
       -2   -1    0    0    0  501  0.00000000000E+00  0.00000000000E+00 -0.86624484674E+03  0.86624484675E+03  0.25500000920E-02 0.  1.
    10030    2    1    2    0    0  0.00000000000E+00  0.00000000000E+00  0.81805523109E+03  0.25505449246E+04  0.24157949108E+04 0.  0.
        4    1    3    3  502    0  0.94686118161E+03  0.49609465909E+02 -0.38105011202E+03  0.10218649603E+04  0.12699999809E+01 0.  1.
       -4    1    3    3    0  502 -0.94686118161E+03 -0.49609465909E+02  0.11991053431E+04  0.15286799643E+04  0.12699999809E+01 0. -1.
</event>
<event>
 5   0  0.3579097E-05  0.2475395E+04  0.7818609E-02  0.8411804E-01
        2   -1    0    0  501    0  0.00000000000E+00  0.00000000000E+00  0.16181656590E+04  0.16181656590E+04  0.25500000920E-02 0. -1.
       -2   -1    0    0    0  501  0.00000000000E+00  0.00000000000E+00 -0.94668630973E+03  0.94668630973E+03  0.25500000920E-02 0.  1.
    10030    2    1    2    0    0  0.00000000000E+00  0.00000000000E+00  0.67147934923E+03  0.25648519687E+04  0.24753951411E+04 0.  0.
        5    1    3    3  502    0 -0.54452147484E+02 -0.58280043771E+03  0.14656778435E+04  0.15782442833E+04  0.46999998093E+01 0. -1.
       -5    1    3    3    0  502  0.54452147484E+02  0.58280043771E+03 -0.79419849432E+03  0.98660768543E+03  0.46999998093E+01 0.  1.
</event>
<event>
 5   0  0.3579097E-05  0.2457628E+04  0.7818609E-02  0.8418238E-01
        2   -1    0    0  501    0  0.00000000000E+00  0.00000000000E+00  0.17131898756E+04  0.17131898756E+04  0.25500000920E-02 0.  1.
       -2   -1    0    0    0  501  0.00000000000E+00  0.00000000000E+00 -0.88138747223E+03  0.88138747223E+03  0.25500000920E-02 0. -1.
    10030    2    1    2    0    0  0.00000000000E+00  0.00000000000E+00  0.83180240336E+03  0.25945773478E+04  0.24576282013E+04 0.  0.
        5    1    3    3  502    0 -0.20508222732E+03  0.11314457348E+04 -0.41525712467E+02  0.11506409716E+04  0.46999998093E+01 0. -1.
       -5    1    3    3    0  502  0.20508222732E+03 -0.11314457348E+04  0.87332811583E+03  0.14439363762E+04  0.46999998093E+01 0.  1.
</event>
<event>
 5   0  0.1502886E-05  0.2496280E+04  0.7818609E-02  0.8404312E-01
        1   -1    0    0  501    0  0.00000000000E+00  0.00000000000E+00  0.18896930833E+04  0.18896930833E+04  0.50400001928E-02 0. -1.
       -1   -1    0    0    0  501  0.00000000000E+00  0.00000000000E+00 -0.82439504959E+03  0.82439504960E+03  0.50400001928E-02 0.  1.
    10030    2    1    2    0    0  0.00000000000E+00  0.00000000000E+00  0.10652980337E+04  0.27140881329E+04  0.24962801310E+04 0.  0.
        4    1    3    3  502    0  0.86097907186E+03 -0.25955964792E+03 -0.40843479720E+03  0.98766227500E+03  0.12699999809E+01 0.  1.
       -4    1    3    3    0  502 -0.86097907186E+03  0.25955964792E+03  0.14737328309E+04  0.17264258579E+04  0.12699999809E+01 0. -1.
</event>
<event>
 5   0  0.1421242E-05  0.2502456E+04  0.7818609E-02  0.8402111E-01
       -1   -1    0    0    0  501  0.00000000000E+00  0.00000000000E+00  0.10695311982E+04  0.10695311982E+04  0.50400001928E-02 0. -1.
        1   -1    0    0  501    0  0.00000000000E+00  0.00000000000E+00 -0.14637918348E+04  0.14637918348E+04  0.50400001928E-02 0.  1.
    10030    2    1    2    0    0  0.00000000000E+00  0.00000000000E+00 -0.39426063661E+03  0.25333230330E+04  0.25024556220E+04 0.  0.
        3    1    3    3  502    0  0.49562308980E+03 -0.82987603584E+03  0.60717245374E+03  0.11414880117E+04  0.10100000352E+00 0. -1.
       -3    1    3    3    0  502 -0.49562308980E+03  0.82987603584E+03 -0.10014330904E+04  0.13918350214E+04  0.10100000352E+00 0.  1.
</event>
<event>
 5   0  0.1492639E-05  0.2438477E+04  0.7818609E-02  0.8425237E-01
       -1   -1    0    0    0  501  0.00000000000E+00  0.00000000000E+00  0.15341468438E+04  0.15341468438E+04  0.50400001928E-02 0.  1.
        1   -1    0    0  501    0  0.00000000000E+00  0.00000000000E+00 -0.96897047782E+03  0.96897047783E+03  0.50400001928E-02 0. -1.
    10030    2    1    2    0    0  0.00000000000E+00  0.00000000000E+00  0.56517636598E+03  0.25031173216E+04  0.24384773940E+04 0.  0.
        5    1    3    3  502    0 -0.25856910256E+03 -0.24657267009E+02  0.15054069012E+04  0.15276576808E+04  0.46999998093E+01 0.  1.
       -5    1    3    3    0  502  0.25856910256E+03  0.24657267009E+02 -0.94023053519E+03  0.97545964084E+03  0.46999998093E+01 0. -1.
</event>
<event>
 5   0  0.3581449E-05  0.2585301E+04  0.7818609E-02  0.8373211E-01
        2   -1    0    0  501    0  0.00000000000E+00  0.00000000000E+00  0.21751456030E+04  0.21751456030E+04  0.25500000920E-02 0.  1.
       -2   -1    0    0    0  501  0.00000000000E+00  0.00000000000E+00 -0.76819953045E+03  0.76819953046E+03  0.25500000920E-02 0. -1.
    10030    2    1    2    0    0  0.00000000000E+00  0.00000000000E+00  0.14069460726E+04  0.29433451335E+04  0.25853013990E+04 0.  0.
        1    1    3    3  502    0  0.39434341997E+03 -0.11937939885E+04  0.10455799780E+04  0.16352028346E+04  0.50400001928E-02 0.  1.
       -1    1    3    3    0  502 -0.39434341997E+03  0.11937939885E+04  0.36136609452E+03  0.13081422989E+04  0.50400001928E-02 0. -1.
</event>
<event>
 5   0  0.3579097E-05  0.2590601E+04  0.7818609E-02  0.8371401E-01
       -2   -1    0    0    0  501  0.00000000000E+00  0.00000000000E+00  0.16895970624E+04  0.16895970624E+04  0.25500000920E-02 0. -1.
        2   -1    0    0  501    0  0.00000000000E+00  0.00000000000E+00 -0.99301977497E+03  0.99301977497E+03  0.25500000920E-02 0.  1.
    10030    2    1    2    0    0  0.00000000000E+00  0.00000000000E+00  0.69657728747E+03  0.26826168374E+04  0.25906009301E+04 0.  0.
        5    1    3    3  502    0  0.10996206187E+04 -0.65406880987E+03  0.55747809712E+03  0.13956272539E+04  0.46999998093E+01 0.  1.
       -5    1    3    3    0  502 -0.10996206187E+04  0.65406880987E+03  0.13909919034E+03  0.12869895835E+04  0.46999998093E+01 0. -1.
</event>
<event>
 5   0  0.1492639E-05  0.2605136E+04  0.7818609E-02  0.8366459E-01
        1   -1    0    0  501    0  0.00000000000E+00  0.00000000000E+00  0.15170846288E+04  0.15170846288E+04  0.50400001928E-02 0.  1.
       -1   -1    0    0    0  501  0.00000000000E+00  0.00000000000E+00 -0.11183845261E+04  0.11183845261E+04  0.50400001928E-02 0. -1.
    10030    2    1    2    0    0  0.00000000000E+00  0.00000000000E+00  0.39870010273E+03  0.26354691549E+04  0.26051364446E+04 0.  0.
        5    1    3    3  502    0  0.71579286440E+03 -0.10219293685E+04  0.57782210133E+03  0.13749907381E+04  0.46999998093E+01 0.  1.
       -5    1    3    3    0  502 -0.71579286440E+03  0.10219293685E+04 -0.17912199860E+03  0.12604784169E+04  0.46999998093E+01 0. -1.
</event>
<event>
 5   0  0.1456876E-05  0.2389299E+04  0.7818609E-02  0.8443521E-01
        1   -1    0    0  501    0  0.00000000000E+00  0.00000000000E+00  0.11501680744E+04  0.11501680744E+04  0.50400001928E-02 0.  1.
       -1   -1    0    0    0  501  0.00000000000E+00  0.00000000000E+00 -0.12408511477E+04  0.12408511477E+04  0.50400001928E-02 0. -1.
    10030    2    1    2    0    0  0.00000000000E+00  0.00000000000E+00 -0.90683073344E+02  0.23910192221E+04  0.23892989559E+04 0.  0.
        1    1    3    3  502    0  0.10425276752E+04 -0.19552345750E+03 -0.59536804846E+03  0.12163702106E+04  0.50400001928E-02 0. -1.
       -1    1    3    3    0  502 -0.10425276752E+04  0.19552345750E+03  0.50468497512E+03  0.11746490115E+04  0.50400001928E-02 0.  1.
</event>
<event>
 5   0  0.3578670E-05  0.2531130E+04  0.7818609E-02  0.8391978E-01
       -2   -1    0    0    0  501  0.00000000000E+00  0.00000000000E+00  0.77479654274E+03  0.77479654275E+03  0.25500000920E-02 0. -1.
        2   -1    0    0  501    0  0.00000000000E+00  0.00000000000E+00 -0.20671945926E+04  0.20671945926E+04  0.25500000920E-02 0.  1.
    10030    2    1    2    0    0  0.00000000000E+00  0.00000000000E+00 -0.12923980499E+04  0.28419911354E+04  0.25311303590E+04 0.  0.
        4    1    3    3  502    0 -0.94372011054E+03 -0.44850321581E+03 -0.14479634945E+04  0.17855986884E+04  0.12699999809E+01 0.  1.
       -4    1    3    3    0  502  0.94372011054E+03  0.44850321581E+03  0.15556544461E+03  0.10563924470E+04  0.12699999809E+01 0. -1.
</event>
<event>
 5   0  0.1456876E-05  0.2463403E+04  0.7818609E-02  0.8416141E-01
       -1   -1    0    0    0  501  0.00000000000E+00  0.00000000000E+00  0.65867086989E+03  0.65867086991E+03  0.50400001928E-02 0.  1.
        1   -1    0    0  501    0  0.00000000000E+00  0.00000000000E+00 -0.23032570667E+04  0.23032570667E+04  0.50400001928E-02 0. -1.
    10030    2    1    2    0    0  0.00000000000E+00  0.00000000000E+00 -0.16445861968E+04  0.29619279366E+04  0.24634027975E+04 0.  0.
        1    1    3    3  502    0 -0.17448260425E+03 -0.11821846992E+04 -0.46342266613E+03  0.12817041038E+04  0.50400001928E-02 0. -1.
       -1    1    3    3    0  502  0.17448260425E+03  0.11821846992E+04 -0.11811635307E+04  0.16802238328E+04  0.50400001928E-02 0.  1.
</event>
<event>
 5   0  0.3578670E-05  0.2544652E+04  0.7818609E-02  0.8387249E-01
        2   -1    0    0  501    0  0.00000000000E+00  0.00000000000E+00  0.20375958591E+04  0.20375958591E+04  0.25500000920E-02 0.  1.
       -2   -1    0    0    0  501  0.00000000000E+00  0.00000000000E+00 -0.79447199466E+03  0.79447199467E+03  0.25500000920E-02 0. -1.
    10030    2    1    2    0    0  0.00000000000E+00  0.00000000000E+00  0.12431238645E+04  0.28320678538E+04  0.25446515255E+04 0.  0.
        4    1    3    3  502    0  0.39877053975E+03  0.89246159031E+03  0.15279875467E+04  0.18139055073E+04  0.12699999809E+01 0.  1.
       -4    1    3    3    0  502 -0.39877053975E+03 -0.89246159031E+03 -0.28486368222E+03  0.10181623465E+04  0.12699999809E+01 0. -1.
</event>
<event>
 5   0  0.3581449E-05  0.1823463E+04  0.7818609E-02  0.8693921E-01
        2   -1    0    0  501    0  0.00000000000E+00  0.00000000000E+00  0.10427164249E+04  0.10427164249E+04  0.25500000920E-02 0.  1.
       -2   -1    0    0    0  501  0.00000000000E+00  0.00000000000E+00 -0.79720044719E+03  0.79720044719E+03  0.25500000920E-02 0. -1.
    10030    2    1    2    0    0  0.00000000000E+00  0.00000000000E+00  0.24551597768E+03  0.18399168721E+04  0.18234626404E+04 0.  0.
        1    1    3    3  502    0 -0.34976067788E+03  0.68514049832E+03  0.61656549455E+03  0.98585143065E+03  0.50400001928E-02 0.  1.
       -1    1    3    3    0  502  0.34976067788E+03 -0.68514049832E+03 -0.37104951687E+03  0.85406544141E+03  0.50400001928E-02 0. -1.
</event>
<event>
 5   0  0.1429483E-05  0.2561269E+04  0.7818609E-02  0.8381477E-01
       -1   -1    0    0    0  501  0.00000000000E+00  0.00000000000E+00  0.14967900543E+04  0.14967900543E+04  0.50400001928E-02 0.  1.
        1   -1    0    0  501    0  0.00000000000E+00  0.00000000000E+00 -0.10956946868E+04  0.10956946868E+04  0.50400001928E-02 0. -1.
    10030    2    1    2    0    0  0.00000000000E+00  0.00000000000E+00  0.40109536758E+03  0.25924847411E+04  0.25612691461E+04 0.  0.
        2    1    3    3  502    0  0.11101412229E+04 -0.28795100631E+03 -0.37621770132E+03  0.12070083163E+04  0.25500000920E-02 0.  1.
       -2    1    3    3    0  502 -0.11101412229E+04  0.28795100631E+03  0.77731306889E+03  0.13854764248E+04  0.25500000920E-02 0. -1.
</event>
<event>
 5   0  0.1456876E-05  0.2373201E+04  0.7818609E-02  0.8449605E-01
        1   -1    0    0  501    0  0.00000000000E+00  0.00000000000E+00  0.28083142554E+04  0.28083142554E+04  0.50400001928E-02 0. -1.
       -1   -1    0    0    0  501  0.00000000000E+00  0.00000000000E+00 -0.50137578258E+03  0.50137578260E+03  0.50400001928E-02 0.  1.
    10030    2    1    2    0    0  0.00000000000E+00  0.00000000000E+00  0.23069384728E+04  0.33096900380E+04  0.23732010092E+04 0.  0.
        1    1    3    3  502    0  0.92416846107E+03 -0.71374580374E+02  0.12029084808E+03  0.93469329907E+03  0.50400001928E-02 0.  1.
       -1    1    3    3    0  502 -0.92416846107E+03  0.71374580374E+02  0.21866476247E+04  0.23749967389E+04  0.50400001928E-02 0. -1.
</event>
<event>
 5   0  0.3578670E-05  0.2507399E+04  0.7818609E-02  0.8400354E-01
        2   -1    0    0  501    0  0.00000000000E+00  0.00000000000E+00  0.13024558423E+04  0.13024558423E+04  0.25500000920E-02 0. -1.
       -2   -1    0    0    0  501  0.00000000000E+00  0.00000000000E+00 -0.12067680398E+04  0.12067680399E+04  0.25500000920E-02 0.  1.
    10030    2    1    2    0    0  0.00000000000E+00  0.00000000000E+00  0.95687802468E+02  0.25092238822E+04  0.25073987189E+04 0.  0.
        4    1    3    3  502    0 -0.15808513976E+03 -0.32150549179E+03  0.12501358301E+04  0.13004606489E+04  0.12699999809E+01 0. -1.
       -4    1    3    3    0  502  0.15808513976E+03  0.32150549179E+03 -0.11544480277E+04  0.12087632333E+04  0.12699999809E+01 0.  1.
</event>
<event>
 5   0  0.1502886E-05  0.2510735E+04  0.7818609E-02  0.8399171E-01
       -1   -1    0    0    0  501  0.00000000000E+00  0.00000000000E+00  0.11767783349E+04  0.11767783349E+04  0.50400001928E-02 0. -1.
        1   -1    0    0  501    0  0.00000000000E+00  0.00000000000E+00 -0.13392049230E+04  0.13392049230E+04  0.50400001928E-02 0.  1.
    10030    2    1    2    0    0  0.00000000000E+00  0.00000000000E+00 -0.16242658810E+03  0.25159832579E+04  0.25107348242E+04 0.  0.
        4    1    3    3  502    0  0.90067914605E+03 -0.64923983599E+03 -0.66827958494E+03  0.12958913941E+04  0.12699999809E+01 0. -1.
       -4    1    3    3    0  502 -0.90067914605E+03  0.64923983599E+03  0.50585299683E+03  0.12200918638E+04  0.12699999809E+01 0.  1.
</event>
<event>
 5   0  0.3578670E-05  0.2523745E+04  0.7818609E-02  0.8394575E-01
       -2   -1    0    0    0  501  0.00000000000E+00  0.00000000000E+00  0.80323520633E+03  0.80323520634E+03  0.25500000920E-02 0.  1.
        2   -1    0    0  501    0  0.00000000000E+00  0.00000000000E+00 -0.19823854941E+04  0.19823854941E+04  0.25500000920E-02 0. -1.
    10030    2    1    2    0    0  0.00000000000E+00  0.00000000000E+00 -0.11791502877E+04  0.27856207004E+04  0.25237446950E+04 0.  0.
        4    1    3    3  502    0  0.47555186589E+03 -0.24821407947E+03  0.67111587248E+03  0.85916118022E+03  0.12699999809E+01 0.  1.
       -4    1    3    3    0  502 -0.47555186589E+03  0.24821407947E+03 -0.18502661602E+04  0.19264595202E+04  0.12699999809E+01 0. -1.
</event>
<event>
 5   0  0.1429483E-05  0.2265541E+04  0.7818609E-02  0.8491633E-01
        1   -1    0    0  501    0  0.00000000000E+00  0.00000000000E+00  0.10829419650E+04  0.10829419650E+04  0.50400001928E-02 0.  1.
       -1   -1    0    0    0  501  0.00000000000E+00  0.00000000000E+00 -0.11848922332E+04  0.11848922332E+04  0.50400001928E-02 0. -1.
    10030    2    1    2    0    0  0.00000000000E+00  0.00000000000E+00 -0.10195026813E+03  0.22678341982E+04  0.22655414570E+04 0.  0.
        2    1    3    3  502    0  0.32450688851E+02 -0.98862847375E+03  0.50160726399E+03  0.11090758106E+04  0.25500000920E-02 0.  1.
       -2    1    3    3    0  502 -0.32450688851E+02  0.98862847375E+03 -0.60355753211E+03  0.11587583876E+04  0.25500000920E-02 0. -1.
</event>
<event>
 5   0  0.3581449E-05  0.2486232E+04  0.7818609E-02  0.8407907E-01
       -2   -1    0    0    0  501  0.00000000000E+00  0.00000000000E+00  0.85300823632E+03  0.85300823632E+03  0.25500000920E-02 0. -1.
        2   -1    0    0  501    0  0.00000000000E+00  0.00000000000E+00 -0.18116329641E+04  0.18116329641E+04  0.25500000920E-02 0.  1.
    10030    2    1    2    0    0  0.00000000000E+00  0.00000000000E+00 -0.95862472783E+03  0.26646412005E+04  0.24862323621E+04 0.  0.
        1    1    3    3  502    0  0.58981239346E+03 -0.72627175968E+03  0.39795243104E+03  0.10167179873E+04  0.50400001928E-02 0. -1.
       -1    1    3    3    0  502 -0.58981239346E+03  0.72627175968E+03 -0.13565771589E+04  0.16479232131E+04  0.50400001928E-02 0.  1.
</event>
<event>
 5   0  0.1421242E-05  0.2511046E+04  0.7818609E-02  0.8399061E-01
        1   -1    0    0  501    0  0.00000000000E+00  0.00000000000E+00  0.14333128489E+04  0.14333128489E+04  0.50400001928E-02 0. -1.
       -1   -1    0    0    0  501  0.00000000000E+00  0.00000000000E+00 -0.10997867056E+04  0.10997867056E+04  0.50400001928E-02 0.  1.
    10030    2    1    2    0    0  0.00000000000E+00  0.00000000000E+00  0.33352614330E+03  0.25330995545E+04  0.25110463286E+04 0.  0.
        3    1    3    3  502    0  0.10522475970E+02 -0.45815379029E+02  0.14324247845E+04  0.14331959199E+04  0.10100000352E+00 0. -1.
       -3    1    3    3    0  502 -0.10522475970E+02  0.45815379029E+02 -0.10988986412E+04  0.10999036345E+04  0.10100000352E+00 0.  1.
</event>
<event>
 5   0  0.1456876E-05  0.2500668E+04  0.7818609E-02  0.8402748E-01
       -1   -1    0    0    0  501  0.00000000000E+00  0.00000000000E+00  0.11095682203E+04  0.11095682203E+04  0.50400001928E-02 0.  1.
        1   -1    0    0  501    0  0.00000000000E+00  0.00000000000E+00 -0.14089579291E+04  0.14089579291E+04  0.50400001928E-02 0. -1.
    10030    2    1    2    0    0  0.00000000000E+00  0.00000000000E+00 -0.29938970879E+03  0.25185261494E+04  0.25006678643E+04 0.  0.
        1    1    3    3  502    0 -0.68122598652E+03 -0.10344289588E+04  0.22472798949E+02  0.12387966509E+04  0.50400001928E-02 0.  1.
       -1    1    3    3    0  502  0.68122598652E+03  0.10344289588E+04 -0.32186250774E+03  0.12797294986E+04  0.50400001928E-02 0. -1.
</event>
<event>
 5   0  0.1421242E-05  0.2383175E+04  0.7818609E-02  0.8445830E-01
       -1   -1    0    0    0  501  0.00000000000E+00  0.00000000000E+00  0.14837798747E+04  0.14837798747E+04  0.50400001928E-02 0.  1.
        1   -1    0    0  501    0  0.00000000000E+00  0.00000000000E+00 -0.95693488265E+03  0.95693488266E+03  0.50400001928E-02 0. -1.
    10030    2    1    2    0    0  0.00000000000E+00  0.00000000000E+00  0.52684499208E+03  0.24407147574E+04  0.23831749582E+04 0.  0.
        3    1    3    3  502    0 -0.80010141960E+03 -0.86589456051E+03  0.44064690582E+03  0.12586124810E+04  0.10100000352E+00 0.  1.
       -3    1    3    3    0  502  0.80010141960E+03  0.86589456051E+03  0.86198086262E+02  0.11821022764E+04  0.10100000352E+00 0. -1.
</event>
<event>
 5   0  0.3650620E-05  0.2565810E+04  0.7818609E-02  0.8379908E-01
       -2   -1    0    0    0  501  0.00000000000E+00  0.00000000000E+00  0.10052108956E+04  0.10052108956E+04  0.25500000920E-02 0.  1.
        2   -1    0    0  501    0  0.00000000000E+00  0.00000000000E+00 -0.16373139511E+04  0.16373139511E+04  0.25500000920E-02 0. -1.
    10030    2    1    2    0    0  0.00000000000E+00  0.00000000000E+00 -0.63210305544E+03  0.26425248467E+04  0.25658104553E+04 0.  0.
        3    1    3    3  502    0 -0.11628103792E+04 -0.90868026176E+02  0.23420825989E+03  0.11896379682E+04  0.10100000352E+00 0.  1.
       -3    1    3    3    0  502  0.11628103792E+04  0.90868026176E+02 -0.86631131534E+03  0.14528868784E+04  0.10100000352E+00 0. -1.
</event>
<event>
 5   0  0.3704241E-05  0.2516620E+04  0.7818609E-02  0.8397088E-01
       -2   -1    0    0    0  501  0.00000000000E+00  0.00000000000E+00  0.15216859658E+04  0.15216859658E+04  0.25500000920E-02 0. -1.
        2   -1    0    0  501    0  0.00000000000E+00  0.00000000000E+00 -0.10405195826E+04  0.10405195826E+04  0.25500000920E-02 0.  1.
    10030    2    1    2    0    0  0.00000000000E+00  0.00000000000E+00  0.48116638320E+03  0.25622055485E+04  0.25166199920E+04 0.  0.
        2    1    3    3  502    0  0.16686849846E+01 -0.97473117318E+03 -0.56959515702E+03  0.11289562823E+04  0.25500000920E-02 0.  1.
       -2    1    3    3    0  502 -0.16686849846E+01  0.97473117318E+03  0.10507615402E+04  0.14332492661E+04  0.25500000920E-02 0. -1.
</event>
<event>
 5   0  0.1502886E-05  0.2492851E+04  0.7818609E-02  0.8405537E-01
       -1   -1    0    0    0  501  0.00000000000E+00  0.00000000000E+00  0.92462311124E+03  0.92462311126E+03  0.50400001928E-02 0.  1.
        1   -1    0    0  501    0  0.00000000000E+00  0.00000000000E+00 -0.16802264498E+04  0.16802264498E+04  0.50400001928E-02 0. -1.
    10030    2    1    2    0    0  0.00000000000E+00  0.00000000000E+00 -0.75560333851E+03  0.26048495610E+04  0.24928507437E+04 0.  0.
        4    1    3    3  502    0  0.74967376641E+03  0.70479838807E+03  0.35723895101E+03  0.10892074205E+04  0.12699999809E+01 0.  1.
       -4    1    3    3    0  502 -0.74967376641E+03 -0.70479838807E+03 -0.11128422895E+04  0.15156421405E+04  0.12699999809E+01 0. -1.
</event>
<event>
 5   0  0.3581449E-05  0.2490569E+04  0.7818609E-02  0.8406353E-01
        2   -1    0    0  501    0  0.00000000000E+00  0.00000000000E+00  0.12645539601E+04  0.12645539601E+04  0.25500000920E-02 0.  1.
       -2   -1    0    0    0  501  0.00000000000E+00  0.00000000000E+00 -0.12263082801E+04  0.12263082801E+04  0.25500000920E-02 0. -1.
    10030    2    1    2    0    0  0.00000000000E+00  0.00000000000E+00  0.38245679944E+02  0.24908622402E+04  0.24905686033E+04 0.  0.
        1    1    3    3  502    0  0.81628504878E+03 -0.48465831369E+03  0.82514467269E+03  0.12578070968E+04  0.50400001928E-02 0.  1.
       -1    1    3    3    0  502 -0.81628504878E+03  0.48465831369E+03 -0.78689899275E+03  0.12330551434E+04  0.50400001928E-02 0. -1.
</event>
<event>
 5   0  0.1429483E-05  0.1911522E+04  0.7818609E-02  0.8649142E-01
        1   -1    0    0  501    0  0.00000000000E+00  0.00000000000E+00  0.21293695741E+04  0.21293695741E+04  0.50400001928E-02 0.  1.
       -1   -1    0    0    0  501  0.00000000000E+00  0.00000000000E+00 -0.42899047094E+03  0.42899047097E+03  0.50400001928E-02 0. -1.
    10030    2    1    2    0    0  0.00000000000E+00  0.00000000000E+00  0.17003791031E+04  0.25583600450E+04  0.19115221751E+04 0.  0.
        2    1    3    3  502    0  0.25871127746E+03  0.40174606500E+03  0.19580229830E+04  0.20154863998E+04  0.25500000920E-02 0.  1.
       -2    1    3    3    0  502 -0.25871127746E+03 -0.40174606500E+03 -0.25764387990E+03  0.54287364522E+03  0.25500000920E-02 0. -1.
</event>
<event>
 5   0  0.1502886E-05  0.2427122E+04  0.7818609E-02  0.8429419E-01
       -1   -1    0    0    0  501  0.00000000000E+00  0.00000000000E+00  0.10095505323E+04  0.10095505323E+04  0.50400001928E-02 0. -1.
        1   -1    0    0  501    0  0.00000000000E+00  0.00000000000E+00 -0.14587976269E+04  0.14587976269E+04  0.50400001928E-02 0.  1.
    10030    2    1    2    0    0  0.00000000000E+00  0.00000000000E+00 -0.44924709460E+03  0.24683481593E+04  0.24271216870E+04 0.  0.
        4    1    3    3  502    0 -0.10724753351E+04  0.49104812635E+03  0.65523575331E+02  0.11813663947E+04  0.12699999809E+01 0.  1.
       -4    1    3    3    0  502  0.10724753351E+04 -0.49104812635E+03 -0.51477066993E+03  0.12869817645E+04  0.12699999809E+01 0. -1.
</event>
<event>
 5   0  0.3581449E-05  0.2445068E+04  0.7818609E-02  0.8422821E-01
        2   -1    0    0  501    0  0.00000000000E+00  0.00000000000E+00  0.14868542070E+04  0.14868542070E+04  0.25500000920E-02 0. -1.
       -2   -1    0    0    0  501  0.00000000000E+00  0.00000000000E+00 -0.10052027710E+04  0.10052027710E+04  0.25500000920E-02 0.  1.
    10030    2    1    2    0    0  0.00000000000E+00  0.00000000000E+00  0.48165143604E+03  0.24920569780E+04  0.24450684808E+04 0.  0.
        1    1    3    3  502    0  0.39620054183E+03  0.95629531528E+03  0.90379869680E+03  0.13741643583E+04  0.50400001928E-02 0. -1.
       -1    1    3    3    0  502 -0.39620054183E+03 -0.95629531528E+03 -0.42214726076E+03  0.11178926197E+04  0.50400001928E-02 0.  1.
</event>
<event>
 5   0  0.1456876E-05  0.2493405E+04  0.7818609E-02  0.8405339E-01
        1   -1    0    0  501    0  0.00000000000E+00  0.00000000000E+00  0.16409477865E+04  0.16409477865E+04  0.50400001928E-02 0.  1.
       -1   -1    0    0    0  501  0.00000000000E+00  0.00000000000E+00 -0.94717680049E+03  0.94717680050E+03  0.50400001928E-02 0. -1.
    10030    2    1    2    0    0  0.00000000000E+00  0.00000000000E+00  0.69377098601E+03  0.25881245870E+04  0.24934054417E+04 0.  0.
        1    1    3    3  502    0  0.12071726727E+04  0.30564682874E+03  0.40900738436E+03  0.13107146471E+04  0.50400001928E-02 0.  1.
       -1    1    3    3    0  502 -0.12071726727E+04 -0.30564682874E+03  0.28476360165E+03  0.12774099399E+04  0.50400001928E-02 0. -1.
</event>
<event>
 5   0  0.3581449E-05  0.2481602E+04  0.7818609E-02  0.8409569E-01
       -2   -1    0    0    0  501  0.00000000000E+00  0.00000000000E+00  0.78160767143E+03  0.78160767144E+03  0.25500000920E-02 0. -1.
        2   -1    0    0  501    0  0.00000000000E+00  0.00000000000E+00 -0.19697694734E+04  0.19697694734E+04  0.25500000920E-02 0.  1.
    10030    2    1    2    0    0  0.00000000000E+00  0.00000000000E+00 -0.11881618019E+04  0.27513771448E+04  0.24816018467E+04 0.  0.
        1    1    3    3  502    0  0.82683012434E+01 -0.22324046985E+03 -0.19472897982E+04  0.19600617925E+04  0.50400001928E-02 0.  1.
       -1    1    3    3    0  502 -0.82683012434E+01  0.22324046985E+03  0.75912799623E+03  0.79131535235E+03  0.50400001928E-02 0. -1.
</event>
<event>
 5   0  0.1502886E-05  0.2508397E+04  0.7818609E-02  0.8400000E-01
        1   -1    0    0  501    0  0.00000000000E+00  0.00000000000E+00  0.19980113008E+04  0.19980113008E+04  0.50400001928E-02 0. -1.
       -1   -1    0    0    0  501  0.00000000000E+00  0.00000000000E+00 -0.78728971422E+03  0.78728971424E+03  0.50400001928E-02 0.  1.
    10030    2    1    2    0    0  0.00000000000E+00  0.00000000000E+00  0.12107215866E+04  0.27853010150E+04  0.25083968953E+04 0.  0.
        4    1    3    3  502    0  0.98695161479E+03 -0.26221440391E+03  0.14138765250E+04  0.17440981407E+04  0.12699999809E+01 0. -1.
       -4    1    3    3    0  502 -0.98695161479E+03  0.26221440391E+03 -0.20315493847E+03  0.10412028743E+04  0.12699999809E+01 0.  1.
</event>
<event>
 5   0  0.3704241E-05  0.2490298E+04  0.7818609E-02  0.8406450E-01
        2   -1    0    0  501    0  0.00000000000E+00  0.00000000000E+00  0.11029595323E+04  0.11029595323E+04  0.25500000920E-02 0. -1.
       -2   -1    0    0    0  501  0.00000000000E+00  0.00000000000E+00 -0.14056691367E+04  0.14056691367E+04  0.25500000920E-02 0.  1.
    10030    2    1    2    0    0  0.00000000000E+00  0.00000000000E+00 -0.30270960444E+03  0.25086286691E+04  0.24902981136E+04 0.  0.
        2    1    3    3  502    0  0.77886687691E+03  0.36759267708E+02 -0.11292792154E+04  0.13723178940E+04  0.25500000920E-02 0.  1.
       -2    1    3    3    0  502 -0.77886687691E+03 -0.36759267708E+02  0.82656961100E+03  0.11363107751E+04  0.25500000920E-02 0. -1.
</event>
<event>
 5   0  0.3704241E-05  0.2561131E+04  0.7818609E-02  0.8381525E-01
        2   -1    0    0  501    0  0.00000000000E+00  0.00000000000E+00  0.24358020553E+04  0.24358020553E+04  0.25500000920E-02 0. -1.
       -2   -1    0    0    0  501  0.00000000000E+00  0.00000000000E+00 -0.67322732767E+03  0.67322732768E+03  0.25500000920E-02 0.  1.
    10030    2    1    2    0    0  0.00000000000E+00  0.00000000000E+00  0.17625747276E+04  0.31090293830E+04  0.25611313972E+04 0.  0.
        2    1    3    3  502    0 -0.11261848186E+04 -0.20041042291E+03  0.15801051135E+04  0.19506893020E+04  0.25500000920E-02 0. -1.
       -2    1    3    3    0  502  0.11261848186E+04  0.20041042291E+03  0.18246961415E+03  0.11583400810E+04  0.25500000920E-02 0.  1.
</event>
<event>
 5   0  0.1456876E-05  0.2494252E+04  0.7818609E-02  0.8405036E-01
       -1   -1    0    0    0  501  0.00000000000E+00  0.00000000000E+00  0.13955147164E+04  0.13955147164E+04  0.50400001928E-02 0.  1.
        1   -1    0    0  501    0  0.00000000000E+00  0.00000000000E+00 -0.11145158737E+04  0.11145158737E+04  0.50400001928E-02 0. -1.
    10030    2    1    2    0    0  0.00000000000E+00  0.00000000000E+00  0.28099884275E+03  0.25100305901E+04  0.24942520349E+04 0.  0.
        1    1    3    3  502    0 -0.11677421661E+04  0.22981018781E+02  0.58049916378E+03  0.13042734272E+04  0.50400001928E-02 0.  1.
       -1    1    3    3    0  502  0.11677421661E+04 -0.22981018781E+02 -0.29950032103E+03  0.12057571629E+04  0.50400001928E-02 0. -1.
</event>
<event>
 5   0  0.1492639E-05  0.2510014E+04  0.7818609E-02  0.8399427E-01
       -1   -1    0    0    0  501  0.00000000000E+00  0.00000000000E+00  0.99585123598E+03  0.99585123599E+03  0.50400001928E-02 0. -1.
        1   -1    0    0  501    0  0.00000000000E+00  0.00000000000E+00 -0.15816039418E+04  0.15816039418E+04  0.50400001928E-02 0.  1.
    10030    2    1    2    0    0  0.00000000000E+00  0.00000000000E+00 -0.58575270586E+03  0.25774551778E+04  0.25100137373E+04 0.  0.
        5    1    3    3  502    0 -0.28053873372E+03  0.66145050676E+03  0.76375203846E+03  0.10485981214E+04  0.46999998093E+01 0. -1.
       -5    1    3    3    0  502  0.28053873372E+03 -0.66145050676E+03 -0.13495047443E+04  0.15288570564E+04  0.46999998093E+01 0.  1.
</event>
<event>
 5   0  0.1429483E-05  0.2456863E+04  0.7818609E-02  0.8418517E-01
        1   -1    0    0  501    0  0.00000000000E+00  0.00000000000E+00  0.14740187582E+04  0.14740187582E+04  0.50400001928E-02 0. -1.
       -1   -1    0    0    0  501  0.00000000000E+00  0.00000000000E+00 -0.10237616572E+04  0.10237616572E+04  0.50400001928E-02 0.  1.
    10030    2    1    2    0    0  0.00000000000E+00  0.00000000000E+00  0.45025710095E+03  0.24977804154E+04  0.24568629483E+04 0.  0.
        2    1    3    3  502    0  0.11599083963E+04  0.36209906240E+03  0.40852315605E+03  0.12819494482E+04  0.25500000920E-02 0. -1.
       -2    1    3    3    0  502 -0.11599083963E+04 -0.36209906240E+03  0.41733944900E+02  0.12158309672E+04  0.25500000920E-02 0.  1.
</event>
<event>
 5   0  0.3650620E-05  0.2493284E+04  0.7818609E-02  0.8405382E-01
        2   -1    0    0  501    0  0.00000000000E+00  0.00000000000E+00  0.99402753414E+03  0.99402753414E+03  0.25500000920E-02 0.  1.
       -2   -1    0    0    0  501  0.00000000000E+00  0.00000000000E+00 -0.15634537516E+04  0.15634537516E+04  0.25500000920E-02 0. -1.
    10030    2    1    2    0    0  0.00000000000E+00  0.00000000000E+00 -0.56942621750E+03  0.25574812858E+04  0.24932838406E+04 0.  0.
        3    1    3    3  502    0 -0.54429476536E+03 -0.93330827442E+03 -0.92265501902E+03  0.14207791598E+04  0.10100000352E+00 0. -1.
       -3    1    3    3    0  502  0.54429476536E+03  0.93330827442E+03  0.35322880152E+03  0.11367021259E+04  0.10100000352E+00 0.  1.
</event>
<event>
 5   0  0.1429483E-05  0.2440981E+04  0.7818609E-02  0.8424318E-01
        1   -1    0    0  501    0  0.00000000000E+00  0.00000000000E+00  0.15328310338E+04  0.15328310338E+04  0.50400001928E-02 0. -1.
       -1   -1    0    0    0  501  0.00000000000E+00  0.00000000000E+00 -0.97179464607E+03  0.97179464608E+03  0.50400001928E-02 0.  1.
    10030    2    1    2    0    0  0.00000000000E+00  0.00000000000E+00  0.56103638770E+03  0.25046256799E+04  0.24409809438E+04 0.  0.
        2    1    3    3  502    0 -0.36736652633E+03 -0.92334528578E+03 -0.44652728038E+03  0.10894545854E+04  0.25500000920E-02 0.  1.
       -2    1    3    3    0  502  0.36736652633E+03  0.92334528578E+03  0.10075636681E+04  0.14151710945E+04  0.25500000920E-02 0. -1.
</event>
<event>
 5   0  0.1456876E-05  0.2502986E+04  0.7818609E-02  0.8401922E-01
        1   -1    0    0  501    0  0.00000000000E+00  0.00000000000E+00  0.13887383439E+04  0.13887383439E+04  0.50400001928E-02 0. -1.
       -1   -1    0    0    0  501  0.00000000000E+00  0.00000000000E+00 -0.11278113336E+04  0.11278113336E+04  0.50400001928E-02 0.  1.
    10030    2    1    2    0    0  0.00000000000E+00  0.00000000000E+00  0.26092701026E+03  0.25165496775E+04  0.25029860916E+04 0.  0.
        1    1    3    3  502    0 -0.78042041022E+03  0.64466062494E+03 -0.60945347456E+03  0.11815569710E+04  0.50400001928E-02 0.  1.
       -1    1    3    3    0  502  0.78042041022E+03 -0.64466062494E+03  0.87038048482E+03  0.13349927065E+04  0.50400001928E-02 0. -1.
</event>
<event>
 5   0  0.3581449E-05  0.1918259E+04  0.7818609E-02  0.8645821E-01
        2   -1    0    0  501    0  0.00000000000E+00  0.00000000000E+00  0.12332437887E+04  0.12332437887E+04  0.25500000920E-02 0. -1.
       -2   -1    0    0    0  501  0.00000000000E+00  0.00000000000E+00 -0.74594277455E+03  0.74594277456E+03  0.25500000920E-02 0.  1.
    10030    2    1    2    0    0  0.00000000000E+00  0.00000000000E+00  0.48730101412E+03  0.19791865632E+04  0.19182588912E+04 0.  0.
        1    1    3    3  502    0 -0.55288467891E+03 -0.61195694250E+03 -0.26155111045E+03  0.86520618991E+03  0.50400001928E-02 0.  1.
       -1    1    3    3    0  502  0.55288467891E+03  0.61195694250E+03  0.74885212457E+03  0.11139803733E+04  0.50400001928E-02 0. -1.
</event>
<event>
 5   0  0.1201438E-05  0.2496002E+04  0.7818609E-02  0.8404411E-01
       -3   -1    0    0    0  501  0.00000000000E+00  0.00000000000E+00  0.13802947940E+04  0.13802947977E+04  0.10100000352E+00 0.  1.
        3   -1    0    0  501    0  0.00000000000E+00  0.00000000000E+00 -0.11283871755E+04  0.11283871801E+04  0.10100000352E+00 0. -1.
    10030    2    1    2    0    0  0.00000000000E+00  0.00000000000E+00  0.25190761850E+03  0.25086819778E+04  0.24960023673E+04 0.  0.
        1    1    3    3  502    0 -0.82653584122E+03 -0.76260712019E+03 -0.41788254162E+03  0.11997320264E+04  0.50400001928E-02 0. -1.
       -1    1    3    3    0  502  0.82653584122E+03  0.76260712019E+03  0.66979016011E+03  0.13089499514E+04  0.50400001928E-02 0.  1.
</event>
<event>
 5   0  0.1492639E-05  0.2476659E+04  0.7818609E-02  0.8411348E-01
       -1   -1    0    0    0  501  0.00000000000E+00  0.00000000000E+00  0.57453961299E+03  0.57453961301E+03  0.50400001928E-02 0. -1.
        1   -1    0    0  501    0  0.00000000000E+00  0.00000000000E+00 -0.26690239172E+04  0.26690239172E+04  0.50400001928E-02 0.  1.
    10030    2    1    2    0    0  0.00000000000E+00  0.00000000000E+00 -0.20944843042E+04  0.32435635302E+04  0.24766590145E+04 0.  0.
        5    1    3    3  502    0  0.56281937179E+03  0.39851164727E+03 -0.23942509525E+04  0.24915932437E+04  0.46999998093E+01 0.  1.
       -5    1    3    3    0  502 -0.56281937179E+03 -0.39851164727E+03  0.29976664838E+03  0.75197028648E+03  0.46999998093E+01 0. -1.
</event>
<event>
 5   0  0.3704241E-05  0.2476891E+04  0.7818609E-02  0.8411265E-01
       -2   -1    0    0    0  501  0.00000000000E+00  0.00000000000E+00  0.18747395490E+04  0.18747395490E+04  0.25500000920E-02 0.  1.
        2   -1    0    0  501    0  0.00000000000E+00  0.00000000000E+00 -0.81811226214E+03  0.81811226214E+03  0.25500000920E-02 0. -1.
    10030    2    1    2    0    0  0.00000000000E+00  0.00000000000E+00  0.10566272869E+04  0.26928518112E+04  0.24768911267E+04 0.  0.
        2    1    3    3  502    0 -0.78613497319E+03  0.46734210040E+03 -0.37955892128E+03  0.99019281436E+03  0.25500000920E-02 0. -1.
       -2    1    3    3    0  502  0.78613497319E+03 -0.46734210040E+03  0.14361862082E+04  0.17026589968E+04  0.25500000920E-02 0.  1.
</event>
<event>
 5   0  0.3704241E-05  0.2553456E+04  0.7818609E-02  0.8384185E-01
        2   -1    0    0  501    0  0.00000000000E+00  0.00000000000E+00  0.17462924441E+04  0.17462924441E+04  0.25500000920E-02 0. -1.
       -2   -1    0    0    0  501  0.00000000000E+00  0.00000000000E+00 -0.93342591739E+03  0.93342591739E+03  0.25500000920E-02 0.  1.
    10030    2    1    2    0    0  0.00000000000E+00  0.00000000000E+00  0.81286652673E+03  0.26797183615E+04  0.25534561885E+04 0.  0.
        2    1    3    3  502    0 -0.79344465566E+03  0.17918065001E+03  0.14391528492E+04  0.16531246324E+04  0.25500000920E-02 0. -1.
       -2    1    3    3    0  502  0.79344465566E+03 -0.17918065001E+03 -0.62628632246E+03  0.10265937291E+04  0.25500000920E-02 0.  1.
</event>
<event>
 5   0  0.1421242E-05  0.2476764E+04  0.7818609E-02  0.8411311E-01
       -1   -1    0    0    0  501  0.00000000000E+00  0.00000000000E+00  0.79281594558E+03  0.79281594560E+03  0.50400001928E-02 0.  1.
        1   -1    0    0  501    0  0.00000000000E+00  0.00000000000E+00 -0.19343579506E+04  0.19343579506E+04  0.50400001928E-02 0. -1.
    10030    2    1    2    0    0  0.00000000000E+00  0.00000000000E+00 -0.11415420050E+04  0.27271738962E+04  0.24767638787E+04 0.  0.
        3    1    3    3  502    0 -0.59078812778E+03 -0.31934034311E+03  0.57489603105E+03  0.88403298772E+03  0.10100000352E+00 0.  1.
       -3    1    3    3    0  502  0.59078812778E+03  0.31934034311E+03 -0.17164380360E+04  0.18431409085E+04  0.10100000352E+00 0. -1.
</event>
<event>
 5   0  0.3579097E-05  0.2493266E+04  0.7818609E-02  0.8405388E-01
        2   -1    0    0  501    0  0.00000000000E+00  0.00000000000E+00  0.12678062042E+04  0.12678062042E+04  0.25500000920E-02 0.  1.
       -2   -1    0    0    0  501  0.00000000000E+00  0.00000000000E+00 -0.12258134921E+04  0.12258134921E+04  0.25500000920E-02 0. -1.
    10030    2    1    2    0    0  0.00000000000E+00  0.00000000000E+00  0.41992712165E+02  0.24936196963E+04  0.24932660913E+04 0.  0.
        5    1    3    3  502    0  0.20764264751E+03  0.27130882797E+03 -0.11780681297E+04  0.12266175270E+04  0.46999998093E+01 0. -1.
       -5    1    3    3    0  502 -0.20764264751E+03 -0.27130882797E+03  0.12200608419E+04  0.12670021694E+04  0.46999998093E+01 0.  1.
</event>
<event>
 5   0  0.1502886E-05  0.2349132E+04  0.7818609E-02  0.8458797E-01
        1   -1    0    0  501    0  0.00000000000E+00  0.00000000000E+00  0.14903691592E+04  0.14903691593E+04  0.50400001928E-02 0. -1.
       -1   -1    0    0    0  501  0.00000000000E+00  0.00000000000E+00 -0.92568021806E+03  0.92568021807E+03  0.50400001928E-02 0.  1.
    10030    2    1    2    0    0  0.00000000000E+00  0.00000000000E+00  0.56468894119E+03  0.24160493773E+04  0.23491319659E+04 0.  0.
        4    1    3    3  502    0 -0.21611636734E+03  0.10551079987E+04  0.76435721411E+03  0.13206826783E+04  0.12699999809E+01 0. -1.
       -4    1    3    3    0  502  0.21611636734E+03 -0.10551079987E+04 -0.19966827292E+03  0.10953666990E+04  0.12699999809E+01 0.  1.
</event>
<event>
 5   0  0.3704241E-05  0.2556535E+04  0.7818609E-02  0.8383117E-01
        2   -1    0    0  501    0  0.00000000000E+00  0.00000000000E+00  0.27266869961E+04  0.27266869961E+04  0.25500000920E-02 0.  1.
       -2   -1    0    0    0  501  0.00000000000E+00  0.00000000000E+00 -0.59925036237E+03  0.59925036237E+03  0.25500000920E-02 0. -1.
    10030    2    1    2    0    0  0.00000000000E+00  0.00000000000E+00  0.21274366337E+04  0.33259373585E+04  0.25565352886E+04 0.  0.
        2    1    3    3  502    0  0.39256545487E+01  0.72603189036E+03 -0.30496452720E+03  0.78749036784E+03  0.25500000920E-02 0. -1.
       -2    1    3    3    0  502 -0.39256545487E+01 -0.72603189036E+03  0.24324011609E+04  0.25384469906E+04  0.25500000920E-02 0.  1.
</event>
<event>
 5   0  0.1492639E-05  0.2010237E+04  0.7818609E-02  0.8601849E-01
        1   -1    0    0  501    0  0.00000000000E+00  0.00000000000E+00  0.13461417502E+04  0.13461417502E+04  0.50400001928E-02 0.  1.
       -1   -1    0    0    0  501  0.00000000000E+00  0.00000000000E+00 -0.75048805489E+03  0.75048805491E+03  0.50400001928E-02 0. -1.
    10030    2    1    2    0    0  0.00000000000E+00  0.00000000000E+00  0.59565369528E+03  0.20966298051E+04  0.20102371041E+04 0.  0.
        5    1    3    3  502    0 -0.23474961369E+03  0.97726738035E+03  0.28836503988E+03  0.10456267977E+04  0.46999998093E+01 0. -1.
       -5    1    3    3    0  502  0.23474961369E+03 -0.97726738035E+03  0.30728865540E+03  0.10510030074E+04  0.46999998093E+01 0.  1.
</event>
<event>
 5   0  0.1201438E-05  0.1810223E+04  0.7818609E-02  0.8700882E-01
        3   -1    0    0  501    0  0.00000000000E+00  0.00000000000E+00  0.68983631591E+03  0.68983632330E+03  0.10100000352E+00 0.  1.
       -3   -1    0    0    0  501  0.00000000000E+00  0.00000000000E+00 -0.11875667944E+04  0.11875667987E+04  0.10100000352E+00 0. -1.
    10030    2    1    2    0    0  0.00000000000E+00  0.00000000000E+00 -0.49773047852E+03  0.18774031220E+04  0.18102228739E+04 0.  0.
        1    1    3    3  502    0 -0.58778280551E+03  0.50704506982E+03 -0.73158847375E+03  0.10666794384E+04  0.50400001928E-02 0. -1.
       -1    1    3    3    0  502  0.58778280551E+03 -0.50704506982E+03  0.23385799523E+03  0.81072368366E+03  0.50400001928E-02 0.  1.
</event>
<event>
 5   0  0.1429483E-05  0.2501162E+04  0.7818609E-02  0.8402572E-01
       -1   -1    0    0    0  501  0.00000000000E+00  0.00000000000E+00  0.78008127715E+03  0.78008127717E+03  0.50400001928E-02 0. -1.
        1   -1    0    0  501    0  0.00000000000E+00  0.00000000000E+00 -0.20048588952E+04  0.20048588952E+04  0.50400001928E-02 0.  1.
    10030    2    1    2    0    0  0.00000000000E+00  0.00000000000E+00 -0.12247776181E+04  0.27849401724E+04  0.25011620400E+04 0.  0.
        2    1    3    3  502    0  0.61740833294E+03  0.21307251282E+03 -0.17998597899E+04  0.19147031646E+04  0.25500000920E-02 0.  1.
       -2    1    3    3    0  502 -0.61740833294E+03 -0.21307251282E+03  0.57508217184E+03  0.87023700776E+03  0.25500000920E-02 0. -1.
</event>
<event>
 5   0  0.1492639E-05  0.2483804E+04  0.7818609E-02  0.8408778E-01
        1   -1    0    0  501    0  0.00000000000E+00  0.00000000000E+00  0.92456777044E+03  0.92456777045E+03  0.50400001928E-02 0.  1.
       -1   -1    0    0    0  501  0.00000000000E+00  0.00000000000E+00 -0.16681528955E+04  0.16681528955E+04  0.50400001928E-02 0. -1.
    10030    2    1    2    0    0  0.00000000000E+00  0.00000000000E+00 -0.74358512510E+03  0.25927206660E+04  0.24838038597E+04 0.  0.
        5    1    3    3  502    0 -0.80268701611E+02 -0.65848059522E+03  0.72413076365E+03  0.98205255033E+03  0.46999998093E+01 0.  1.
       -5    1    3    3    0  502  0.80268701611E+02  0.65848059522E+03 -0.14677158888E+04  0.16106681157E+04  0.46999998093E+01 0. -1.
</event>
<event>
 5   0  0.3704241E-05  0.2570775E+04  0.7818609E-02  0.8378197E-01
       -2   -1    0    0    0  501  0.00000000000E+00  0.00000000000E+00  0.13495290665E+04  0.13495290665E+04  0.25500000920E-02 0. -1.
        2   -1    0    0  501    0  0.00000000000E+00  0.00000000000E+00 -0.12242942241E+04  0.12242942241E+04  0.25500000920E-02 0.  1.
    10030    2    1    2    0    0  0.00000000000E+00  0.00000000000E+00  0.12523484239E+03  0.25738232906E+04  0.25707747014E+04 0.  0.
        2    1    3    3  502    0 -0.95078557758E+03  0.40927186695E+03  0.82557358097E+03  0.13240348988E+04  0.25500000920E-02 0. -1.
       -2    1    3    3    0  502  0.95078557758E+03 -0.40927186695E+03 -0.70033873857E+03  0.12497883918E+04  0.25500000920E-02 0.  1.
</event>
<event>
 5   0  0.3704241E-05  0.2492509E+04  0.7818609E-02  0.8405659E-01
        2   -1    0    0  501    0  0.00000000000E+00  0.00000000000E+00  0.21044018355E+04  0.21044018355E+04  0.25500000920E-02 0. -1.
       -2   -1    0    0    0  501  0.00000000000E+00  0.00000000000E+00 -0.73804861730E+03  0.73804861731E+03  0.25500000920E-02 0.  1.
    10030    2    1    2    0    0  0.00000000000E+00  0.00000000000E+00  0.13663532182E+04  0.28424504528E+04  0.24925094703E+04 0.  0.
        2    1    3    3  502    0 -0.24704607632E+03 -0.28955434981E+03 -0.67014241790E+03  0.77069082361E+03  0.25500000920E-02 0.  1.
       -2    1    3    3    0  502  0.24704607632E+03  0.28955434981E+03  0.20364956361E+04  0.20717596292E+04  0.25500000920E-02 0. -1.
</event>
<event>
 5   0  0.1502886E-05  0.2475397E+04  0.7818609E-02  0.8411803E-01
       -1   -1    0    0    0  501  0.00000000000E+00  0.00000000000E+00  0.12306137009E+04  0.12306137009E+04  0.50400001928E-02 0.  1.
        1   -1    0    0  501    0  0.00000000000E+00  0.00000000000E+00 -0.12448241415E+04  0.12448241415E+04  0.50400001928E-02 0. -1.
    10030    2    1    2    0    0  0.00000000000E+00  0.00000000000E+00 -0.14210440661E+02  0.24754378424E+04  0.24753970540E+04 0.  0.
        4    1    3    3  502    0  0.19678672240E+03 -0.46096073617E+02  0.12139989139E+04  0.12307090793E+04  0.12699999809E+01 0.  1.
       -4    1    3    3    0  502 -0.19678672240E+03  0.46096073617E+02 -0.12282093546E+04  0.12447287631E+04  0.12699999809E+01 0. -1.
</event>
<event>
 5   0  0.3578670E-05  0.2463919E+04  0.7818609E-02  0.8415954E-01
        2   -1    0    0  501    0  0.00000000000E+00  0.00000000000E+00  0.22415198730E+04  0.22415198730E+04  0.25500000920E-02 0. -1.
       -2   -1    0    0    0  501  0.00000000000E+00  0.00000000000E+00 -0.67709586927E+03  0.67709586928E+03  0.25500000920E-02 0.  1.
    10030    2    1    2    0    0  0.00000000000E+00  0.00000000000E+00  0.15644240037E+04  0.29186157423E+04  0.24639187056E+04 0.  0.
        4    1    3    3  502    0 -0.11241379370E+04 -0.18827553225E+03  0.22839771172E+03  0.11624546895E+04  0.12699999809E+01 0.  1.
       -4    1    3    3    0  502  0.11241379370E+04  0.18827553225E+03  0.13360262920E+04  0.17561610528E+04  0.12699999809E+01 0. -1.
</event>
<event>
 5   0  0.1201438E-05  0.2489754E+04  0.7818609E-02  0.8406645E-01
        3   -1    0    0  501    0  0.00000000000E+00  0.00000000000E+00  0.72464885906E+03  0.72464886610E+03  0.10100000352E+00 0. -1.
       -3   -1    0    0    0  501  0.00000000000E+00  0.00000000000E+00 -0.21385788962E+04  0.21385788985E+04  0.10100000352E+00 0.  1.
    10030    2    1    2    0    0  0.00000000000E+00  0.00000000000E+00 -0.14139300371E+04  0.28632277646E+04  0.24897540205E+04 0.  0.
        1    1    3    3  502    0 -0.84077994134E+03 -0.48542708275E+03  0.18912994759E+03  0.98910085407E+03  0.50400001928E-02 0. -1.
       -1    1    3    3    0  502  0.84077994134E+03  0.48542708275E+03 -0.16030599847E+04  0.18741269106E+04  0.50400001928E-02 0.  1.
</event>
<event>
 5   0  0.1421242E-05  0.1979523E+04  0.7818609E-02  0.8616255E-01
        1   -1    0    0  501    0  0.00000000000E+00  0.00000000000E+00  0.67636673788E+03  0.67636673790E+03  0.50400001928E-02 0.  1.
       -1   -1    0    0    0  501  0.00000000000E+00  0.00000000000E+00 -0.14483672434E+04  0.14483672434E+04  0.50400001928E-02 0. -1.
    10030    2    1    2    0    0  0.00000000000E+00  0.00000000000E+00 -0.77200050551E+03  0.21247339813E+04  0.19795225967E+04 0.  0.
        3    1    3    3  502    0 -0.14597946873E+03 -0.97218069173E+03 -0.26276452183E+03  0.10175905398E+04  0.10100000352E+00 0.  1.
       -3    1    3    3    0  502  0.14597946873E+03  0.97218069173E+03 -0.50923598368E+03  0.11071434414E+04  0.10100000352E+00 0. -1.
</event>
<event>
 5   0  0.3704241E-05  0.2547573E+04  0.7818609E-02  0.8386231E-01
       -2   -1    0    0    0  501  0.00000000000E+00  0.00000000000E+00  0.12454569213E+04  0.12454569213E+04  0.25500000920E-02 0.  1.
        2   -1    0    0  501    0  0.00000000000E+00  0.00000000000E+00 -0.13027601123E+04  0.13027601123E+04  0.25500000920E-02 0. -1.
    10030    2    1    2    0    0  0.00000000000E+00  0.00000000000E+00 -0.57303191012E+02  0.25482170336E+04  0.25475726476E+04 0.  0.
        2    1    3    3  502    0 -0.39394714738E+03 -0.22211437499E+03  0.11624486863E+04  0.12473235742E+04  0.25500000920E-02 0.  1.
       -2    1    3    3    0  502  0.39394714738E+03  0.22211437499E+03 -0.12197518773E+04  0.13008934594E+04  0.25500000920E-02 0. -1.
</event>
<event>
 5   0  0.1456876E-05  0.2146926E+04  0.7818609E-02  0.8540849E-01
        1   -1    0    0  501    0  0.00000000000E+00  0.00000000000E+00  0.15649868800E+04  0.15649868800E+04  0.50400001928E-02 0.  1.
       -1   -1    0    0    0  501  0.00000000000E+00  0.00000000000E+00 -0.73631448781E+03  0.73631448783E+03  0.50400001928E-02 0. -1.
    10030    2    1    2    0    0  0.00000000000E+00  0.00000000000E+00  0.82867239219E+03  0.23013013678E+04  0.21469257211E+04 0.  0.
        1    1    3    3  502    0  0.11462835220E+03 -0.88822440656E+03 -0.22002923443E+03  0.92222292292E+03  0.50400001928E-02 0. -1.
       -1    1    3    3    0  502 -0.11462835220E+03  0.88822440656E+03  0.10487016266E+04  0.13790784449E+04  0.50400001928E-02 0.  1.
</event>
<event>
 5   0  0.3704241E-05  0.2456886E+04  0.7818609E-02  0.8418508E-01
       -2   -1    0    0    0  501  0.00000000000E+00  0.00000000000E+00  0.12817353554E+04  0.12817353554E+04  0.25500000920E-02 0. -1.
        2   -1    0    0  501    0  0.00000000000E+00  0.00000000000E+00 -0.11773663894E+04  0.11773663894E+04  0.25500000920E-02 0.  1.
    10030    2    1    2    0    0  0.00000000000E+00  0.00000000000E+00  0.10436896602E+03  0.24591017448E+04  0.24568859375E+04 0.  0.
        2    1    3    3  502    0  0.13515358822E+03 -0.63555360626E+03  0.10956587713E+04  0.12738379104E+04  0.25500000920E-02 0. -1.
       -2    1    3    3    0  502 -0.13515358822E+03  0.63555360626E+03 -0.99128980533E+03  0.11852638343E+04  0.25500000920E-02 0.  1.
</event>
<event>
 5   0  0.3704241E-05  0.2485831E+04  0.7818609E-02  0.8408051E-01
        2   -1    0    0  501    0  0.00000000000E+00  0.00000000000E+00  0.26412298347E+04  0.26412298347E+04  0.25500000920E-02 0.  1.
       -2   -1    0    0    0  501  0.00000000000E+00  0.00000000000E+00 -0.58489375297E+03  0.58489375298E+03  0.25500000920E-02 0. -1.
    10030    2    1    2    0    0  0.00000000000E+00  0.00000000000E+00  0.20563360817E+04  0.32261235877E+04  0.24858309118E+04 0.  0.
        2    1    3    3  502    0  0.25536431586E+02  0.33681986924E+03 -0.52418193321E+03  0.62359155924E+03  0.25500000920E-02 0. -1.
       -2    1    3    3    0  502 -0.25536431586E+02 -0.33681986924E+03  0.25805180149E+04  0.26025320284E+04  0.25500000920E-02 0.  1.
</event>
<event>
 5   0  0.1421242E-05  0.2485764E+04  0.7818609E-02  0.8408075E-01
        1   -1    0    0  501    0  0.00000000000E+00  0.00000000000E+00  0.30374273239E+04  0.30374273239E+04  0.50400001928E-02 0. -1.
       -1   -1    0    0    0  501  0.00000000000E+00  0.00000000000E+00 -0.50857360479E+03  0.50857360482E+03  0.50400001928E-02 0.  1.
    10030    2    1    2    0    0  0.00000000000E+00  0.00000000000E+00  0.25288537191E+04  0.35460009287E+04  0.24857637566E+04 0.  0.
        3    1    3    3  502    0  0.84175479090E+01 -0.12237801523E+04  0.95501049002E+03  0.15523381598E+04  0.10100000352E+00 0. -1.
       -3    1    3    3    0  502 -0.84175479090E+01  0.12237801523E+04  0.15738432291E+04  0.19936627689E+04  0.10100000352E+00 0.  1.
</event>
<event>
 5   0  0.1456876E-05  0.2502419E+04  0.7818609E-02  0.8402124E-01
       -1   -1    0    0    0  501  0.00000000000E+00  0.00000000000E+00  0.97583841952E+03  0.97583841954E+03  0.50400001928E-02 0. -1.
        1   -1    0    0  501    0  0.00000000000E+00  0.00000000000E+00 -0.16042869704E+04  0.16042869704E+04  0.50400001928E-02 0.  1.
    10030    2    1    2    0    0  0.00000000000E+00  0.00000000000E+00 -0.62844855085E+03  0.25801253899E+04  0.25024187193E+04 0.  0.
        1    1    3    3  502    0  0.11717183329E+04  0.42984315034E+03 -0.22295499822E+03  0.12678319750E+04  0.50400001928E-02 0. -1.
       -1    1    3    3    0  502 -0.11717183329E+04 -0.42984315034E+03 -0.40549355263E+03  0.13122934149E+04  0.50400001928E-02 0.  1.
</event>
<event>
 5   0  0.1421242E-05  0.2503468E+04  0.7818609E-02  0.8401751E-01
        1   -1    0    0  501    0  0.00000000000E+00  0.00000000000E+00  0.10730041867E+04  0.10730041867E+04  0.50400001928E-02 0. -1.
       -1   -1    0    0    0  501  0.00000000000E+00  0.00000000000E+00 -0.14602347782E+04  0.14602347782E+04  0.50400001928E-02 0.  1.
    10030    2    1    2    0    0  0.00000000000E+00  0.00000000000E+00 -0.38723059148E+03  0.25332389649E+04  0.25034680190E+04 0.  0.
        3    1    3    3  502    0 -0.11601608761E+04 -0.20838857109E+02  0.28146821648E+03  0.11939982762E+04  0.10100000352E+00 0. -1.
       -3    1    3    3    0  502  0.11601608761E+04  0.20838857109E+02 -0.66869880796E+03  0.13392406887E+04  0.10100000352E+00 0.  1.
</event>
<event>
 5   0  0.1201438E-05  0.2545946E+04  0.7818609E-02  0.8386797E-01
       -3   -1    0    0    0  501  0.00000000000E+00  0.00000000000E+00  0.10765905218E+04  0.10765905265E+04  0.10100000352E+00 0.  1.
        3   -1    0    0  501    0  0.00000000000E+00  0.00000000000E+00 -0.15051780927E+04  0.15051780961E+04  0.10100000352E+00 0. -1.
    10030    2    1    2    0    0  0.00000000000E+00  0.00000000000E+00 -0.42858757094E+03  0.25817686227E+04  0.25459461728E+04 0.  0.
        5    1    3    3  502    0 -0.31424350715E+03  0.66974354543E+03  0.83620335362E+03  0.11164960981E+04  0.46999998093E+01 0.  1.
       -5    1    3    3    0  502  0.31424350715E+03 -0.66974354543E+03 -0.12647909246E+04  0.14652725246E+04  0.46999998093E+01 0. -1.
</event>
<event>
 5   0  0.1502886E-05  0.2516375E+04  0.7818609E-02  0.8397175E-01
        1   -1    0    0  501    0  0.00000000000E+00  0.00000000000E+00  0.68606380174E+03  0.68606380176E+03  0.50400001928E-02 0. -1.
       -1   -1    0    0    0  501  0.00000000000E+00  0.00000000000E+00 -0.23074179996E+04  0.23074179996E+04  0.50400001928E-02 0.  1.
    10030    2    1    2    0    0  0.00000000000E+00  0.00000000000E+00 -0.16213541978E+04  0.29934818013E+04  0.25163751430E+04 0.  0.
        4    1    3    3  502    0  0.61942472428E+03 -0.90804637516E+03 -0.15389606995E+04  0.18911998456E+04  0.12699999809E+01 0.  1.
       -4    1    3    3    0  502 -0.61942472428E+03  0.90804637516E+03 -0.82393498342E+02  0.11022819557E+04  0.12699999809E+01 0. -1.
</event>
<event>
 5   0  0.1502886E-05  0.2499039E+04  0.7818609E-02  0.8403328E-01
        1   -1    0    0  501    0  0.00000000000E+00  0.00000000000E+00  0.14463728819E+04  0.14463728819E+04  0.50400001928E-02 0.  1.
       -1   -1    0    0    0  501  0.00000000000E+00  0.00000000000E+00 -0.10794583785E+04  0.10794583786E+04  0.50400001928E-02 0. -1.
    10030    2    1    2    0    0  0.00000000000E+00  0.00000000000E+00  0.36691450338E+03  0.25258312605E+04  0.24990392761E+04 0.  0.
        4    1    3    3  502    0 -0.16126150872E+03  0.97546851586E+02  0.14319234580E+04  0.14442738885E+04  0.12699999809E+01 0.  1.
       -4    1    3    3    0  502  0.16126150872E+03 -0.97546851586E+02 -0.10650089547E+04  0.10815573720E+04  0.12699999809E+01 0. -1.
</event>
<event>
 5   0  0.3581449E-05  0.2528254E+04  0.7818609E-02  0.8392989E-01
       -2   -1    0    0    0  501  0.00000000000E+00  0.00000000000E+00  0.72686393661E+03  0.72686393661E+03  0.25500000920E-02 0.  1.
        2   -1    0    0  501    0  0.00000000000E+00  0.00000000000E+00 -0.21985089857E+04  0.21985089857E+04  0.25500000920E-02 0. -1.
    10030    2    1    2    0    0  0.00000000000E+00  0.00000000000E+00 -0.14716450491E+04  0.29253729223E+04  0.25282538607E+04 0.  0.
        1    1    3    3  502    0  0.80288598002E+03 -0.73180315860E+03  0.12128963367E+02  0.10864202095E+04  0.50400001928E-02 0.  1.
       -1    1    3    3    0  502 -0.80288598002E+03  0.73180315860E+03 -0.14837740125E+04  0.18389527128E+04  0.50400001928E-02 0. -1.
</event>
<event>
 5   0  0.3650620E-05  0.2469019E+04  0.7818609E-02  0.8414107E-01
        2   -1    0    0  501    0  0.00000000000E+00  0.00000000000E+00  0.18065451036E+04  0.18065451036E+04  0.25500000920E-02 0.  1.
       -2   -1    0    0    0  501  0.00000000000E+00  0.00000000000E+00 -0.84360672397E+03  0.84360672397E+03  0.25500000920E-02 0. -1.
    10030    2    1    2    0    0  0.00000000000E+00  0.00000000000E+00  0.96293837967E+03  0.26501518276E+04  0.24690189117E+04 0.  0.
        3    1    3    3  502    0 -0.40801281445E+03 -0.60885164174E+03 -0.58480635566E+03  0.93764239571E+03  0.10100000352E+00 0. -1.
       -3    1    3    3    0  502  0.40801281445E+03  0.60885164174E+03  0.15477447353E+04  0.17125094319E+04  0.10100000352E+00 0.  1.
</event>
<event>
 5   0  0.1201438E-05  0.2519709E+04  0.7818609E-02  0.8395998E-01
       -3   -1    0    0    0  501  0.00000000000E+00  0.00000000000E+00  0.19587613005E+04  0.19587613031E+04  0.10100000352E+00 0.  1.
        3   -1    0    0  501    0  0.00000000000E+00  0.00000000000E+00 -0.81032507693E+03  0.81032508323E+03  0.10100000352E+00 0. -1.
    10030    2    1    2    0    0  0.00000000000E+00  0.00000000000E+00  0.11484362235E+04  0.27690863863E+04  0.25197090418E+04 0.  0.
        1    1    3    3  502    0 -0.76762832276E+03 -0.51746894448E+03 -0.36487537301E+03  0.99506853445E+03  0.50400001928E-02 0. -1.
       -1    1    3    3    0  502  0.76762832276E+03  0.51746894448E+03  0.15133115965E+04  0.17740178518E+04  0.50400001928E-02 0.  1.
</event>
<event>
 5   0  0.3704241E-05  0.2471156E+04  0.7818609E-02  0.8413334E-01
       -2   -1    0    0    0  501  0.00000000000E+00  0.00000000000E+00  0.11630331698E+04  0.11630331698E+04  0.25500000920E-02 0.  1.
        2   -1    0    0  501    0  0.00000000000E+00  0.00000000000E+00 -0.13126477582E+04  0.13126477582E+04  0.25500000920E-02 0. -1.
    10030    2    1    2    0    0  0.00000000000E+00  0.00000000000E+00 -0.14961458837E+03  0.24756809280E+04  0.24711559102E+04 0.  0.
        2    1    3    3  502    0  0.84042115095E+03 -0.54762759057E+03  0.64793537358E+03  0.11941624417E+04  0.25500000920E-02 0.  1.
       -2    1    3    3    0  502 -0.84042115095E+03  0.54762759057E+03 -0.79754996195E+03  0.12815184863E+04  0.25500000920E-02 0. -1.
</event>
<event>
 5   0  0.3578670E-05  0.2398358E+04  0.7818609E-02  0.8440119E-01
       -2   -1    0    0    0  501  0.00000000000E+00  0.00000000000E+00  0.10227262275E+04  0.10227262275E+04  0.25500000920E-02 0. -1.
        2   -1    0    0  501    0  0.00000000000E+00  0.00000000000E+00 -0.14060755062E+04  0.14060755062E+04  0.25500000920E-02 0.  1.
    10030    2    1    2    0    0  0.00000000000E+00  0.00000000000E+00 -0.38334927871E+03  0.24288017337E+04  0.23983580200E+04 0.  0.
        4    1    3    3  502    0  0.92522953659E+02 -0.37904495518E+03  0.95664712860E+03  0.10331558046E+04  0.12699999809E+01 0. -1.
       -4    1    3    3    0  502 -0.92522953659E+02  0.37904495518E+03 -0.13399964073E+04  0.13956459291E+04  0.12699999809E+01 0.  1.
</event>
<event>
 5   0  0.1502886E-05  0.2560567E+04  0.7818609E-02  0.8381721E-01
       -1   -1    0    0    0  501  0.00000000000E+00  0.00000000000E+00  0.14537985128E+04  0.14537985128E+04  0.50400001928E-02 0. -1.
        1   -1    0    0  501    0  0.00000000000E+00  0.00000000000E+00 -0.11274776472E+04  0.11274776473E+04  0.50400001928E-02 0.  1.
    10030    2    1    2    0    0  0.00000000000E+00  0.00000000000E+00  0.32632086556E+03  0.25812761601E+04  0.25605665989E+04 0.  0.
        4    1    3    3  502    0 -0.10939690940E+04  0.65549363022E+03  0.27669205860E+03  0.13049905693E+04  0.12699999809E+01 0. -1.
       -4    1    3    3    0  502  0.10939690940E+04 -0.65549363022E+03  0.49628806968E+02  0.12762855908E+04  0.12699999809E+01 0.  1.
</event>
<event>
 5   0  0.3579097E-05  0.2491630E+04  0.7818609E-02  0.8405973E-01
       -2   -1    0    0    0  501  0.00000000000E+00  0.00000000000E+00  0.10532659966E+04  0.10532659966E+04  0.25500000920E-02 0. -1.
        2   -1    0    0  501    0  0.00000000000E+00  0.00000000000E+00 -0.14735645414E+04  0.14735645415E+04  0.25500000920E-02 0.  1.
    10030    2    1    2    0    0  0.00000000000E+00  0.00000000000E+00 -0.42029854483E+03  0.25268305381E+04  0.24916303300E+04 0.  0.
        5    1    3    3  502    0  0.47490950684E+03 -0.11103713119E+04 -0.52036260843E+03  0.13150143817E+04  0.46999998093E+01 0.  1.
       -5    1    3    3    0  502 -0.47490950684E+03  0.11103713119E+04  0.10006406360E+03  0.12118161563E+04  0.46999998093E+01 0. -1.
</event>
<event>
 5   0  0.3650620E-05  0.2463743E+04  0.7818609E-02  0.8416017E-01
       -2   -1    0    0    0  501  0.00000000000E+00  0.00000000000E+00  0.72574546360E+03  0.72574546361E+03  0.25500000920E-02 0.  1.
        2   -1    0    0  501    0  0.00000000000E+00  0.00000000000E+00 -0.20909630032E+04  0.20909630032E+04  0.25500000920E-02 0. -1.
    10030    2    1    2    0    0  0.00000000000E+00  0.00000000000E+00 -0.13652175396E+04  0.28167084668E+04  0.24637426117E+04 0.  0.
        3    1    3    3  502    0 -0.82327817942E+03  0.68149417647E+03 -0.13829787655E+04  0.17478133622E+04  0.10100000352E+00 0. -1.
       -3    1    3    3    0  502  0.82327817942E+03 -0.68149417647E+03  0.17761225855E+02  0.10688951046E+04  0.10100000352E+00 0.  1.
</event>
<event>
 5   0  0.1502886E-05  0.2472360E+04  0.7818609E-02  0.8412899E-01
       -1   -1    0    0    0  501  0.00000000000E+00  0.00000000000E+00  0.28848169321E+04  0.28848169321E+04  0.50400001928E-02 0.  1.
        1   -1    0    0  501    0  0.00000000000E+00  0.00000000000E+00 -0.52971834728E+03  0.52971834730E+03  0.50400001928E-02 0. -1.
    10030    2    1    2    0    0  0.00000000000E+00  0.00000000000E+00  0.23550985849E+04  0.34145352794E+04  0.24723595673E+04 0.  0.
        4    1    3    3  502    0 -0.94708470884E+03  0.77247261265E+03  0.92119003318E+03  0.15304496310E+04  0.12699999809E+01 0.  1.
       -4    1    3    3    0  502  0.94708470884E+03 -0.77247261265E+03  0.14339085517E+04  0.18840856484E+04  0.12699999809E+01 0. -1.
</event>
<event>
 5   0  0.1421242E-05  0.2627439E+04  0.7818609E-02  0.8358940E-01
        1   -1    0    0  501    0  0.00000000000E+00  0.00000000000E+00  0.17531937845E+04  0.17531937845E+04  0.50400001928E-02 0. -1.
       -1   -1    0    0    0  501  0.00000000000E+00  0.00000000000E+00 -0.98440871553E+03  0.98440871554E+03  0.50400001928E-02 0.  1.
    10030    2    1    2    0    0  0.00000000000E+00  0.00000000000E+00  0.76878506895E+03  0.27376025000E+04  0.26274392411E+04 0.  0.
        3    1    3    3  502    0 -0.11778165291E+04 -0.27577299669E+03 -0.14949436878E+03  0.12188728803E+04  0.10100000352E+00 0.  1.
       -3    1    3    3    0  502  0.11778165291E+04  0.27577299669E+03  0.91827943772E+03  0.15187296197E+04  0.10100000352E+00 0. -1.
</event>
<event>
 5   0  0.3578670E-05  0.2560157E+04  0.7818609E-02  0.8381862E-01
        2   -1    0    0  501    0  0.00000000000E+00  0.00000000000E+00  0.14662235164E+04  0.14662235164E+04  0.25500000920E-02 0. -1.
       -2   -1    0    0    0  501  0.00000000000E+00  0.00000000000E+00 -0.11175658670E+04  0.11175658670E+04  0.25500000920E-02 0.  1.
    10030    2    1    2    0    0  0.00000000000E+00  0.00000000000E+00  0.34865764938E+03  0.25837893834E+04  0.25601573040E+04 0.  0.
        4    1    3    3  502    0 -0.57219725877E+03 -0.88785790156E+03 -0.55546319428E+03  0.11934162432E+04  0.12699999809E+01 0.  1.
       -4    1    3    3    0  502  0.57219725877E+03  0.88785790156E+03  0.90412084366E+03  0.13903731403E+04  0.12699999809E+01 0. -1.
</event>
<event>
 5   0  0.3579097E-05  0.2516985E+04  0.7818609E-02  0.8396959E-01
       -2   -1    0    0    0  501  0.00000000000E+00  0.00000000000E+00  0.15193232842E+04  0.15193232842E+04  0.25500000920E-02 0. -1.
        2   -1    0    0  501    0  0.00000000000E+00  0.00000000000E+00 -0.10424399317E+04  0.10424399317E+04  0.25500000920E-02 0.  1.
    10030    2    1    2    0    0  0.00000000000E+00  0.00000000000E+00  0.47688335244E+03  0.25617632159E+04  0.25169849111E+04 0.  0.
        5    1    3    3  502    0  0.85597766895E+03 -0.74577879510E+03 -0.31426388900E+03  0.11779930657E+04  0.46999998093E+01 0.  1.
       -5    1    3    3    0  502 -0.85597766895E+03  0.74577879510E+03  0.79114724144E+03  0.13837701502E+04  0.46999998093E+01 0. -1.
</event>
<event>
 5   0  0.3704241E-05  0.2499980E+04  0.7818609E-02  0.8402993E-01
       -2   -1    0    0    0  501  0.00000000000E+00  0.00000000000E+00  0.32261304021E+04  0.32261304021E+04  0.25500000920E-02 0.  1.
        2   -1    0    0  501    0  0.00000000000E+00  0.00000000000E+00 -0.48431873555E+03  0.48431873556E+03  0.25500000920E-02 0. -1.
    10030    2    1    2    0    0  0.00000000000E+00  0.00000000000E+00  0.27418116665E+04  0.37104491377E+04  0.24999803176E+04 0.  0.
        2    1    3    3  502    0  0.80482692687E+03 -0.76235667822E+03  0.22280713836E+04  0.24886213407E+04  0.25500000920E-02 0. -1.
       -2    1    3    3    0  502 -0.80482692687E+03  0.76235667822E+03  0.51374028295E+03  0.12218277969E+04  0.25500000920E-02 0.  1.
</event>
<event>
 5   0  0.3704241E-05  0.2494265E+04  0.7818609E-02  0.8405032E-01
       -2   -1    0    0    0  501  0.00000000000E+00  0.00000000000E+00  0.71668460957E+03  0.71668460957E+03  0.25500000920E-02 0. -1.
        2   -1    0    0  501    0  0.00000000000E+00  0.00000000000E+00 -0.21701865085E+04  0.21701865085E+04  0.25500000920E-02 0.  1.
    10030    2    1    2    0    0  0.00000000000E+00  0.00000000000E+00 -0.14535018989E+04  0.28868711181E+04  0.24942648380E+04 0.  0.
        2    1    3    3  502    0 -0.76873253547E+03  0.29449504294E+03  0.35754674773E+03  0.89750583186E+03  0.25500000920E-02 0. -1.
       -2    1    3    3    0  502  0.76873253547E+03 -0.29449504294E+03 -0.18110486467E+04  0.19893652862E+04  0.25500000920E-02 0.  1.
</event>
<event>
 5   0  0.3578670E-05  0.2511838E+04  0.7818609E-02  0.8398780E-01
       -2   -1    0    0    0  501  0.00000000000E+00  0.00000000000E+00  0.12393374359E+04  0.12393374359E+04  0.25500000920E-02 0. -1.
        2   -1    0    0  501    0  0.00000000000E+00  0.00000000000E+00 -0.12727223290E+04  0.12727223290E+04  0.25500000920E-02 0.  1.
    10030    2    1    2    0    0  0.00000000000E+00  0.00000000000E+00 -0.33384893135E+02  0.25120597648E+04  0.25118379150E+04 0.  0.
        4    1    3    3  502    0 -0.54760936741E+03 -0.11123318521E+04 -0.21714130033E+03  0.12586938173E+04  0.12699999809E+01 0. -1.
       -4    1    3    3    0  502  0.54760936741E+03  0.11123318521E+04  0.18375640719E+03  0.12533659476E+04  0.12699999809E+01 0.  1.
</event>
<event>
 5   0  0.3579097E-05  0.2492508E+04  0.7818609E-02  0.8405659E-01
       -2   -1    0    0    0  501  0.00000000000E+00  0.00000000000E+00  0.69226515385E+03  0.69226515386E+03  0.25500000920E-02 0. -1.
        2   -1    0    0  501    0  0.00000000000E+00  0.00000000000E+00 -0.22435752130E+04  0.22435752130E+04  0.25500000920E-02 0.  1.
    10030    2    1    2    0    0  0.00000000000E+00  0.00000000000E+00 -0.15513100591E+04  0.29358403668E+04  0.24925079258E+04 0.  0.
        5    1    3    3  502    0  0.10246052804E+04 -0.86377341715E+01  0.59913072089E+02  0.10264025805E+04  0.46999998093E+01 0. -1.
       -5    1    3    3    0  502 -0.10246052804E+04  0.86377341715E+01 -0.16112231312E+04  0.19094377863E+04  0.46999998093E+01 0.  1.
</event>
<event>
 5   0  0.1201438E-05  0.2528355E+04  0.7818609E-02  0.8392953E-01
       -4   -1    0    0    0  501  0.00000000000E+00  0.00000000000E+00  0.69238456084E+03  0.69238572559E+03  0.12699999809E+01 0. -1.
        4   -1    0    0  501    0  0.00000000000E+00  0.00000000000E+00 -0.23081708715E+04  0.23081712209E+04  0.12699999809E+01 0.  1.
    10030    2    1    2    0    0  0.00000000000E+00  0.00000000000E+00 -0.16157863107E+04  0.30005569465E+04  0.25283545217E+04 0.  0.
        4    1    3    3  502    0 -0.20353577716E+03 -0.10900409750E+04 -0.15283337940E+04  0.18882324906E+04  0.12699999809E+01 0.  1.
       -4    1    3    3    0  502  0.20353577716E+03  0.10900409750E+04 -0.87452516749E+02  0.11123244560E+04  0.12699999809E+01 0. -1.
</event>
<event>
 5   0  0.3650620E-05  0.2551182E+04  0.7818609E-02  0.8384975E-01
        2   -1    0    0  501    0  0.00000000000E+00  0.00000000000E+00  0.11550506469E+04  0.11550506469E+04  0.25500000920E-02 0. -1.
       -2   -1    0    0    0  501  0.00000000000E+00  0.00000000000E+00 -0.14087107936E+04  0.14087107936E+04  0.25500000920E-02 0.  1.
    10030    2    1    2    0    0  0.00000000000E+00  0.00000000000E+00 -0.25366014668E+03  0.25637614405E+04  0.25511819327E+04 0.  0.
        3    1    3    3  502    0  0.65437420306E+03  0.20869160100E+03 -0.12070136598E+04  0.13887547541E+04  0.10100000352E+00 0.  1.
       -3    1    3    3    0  502 -0.65437420306E+03 -0.20869160100E+03  0.95335351309E+03  0.11750066864E+04  0.10100000352E+00 0. -1.
</event>
<event>
 5   0  0.1456876E-05  0.2499447E+04  0.7818609E-02  0.8403182E-01
        1   -1    0    0  501    0  0.00000000000E+00  0.00000000000E+00  0.16555331504E+04  0.16555331504E+04  0.50400001928E-02 0. -1.
       -1   -1    0    0    0  501  0.00000000000E+00  0.00000000000E+00 -0.94338759972E+03  0.94338759973E+03  0.50400001928E-02 0.  1.
    10030    2    1    2    0    0  0.00000000000E+00  0.00000000000E+00  0.71214555065E+03  0.25989207501E+04  0.24994474950E+04 0.  0.
        1    1    3    3  502    0 -0.26814555464E+02 -0.40668605350E+03  0.15844862512E+04  0.16360651719E+04  0.50400001928E-02 0. -1.
       -1    1    3    3    0  502  0.26814555464E+02  0.40668605350E+03 -0.87234070058E+03  0.96285557817E+03  0.50400001928E-02 0.  1.
</event>
<event>
 5   0  0.1456876E-05  0.2526789E+04  0.7818609E-02  0.8393504E-01
       -1   -1    0    0    0  501  0.00000000000E+00  0.00000000000E+00  0.12207054122E+04  0.12207054122E+04  0.50400001928E-02 0. -1.
        1   -1    0    0  501    0  0.00000000000E+00  0.00000000000E+00 -0.13075763563E+04  0.13075763564E+04  0.50400001928E-02 0.  1.
    10030    2    1    2    0    0  0.00000000000E+00  0.00000000000E+00 -0.86870944149E+02  0.25282817686E+04  0.25267888990E+04 0.  0.
        1    1    3    3  502    0  0.53065209245E+02 -0.96335312078E+03  0.77270591085E+03  0.12360985302E+04  0.50400001928E-02 0. -1.
       -1    1    3    3    0  502 -0.53065209245E+02  0.96335312078E+03 -0.85957685499E+03  0.12921832383E+04  0.50400001928E-02 0.  1.
</event>
<event>
 5   0  0.3704241E-05  0.2541774E+04  0.7818609E-02  0.8388253E-01
       -2   -1    0    0    0  501  0.00000000000E+00  0.00000000000E+00  0.99075390430E+03  0.99075390430E+03  0.25500000920E-02 0. -1.
        2   -1    0    0  501    0  0.00000000000E+00  0.00000000000E+00 -0.16302274993E+04  0.16302274993E+04  0.25500000920E-02 0.  1.
    10030    2    1    2    0    0  0.00000000000E+00  0.00000000000E+00 -0.63947359499E+03  0.26209814036E+04  0.25417743880E+04 0.  0.
        2    1    3    3  502    0  0.17163063046E+02 -0.85714632147E+03  0.64766685485E+03  0.10744611403E+04  0.25500000920E-02 0. -1.
       -2    1    3    3    0  502 -0.17163063046E+02  0.85714632147E+03 -0.12871404498E+04  0.15465202633E+04  0.25500000920E-02 0.  1.
</event>
<event>
 5   0  0.3578670E-05  0.2514103E+04  0.7818609E-02  0.8397978E-01
       -2   -1    0    0    0  501  0.00000000000E+00  0.00000000000E+00  0.68432154493E+03  0.68432154493E+03  0.25500000920E-02 0.  1.
        2   -1    0    0  501    0  0.00000000000E+00  0.00000000000E+00 -0.23091172636E+04  0.23091172636E+04  0.25500000920E-02 0. -1.
    10030    2    1    2    0    0  0.00000000000E+00  0.00000000000E+00 -0.16247957186E+04  0.29934388085E+04  0.25141031747E+04 0.  0.
        4    1    3    3  502    0 -0.54258073984E+03  0.15509937365E+03 -0.21498247668E+04  0.22226555774E+04  0.12699999809E+01 0. -1.
       -4    1    3    3    0  502  0.54258073984E+03 -0.15509937365E+03  0.52502904819E+03  0.77078323106E+03  0.12699999809E+01 0.  1.
</event>
<event>
 5   0  0.1492639E-05  0.2497862E+04  0.7818609E-02  0.8403748E-01
        1   -1    0    0  501    0  0.00000000000E+00  0.00000000000E+00  0.15147201031E+04  0.15147201031E+04  0.50400001928E-02 0. -1.
       -1   -1    0    0    0  501  0.00000000000E+00  0.00000000000E+00 -0.10297801719E+04  0.10297801719E+04  0.50400001928E-02 0.  1.
    10030    2    1    2    0    0  0.00000000000E+00  0.00000000000E+00  0.48493993118E+03  0.25445002750E+04  0.24978620684E+04 0.  0.
        5    1    3    3  502    0 -0.24847624119E+03 -0.13984056675E+03  0.14811133900E+04  0.15083152159E+04  0.46999998093E+01 0. -1.
       -5    1    3    3    0  502  0.24847624119E+03  0.13984056675E+03 -0.99617345884E+03  0.10361850591E+04  0.46999998093E+01 0.  1.
</event>
<event>
 5   0  0.3581449E-05  0.2472608E+04  0.7818609E-02  0.8412809E-01
       -2   -1    0    0    0  501  0.00000000000E+00  0.00000000000E+00  0.28448863099E+04  0.28448863099E+04  0.25500000920E-02 0.  1.
        2   -1    0    0  501    0  0.00000000000E+00  0.00000000000E+00 -0.53726151587E+03  0.53726151588E+03  0.25500000920E-02 0. -1.
    10030    2    1    2    0    0  0.00000000000E+00  0.00000000000E+00  0.23076247940E+04  0.33821478257E+04  0.24726082838E+04 0.  0.
        1    1    3    3  502    0 -0.63201746398E+03 -0.17388716630E+03 -0.27999130039E+03  0.71279586819E+03  0.50400001928E-02 0. -1.
       -1    1    3    3    0  502  0.63201746398E+03  0.17388716630E+03  0.25876160944E+04  0.26693519576E+04  0.50400001928E-02 0.  1.
</event>
<event>
 5   0  0.1492639E-05  0.2530668E+04  0.7818609E-02  0.8392141E-01
       -1   -1    0    0    0  501  0.00000000000E+00  0.00000000000E+00  0.65657446802E+03  0.65657446804E+03  0.50400001928E-02 0.  1.
        1   -1    0    0  501    0  0.00000000000E+00  0.00000000000E+00 -0.24385206372E+04  0.24385206372E+04  0.50400001928E-02 0. -1.
    10030    2    1    2    0    0  0.00000000000E+00  0.00000000000E+00 -0.17819461692E+04  0.30950951053E+04  0.25306682044E+04 0.  0.
        5    1    3    3  502    0  0.10950030202E+04  0.43907258623E+03 -0.14504121518E+04  0.18696346837E+04  0.46999998093E+01 0. -1.
       -5    1    3    3    0  502 -0.10950030202E+04 -0.43907258623E+03 -0.33153401737E+03  0.12254604216E+04  0.46999998093E+01 0.  1.
</event>
<event>
 5   0  0.1502886E-05  0.2553238E+04  0.7818609E-02  0.8384261E-01
       -1   -1    0    0    0  501  0.00000000000E+00  0.00000000000E+00  0.96389968395E+03  0.96389968396E+03  0.50400001928E-02 0.  1.
        1   -1    0    0  501    0  0.00000000000E+00  0.00000000000E+00 -0.16907936361E+04  0.16907936361E+04  0.50400001928E-02 0. -1.
    10030    2    1    2    0    0  0.00000000000E+00  0.00000000000E+00 -0.72689395219E+03  0.26546933201E+04  0.25532375146E+04 0.  0.
        4    1    3    3  502    0  0.26000936984E+03 -0.12494222123E+04 -0.32907112836E+03  0.13179340489E+04  0.12699999809E+01 0.  1.
       -4    1    3    3    0  502 -0.26000936984E+03  0.12494222123E+04 -0.39782282383E+03  0.13367592712E+04  0.12699999809E+01 0. -1.
</event>
<event>
 5   0  0.1456876E-05  0.2525037E+04  0.7818609E-02  0.8394120E-01
       -1   -1    0    0    0  501  0.00000000000E+00  0.00000000000E+00  0.10873617804E+04  0.10873617804E+04  0.50400001928E-02 0.  1.
        1   -1    0    0  501    0  0.00000000000E+00  0.00000000000E+00 -0.14658900551E+04  0.14658900551E+04  0.50400001928E-02 0. -1.
    10030    2    1    2    0    0  0.00000000000E+00  0.00000000000E+00 -0.37852827468E+03  0.25532518355E+04  0.25250368870E+04 0.  0.
        1    1    3    3  502    0  0.53668453402E+03 -0.10434815928E+03 -0.13399757873E+04  0.14472228364E+04  0.50400001928E-02 0. -1.
       -1    1    3    3    0  502 -0.53668453402E+03  0.10434815928E+03  0.96144751265E+03  0.11060289992E+04  0.50400001928E-02 0.  1.
</event>
<event>
 5   0  0.1456876E-05  0.2297918E+04  0.7818609E-02  0.8478742E-01
       -1   -1    0    0    0  501  0.00000000000E+00  0.00000000000E+00  0.70236838799E+03  0.70236838801E+03  0.50400001928E-02 0.  1.
        1   -1    0    0  501    0  0.00000000000E+00  0.00000000000E+00 -0.18795084126E+04  0.18795084126E+04  0.50400001928E-02 0. -1.
    10030    2    1    2    0    0  0.00000000000E+00  0.00000000000E+00 -0.11771400246E+04  0.25818768006E+04  0.22979184441E+04 0.  0.
        1    1    3    3  502    0  0.81131467589E+02  0.11316553788E+04 -0.79230891267E+03  0.13838278883E+04  0.50400001928E-02 0. -1.
       -1    1    3    3    0  502 -0.81131467589E+02 -0.11316553788E+04 -0.38483111191E+03  0.11980489122E+04  0.50400001928E-02 0.  1.
</event>
<event>
 5   0  0.1456876E-05  0.2525557E+04  0.7818609E-02  0.8393937E-01
        1   -1    0    0  501    0  0.00000000000E+00  0.00000000000E+00  0.11938464054E+04  0.11938464054E+04  0.50400001928E-02 0. -1.
       -1   -1    0    0    0  501  0.00000000000E+00  0.00000000000E+00 -0.13356911018E+04  0.13356911018E+04  0.50400001928E-02 0.  1.
    10030    2    1    2    0    0  0.00000000000E+00  0.00000000000E+00 -0.14184469634E+03  0.25295375072E+04  0.25255573805E+04 0.  0.
        1    1    3    3  502    0 -0.79276122983E+03  0.11143935944E+03  0.90720305513E+03  0.12099200311E+04  0.50400001928E-02 0. -1.
       -1    1    3    3    0  502  0.79276122983E+03 -0.11143935944E+03 -0.10490477515E+04  0.13196174761E+04  0.50400001928E-02 0.  1.
</event>
<event>
 5   0  0.1429483E-05  0.2560283E+04  0.7818609E-02  0.8381819E-01
        1   -1    0    0  501    0  0.00000000000E+00  0.00000000000E+00  0.23117320806E+04  0.23117320806E+04  0.50400001928E-02 0. -1.
       -1   -1    0    0    0  501  0.00000000000E+00  0.00000000000E+00 -0.70888932153E+03  0.70888932154E+03  0.50400001928E-02 0.  1.
    10030    2    1    2    0    0  0.00000000000E+00  0.00000000000E+00  0.16028427591E+04  0.30206214022E+04  0.25602829424E+04 0.  0.
        2    1    3    3  502    0 -0.10836917475E+04  0.23977267457E+03  0.48857545558E+02  0.11109751567E+04  0.25500000920E-02 0.  1.
       -2    1    3    3    0  502  0.10836917475E+04 -0.23977267457E+03  0.15539852135E+04  0.19096462455E+04  0.25500000920E-02 0. -1.
</event>
<event>
 5   0  0.1492639E-05  0.2557494E+04  0.7818609E-02  0.8382785E-01
       -1   -1    0    0    0  501  0.00000000000E+00  0.00000000000E+00  0.16846551958E+04  0.16846551959E+04  0.50400001928E-02 0.  1.
        1   -1    0    0  501    0  0.00000000000E+00  0.00000000000E+00 -0.97064008465E+03  0.97064008466E+03  0.50400001928E-02 0. -1.
    10030    2    1    2    0    0  0.00000000000E+00  0.00000000000E+00  0.71401511119E+03  0.26552952805E+04  0.25574939780E+04 0.  0.
        5    1    3    3  502    0 -0.14624452497E+03  0.15101670555E+03  0.16665824091E+04  0.16797953812E+04  0.46999998093E+01 0.  1.
       -5    1    3    3    0  502  0.14624452497E+03 -0.15101670555E+03 -0.95256729792E+03  0.97549989928E+03  0.46999998093E+01 0. -1.
</event>
<event>
 5   0  0.3650620E-05  0.2469543E+04  0.7818609E-02  0.8413917E-01
        2   -1    0    0  501    0  0.00000000000E+00  0.00000000000E+00  0.19389212103E+04  0.19389212103E+04  0.25500000920E-02 0.  1.
       -2   -1    0    0    0  501  0.00000000000E+00  0.00000000000E+00 -0.78634475553E+03  0.78634475554E+03  0.25500000920E-02 0. -1.
    10030    2    1    2    0    0  0.00000000000E+00  0.00000000000E+00  0.11525764547E+04  0.27252659658E+04  0.24695428930E+04 0.  0.
        3    1    3    3  502    0  0.10060741319E+04  0.17665709358E+03 -0.18928307199E+03  0.10388556103E+04  0.10100000352E+00 0. -1.
       -3    1    3    3    0  502 -0.10060741319E+04 -0.17665709358E+03  0.13418595267E+04  0.16864103555E+04  0.10100000352E+00 0.  1.
</event>
<event>
 5   0  0.1421242E-05  0.2484396E+04  0.7818609E-02  0.8408566E-01
       -1   -1    0    0    0  501  0.00000000000E+00  0.00000000000E+00  0.13526281231E+04  0.13526281231E+04  0.50400001928E-02 0.  1.
        1   -1    0    0  501    0  0.00000000000E+00  0.00000000000E+00 -0.11407833828E+04  0.11407833828E+04  0.50400001928E-02 0. -1.
    10030    2    1    2    0    0  0.00000000000E+00  0.00000000000E+00  0.21184474027E+03  0.24934115059E+04  0.24843958508E+04 0.  0.
        3    1    3    3  502    0 -0.67662841423E+03 -0.77940147733E+03  0.79963471238E+03  0.13056448052E+04  0.10100000352E+00 0.  1.
       -3    1    3    3    0  502  0.67662841423E+03  0.77940147733E+03 -0.58778997211E+03  0.11877667007E+04  0.10100000352E+00 0. -1.
</event>
<event>
 5   0  0.1429483E-05  0.2400771E+04  0.7818609E-02  0.8439215E-01
        1   -1    0    0  501    0  0.00000000000E+00  0.00000000000E+00  0.22461398046E+04  0.22461398046E+04  0.50400001928E-02 0. -1.
       -1   -1    0    0    0  501  0.00000000000E+00  0.00000000000E+00 -0.64151169317E+03  0.64151169319E+03  0.50400001928E-02 0.  1.
    10030    2    1    2    0    0  0.00000000000E+00  0.00000000000E+00  0.16046281114E+04  0.28876514978E+04  0.24007706672E+04 0.  0.
        2    1    3    3  502    0  0.76852704193E+03 -0.86342157167E+03  0.11916845007E+04  0.16601935351E+04  0.25500000920E-02 0. -1.
       -2    1    3    3    0  502 -0.76852704193E+03  0.86342157167E+03  0.41294361066E+03  0.12274579627E+04  0.25500000920E-02 0.  1.
</event>
<event>
 5   0  0.3579097E-05  0.2506220E+04  0.7818609E-02  0.8400773E-01
       -2   -1    0    0    0  501  0.00000000000E+00  0.00000000000E+00  0.12613260181E+04  0.12613260181E+04  0.25500000920E-02 0.  1.
        2   -1    0    0  501    0  0.00000000000E+00  0.00000000000E+00 -0.12449470288E+04  0.12449470288E+04  0.25500000920E-02 0. -1.
    10030    2    1    2    0    0  0.00000000000E+00  0.00000000000E+00  0.16378989322E+02  0.25062730469E+04  0.25062195264E+04 0.  0.
        5    1    3    3  502    0 -0.72655263248E+03 -0.48750706046E+03  0.90527059296E+03  0.12589991256E+04  0.46999998093E+01 0.  1.
       -5    1    3    3    0  502  0.72655263248E+03  0.48750706046E+03 -0.88889160363E+03  0.12472739213E+04  0.46999998093E+01 0. -1.
</event>
<event>
 5   0  0.3650620E-05  0.2615285E+04  0.7818609E-02  0.8363028E-01
        2   -1    0    0  501    0  0.00000000000E+00  0.00000000000E+00  0.18668782557E+04  0.18668782557E+04  0.25500000920E-02 0. -1.
       -2   -1    0    0    0  501  0.00000000000E+00  0.00000000000E+00 -0.91592931683E+03  0.91592931683E+03  0.25500000920E-02 0.  1.
    10030    2    1    2    0    0  0.00000000000E+00  0.00000000000E+00  0.95094893890E+03  0.27828075726E+04  0.26152847075E+04 0.  0.
        3    1    3    3  502    0 -0.27390645923E+03  0.12084446767E+04  0.30901478239E+02  0.12394830360E+04  0.10100000352E+00 0.  1.
       -3    1    3    3    0  502  0.27390645923E+03 -0.12084446767E+04  0.92004746066E+03  0.15433245365E+04  0.10100000352E+00 0. -1.
</event>
<event>
 5   0  0.1456876E-05  0.2513954E+04  0.7818609E-02  0.8398031E-01
        1   -1    0    0  501    0  0.00000000000E+00  0.00000000000E+00  0.15845066805E+04  0.15845066806E+04  0.50400001928E-02 0. -1.
       -1   -1    0    0    0  501  0.00000000000E+00  0.00000000000E+00 -0.99715002396E+03  0.99715002398E+03  0.50400001928E-02 0.  1.
    10030    2    1    2    0    0  0.00000000000E+00  0.00000000000E+00  0.58735665658E+03  0.25816567045E+04  0.25139537581E+04 0.  0.
        1    1    3    3  502    0  0.53046950190E+03  0.11217444554E+04  0.49978813379E+03  0.13377207086E+04  0.50400001928E-02 0.  1.
       -1    1    3    3    0  502 -0.53046950190E+03 -0.11217444554E+04  0.87568522793E+02  0.12439359959E+04  0.50400001928E-02 0. -1.
</event>
<event>
 5   0  0.3578670E-05  0.2474786E+04  0.7818609E-02  0.8412024E-01
       -2   -1    0    0    0  501  0.00000000000E+00  0.00000000000E+00  0.11011817961E+04  0.11011817961E+04  0.25500000920E-02 0. -1.
        2   -1    0    0  501    0  0.00000000000E+00  0.00000000000E+00 -0.13904525974E+04  0.13904525974E+04  0.25500000920E-02 0.  1.
    10030    2    1    2    0    0  0.00000000000E+00  0.00000000000E+00 -0.28927080129E+03  0.24916343936E+04  0.24747857189E+04 0.  0.
        4    1    3    3  502    0 -0.94460117174E+03  0.44954159624E+03 -0.81002853319E+03  0.13230672159E+04  0.12699999809E+01 0.  1.
       -4    1    3    3    0  502  0.94460117174E+03 -0.44954159624E+03  0.52075773190E+03  0.11685671776E+04  0.12699999809E+01 0. -1.
</event>
<event>
 5   0  0.3581449E-05  0.2510947E+04  0.7818609E-02  0.8399096E-01
       -2   -1    0    0    0  501  0.00000000000E+00  0.00000000000E+00  0.62885837916E+03  0.62885837917E+03  0.25500000920E-02 0.  1.
        2   -1    0    0  501    0  0.00000000000E+00  0.00000000000E+00 -0.25064680146E+04  0.25064680146E+04  0.25500000920E-02 0. -1.
    10030    2    1    2    0    0  0.00000000000E+00  0.00000000000E+00 -0.18776096354E+04  0.31353263937E+04  0.25109467641E+04 0.  0.
        1    1    3    3  502    0 -0.66856855283E+03  0.94096170353E+03 -0.32223760066E+03  0.11984280991E+04  0.50400001928E-02 0.  1.
       -1    1    3    3    0  502  0.66856855283E+03 -0.94096170353E+03 -0.15553720347E+04  0.19368982946E+04  0.50400001928E-02 0. -1.
</event>
<event>
 5   0  0.3650620E-05  0.2486440E+04  0.7818609E-02  0.8407832E-01
       -2   -1    0    0    0  501  0.00000000000E+00  0.00000000000E+00  0.74409061370E+03  0.74409061370E+03  0.25500000920E-02 0.  1.
        2   -1    0    0  501    0  0.00000000000E+00  0.00000000000E+00 -0.20771609961E+04  0.20771609961E+04  0.25500000920E-02 0. -1.
    10030    2    1    2    0    0  0.00000000000E+00  0.00000000000E+00 -0.13330703824E+04  0.28212516098E+04  0.24864400257E+04 0.  0.
        3    1    3    3  502    0  0.75399820297E+03  0.90863446023E+03 -0.22494280311E+03  0.12019688629E+04  0.10100000352E+00 0.  1.
       -3    1    3    3    0  502 -0.75399820297E+03 -0.90863446023E+03 -0.11081275793E+04  0.16192827469E+04  0.10100000352E+00 0. -1.
</event>
<event>
 5   0  0.1492639E-05  0.2616216E+04  0.7818609E-02  0.8362714E-01
        1   -1    0    0  501    0  0.00000000000E+00  0.00000000000E+00  0.26480859918E+04  0.26480859918E+04  0.50400001928E-02 0. -1.
       -1   -1    0    0    0  501  0.00000000000E+00  0.00000000000E+00 -0.64618222900E+03  0.64618222902E+03  0.50400001928E-02 0.  1.
    10030    2    1    2    0    0  0.00000000000E+00  0.00000000000E+00  0.20019037628E+04  0.32942682208E+04  0.26162156706E+04 0.  0.
        5    1    3    3  502    0 -0.77344438351E+03  0.68812025934E+03  0.20078166789E+04  0.22589988074E+04  0.46999998093E+01 0. -1.
       -5    1    3    3    0  502  0.77344438351E+03 -0.68812025934E+03 -0.59129161763E+01  0.10352694134E+04  0.46999998093E+01 0.  1.
</event>
<event>
 5   0  0.1429483E-05  0.2456178E+04  0.7818609E-02  0.8418766E-01
        1   -1    0    0  501    0  0.00000000000E+00  0.00000000000E+00  0.19670307950E+04  0.19670307950E+04  0.50400001928E-02 0. -1.
       -1   -1    0    0    0  501  0.00000000000E+00  0.00000000000E+00 -0.76674063687E+03  0.76674063689E+03  0.50400001928E-02 0.  1.
    10030    2    1    2    0    0  0.00000000000E+00  0.00000000000E+00  0.12002901581E+04  0.27337714319E+04  0.24561778800E+04 0.  0.
        2    1    3    3  502    0 -0.63469006114E+03  0.25463916635E+03 -0.53520464820E+03  0.86839886815E+03  0.25500000920E-02 0.  1.
       -2    1    3    3    0  502  0.63469006114E+03 -0.25463916635E+03  0.17354948063E+04  0.18653725637E+04  0.25500000920E-02 0. -1.
</event>
<event>
 5   0  0.1421242E-05  0.2502482E+04  0.7818609E-02  0.8402102E-01
        1   -1    0    0  501    0  0.00000000000E+00  0.00000000000E+00  0.13026191718E+04  0.13026191718E+04  0.50400001928E-02 0.  1.
       -1   -1    0    0    0  501  0.00000000000E+00  0.00000000000E+00 -0.12018891139E+04  0.12018891139E+04  0.50400001928E-02 0. -1.
    10030    2    1    2    0    0  0.00000000000E+00  0.00000000000E+00  0.10073005788E+03  0.25045082857E+04  0.25024818099E+04 0.  0.
        3    1    3    3  502    0 -0.88033116169E+03  0.76602825767E+03  0.50219661668E+03  0.12704265810E+04  0.10100000352E+00 0.  1.
       -3    1    3    3    0  502  0.88033116169E+03 -0.76602825767E+03 -0.40146655879E+03  0.12340817047E+04  0.10100000352E+00 0. -1.
</event>
<event>
 5   0  0.3704241E-05  0.2333814E+04  0.7818609E-02  0.8464707E-01
       -2   -1    0    0    0  501  0.00000000000E+00  0.00000000000E+00  0.10632873274E+04  0.10632873274E+04  0.25500000920E-02 0.  1.
        2   -1    0    0  501    0  0.00000000000E+00  0.00000000000E+00 -0.12806251523E+04  0.12806251523E+04  0.25500000920E-02 0. -1.
    10030    2    1    2    0    0  0.00000000000E+00  0.00000000000E+00 -0.21733782491E+03  0.23439124797E+04  0.23338144704E+04 0.  0.
        2    1    3    3  502    0 -0.19661995713E+03  0.44798185983E+03 -0.11726513211E+04  0.12706133460E+04  0.25500000920E-02 0. -1.
       -2    1    3    3    0  502  0.19661995713E+03 -0.44798185983E+03  0.95531349618E+03  0.10732991336E+04  0.25500000920E-02 0.  1.
</event>
<event>
 5   0  0.3578670E-05  0.2497211E+04  0.7818609E-02  0.8403980E-01
       -2   -1    0    0    0  501  0.00000000000E+00  0.00000000000E+00  0.10604378355E+04  0.10604378355E+04  0.25500000920E-02 0.  1.
        2   -1    0    0  501    0  0.00000000000E+00  0.00000000000E+00 -0.14701625254E+04  0.14701625254E+04  0.25500000920E-02 0. -1.
    10030    2    1    2    0    0  0.00000000000E+00  0.00000000000E+00 -0.40972468986E+03  0.25306003609E+04  0.24972112176E+04 0.  0.
        4    1    3    3  502    0 -0.64923607644E+03  0.10623199565E+04 -0.10881544558E+03  0.12497494097E+04  0.12699999809E+01 0.  1.
       -4    1    3    3    0  502  0.64923607644E+03 -0.10623199565E+04 -0.30090924428E+03  0.12808509512E+04  0.12699999809E+01 0. -1.
</event>
<event>
 5   0  0.1429483E-05  0.1933406E+04  0.7818609E-02  0.8638404E-01
       -1   -1    0    0    0  501  0.00000000000E+00  0.00000000000E+00  0.73091790194E+03  0.73091790196E+03  0.50400001928E-02 0.  1.
        1   -1    0    0  501    0  0.00000000000E+00  0.00000000000E+00 -0.12785495551E+04  0.12785495551E+04  0.50400001928E-02 0. -1.
    10030    2    1    2    0    0  0.00000000000E+00  0.00000000000E+00 -0.54763165316E+03  0.20094674571E+04  0.19334060705E+04 0.  0.
        2    1    3    3  502    0 -0.82904347237E+03 -0.30687145317E+03 -0.68039810516E+03  0.11155378745E+04  0.25500000920E-02 0. -1.
       -2    1    3    3    0  502  0.82904347237E+03  0.30687145317E+03  0.13276645200E+03  0.89392958260E+03  0.25500000920E-02 0.  1.
</event>
<event>
 5   0  0.1492639E-05  0.2272584E+04  0.7818609E-02  0.8488810E-01
       -1   -1    0    0    0  501  0.00000000000E+00  0.00000000000E+00  0.88225020578E+03  0.88225020580E+03  0.50400001928E-02 0. -1.
        1   -1    0    0  501    0  0.00000000000E+00  0.00000000000E+00 -0.14634844993E+04  0.14634844993E+04  0.50400001928E-02 0.  1.
    10030    2    1    2    0    0  0.00000000000E+00  0.00000000000E+00 -0.58123429350E+03  0.23457347051E+04  0.22725839924E+04 0.  0.
        5    1    3    3  502    0  0.71189576946E+03 -0.68850414277E+03  0.28436259786E+03  0.10303968741E+04  0.46999998093E+01 0. -1.
       -5    1    3    3    0  502 -0.71189576946E+03  0.68850414277E+03 -0.86559689136E+03  0.13153378309E+04  0.46999998093E+01 0.  1.
</event>
<event>
 5   0  0.1429483E-05  0.2370822E+04  0.7818609E-02  0.8450509E-01
        1   -1    0    0  501    0  0.00000000000E+00  0.00000000000E+00  0.17312496849E+04  0.17312496849E+04  0.50400001928E-02 0. -1.
       -1   -1    0    0    0  501  0.00000000000E+00  0.00000000000E+00 -0.81166724864E+03  0.81166724865E+03  0.50400001928E-02 0.  1.
    10030    2    1    2    0    0  0.00000000000E+00  0.00000000000E+00  0.91958243627E+03  0.25429169336E+04  0.23708215188E+04 0.  0.
        2    1    3    3  502    0  0.17120106773E+03 -0.58785784091E+03 -0.62893253194E+03  0.87774869778E+03  0.25500000920E-02 0.  1.
       -2    1    3    3    0  502 -0.17120106773E+03  0.58785784091E+03  0.15485149682E+04  0.16651682358E+04  0.25500000920E-02 0. -1.
</event>
<event>
 5   0  0.3704241E-05  0.2580625E+04  0.7818609E-02  0.8374812E-01
       -2   -1    0    0    0  501  0.00000000000E+00  0.00000000000E+00  0.10501683639E+04  0.10501683639E+04  0.25500000920E-02 0.  1.
        2   -1    0    0  501    0  0.00000000000E+00  0.00000000000E+00 -0.15853707168E+04  0.15853707168E+04  0.25500000920E-02 0. -1.
    10030    2    1    2    0    0  0.00000000000E+00  0.00000000000E+00 -0.53520235281E+03  0.26355390807E+04  0.25806248638E+04 0.  0.
        2    1    3    3  502    0 -0.21108256406E+03  0.82446675658E+03 -0.12580868525E+04  0.15189087563E+04  0.25500000920E-02 0. -1.
       -2    1    3    3    0  502  0.21108256406E+03 -0.82446675658E+03  0.72288449966E+03  0.11166303244E+04  0.25500000920E-02 0.  1.
</event>
<event>
 5   0  0.3650620E-05  0.2455837E+04  0.7818609E-02  0.8418890E-01
       -2   -1    0    0    0  501  0.00000000000E+00  0.00000000000E+00  0.77253150974E+03  0.77253150975E+03  0.25500000920E-02 0.  1.
        2   -1    0    0  501    0  0.00000000000E+00  0.00000000000E+00 -0.19517437156E+04  0.19517437156E+04  0.25500000920E-02 0. -1.
    10030    2    1    2    0    0  0.00000000000E+00  0.00000000000E+00 -0.11792122059E+04  0.27242752253E+04  0.24558367366E+04 0.  0.
        3    1    3    3  502    0 -0.80777712711E+03  0.89072302466E+03 -0.31363147770E+03  0.12426810161E+04  0.10100000352E+00 0. -1.
       -3    1    3    3    0  502  0.80777712711E+03 -0.89072302466E+03 -0.86558072816E+03  0.14815942093E+04  0.10100000352E+00 0.  1.
</event>
<event>
 5   0  0.3704241E-05  0.2504413E+04  0.7818609E-02  0.8401415E-01
       -2   -1    0    0    0  501  0.00000000000E+00  0.00000000000E+00  0.12779318276E+04  0.12779318276E+04  0.25500000920E-02 0. -1.
        2   -1    0    0  501    0  0.00000000000E+00  0.00000000000E+00 -0.12269992238E+04  0.12269992238E+04  0.25500000920E-02 0.  1.
    10030    2    1    2    0    0  0.00000000000E+00  0.00000000000E+00  0.50932603846E+02  0.25049310514E+04  0.25044131932E+04 0.  0.
        2    1    3    3  502    0 -0.54484389624E+03 -0.51736904107E+03  0.10274197987E+04  0.12728381825E+04  0.25500000920E-02 0. -1.
       -2    1    3    3    0  502  0.54484389624E+03  0.51736904107E+03 -0.97648719487E+03  0.12320928689E+04  0.25500000920E-02 0.  1.
</event>
<event>
 5   0  0.1421242E-05  0.2517828E+04  0.7818609E-02  0.8396662E-01
       -1   -1    0    0    0  501  0.00000000000E+00  0.00000000000E+00  0.11451081599E+04  0.11451081599E+04  0.50400001928E-02 0.  1.
        1   -1    0    0  501    0  0.00000000000E+00  0.00000000000E+00 -0.13840301723E+04  0.13840301723E+04  0.50400001928E-02 0. -1.
    10030    2    1    2    0    0  0.00000000000E+00  0.00000000000E+00 -0.23892201239E+03  0.25291383321E+04  0.25178278287E+04 0.  0.
        3    1    3    3  502    0  0.11624058067E+04  0.43033724707E+02 -0.60310606699E+03  0.13102580277E+04  0.10100000352E+00 0. -1.
       -3    1    3    3    0  502 -0.11624058067E+04 -0.43033724707E+02  0.36418405460E+03  0.12188803045E+04  0.10100000352E+00 0.  1.
</event>
<event>
 5   0  0.1492639E-05  0.2456409E+04  0.7818609E-02  0.8418682E-01
       -1   -1    0    0    0  501  0.00000000000E+00  0.00000000000E+00  0.12602535809E+04  0.12602535809E+04  0.50400001928E-02 0.  1.
        1   -1    0    0  501    0  0.00000000000E+00  0.00000000000E+00 -0.11969706301E+04  0.11969706302E+04  0.50400001928E-02 0. -1.
    10030    2    1    2    0    0  0.00000000000E+00  0.00000000000E+00  0.63282950751E+02  0.24572242111E+04  0.24564091865E+04 0.  0.
        5    1    3    3  502    0 -0.96569863290E+03  0.68038947889E+03 -0.30456636573E+03  0.12199534637E+04  0.46999998093E+01 0. -1.
       -5    1    3    3    0  502  0.96569863290E+03 -0.68038947889E+03  0.36784931648E+03  0.12372707473E+04  0.46999998093E+01 0.  1.
</event>
<event>
 5   0  0.3579097E-05  0.2476210E+04  0.7818609E-02  0.8411510E-01
        2   -1    0    0  501    0  0.00000000000E+00  0.00000000000E+00  0.12530728869E+04  0.12530728869E+04  0.25500000920E-02 0.  1.
       -2   -1    0    0    0  501  0.00000000000E+00  0.00000000000E+00 -0.12233159864E+04  0.12233159864E+04  0.25500000920E-02 0. -1.
    10030    2    1    2    0    0  0.00000000000E+00  0.00000000000E+00  0.29756900451E+02  0.24763888733E+04  0.24762100837E+04 0.  0.
        5    1    3    3  502    0 -0.47068578631E+03 -0.43740176816E+03 -0.10435063244E+04  0.12254766237E+04  0.46999998093E+01 0. -1.
       -5    1    3    3    0  502  0.47068578631E+03  0.43740176816E+03  0.10732632249E+04  0.12509122496E+04  0.46999998093E+01 0.  1.
</event>
<event>
 5   0  0.1492639E-05  0.2275984E+04  0.7818609E-02  0.8487451E-01
       -1   -1    0    0    0  501  0.00000000000E+00  0.00000000000E+00  0.18905610837E+04  0.18905610837E+04  0.50400001928E-02 0. -1.
        1   -1    0    0  501    0  0.00000000000E+00  0.00000000000E+00 -0.68499534422E+03  0.68499534424E+03  0.50400001928E-02 0.  1.
    10030    2    1    2    0    0  0.00000000000E+00  0.00000000000E+00  0.12055657395E+04  0.25755564280E+04  0.22759837788E+04 0.  0.
        5    1    3    3  502    0  0.87270789097E+03  0.65525672083E+03  0.96776082189E+03  0.14586169927E+04  0.46999998093E+01 0. -1.
       -5    1    3    3    0  502 -0.87270789097E+03 -0.65525672083E+03  0.23780491762E+03  0.11169394352E+04  0.46999998093E+01 0.  1.
</event>
<event>
 5   0  0.1429483E-05  0.2578062E+04  0.7818609E-02  0.8375691E-01
       -1   -1    0    0    0  501  0.00000000000E+00  0.00000000000E+00  0.63867231971E+03  0.63867231973E+03  0.50400001928E-02 0.  1.
        1   -1    0    0  501    0  0.00000000000E+00  0.00000000000E+00 -0.26016482371E+04  0.26016482371E+04  0.50400001928E-02 0. -1.
    10030    2    1    2    0    0  0.00000000000E+00  0.00000000000E+00 -0.19629759174E+04  0.32403205569E+04  0.25780618415E+04 0.  0.
        2    1    3    3  502    0  0.16448989933E+03  0.12742891373E+04 -0.85128694016E+03  0.15412849143E+04  0.25500000920E-02 0. -1.
       -2    1    3    3    0  502 -0.16448989933E+03 -0.12742891373E+04 -0.11116889773E+04  0.16990356426E+04  0.25500000920E-02 0.  1.
</event>
<event>
 5   0  0.3579097E-05  0.2498796E+04  0.7818609E-02  0.8403414E-01
       -2   -1    0    0    0  501  0.00000000000E+00  0.00000000000E+00  0.93056826816E+03  0.93056826816E+03  0.25500000920E-02 0.  1.
        2   -1    0    0  501    0  0.00000000000E+00  0.00000000000E+00 -0.16774651776E+04  0.16774651776E+04  0.25500000920E-02 0. -1.
    10030    2    1    2    0    0  0.00000000000E+00  0.00000000000E+00 -0.74689690947E+03  0.26080334458E+04  0.24987964025E+04 0.  0.
        5    1    3    3  502    0  0.53368140957E+03 -0.43133458322E+03 -0.14631739926E+04  0.16160957868E+04  0.46999998093E+01 0. -1.
       -5    1    3    3    0  502 -0.53368140957E+03  0.43133458322E+03  0.71627708308E+03  0.99193765900E+03  0.46999998093E+01 0.  1.
</event>
<event>
 5   0  0.1456876E-05  0.2493703E+04  0.7818609E-02  0.8405232E-01
        1   -1    0    0  501    0  0.00000000000E+00  0.00000000000E+00  0.71523950279E+03  0.71523950281E+03  0.50400001928E-02 0.  1.
       -1   -1    0    0    0  501  0.00000000000E+00  0.00000000000E+00 -0.21735914035E+04  0.21735914035E+04  0.50400001928E-02 0. -1.
    10030    2    1    2    0    0  0.00000000000E+00  0.00000000000E+00 -0.14583519007E+04  0.28888309063E+04  0.24937028169E+04 0.  0.
        1    1    3    3  502    0 -0.42319732900E+03  0.29263680178E+03  0.58652286571E+03  0.78021878281E+03  0.50400001928E-02 0.  1.
       -1    1    3    3    0  502  0.42319732900E+03 -0.29263680178E+03 -0.20448747664E+04  0.21086121235E+04  0.50400001928E-02 0. -1.
</event>
<event>
 5   0  0.3650620E-05  0.2449615E+04  0.7818609E-02  0.8421159E-01
       -2   -1    0    0    0  501  0.00000000000E+00  0.00000000000E+00  0.94078393237E+03  0.94078393237E+03  0.25500000920E-02 0. -1.
        2   -1    0    0  501    0  0.00000000000E+00  0.00000000000E+00 -0.15945781828E+04  0.15945781828E+04  0.25500000920E-02 0.  1.
    10030    2    1    2    0    0  0.00000000000E+00  0.00000000000E+00 -0.65379425040E+03  0.25353621151E+04  0.24496150990E+04 0.  0.
        3    1    3    3  502    0 -0.34368587868E+03  0.11552089097E+04 -0.55253260396E+03  0.13258657160E+04  0.10100000352E+00 0. -1.
       -3    1    3    3    0  502  0.34368587868E+03 -0.11552089097E+04 -0.10126164644E+03  0.12094963991E+04  0.10100000352E+00 0.  1.
</event>
<event>
 5   0  0.3581449E-05  0.1894949E+04  0.7818609E-02  0.8657375E-01
        2   -1    0    0  501    0  0.00000000000E+00  0.00000000000E+00  0.18055853521E+04  0.18055853521E+04  0.25500000920E-02 0.  1.
       -2   -1    0    0    0  501  0.00000000000E+00  0.00000000000E+00 -0.49718394613E+03  0.49718394614E+03  0.25500000920E-02 0. -1.
    10030    2    1    2    0    0  0.00000000000E+00  0.00000000000E+00  0.13084014059E+04  0.23027692982E+04  0.18949491291E+04 0.  0.
        1    1    3    3  502    0 -0.80211657312E+03 -0.30913057081E+03  0.17000932542E+03  0.87627385984E+03  0.50400001928E-02 0. -1.
       -1    1    3    3    0  502  0.80211657312E+03  0.30913057081E+03  0.11383920805E+04  0.14264954384E+04  0.50400001928E-02 0.  1.
</event>
<event>
 5   0  0.3650620E-05  0.2494223E+04  0.7818609E-02  0.8405047E-01
        2   -1    0    0  501    0  0.00000000000E+00  0.00000000000E+00  0.11173546663E+04  0.11173546663E+04  0.25500000920E-02 0.  1.
       -2   -1    0    0    0  501  0.00000000000E+00  0.00000000000E+00 -0.13919364017E+04  0.13919364017E+04  0.25500000920E-02 0. -1.
    10030    2    1    2    0    0  0.00000000000E+00  0.00000000000E+00 -0.27458173534E+03  0.25092910680E+04  0.24942226314E+04 0.  0.
        3    1    3    3  502    0  0.82195084172E+03  0.78849663379E+03 -0.64825340474E+03  0.13105581310E+04  0.10100000352E+00 0. -1.
       -3    1    3    3    0  502 -0.82195084172E+03 -0.78849663379E+03  0.37367166940E+03  0.11987329371E+04  0.10100000352E+00 0.  1.
</event>
<event>
 5   0  0.1429483E-05  0.2569506E+04  0.7818609E-02  0.8378634E-01
       -1   -1    0    0    0  501  0.00000000000E+00  0.00000000000E+00  0.87560176822E+03  0.87560176823E+03  0.50400001928E-02 0. -1.
        1   -1    0    0  501    0  0.00000000000E+00  0.00000000000E+00 -0.18850923052E+04  0.18850923052E+04  0.50400001928E-02 0.  1.
    10030    2    1    2    0    0  0.00000000000E+00  0.00000000000E+00 -0.10094905369E+04  0.27606940734E+04  0.25695059102E+04 0.  0.
        2    1    3    3  502    0 -0.74435779228E+03 -0.10218285842E+04 -0.25883057608E+03  0.12904245215E+04  0.25500000920E-02 0.  1.
       -2    1    3    3    0  502  0.74435779228E+03  0.10218285842E+04 -0.75065996086E+03  0.14702695519E+04  0.25500000920E-02 0. -1.
</event>
<event>
 5   0  0.3578670E-05  0.2459975E+04  0.7818609E-02  0.8417385E-01
       -2   -1    0    0    0  501  0.00000000000E+00  0.00000000000E+00  0.12902768046E+04  0.12902768046E+04  0.25500000920E-02 0.  1.
        2   -1    0    0  501    0  0.00000000000E+00  0.00000000000E+00 -0.11725157192E+04  0.11725157192E+04  0.25500000920E-02 0. -1.
    10030    2    1    2    0    0  0.00000000000E+00  0.00000000000E+00  0.11776108536E+03  0.24627925238E+04  0.24599754759E+04 0.  0.
        4    1    3    3  502    0 -0.10852153266E+04 -0.38120343323E+03 -0.37734754678E+03  0.12105375445E+04  0.12699999809E+01 0. -1.
       -4    1    3    3    0  502  0.10852153266E+04  0.38120343323E+03  0.49510863214E+03  0.12522549793E+04  0.12699999809E+01 0.  1.
</event>
<event>
 5   0  0.1492639E-05  0.2462243E+04  0.7818609E-02  0.8416562E-01
       -1   -1    0    0    0  501  0.00000000000E+00  0.00000000000E+00  0.14947175891E+04  0.14947175891E+04  0.50400001928E-02 0.  1.
        1   -1    0    0  501    0  0.00000000000E+00  0.00000000000E+00 -0.10140108325E+04  0.10140108325E+04  0.50400001928E-02 0. -1.
    10030    2    1    2    0    0  0.00000000000E+00  0.00000000000E+00  0.48070675663E+03  0.25087284216E+04  0.24622427393E+04 0.  0.
        5    1    3    3  502    0  0.80453169080E+03  0.89151354605E+03  0.51671226586E+03  0.13073183621E+04  0.46999998093E+01 0. -1.
       -5    1    3    3    0  502 -0.80453169080E+03 -0.89151354605E+03 -0.36005509233E+02  0.12014100595E+04  0.46999998093E+01 0.  1.
</event>
<event>
 5   0  0.1429483E-05  0.2515713E+04  0.7818609E-02  0.8397409E-01
       -1   -1    0    0    0  501  0.00000000000E+00  0.00000000000E+00  0.84815859554E+03  0.84815859555E+03  0.50400001928E-02 0. -1.
        1   -1    0    0  501    0  0.00000000000E+00  0.00000000000E+00 -0.18654565009E+04  0.18654565010E+04  0.50400001928E-02 0.  1.
    10030    2    1    2    0    0  0.00000000000E+00  0.00000000000E+00 -0.10172979054E+04  0.27136150965E+04  0.25157129931E+04 0.  0.
        2    1    3    3  502    0 -0.40120185834E+03 -0.61321139518E+03  0.59413213620E+03  0.94338970822E+03  0.25500000920E-02 0. -1.
       -2    1    3    3    0  502  0.40120185834E+03  0.61321139518E+03 -0.16114300416E+04  0.17702253883E+04  0.25500000920E-02 0.  1.
</event>
<event>
 5   0  0.1429483E-05  0.2548911E+04  0.7818609E-02  0.8385765E-01
       -1   -1    0    0    0  501  0.00000000000E+00  0.00000000000E+00  0.15298973645E+04  0.15298973645E+04  0.50400001928E-02 0.  1.
        1   -1    0    0  501    0  0.00000000000E+00  0.00000000000E+00 -0.10616635611E+04  0.10616635611E+04  0.50400001928E-02 0. -1.
    10030    2    1    2    0    0  0.00000000000E+00  0.00000000000E+00  0.46823380345E+03  0.25915609256E+04  0.25489105784E+04 0.  0.
        2    1    3    3  502    0 -0.11937668794E+04  0.84986417567E+02 -0.21131676807E+03  0.12153011273E+04  0.25500000920E-02 0. -1.
       -2    1    3    3    0  502  0.11937668794E+04 -0.84986417567E+02  0.67955057152E+03  0.13762597984E+04  0.25500000920E-02 0.  1.
</event>
<event>
 5   0  0.1421242E-05  0.2529126E+04  0.7818609E-02  0.8392682E-01
        1   -1    0    0  501    0  0.00000000000E+00  0.00000000000E+00  0.13888429672E+04  0.13888429672E+04  0.50400001928E-02 0. -1.
       -1   -1    0    0    0  501  0.00000000000E+00  0.00000000000E+00 -0.11514044391E+04  0.11514044391E+04  0.50400001928E-02 0.  1.
    10030    2    1    2    0    0  0.00000000000E+00  0.00000000000E+00  0.23743852809E+03  0.25402474063E+04  0.25291262979E+04 0.  0.
        3    1    3    3  502    0 -0.65063610607E+03 -0.73535594143E+03  0.91912002214E+03  0.13449376671E+04  0.10100000352E+00 0. -1.
       -3    1    3    3    0  502  0.65063610607E+03  0.73535594143E+03 -0.68168149405E+03  0.11953097392E+04  0.10100000352E+00 0.  1.
</event>
<event>
 5   0  0.1492639E-05  0.2493934E+04  0.7818609E-02  0.8405150E-01
        1   -1    0    0  501    0  0.00000000000E+00  0.00000000000E+00  0.20653564743E+04  0.20653564743E+04  0.50400001928E-02 0.  1.
       -1   -1    0    0    0  501  0.00000000000E+00  0.00000000000E+00 -0.75286103239E+03  0.75286103241E+03  0.50400001928E-02 0. -1.
    10030    2    1    2    0    0  0.00000000000E+00  0.00000000000E+00  0.13124954419E+04  0.28182175067E+04  0.24939337662E+04 0.  0.
        5    1    3    3  502    0 -0.81302789276E+03 -0.57225747107E+03  0.15067110004E+04  0.18051850587E+04  0.46999998093E+01 0.  1.
       -5    1    3    3    0  502  0.81302789276E+03  0.57225747107E+03 -0.19421555843E+03  0.10130324480E+04  0.46999998093E+01 0. -1.
</event>
<event>
 5   0  0.3579097E-05  0.2469591E+04  0.7818609E-02  0.8413900E-01
        2   -1    0    0  501    0  0.00000000000E+00  0.00000000000E+00  0.11325192808E+04  0.11325192808E+04  0.25500000920E-02 0. -1.
       -2   -1    0    0    0  501  0.00000000000E+00  0.00000000000E+00 -0.13463080844E+04  0.13463080844E+04  0.25500000920E-02 0.  1.
    10030    2    1    2    0    0  0.00000000000E+00  0.00000000000E+00 -0.21378880366E+03  0.24788273652E+04  0.24695909487E+04 0.  0.
        5    1    3    3  502    0 -0.27529791848E+03 -0.11307574186E+04  0.30731896099E+03  0.12036894605E+04  0.46999998093E+01 0. -1.
       -5    1    3    3    0  502  0.27529791848E+03  0.11307574186E+04 -0.52110776465E+03  0.12751379047E+04  0.46999998093E+01 0.  1.
</event>
<event>
 5   0  0.1421242E-05  0.2091990E+04  0.7818609E-02  0.8564780E-01
       -1   -1    0    0    0  501  0.00000000000E+00  0.00000000000E+00  0.71893981361E+03  0.71893981362E+03  0.50400001928E-02 0. -1.
        1   -1    0    0  501    0  0.00000000000E+00  0.00000000000E+00 -0.15218320535E+04  0.15218320535E+04  0.50400001928E-02 0.  1.
    10030    2    1    2    0    0  0.00000000000E+00  0.00000000000E+00 -0.80289223987E+03  0.22407718671E+04  0.20919901079E+04 0.  0.
        3    1    3    3  502    0  0.29457667588E+03 -0.99745683578E+03 -0.28212277943E+03  0.10776311197E+04  0.10100000352E+00 0. -1.
       -3    1    3    3    0  502 -0.29457667588E+03  0.99745683578E+03 -0.52076946044E+03  0.11631407474E+04  0.10100000352E+00 0.  1.
</event>
<event>
 5   0  0.1492639E-05  0.2488629E+04  0.7818609E-02  0.8407048E-01
       -1   -1    0    0    0  501  0.00000000000E+00  0.00000000000E+00  0.11335793440E+04  0.11335793440E+04  0.50400001928E-02 0.  1.
        1   -1    0    0  501    0  0.00000000000E+00  0.00000000000E+00 -0.13658672638E+04  0.13658672638E+04  0.50400001928E-02 0. -1.
    10030    2    1    2    0    0  0.00000000000E+00  0.00000000000E+00 -0.23228791975E+03  0.24994466078E+04  0.24886292749E+04 0.  0.
        5    1    3    3  502    0 -0.10259953053E+04  0.52595033603E+03  0.35387173839E+03  0.12060420472E+04  0.46999998093E+01 0.  1.
       -5    1    3    3    0  502  0.10259953053E+04 -0.52595033603E+03 -0.58615965814E+03  0.12934045606E+04  0.46999998093E+01 0. -1.
</event>
<event>
 5   0  0.1502886E-05  0.2493353E+04  0.7818609E-02  0.8405358E-01
        1   -1    0    0  501    0  0.00000000000E+00  0.00000000000E+00  0.15230885706E+04  0.15230885706E+04  0.50400001928E-02 0.  1.
       -1   -1    0    0    0  501  0.00000000000E+00  0.00000000000E+00 -0.10204277098E+04  0.10204277098E+04  0.50400001928E-02 0. -1.
    10030    2    1    2    0    0  0.00000000000E+00  0.00000000000E+00  0.50266086073E+03  0.25435162804E+04  0.24933525879E+04 0.  0.
        4    1    3    3  502    0 -0.11674102007E+04  0.11539877656E+03 -0.17910262004E+03  0.11866940699E+04  0.12699999809E+01 0.  1.
       -4    1    3    3    0  502  0.11674102007E+04 -0.11539877656E+03  0.68176348077E+03  0.13568222105E+04  0.12699999809E+01 0. -1.
</event>
<event>
 5   0  0.1429483E-05  0.2152205E+04  0.7818609E-02  0.8538589E-01
        1   -1    0    0  501    0  0.00000000000E+00  0.00000000000E+00  0.10295397791E+04  0.10295397791E+04  0.50400001928E-02 0.  1.
       -1   -1    0    0    0  501  0.00000000000E+00  0.00000000000E+00 -0.11247714659E+04  0.11247714659E+04  0.50400001928E-02 0. -1.
    10030    2    1    2    0    0  0.00000000000E+00  0.00000000000E+00 -0.95231686788E+02  0.21543112450E+04  0.21522053495E+04 0.  0.
        2    1    3    3  502    0  0.81710934579E+03 -0.49284902783E+03 -0.54552503837E+03  0.10991657813E+04  0.25500000920E-02 0.  1.
       -2    1    3    3    0  502 -0.81710934579E+03  0.49284902783E+03  0.45029335158E+03  0.10551454638E+04  0.25500000920E-02 0. -1.
</event>
<event>
 5   0  0.3704241E-05  0.2505990E+04  0.7818609E-02  0.8400855E-01
       -2   -1    0    0    0  501  0.00000000000E+00  0.00000000000E+00  0.75683928143E+03  0.75683928143E+03  0.25500000920E-02 0. -1.
        2   -1    0    0  501    0  0.00000000000E+00  0.00000000000E+00 -0.20744114886E+04  0.20744114886E+04  0.25500000920E-02 0.  1.
    10030    2    1    2    0    0  0.00000000000E+00  0.00000000000E+00 -0.13175722072E+04  0.28312507700E+04  0.25059897050E+04 0.  0.
        2    1    3    3  502    0  0.94629516520E+03  0.19710573812E+03  0.24198659847E+03  0.99643500818E+03  0.25500000920E-02 0. -1.
       -2    1    3    3    0  502 -0.94629516520E+03 -0.19710573812E+03 -0.15595588056E+04  0.18348157619E+04  0.25500000920E-02 0.  1.
</event>
<event>
 5   0  0.3650620E-05  0.2496900E+04  0.7818609E-02  0.8404091E-01
       -2   -1    0    0    0  501  0.00000000000E+00  0.00000000000E+00  0.13013641800E+04  0.13013641800E+04  0.25500000920E-02 0. -1.
        2   -1    0    0  501    0  0.00000000000E+00  0.00000000000E+00 -0.11976878025E+04  0.11976878025E+04  0.25500000920E-02 0.  1.
    10030    2    1    2    0    0  0.00000000000E+00  0.00000000000E+00  0.10367637747E+03  0.24990519825E+04  0.24969004826E+04 0.  0.
        3    1    3    3  502    0  0.11626864608E+04 -0.43377119710E+03 -0.84773883057E+02  0.12438584642E+04  0.10100000352E+00 0.  1.
       -3    1    3    3    0  502 -0.11626864608E+04  0.43377119710E+03  0.18845026053E+03  0.12551935183E+04  0.10100000352E+00 0. -1.
</event>
<event>
 5   0  0.3578670E-05  0.2560155E+04  0.7818609E-02  0.8381863E-01
       -2   -1    0    0    0  501  0.00000000000E+00  0.00000000000E+00  0.97090302146E+03  0.97090302147E+03  0.25500000920E-02 0. -1.
        2   -1    0    0  501    0  0.00000000000E+00  0.00000000000E+00 -0.16877053149E+04  0.16877053149E+04  0.25500000920E-02 0.  1.
    10030    2    1    2    0    0  0.00000000000E+00  0.00000000000E+00 -0.71680229346E+03  0.26586083364E+04  0.25601548309E+04 0.  0.
        4    1    3    3  502    0  0.77727493978E+03 -0.97370369440E+03 -0.53262248161E+02  0.12470339596E+04  0.12699999809E+01 0.  1.
       -4    1    3    3    0  502 -0.77727493978E+03  0.97370369440E+03 -0.66354004530E+03  0.14115743768E+04  0.12699999809E+01 0. -1.
</event>
<event>
 5   0  0.1492639E-05  0.2479768E+04  0.7818609E-02  0.8410229E-01
        1   -1    0    0  501    0  0.00000000000E+00  0.00000000000E+00  0.11413209717E+04  0.11413209717E+04  0.50400001928E-02 0.  1.
       -1   -1    0    0    0  501  0.00000000000E+00  0.00000000000E+00 -0.13469583788E+04  0.13469583788E+04  0.50400001928E-02 0. -1.
    10030    2    1    2    0    0  0.00000000000E+00  0.00000000000E+00 -0.20563740710E+03  0.24882793504E+04  0.24797676066E+04 0.  0.
        5    1    3    3  502    0 -0.24734088329E+03  0.95006365352E+03 -0.86271017272E+03  0.13069389390E+04  0.46999998093E+01 0. -1.
       -5    1    3    3    0  502  0.24734088329E+03 -0.95006365352E+03  0.65707276561E+03  0.11813404114E+04  0.46999998093E+01 0.  1.
</event>
<event>
 5   0  0.3581449E-05  0.2496101E+04  0.7818609E-02  0.8404376E-01
       -2   -1    0    0    0  501  0.00000000000E+00  0.00000000000E+00  0.13299307700E+04  0.13299307700E+04  0.25500000920E-02 0. -1.
        2   -1    0    0  501    0  0.00000000000E+00  0.00000000000E+00 -0.11712110084E+04  0.11712110084E+04  0.25500000920E-02 0.  1.
    10030    2    1    2    0    0  0.00000000000E+00  0.00000000000E+00  0.15871976162E+03  0.25011417784E+04  0.24961006056E+04 0.  0.
        1    1    3    3  502    0  0.26681989553E+02  0.68741048623E+03  0.11228008056E+04  0.13167865257E+04  0.50400001928E-02 0. -1.
       -1    1    3    3    0  502 -0.26681989553E+02 -0.68741048623E+03 -0.96408104402E+03  0.11843552527E+04  0.50400001928E-02 0.  1.
</event>
<event>
 5   0  0.3579097E-05  0.2487843E+04  0.7818609E-02  0.8407329E-01
       -2   -1    0    0    0  501  0.00000000000E+00  0.00000000000E+00  0.70240387875E+03  0.70240387875E+03  0.25500000920E-02 0. -1.
        2   -1    0    0  501    0  0.00000000000E+00  0.00000000000E+00 -0.22029214392E+04  0.22029214392E+04  0.25500000920E-02 0.  1.
    10030    2    1    2    0    0  0.00000000000E+00  0.00000000000E+00 -0.15005175604E+04  0.29053253179E+04  0.24878428917E+04 0.  0.
        5    1    3    3  502    0  0.12295347243E+04 -0.15643975061E+02 -0.96972641930E+03  0.15660114273E+04  0.46999998093E+01 0. -1.
       -5    1    3    3    0  502 -0.12295347243E+04  0.15643975061E+02 -0.53079114113E+03  0.13393138906E+04  0.46999998093E+01 0.  1.
</event>
<event>
 5   0  0.1502886E-05  0.2644906E+04  0.7818609E-02  0.8353106E-01
        1   -1    0    0  501    0  0.00000000000E+00  0.00000000000E+00  0.14140776243E+04  0.14140776243E+04  0.50400001928E-02 0. -1.
       -1   -1    0    0    0  501  0.00000000000E+00  0.00000000000E+00 -0.12367652352E+04  0.12367652352E+04  0.50400001928E-02 0.  1.
    10030    2    1    2    0    0  0.00000000000E+00  0.00000000000E+00  0.17731238912E+03  0.26508428596E+04  0.26449060820E+04 0.  0.
        4    1    3    3  502    0 -0.12481980140E+04  0.40949381410E+03 -0.63991176326E+02  0.13152109905E+04  0.12699999809E+01 0.  1.
       -4    1    3    3    0  502  0.12481980140E+04 -0.40949381410E+03  0.24130356544E+03  0.13356318691E+04  0.12699999809E+01 0. -1.
</event>
<event>
 5   0  0.1429483E-05  0.2512718E+04  0.7818609E-02  0.8398469E-01
        1   -1    0    0  501    0  0.00000000000E+00  0.00000000000E+00  0.11175711594E+04  0.11175711594E+04  0.50400001928E-02 0.  1.
       -1   -1    0    0    0  501  0.00000000000E+00  0.00000000000E+00 -0.14123828214E+04  0.14123828214E+04  0.50400001928E-02 0. -1.
    10030    2    1    2    0    0  0.00000000000E+00  0.00000000000E+00 -0.29481166204E+03  0.25299539808E+04  0.25127182948E+04 0.  0.
        2    1    3    3  502    0  0.28079079914E+03  0.48406548441E+03  0.98515453392E+03  0.11330014659E+04  0.25500000920E-02 0.  1.
       -2    1    3    3    0  502 -0.28079079914E+03 -0.48406548441E+03 -0.12799661960E+04  0.13969525149E+04  0.25500000920E-02 0. -1.
</event>
<event>
 5   0  0.1429483E-05  0.2508303E+04  0.7818609E-02  0.8400034E-01
       -1   -1    0    0    0  501  0.00000000000E+00  0.00000000000E+00  0.65233121685E+03  0.65233121687E+03  0.50400001928E-02 0.  1.
        1   -1    0    0  501    0  0.00000000000E+00  0.00000000000E+00 -0.24111920174E+04  0.24111920174E+04  0.50400001928E-02 0. -1.
    10030    2    1    2    0    0  0.00000000000E+00  0.00000000000E+00 -0.17588608005E+04  0.30635232343E+04  0.25083028707E+04 0.  0.
        2    1    3    3  502    0 -0.78608510284E+03 -0.17235545447E+03  0.29539414212E+03  0.85725952360E+03  0.25500000920E-02 0.  1.
       -2    1    3    3    0  502  0.78608510284E+03  0.17235545447E+03 -0.20542549426E+04  0.22062637107E+04  0.25500000920E-02 0. -1.
</event>
<event>
 5   0  0.1492639E-05  0.2477853E+04  0.7818609E-02  0.8410918E-01
       -1   -1    0    0    0  501  0.00000000000E+00  0.00000000000E+00  0.16906182764E+04  0.16906182764E+04  0.50400001928E-02 0.  1.
        1   -1    0    0  501    0  0.00000000000E+00  0.00000000000E+00 -0.90791568007E+03  0.90791568009E+03  0.50400001928E-02 0. -1.
    10030    2    1    2    0    0  0.00000000000E+00  0.00000000000E+00  0.78270259628E+03  0.25985339564E+04  0.24778529756E+04 0.  0.
        5    1    3    3  502    0  0.96853343183E+03  0.14480092673E+03 -0.40448464453E+03  0.10595537903E+04  0.46999998093E+01 0. -1.
       -5    1    3    3    0  502 -0.96853343183E+03 -0.14480092673E+03  0.11871872408E+04  0.15389801661E+04  0.46999998093E+01 0.  1.
</event>
<event>
 5   0  0.1502886E-05  0.2594492E+04  0.7818609E-02  0.8370075E-01
       -1   -1    0    0    0  501  0.00000000000E+00  0.00000000000E+00  0.13272350045E+04  0.13272350045E+04  0.50400001928E-02 0.  1.
        1   -1    0    0  501    0  0.00000000000E+00  0.00000000000E+00 -0.12679347138E+04  0.12679347138E+04  0.50400001928E-02 0. -1.
    10030    2    1    2    0    0  0.00000000000E+00  0.00000000000E+00  0.59300290693E+02  0.25951697183E+04  0.25944921165E+04 0.  0.
        4    1    3    3  502    0 -0.23984671259E+02  0.10020580955E+04  0.85336387103E+03  0.13164069281E+04  0.12699999809E+01 0.  1.
       -4    1    3    3    0  502  0.23984671259E+02 -0.10020580955E+04 -0.79406358033E+03  0.12787627902E+04  0.12699999809E+01 0. -1.
</event>
<event>
 5   0  0.3704241E-05  0.2549365E+04  0.7818609E-02  0.8385607E-01
        2   -1    0    0  501    0  0.00000000000E+00  0.00000000000E+00  0.12790417449E+04  0.12790417449E+04  0.25500000920E-02 0.  1.
       -2   -1    0    0    0  501  0.00000000000E+00  0.00000000000E+00 -0.12703381285E+04  0.12703381285E+04  0.25500000920E-02 0. -1.
    10030    2    1    2    0    0  0.00000000000E+00  0.00000000000E+00  0.87036163912E+01  0.25493798733E+04  0.25493650162E+04 0.  0.
        2    1    3    3  502    0 -0.10416990525E+04  0.73264155535E+03 -0.49638615843E+02  0.12745056127E+04  0.25500000920E-02 0. -1.
       -2    1    3    3    0  502  0.10416990525E+04 -0.73264155535E+03  0.58342232234E+02  0.12748742607E+04  0.25500000920E-02 0.  1.
</event>
<event>
 5   0  0.3704241E-05  0.2616546E+04  0.7818609E-02  0.8362603E-01
       -2   -1    0    0    0  501  0.00000000000E+00  0.00000000000E+00  0.12382552938E+04  0.12382552938E+04  0.25500000920E-02 0.  1.
        2   -1    0    0  501    0  0.00000000000E+00  0.00000000000E+00 -0.13822499167E+04  0.13822499167E+04  0.25500000920E-02 0. -1.
    10030    2    1    2    0    0  0.00000000000E+00  0.00000000000E+00 -0.14399462288E+03  0.26205052105E+04  0.26165460261E+04 0.  0.
        2    1    3    3  502    0  0.11010958734E+04  0.69816045130E+03 -0.18050393916E+03  0.13162149559E+04  0.25500000920E-02 0.  1.
       -2    1    3    3    0  502 -0.11010958734E+04 -0.69816045130E+03  0.36509316278E+02  0.13042902546E+04  0.25500000920E-02 0. -1.
</event>
<event>
 5   0  0.3650620E-05  0.2518010E+04  0.7818609E-02  0.8396597E-01
       -2   -1    0    0    0  501  0.00000000000E+00  0.00000000000E+00  0.10623158365E+04  0.10623158365E+04  0.25500000920E-02 0.  1.
        2   -1    0    0  501    0  0.00000000000E+00  0.00000000000E+00 -0.14921118014E+04  0.14921118014E+04  0.25500000920E-02 0. -1.
    10030    2    1    2    0    0  0.00000000000E+00  0.00000000000E+00 -0.42979596494E+03  0.25544276379E+04  0.25180103228E+04 0.  0.
        3    1    3    3  502    0 -0.69210155601E+03 -0.28386455776E+03  0.81242290686E+03  0.11043616440E+04  0.10100000352E+00 0.  1.
       -3    1    3    3    0  502  0.69210155601E+03  0.28386455776E+03 -0.12422188718E+04  0.14500659939E+04  0.10100000352E+00 0. -1.
</event>
<event>
 5   0  0.1456876E-05  0.2509272E+04  0.7818609E-02  0.8399690E-01
       -1   -1    0    0    0  501  0.00000000000E+00  0.00000000000E+00  0.99749771059E+03  0.99749771060E+03  0.50400001928E-02 0. -1.
        1   -1    0    0  501    0  0.00000000000E+00  0.00000000000E+00 -0.15780600325E+04  0.15780600325E+04  0.50400001928E-02 0.  1.
    10030    2    1    2    0    0  0.00000000000E+00  0.00000000000E+00 -0.58056232192E+03  0.25755577431E+04  0.25092718224E+04 0.  0.
        1    1    3    3  502    0  0.21034666585E+03  0.50305235570E+03  0.86952571112E+03  0.10263441697E+04  0.50400001928E-02 0. -1.
       -1    1    3    3    0  502 -0.21034666585E+03 -0.50305235570E+03 -0.14500880330E+04  0.15492135734E+04  0.50400001928E-02 0.  1.
</event>
<event>
 5   0  0.1429483E-05  0.2496803E+04  0.7818609E-02  0.8404125E-01
       -1   -1    0    0    0  501  0.00000000000E+00  0.00000000000E+00  0.83084792668E+03  0.83084792670E+03  0.50400001928E-02 0.  1.
        1   -1    0    0  501    0  0.00000000000E+00  0.00000000000E+00 -0.18758024250E+04  0.18758024250E+04  0.50400001928E-02 0. -1.
    10030    2    1    2    0    0  0.00000000000E+00  0.00000000000E+00 -0.10449544983E+04  0.27066503517E+04  0.24968032007E+04 0.  0.
        2    1    3    3  502    0 -0.72314430553E+03  0.26738442600E+03  0.54191849212E+03  0.94239469969E+03  0.25500000920E-02 0.  1.
       -2    1    3    3    0  502  0.72314430553E+03 -0.26738442600E+03 -0.15868729905E+04  0.17642556520E+04  0.25500000920E-02 0. -1.
</event>
<event>
 5   0  0.1429483E-05  0.2563801E+04  0.7818609E-02  0.8380602E-01
       -1   -1    0    0    0  501  0.00000000000E+00  0.00000000000E+00  0.12838578047E+04  0.12838578047E+04  0.50400001928E-02 0.  1.
        1   -1    0    0  501    0  0.00000000000E+00  0.00000000000E+00 -0.12799460835E+04  0.12799460835E+04  0.50400001928E-02 0. -1.
    10030    2    1    2    0    0  0.00000000000E+00  0.00000000000E+00  0.39117211927E+01  0.25638038882E+04  0.25638009040E+04 0.  0.
        2    1    3    3  502    0  0.42605920584E+03 -0.11031617918E+04  0.49670524465E+03  0.12826568075E+04  0.25500000920E-02 0.  1.
       -2    1    3    3    0  502 -0.42605920584E+03  0.11031617918E+04 -0.49279352345E+03  0.12811470807E+04  0.25500000920E-02 0. -1.
</event>
<event>
 5   0  0.3650620E-05  0.2481029E+04  0.7818609E-02  0.8409775E-01
        2   -1    0    0  501    0  0.00000000000E+00  0.00000000000E+00  0.12512841263E+04  0.12512841263E+04  0.25500000920E-02 0.  1.
       -2   -1    0    0    0  501  0.00000000000E+00  0.00000000000E+00 -0.12298376629E+04  0.12298376629E+04  0.25500000920E-02 0. -1.
    10030    2    1    2    0    0  0.00000000000E+00  0.00000000000E+00  0.21446463459E+02  0.24811217892E+04  0.24810290974E+04 0.  0.
        3    1    3    3  502    0 -0.80988539897E+03  0.24856936578E+03  0.91694428976E+03  0.12483941404E+04  0.10100000352E+00 0.  1.
       -3    1    3    3    0  502  0.80988539897E+03 -0.24856936578E+03 -0.89549782630E+03  0.12327276488E+04  0.10100000352E+00 0. -1.
</event>
<event>
 5   0  0.3704241E-05  0.2528845E+04  0.7818609E-02  0.8392781E-01
       -2   -1    0    0    0  501  0.00000000000E+00  0.00000000000E+00  0.11489236273E+04  0.11489236273E+04  0.25500000920E-02 0. -1.
        2   -1    0    0  501    0  0.00000000000E+00  0.00000000000E+00 -0.13915320418E+04  0.13915320418E+04  0.25500000920E-02 0.  1.
    10030    2    1    2    0    0  0.00000000000E+00  0.00000000000E+00 -0.24260841448E+03  0.25404556691E+04  0.25288448280E+04 0.  0.
        2    1    3    3  502    0  0.49903416400E+03  0.77511339442E+03 -0.99068396198E+03  0.13532518552E+04  0.25500000920E-02 0.  1.
       -2    1    3    3    0  502 -0.49903416400E+03 -0.77511339442E+03  0.74807554751E+03  0.11872038139E+04  0.25500000920E-02 0. -1.
</event>
<event>
 5   0  0.3704241E-05  0.2292346E+04  0.7818609E-02  0.8480945E-01
       -2   -1    0    0    0  501  0.00000000000E+00  0.00000000000E+00  0.15793631016E+04  0.15793631016E+04  0.25500000920E-02 0. -1.
        2   -1    0    0  501    0  0.00000000000E+00  0.00000000000E+00 -0.83179925733E+03  0.83179925734E+03  0.25500000920E-02 0.  1.
    10030    2    1    2    0    0  0.00000000000E+00  0.00000000000E+00  0.74756384429E+03  0.24111623590E+04  0.22923464441E+04 0.  0.
        2    1    3    3  502    0  0.58653721633E+03  0.37829846897E+03 -0.58250445616E+03  0.90909134811E+03  0.25500000920E-02 0.  1.
       -2    1    3    3    0  502 -0.58653721633E+03 -0.37829846897E+03  0.13300683005E+04  0.15020710109E+04  0.25500000920E-02 0. -1.
</event>
<event>
 5   0  0.1502886E-05  0.2533102E+04  0.7818609E-02  0.8391287E-01
       -1   -1    0    0    0  501  0.00000000000E+00  0.00000000000E+00  0.10979621163E+04  0.10979621163E+04  0.50400001928E-02 0. -1.
        1   -1    0    0  501    0  0.00000000000E+00  0.00000000000E+00 -0.14610261603E+04  0.14610261604E+04  0.50400001928E-02 0.  1.
    10030    2    1    2    0    0  0.00000000000E+00  0.00000000000E+00 -0.36306404404E+03  0.25589882767E+04  0.25331019522E+04 0.  0.
        4    1    3    3  502    0 -0.10791840497E+03 -0.42820299682E+03  0.10176733271E+04  0.11093533262E+04  0.12699999809E+01 0. -1.
       -4    1    3    3    0  502  0.10791840497E+03  0.42820299682E+03 -0.13807373712E+04  0.14496349505E+04  0.12699999809E+01 0.  1.
</event>
<event>
 5   0  0.1201438E-05  0.2498133E+04  0.7818609E-02  0.8403651E-01
       -3   -1    0    0    0  501  0.00000000000E+00  0.00000000000E+00  0.18297559140E+04  0.18297559168E+04  0.10100000352E+00 0.  1.
        3   -1    0    0  501    0  0.00000000000E+00  0.00000000000E+00 -0.85266409100E+03  0.85266409698E+03  0.10100000352E+00 0. -1.
    10030    2    1    2    0    0  0.00000000000E+00  0.00000000000E+00  0.97709182302E+03  0.26824200138E+04  0.24981330429E+04 0.  0.
        5    1    3    3  502    0 -0.87251136064E+03  0.57389767245E+03  0.12243019897E+04  0.16092147355E+04  0.46999998093E+01 0.  1.
       -5    1    3    3    0  502  0.87251136064E+03 -0.57389767245E+03 -0.24721016669E+03  0.10732052783E+04  0.46999998093E+01 0. -1.
</event>
<event>
 5   0  0.3581449E-05  0.2487845E+04  0.7818609E-02  0.8407328E-01
        2   -1    0    0  501    0  0.00000000000E+00  0.00000000000E+00  0.12244229193E+04  0.12244229193E+04  0.25500000920E-02 0. -1.
       -2   -1    0    0    0  501  0.00000000000E+00  0.00000000000E+00 -0.12637331152E+04  0.12637331152E+04  0.25500000920E-02 0.  1.
    10030    2    1    2    0    0  0.00000000000E+00  0.00000000000E+00 -0.39310195947E+02  0.24881560345E+04  0.24878454856E+04 0.  0.
        1    1    3    3  502    0  0.47342561399E+03  0.80366325692E+03 -0.84276290217E+03  0.12570822375E+04  0.50400001928E-02 0.  1.
       -1    1    3    3    0  502 -0.47342561399E+03 -0.80366325692E+03  0.80345270622E+03  0.12310737970E+04  0.50400001928E-02 0. -1.
</event>
<event>
 5   0  0.3650620E-05  0.2466386E+04  0.7818609E-02  0.8415059E-01
        2   -1    0    0  501    0  0.00000000000E+00  0.00000000000E+00  0.15585623748E+04  0.15585623748E+04  0.25500000920E-02 0.  1.
       -2   -1    0    0    0  501  0.00000000000E+00  0.00000000000E+00 -0.97574886492E+03  0.97574886492E+03  0.25500000920E-02 0. -1.
    10030    2    1    2    0    0  0.00000000000E+00  0.00000000000E+00  0.58281350991E+03  0.25343112398E+04  0.24663863997E+04 0.  0.
        3    1    3    3  502    0 -0.65135900097E+03  0.48023497545E+03 -0.66474207898E+03  0.10472708444E+04  0.10100000352E+00 0. -1.
       -3    1    3    3    0  502  0.65135900097E+03 -0.48023497545E+03  0.12475555889E+04  0.14870403953E+04  0.10100000352E+00 0.  1.
</event>
<event>
 5   0  0.1429483E-05  0.2520911E+04  0.7818609E-02  0.8395574E-01
        1   -1    0    0  501    0  0.00000000000E+00  0.00000000000E+00  0.15713959287E+04  0.15713959287E+04  0.50400001928E-02 0.  1.
       -1   -1    0    0    0  501  0.00000000000E+00  0.00000000000E+00 -0.10110424466E+04  0.10110424466E+04  0.50400001928E-02 0. -1.
    10030    2    1    2    0    0  0.00000000000E+00  0.00000000000E+00  0.56035348213E+03  0.25824383753E+04  0.25209109341E+04 0.  0.
        2    1    3    3  502    0  0.10027883982E+04  0.16418580938E+03 -0.48381817477E+03  0.11254428363E+04  0.25500000920E-02 0. -1.
       -2    1    3    3    0  502 -0.10027883982E+04 -0.16418580938E+03  0.10441716569E+04  0.14569955390E+04  0.25500000920E-02 0.  1.
</event>
<event>
 5   0  0.3650620E-05  0.2513492E+04  0.7818609E-02  0.8398195E-01
       -2   -1    0    0    0  501  0.00000000000E+00  0.00000000000E+00  0.94320744533E+03  0.94320744533E+03  0.25500000920E-02 0.  1.
        2   -1    0    0  501    0  0.00000000000E+00  0.00000000000E+00 -0.16745097916E+04  0.16745097916E+04  0.25500000920E-02 0. -1.
    10030    2    1    2    0    0  0.00000000000E+00  0.00000000000E+00 -0.73130234630E+03  0.26177172370E+04  0.25134916771E+04 0.  0.
        3    1    3    3  502    0 -0.33017935287E+03  0.17438576285E+03 -0.16154027872E+04  0.16579972782E+04  0.10100000352E+00 0. -1.
       -3    1    3    3    0  502  0.33017935287E+03 -0.17438576285E+03  0.88410044094E+03  0.95971995875E+03  0.10100000352E+00 0.  1.
</event>
<event>
 5   0  0.3704241E-05  0.2469272E+04  0.7818609E-02  0.8414015E-01
       -2   -1    0    0    0  501  0.00000000000E+00  0.00000000000E+00  0.64472066173E+03  0.64472066173E+03  0.25500000920E-02 0.  1.
        2   -1    0    0  501    0  0.00000000000E+00  0.00000000000E+00 -0.23643193180E+04  0.23643193180E+04  0.25500000920E-02 0. -1.
    10030    2    1    2    0    0  0.00000000000E+00  0.00000000000E+00 -0.17195986563E+04  0.30090399797E+04  0.24692715649E+04 0.  0.
        2    1    3    3  502    0  0.51332532136E+03 -0.71579862223E+02 -0.22253312871E+04  0.22848907851E+04  0.25500000920E-02 0. -1.
       -2    1    3    3    0  502 -0.51332532136E+03  0.71579862223E+02  0.50573263085E+03  0.72414919467E+03  0.25500000920E-02 0.  1.
</event>
<event>
 5   0  0.3579097E-05  0.2576461E+04  0.7818609E-02  0.8376241E-01
        2   -1    0    0  501    0  0.00000000000E+00  0.00000000000E+00  0.12021501192E+04  0.12021501192E+04  0.25500000920E-02 0. -1.
       -2   -1    0    0    0  501  0.00000000000E+00  0.00000000000E+00 -0.13804746740E+04  0.13804746740E+04  0.25500000920E-02 0.  1.
    10030    2    1    2    0    0  0.00000000000E+00  0.00000000000E+00 -0.17832455482E+03  0.25826247931E+04  0.25764609788E+04 0.  0.
        5    1    3    3  502    0  0.96843534941E+03  0.87148906956E+02 -0.93620086892E+03  0.13497985461E+04  0.46999998093E+01 0.  1.
       -5    1    3    3    0  502 -0.96843534941E+03 -0.87148906956E+02  0.75787631411E+03  0.12328262471E+04  0.46999998093E+01 0. -1.
</event>
<event>
 5   0  0.1492639E-05  0.2123559E+04  0.7818609E-02  0.8550936E-01
        1   -1    0    0  501    0  0.00000000000E+00  0.00000000000E+00  0.17968718674E+04  0.17968718674E+04  0.50400001928E-02 0. -1.
       -1   -1    0    0    0  501  0.00000000000E+00  0.00000000000E+00 -0.62741015055E+03  0.62741015057E+03  0.50400001928E-02 0.  1.
    10030    2    1    2    0    0  0.00000000000E+00  0.00000000000E+00  0.11694617169E+04  0.24242820180E+04  0.21235589456E+04 0.  0.
        5    1    3    3  502    0 -0.78079579381E+02 -0.99130952304E+03  0.10096847208E+04  0.14171366612E+04  0.46999998093E+01 0. -1.
       -5    1    3    3    0  502  0.78079579381E+02  0.99130952304E+03  0.15977699610E+03  0.10071453568E+04  0.46999998093E+01 0.  1.
</event>
<event>
 5   0  0.1492639E-05  0.1791742E+04  0.7818609E-02  0.8710703E-01
       -1   -1    0    0    0  501  0.00000000000E+00  0.00000000000E+00  0.10409687622E+04  0.10409687622E+04  0.50400001928E-02 0. -1.
        1   -1    0    0  501    0  0.00000000000E+00  0.00000000000E+00 -0.77099826829E+03  0.77099826831E+03  0.50400001928E-02 0.  1.
    10030    2    1    2    0    0  0.00000000000E+00  0.00000000000E+00  0.26997049394E+03  0.18119670306E+04  0.17917422951E+04 0.  0.
        5    1    3    3  502    0  0.46673232198E+03 -0.72657442323E+03  0.37603172279E+03  0.94189776484E+03  0.46999998093E+01 0. -1.
       -5    1    3    3    0  502 -0.46673232198E+03  0.72657442323E+03 -0.10606122885E+03  0.87006926571E+03  0.46999998093E+01 0.  1.
</event>
<event>
 5   0  0.3581449E-05  0.2532003E+04  0.7818609E-02  0.8391672E-01
       -2   -1    0    0    0  501  0.00000000000E+00  0.00000000000E+00  0.13863369307E+04  0.13863369307E+04  0.25500000920E-02 0. -1.
        2   -1    0    0  501    0  0.00000000000E+00  0.00000000000E+00 -0.11561114222E+04  0.11561114222E+04  0.25500000920E-02 0.  1.
    10030    2    1    2    0    0  0.00000000000E+00  0.00000000000E+00  0.23022550847E+03  0.25424483529E+04  0.25320031284E+04 0.  0.
        1    1    3    3  502    0  0.70639412949E+03 -0.90953677147E+03  0.64312433136E+03  0.13190370391E+04  0.50400001928E-02 0. -1.
       -1    1    3    3    0  502 -0.70639412949E+03  0.90953677147E+03 -0.41289882288E+03  0.12234113138E+04  0.50400001928E-02 0.  1.
</event>
<event>
 5   0  0.1502886E-05  0.2447112E+04  0.7818609E-02  0.8422073E-01
       -1   -1    0    0    0  501  0.00000000000E+00  0.00000000000E+00  0.85708677674E+03  0.85708677676E+03  0.50400001928E-02 0.  1.
        1   -1    0    0  501    0  0.00000000000E+00  0.00000000000E+00 -0.17467189338E+04  0.17467189338E+04  0.50400001928E-02 0. -1.
    10030    2    1    2    0    0  0.00000000000E+00  0.00000000000E+00 -0.88963215705E+03  0.26038057106E+04  0.24471123398E+04 0.  0.
        4    1    3    3  502    0 -0.10548768881E+04 -0.40864341467E+03 -0.94085745486E+03  0.14713833806E+04  0.12699999809E+01 0.  1.
       -4    1    3    3    0  502  0.10548768881E+04  0.40864341467E+03  0.51225297806E+02  0.11324223300E+04  0.12699999809E+01 0. -1.
</event>
<event>
 5   0  0.3704241E-05  0.2627978E+04  0.7818609E-02  0.8358759E-01
       -2   -1    0    0    0  501  0.00000000000E+00  0.00000000000E+00  0.15768488463E+04  0.15768488463E+04  0.25500000920E-02 0. -1.
        2   -1    0    0  501    0  0.00000000000E+00  0.00000000000E+00 -0.10949480993E+04  0.10949480993E+04  0.25500000920E-02 0.  1.
    10030    2    1    2    0    0  0.00000000000E+00  0.00000000000E+00  0.48190074703E+03  0.26717969456E+04  0.26279784224E+04 0.  0.
        2    1    3    3  502    0  0.62107485543E+03  0.89567656884E+01 -0.93626551545E+03  0.11235690077E+04  0.25500000920E-02 0.  1.
       -2    1    3    3    0  502 -0.62107485543E+03 -0.89567656884E+01  0.14181662625E+04  0.15482279379E+04  0.25500000920E-02 0. -1.
</event>
<event>
 5   0  0.1456876E-05  0.2503870E+04  0.7818609E-02  0.8401608E-01
        1   -1    0    0  501    0  0.00000000000E+00  0.00000000000E+00  0.15524484490E+04  0.15524484490E+04  0.50400001928E-02 0. -1.
       -1   -1    0    0    0  501  0.00000000000E+00  0.00000000000E+00 -0.10095934182E+04  0.10095934182E+04  0.50400001928E-02 0.  1.
    10030    2    1    2    0    0  0.00000000000E+00  0.00000000000E+00  0.54285503076E+03  0.25620418672E+04  0.25038703930E+04 0.  0.
        1    1    3    3  502    0 -0.70706456751E+03  0.94844435724E+03  0.69064672578E+03  0.13698466707E+04  0.50400001928E-02 0. -1.
       -1    1    3    3    0  502  0.70706456751E+03 -0.94844435724E+03 -0.14779169502E+03  0.11921951965E+04  0.50400001928E-02 0.  1.
</event>
<event>
 5   0  0.3578670E-05  0.2547059E+04  0.7818609E-02  0.8386410E-01
        2   -1    0    0  501    0  0.00000000000E+00  0.00000000000E+00  0.25097924751E+04  0.25097924751E+04  0.25500000920E-02 0. -1.
       -2   -1    0    0    0  501  0.00000000000E+00  0.00000000000E+00 -0.64621954166E+03  0.64621954167E+03  0.25500000920E-02 0.  1.
    10030    2    1    2    0    0  0.00000000000E+00  0.00000000000E+00  0.18635729334E+04  0.31560120167E+04  0.25470586510E+04 0.  0.
        4    1    3    3  502    0 -0.33943716260E+03 -0.21421183336E+03 -0.56579610313E+03  0.69370825289E+03  0.12699999809E+01 0.  1.
       -4    1    3    3    0  502  0.33943716260E+03  0.21421183336E+03  0.24293690365E+04  0.24623037638E+04  0.12699999809E+01 0. -1.
</event>
<event>
 5   0  0.1502886E-05  0.2478630E+04  0.7818609E-02  0.8410639E-01
        1   -1    0    0  501    0  0.00000000000E+00  0.00000000000E+00  0.17099364865E+04  0.17099364865E+04  0.50400001928E-02 0. -1.
       -1   -1    0    0    0  501  0.00000000000E+00  0.00000000000E+00 -0.89822139729E+03  0.89822139730E+03  0.50400001928E-02 0.  1.
    10030    2    1    2    0    0  0.00000000000E+00  0.00000000000E+00  0.81171508922E+03  0.26081578838E+04  0.24786298959E+04 0.  0.
        4    1    3    3  502    0  0.58970781435E+03  0.46721229241E+03  0.14421351489E+04  0.16265909237E+04  0.12699999809E+01 0. -1.
       -4    1    3    3    0  502 -0.58970781435E+03 -0.46721229241E+03 -0.63042005973E+03  0.98156696007E+03  0.12699999809E+01 0.  1.
</event>
<event>
 5   0  0.1429483E-05  0.2465372E+04  0.7818609E-02  0.8415427E-01
        1   -1    0    0  501    0  0.00000000000E+00  0.00000000000E+00  0.19429772637E+04  0.19429772637E+04  0.50400001928E-02 0. -1.
       -1   -1    0    0    0  501  0.00000000000E+00  0.00000000000E+00 -0.78205506545E+03  0.78205506547E+03  0.50400001928E-02 0.  1.
    10030    2    1    2    0    0  0.00000000000E+00  0.00000000000E+00  0.11609221982E+04  0.27250323291E+04  0.24653723541E+04 0.  0.
        2    1    3    3  502    0 -0.40679493525E+03 -0.27875833785E+03  0.18291955555E+04  0.18945038165E+04  0.25500000920E-02 0. -1.
       -2    1    3    3    0  502  0.40679493525E+03  0.27875833785E+03 -0.66827335731E+03  0.83052851267E+03  0.25500000920E-02 0.  1.
</event>
<event>
 5   0  0.1502886E-05  0.2457304E+04  0.7818609E-02  0.8418356E-01
        1   -1    0    0  501    0  0.00000000000E+00  0.00000000000E+00  0.17529958391E+04  0.17529958391E+04  0.50400001928E-02 0.  1.
       -1   -1    0    0    0  501  0.00000000000E+00  0.00000000000E+00 -0.86114596680E+03  0.86114596681E+03  0.50400001928E-02 0. -1.
    10030    2    1    2    0    0  0.00000000000E+00  0.00000000000E+00  0.89184987226E+03  0.26141418059E+04  0.24573036415E+04 0.  0.
        4    1    3    3  502    0  0.32135020142E+03  0.10843166464E+04  0.95675513162E+03  0.14813475407E+04  0.12699999809E+01 0.  1.
       -4    1    3    3    0  502 -0.32135020142E+03 -0.10843166464E+04 -0.64905259355E+02  0.11327942652E+04  0.12699999809E+01 0. -1.
</event>
<event>
 5   0  0.1492639E-05  0.2414532E+04  0.7818609E-02  0.8434083E-01
        1   -1    0    0  501    0  0.00000000000E+00  0.00000000000E+00  0.18861989255E+04  0.18861989255E+04  0.50400001928E-02 0.  1.
       -1   -1    0    0    0  501  0.00000000000E+00  0.00000000000E+00 -0.77271317504E+03  0.77271317506E+03  0.50400001928E-02 0. -1.
    10030    2    1    2    0    0  0.00000000000E+00  0.00000000000E+00  0.11134857504E+04  0.26589121006E+04  0.24145316403E+04 0.  0.
        5    1    3    3  502    0  0.21305658386E+03 -0.11302891114E+04  0.15284843199E+03  0.11603151798E+04  0.46999998093E+01 0.  1.
       -5    1    3    3    0  502 -0.21305658386E+03  0.11302891114E+04  0.96063731845E+03  0.14985969208E+04  0.46999998093E+01 0. -1.
</event>
<event>
 5   0  0.3581449E-05  0.2603120E+04  0.7818609E-02  0.8367142E-01
        2   -1    0    0  501    0  0.00000000000E+00  0.00000000000E+00  0.17078347633E+04  0.17078347633E+04  0.25500000920E-02 0.  1.
       -2   -1    0    0    0  501  0.00000000000E+00  0.00000000000E+00 -0.99193316830E+03  0.99193316830E+03  0.25500000920E-02 0. -1.
    10030    2    1    2    0    0  0.00000000000E+00  0.00000000000E+00  0.71590159499E+03  0.26997679316E+04  0.26031196267E+04 0.  0.
        1    1    3    3  502    0  0.24746652047E+03 -0.11416905525E+03 -0.96200935080E+03  0.99986811279E+03  0.50400001928E-02 0. -1.
       -1    1    3    3    0  502 -0.24746652047E+03  0.11416905525E+03  0.16779109458E+04  0.16998998188E+04  0.50400001928E-02 0.  1.
</event>
<event>
 5   0  0.1492639E-05  0.2511177E+04  0.7818609E-02  0.8399015E-01
        1   -1    0    0  501    0  0.00000000000E+00  0.00000000000E+00  0.12385331782E+04  0.12385331782E+04  0.50400001928E-02 0.  1.
       -1   -1    0    0    0  501  0.00000000000E+00  0.00000000000E+00 -0.12728782846E+04  0.12728782846E+04  0.50400001928E-02 0. -1.
    10030    2    1    2    0    0  0.00000000000E+00  0.00000000000E+00 -0.34345106375E+02  0.25114114628E+04  0.25111766065E+04 0.  0.
        5    1    3    3  502    0  0.10673817843E+04  0.66102288536E+03 -0.21788584248E+01  0.12555006833E+04  0.46999998093E+01 0. -1.
       -5    1    3    3    0  502 -0.10673817843E+04 -0.66102288536E+03 -0.32166247950E+02  0.12559107794E+04  0.46999998093E+01 0.  1.
</event>
<event>
 5   0  0.3581449E-05  0.2468643E+04  0.7818609E-02  0.8414243E-01
        2   -1    0    0  501    0  0.00000000000E+00  0.00000000000E+00  0.21107474633E+04  0.21107474633E+04  0.25500000920E-02 0.  1.
       -2   -1    0    0    0  501  0.00000000000E+00  0.00000000000E+00 -0.72180564418E+03  0.72180564418E+03  0.25500000920E-02 0. -1.
    10030    2    1    2    0    0  0.00000000000E+00  0.00000000000E+00  0.13889418191E+04  0.28325531075E+04  0.24686428923E+04 0.  0.
        1    1    3    3  502    0  0.36951230468E+01  0.10063674263E+04 -0.12555654369E+03  0.10141762649E+04  0.50400001928E-02 0. -1.
       -1    1    3    3    0  502 -0.36951230468E+01 -0.10063674263E+04  0.15144983628E+04  0.18183768426E+04  0.50400001928E-02 0.  1.
</event>
<event>
 5   0  0.1421242E-05  0.2465568E+04  0.7818609E-02  0.8415356E-01
        1   -1    0    0  501    0  0.00000000000E+00  0.00000000000E+00  0.10586433328E+04  0.10586433328E+04  0.50400001928E-02 0.  1.
       -1   -1    0    0    0  501  0.00000000000E+00  0.00000000000E+00 -0.14355698041E+04  0.14355698041E+04  0.50400001928E-02 0. -1.
    10030    2    1    2    0    0  0.00000000000E+00  0.00000000000E+00 -0.37692647130E+03  0.24942131369E+04  0.24655680091E+04 0.  0.
        3    1    3    3  502    0  0.25880890176E+02  0.64847288015E+03 -0.12487670984E+04  0.14073401057E+04  0.10100000352E+00 0.  1.
       -3    1    3    3    0  502 -0.25880890176E+02 -0.64847288015E+03  0.87184062708E+03  0.10868730312E+04  0.10100000352E+00 0. -1.
</event>
<event>
 5   0  0.1492639E-05  0.2442926E+04  0.7818609E-02  0.8423605E-01
       -1   -1    0    0    0  501  0.00000000000E+00  0.00000000000E+00  0.10778936904E+04  0.10778936904E+04  0.50400001928E-02 0. -1.
        1   -1    0    0  501    0  0.00000000000E+00  0.00000000000E+00 -0.13841554446E+04  0.13841554446E+04  0.50400001928E-02 0.  1.
    10030    2    1    2    0    0  0.00000000000E+00  0.00000000000E+00 -0.30626175426E+03  0.24620491350E+04  0.24429264584E+04 0.  0.
        5    1    3    3  502    0 -0.10664646177E+04 -0.58794385872E+03 -0.24834563451E+03  0.12428686198E+04  0.46999998093E+01 0.  1.
       -5    1    3    3    0  502  0.10664646177E+04  0.58794385872E+03 -0.57916119749E+02  0.12191805152E+04  0.46999998093E+01 0. -1.
</event>
<event>
 5   0  0.3578670E-05  0.2486908E+04  0.7818609E-02  0.8407664E-01
       -2   -1    0    0    0  501  0.00000000000E+00  0.00000000000E+00  0.18181069017E+04  0.18181069017E+04  0.25500000920E-02 0. -1.
        2   -1    0    0  501    0  0.00000000000E+00  0.00000000000E+00 -0.85043308363E+03  0.85043308363E+03  0.25500000920E-02 0.  1.
    10030    2    1    2    0    0  0.00000000000E+00  0.00000000000E+00  0.96767381808E+03  0.26685399853E+04  0.24869083287E+04 0.  0.
        4    1    3    3  502    0  0.20479078928E+03 -0.11682396821E+04  0.83128433769E+02  0.11889639068E+04  0.12699999809E+01 0.  1.
       -4    1    3    3    0  502 -0.20479078928E+03  0.11682396821E+04  0.88454538431E+03  0.14795760785E+04  0.12699999809E+01 0. -1.
</event>
<event>
 5   0  0.3704241E-05  0.2642867E+04  0.7818609E-02  0.8353784E-01
       -2   -1    0    0    0  501  0.00000000000E+00  0.00000000000E+00  0.10298503246E+04  0.10298503246E+04  0.25500000920E-02 0.  1.
        2   -1    0    0  501    0  0.00000000000E+00  0.00000000000E+00 -0.16955736096E+04  0.16955736096E+04  0.25500000920E-02 0. -1.
    10030    2    1    2    0    0  0.00000000000E+00  0.00000000000E+00 -0.66572328502E+03  0.27254239342E+04  0.26428674066E+04 0.  0.
        2    1    3    3  502    0  0.22228157249E+02  0.20974353825E+03 -0.16781031689E+04  0.16913062077E+04  0.25500000920E-02 0. -1.
       -2    1    3    3    0  502 -0.22228157249E+02 -0.20974353825E+03  0.10123798839E+04  0.10341177264E+04  0.25500000920E-02 0.  1.
</event>
<event>
 5   0  0.1456876E-05  0.2483508E+04  0.7818609E-02  0.8408885E-01
        1   -1    0    0  501    0  0.00000000000E+00  0.00000000000E+00  0.14010981448E+04  0.14010981448E+04  0.50400001928E-02 0. -1.
       -1   -1    0    0    0  501  0.00000000000E+00  0.00000000000E+00 -0.11005317780E+04  0.11005317780E+04  0.50400001928E-02 0.  1.
    10030    2    1    2    0    0  0.00000000000E+00  0.00000000000E+00  0.30056636674E+03  0.25016299228E+04  0.24835080290E+04 0.  0.
        1    1    3    3  502    0  0.95240557905E+03 -0.60748581432E+03  0.66963986534E+03  0.13132147391E+04  0.50400001928E-02 0. -1.
       -1    1    3    3    0  502 -0.95240557905E+03  0.60748581432E+03 -0.36907349861E+03  0.11884151838E+04  0.50400001928E-02 0.  1.
</event>
<event>
 5   0  0.3579097E-05  0.2207544E+04  0.7818609E-02  0.8515295E-01
       -2   -1    0    0    0  501  0.00000000000E+00  0.00000000000E+00  0.12365423056E+04  0.12365423056E+04  0.25500000920E-02 0.  1.
        2   -1    0    0  501    0  0.00000000000E+00  0.00000000000E+00 -0.98525719733E+03  0.98525719733E+03  0.25500000920E-02 0. -1.
    10030    2    1    2    0    0  0.00000000000E+00  0.00000000000E+00  0.25128510831E+03  0.22217995030E+04  0.22075436181E+04 0.  0.
        5    1    3    3  502    0 -0.69145650349E+01  0.70076402945E+03 -0.73260815269E+03  0.10138317570E+04  0.46999998093E+01 0. -1.
       -5    1    3    3    0  502  0.69145650349E+01 -0.70076402945E+03  0.98389326101E+03  0.12079677459E+04  0.46999998093E+01 0.  1.
</event>
<event>
 5   0  0.1456876E-05  0.2524112E+04  0.7818609E-02  0.8394446E-01
        1   -1    0    0  501    0  0.00000000000E+00  0.00000000000E+00  0.10031085826E+04  0.10031085826E+04  0.50400001928E-02 0.  1.
       -1   -1    0    0    0  501  0.00000000000E+00  0.00000000000E+00 -0.15878495186E+04  0.15878495187E+04  0.50400001928E-02 0. -1.
    10030    2    1    2    0    0  0.00000000000E+00  0.00000000000E+00 -0.58474093601E+03  0.25909581013E+04  0.25241121054E+04 0.  0.
        1    1    3    3  502    0  0.31005054811E+03  0.10569187075E+04  0.34004383761E+03  0.11527524922E+04  0.50400001928E-02 0.  1.
       -1    1    3    3    0  502 -0.31005054811E+03 -0.10569187075E+04 -0.92478477361E+03  0.14382056091E+04  0.50400001928E-02 0. -1.
</event>
<event>
 5   0  0.3578670E-05  0.2490005E+04  0.7818609E-02  0.8406555E-01
        2   -1    0    0  501    0  0.00000000000E+00  0.00000000000E+00  0.82187765258E+03  0.82187765259E+03  0.25500000920E-02 0. -1.
       -2   -1    0    0    0  501  0.00000000000E+00  0.00000000000E+00 -0.18859639261E+04  0.18859639261E+04  0.25500000920E-02 0.  1.
    10030    2    1    2    0    0  0.00000000000E+00  0.00000000000E+00 -0.10640862735E+04  0.27078415786E+04  0.24900053047E+04 0.  0.
        4    1    3    3  502    0  0.97950654121E+03 -0.44400067393E+03  0.15009676678E+03  0.10858638566E+04  0.12699999809E+01 0. -1.
       -4    1    3    3    0  502 -0.97950654121E+03  0.44400067393E+03 -0.12141830403E+04  0.16219777221E+04  0.12699999809E+01 0.  1.
</event>
<event>
 5   0  0.1502886E-05  0.2521371E+04  0.7818609E-02  0.8395411E-01
       -1   -1    0    0    0  501  0.00000000000E+00  0.00000000000E+00  0.62749159697E+03  0.62749159699E+03  0.50400001928E-02 0. -1.
        1   -1    0    0  501    0  0.00000000000E+00  0.00000000000E+00 -0.25328269429E+04  0.25328269429E+04  0.50400001928E-02 0.  1.
    10030    2    1    2    0    0  0.00000000000E+00  0.00000000000E+00 -0.19053353459E+04  0.31603185399E+04  0.25213707568E+04 0.  0.
        4    1    3    3  502    0 -0.10828266732E+04 -0.56283499970E+03 -0.13490894267E+04  0.18191593485E+04  0.12699999809E+01 0.  1.
       -4    1    3    3    0  502  0.10828266732E+04  0.56283499970E+03 -0.55624591917E+03  0.13411591914E+04  0.12699999809E+01 0. -1.
</event>
<event>
 5   0  0.1429483E-05  0.2493383E+04  0.7818609E-02  0.8405347E-01
        1   -1    0    0  501    0  0.00000000000E+00  0.00000000000E+00  0.19212933109E+04  0.19212933109E+04  0.50400001928E-02 0. -1.
       -1   -1    0    0    0  501  0.00000000000E+00  0.00000000000E+00 -0.80895492319E+03  0.80895492321E+03  0.50400001928E-02 0.  1.
    10030    2    1    2    0    0  0.00000000000E+00  0.00000000000E+00  0.11123383877E+04  0.27302482341E+04  0.24933829893E+04 0.  0.
        2    1    3    3  502    0 -0.58271553848E+03  0.59297123760E+03 -0.46109907458E+03  0.95067588798E+03  0.25500000920E-02 0.  1.
       -2    1    3    3    0  502  0.58271553848E+03 -0.59297123760E+03  0.15734374623E+04  0.17795723461E+04  0.25500000920E-02 0. -1.
</event>
<event>
 5   0  0.3704241E-05  0.2521114E+04  0.7818609E-02  0.8395502E-01
        2   -1    0    0  501    0  0.00000000000E+00  0.00000000000E+00  0.98255496404E+03  0.98255496405E+03  0.25500000920E-02 0.  1.
       -2   -1    0    0    0  501  0.00000000000E+00  0.00000000000E+00 -0.16172164314E+04  0.16172164314E+04  0.25500000920E-02 0. -1.
    10030    2    1    2    0    0  0.00000000000E+00  0.00000000000E+00 -0.63466146736E+03  0.25997713954E+04  0.25211140653E+04 0.  0.
        2    1    3    3  502    0 -0.16569112146E+03  0.10131325401E+04  0.43700623582E+03  0.11157354264E+04  0.25500000920E-02 0. -1.
       -2    1    3    3    0  502  0.16569112146E+03 -0.10131325401E+04 -0.10716677032E+04  0.14840359691E+04  0.25500000920E-02 0.  1.
</event>
<event>
 5   0  0.1201438E-05  0.2511809E+04  0.7818609E-02  0.8398791E-01
       -3   -1    0    0    0  501  0.00000000000E+00  0.00000000000E+00  0.96069206714E+03  0.96069207245E+03  0.10100000352E+00 0.  1.
        3   -1    0    0  501    0  0.00000000000E+00  0.00000000000E+00 -0.16418326582E+04  0.16418326613E+04  0.10100000352E+00 0. -1.
    10030    2    1    2    0    0  0.00000000000E+00  0.00000000000E+00 -0.68114059102E+03  0.26025247337E+04  0.25118086083E+04 0.  0.
        2    1    3    3  502    0  0.57711382917E+02  0.10979762691E+04  0.28832141602E+03  0.11366669390E+04  0.25500000920E-02 0.  1.
       -2    1    3    3    0  502 -0.57711382917E+02 -0.10979762691E+04 -0.96946200704E+03  0.14658577947E+04  0.25500000920E-02 0. -1.
</event>
<event>
 5   0  0.1456876E-05  0.2513991E+04  0.7818609E-02  0.8398018E-01
       -1   -1    0    0    0  501  0.00000000000E+00  0.00000000000E+00  0.13572877487E+04  0.13572877487E+04  0.50400001928E-02 0. -1.
        1   -1    0    0  501    0  0.00000000000E+00  0.00000000000E+00 -0.11641143994E+04  0.11641143994E+04  0.50400001928E-02 0.  1.
    10030    2    1    2    0    0  0.00000000000E+00  0.00000000000E+00  0.19317334931E+03  0.25214021481E+04  0.25139914180E+04 0.  0.
        1    1    3    3  502    0 -0.52684379303E+03 -0.85405860402E+03  0.85582393898E+03  0.13188688699E+04  0.50400001928E-02 0. -1.
       -1    1    3    3    0  502  0.52684379303E+03  0.85405860402E+03 -0.66265058967E+03  0.12025332783E+04  0.50400001928E-02 0.  1.
</event>
<event>
 5   0  0.1492639E-05  0.2491836E+04  0.7818609E-02  0.8405900E-01
        1   -1    0    0  501    0  0.00000000000E+00  0.00000000000E+00  0.70285981338E+03  0.70285981340E+03  0.50400001928E-02 0.  1.
       -1   -1    0    0    0  501  0.00000000000E+00  0.00000000000E+00 -0.22085658206E+04  0.22085658206E+04  0.50400001928E-02 0. -1.
    10030    2    1    2    0    0  0.00000000000E+00  0.00000000000E+00 -0.15057060072E+04  0.29114256340E+04  0.24918363995E+04 0.  0.
        5    1    3    3  502    0  0.33327848835E+03  0.10723521892E+04 -0.13834309127E+04  0.17818296632E+04  0.46999998093E+01 0. -1.
       -5    1    3    3    0  502 -0.33327848835E+03 -0.10723521892E+04 -0.12227509450E+03  0.11295959708E+04  0.46999998093E+01 0.  1.
</event>
<event>
 5   0  0.3704241E-05  0.2469784E+04  0.7818609E-02  0.8413830E-01
        2   -1    0    0  501    0  0.00000000000E+00  0.00000000000E+00  0.16021467750E+04  0.16021467750E+04  0.25500000920E-02 0.  1.
       -2   -1    0    0    0  501  0.00000000000E+00  0.00000000000E+00 -0.95182217281E+03  0.95182217282E+03  0.25500000920E-02 0. -1.
    10030    2    1    2    0    0  0.00000000000E+00  0.00000000000E+00  0.65032460220E+03  0.25539689478E+04  0.24697844639E+04 0.  0.
        2    1    3    3  502    0  0.11571032534E+04  0.20951429844E+03 -0.64750625553E+02  0.11776998021E+04  0.25500000920E-02 0. -1.
       -2    1    3    3    0  502 -0.11571032534E+04 -0.20951429844E+03  0.71507522776E+03  0.13762691458E+04  0.25500000920E-02 0.  1.
</event>
<event>
 5   0  0.3704241E-05  0.2642494E+04  0.7818609E-02  0.8353908E-01
        2   -1    0    0  501    0  0.00000000000E+00  0.00000000000E+00  0.23054520237E+04  0.23054520237E+04  0.25500000920E-02 0. -1.
       -2   -1    0    0    0  501  0.00000000000E+00  0.00000000000E+00 -0.75720252481E+03  0.75720252482E+03  0.25500000920E-02 0.  1.
    10030    2    1    2    0    0  0.00000000000E+00  0.00000000000E+00  0.15482494989E+04  0.30626545485E+04  0.26424943468E+04 0.  0.
        2    1    3    3  502    0 -0.13037634984E+04 -0.12775001038E+01  0.10224141175E+04  0.16568438429E+04  0.25500000920E-02 0. -1.
       -2    1    3    3    0  502  0.13037634984E+04  0.12775001038E+01  0.52583538137E+03  0.14058107057E+04  0.25500000920E-02 0.  1.
</event>
<event>
 5   0  0.1456876E-05  0.2569538E+04  0.7818609E-02  0.8378623E-01
       -1   -1    0    0    0  501  0.00000000000E+00  0.00000000000E+00  0.67323984840E+03  0.67323984842E+03  0.50400001928E-02 0.  1.
        1   -1    0    0  501    0  0.00000000000E+00  0.00000000000E+00 -0.24517729052E+04  0.24517729052E+04  0.50400001928E-02 0. -1.
    10030    2    1    2    0    0  0.00000000000E+00  0.00000000000E+00 -0.17785330568E+04  0.31250127536E+04  0.25695378721E+04 0.  0.
        1    1    3    3  502    0  0.67091774039E+03 -0.10615395887E+04 -0.55924910385E+03  0.13746841357E+04  0.50400001928E-02 0.  1.
       -1    1    3    3    0  502 -0.67091774039E+03  0.10615395887E+04 -0.12192839529E+04  0.17503286179E+04  0.50400001928E-02 0. -1.
</event>
<event>
 5   0  0.3650620E-05  0.2514889E+04  0.7818609E-02  0.8397700E-01
       -2   -1    0    0    0  501  0.00000000000E+00  0.00000000000E+00  0.92681363346E+03  0.92681363346E+03  0.25500000920E-02 0.  1.
        2   -1    0    0  501    0  0.00000000000E+00  0.00000000000E+00 -0.17060242129E+04  0.17060242129E+04  0.25500000920E-02 0. -1.
    10030    2    1    2    0    0  0.00000000000E+00  0.00000000000E+00 -0.77921057943E+03  0.26328378464E+04  0.25148888640E+04 0.  0.
        3    1    3    3  502    0 -0.81426515144E+03  0.27097362702E+03 -0.13517926735E+04  0.16011863994E+04  0.10100000352E+00 0. -1.
       -3    1    3    3    0  502  0.81426515144E+03 -0.27097362702E+03  0.57258209404E+03  0.10316514470E+04  0.10100000352E+00 0.  1.
</event>
<event>
 5   0  0.3650620E-05  0.2582666E+04  0.7818609E-02  0.8374113E-01
       -2   -1    0    0    0  501  0.00000000000E+00  0.00000000000E+00  0.11134983143E+04  0.11134983143E+04  0.25500000920E-02 0.  1.
        2   -1    0    0  501    0  0.00000000000E+00  0.00000000000E+00 -0.14975697034E+04  0.14975697034E+04  0.25500000920E-02 0. -1.
    10030    2    1    2    0    0  0.00000000000E+00  0.00000000000E+00 -0.38407138906E+03  0.26110680177E+04  0.25826663279E+04 0.  0.
        3    1    3    3  502    0  0.57996747318E+03  0.84239279428E+03  0.60502083185E+03  0.11882920967E+04  0.10100000352E+00 0.  1.
       -3    1    3    3    0  502 -0.57996747318E+03 -0.84239279428E+03 -0.98909222090E+03  0.14227759210E+04  0.10100000352E+00 0. -1.
</event>
<event>
 5   0  0.3578670E-05  0.2515682E+04  0.7818609E-02  0.8397420E-01
       -2   -1    0    0    0  501  0.00000000000E+00  0.00000000000E+00  0.97367853127E+03  0.97367853127E+03  0.25500000920E-02 0.  1.
        2   -1    0    0  501    0  0.00000000000E+00  0.00000000000E+00 -0.16249346386E+04  0.16249346386E+04  0.25500000920E-02 0. -1.
    10030    2    1    2    0    0  0.00000000000E+00  0.00000000000E+00 -0.65125610733E+03  0.25986131699E+04  0.25156819929E+04 0.  0.
        4    1    3    3  502    0  0.75998139981E+03 -0.33774411091E+03  0.64915421862E+03  0.10550097748E+04  0.12699999809E+01 0.  1.
       -4    1    3    3    0  502 -0.75998139981E+03  0.33774411091E+03 -0.13004103259E+04  0.15436033951E+04  0.12699999809E+01 0. -1.
</event>
<event>
 5   0  0.1502886E-05  0.2365628E+04  0.7818609E-02  0.8452485E-01
        1   -1    0    0  501    0  0.00000000000E+00  0.00000000000E+00  0.25218720774E+04  0.25218720774E+04  0.50400001928E-02 0. -1.
       -1   -1    0    0    0  501  0.00000000000E+00  0.00000000000E+00 -0.55476590071E+03  0.55476590073E+03  0.50400001928E-02 0.  1.
    10030    2    1    2    0    0  0.00000000000E+00  0.00000000000E+00  0.19671061767E+04  0.30766379781E+04  0.23656277260E+04 0.  0.
        4    1    3    3  502    0 -0.84253059245E+02 -0.35007885284E+03 -0.48175209448E+03  0.60144864672E+03  0.12699999809E+01 0.  1.
       -4    1    3    3    0  502  0.84253059245E+02  0.35007885284E+03  0.24488582712E+04  0.24751893314E+04  0.12699999809E+01 0. -1.
</event>
<event>
 5   0  0.1502886E-05  0.2520033E+04  0.7818609E-02  0.8395883E-01
        1   -1    0    0  501    0  0.00000000000E+00  0.00000000000E+00  0.12013492672E+04  0.12013492673E+04  0.50400001928E-02 0. -1.
       -1   -1    0    0    0  501  0.00000000000E+00  0.00000000000E+00 -0.13215487868E+04  0.13215487868E+04  0.50400001928E-02 0.  1.
    10030    2    1    2    0    0  0.00000000000E+00  0.00000000000E+00 -0.12019951959E+03  0.25228980541E+04  0.25200330686E+04 0.  0.
        4    1    3    3  502    0 -0.10767157658E+04  0.45969041154E+03 -0.52647047628E+03  0.12836685281E+04  0.12699999809E+01 0.  1.
       -4    1    3    3    0  502  0.10767157658E+04 -0.45969041154E+03  0.40627095669E+03  0.12392295260E+04  0.12699999809E+01 0. -1.
</event>
<event>
 5   0  0.3579097E-05  0.2576223E+04  0.7818609E-02  0.8376323E-01
        2   -1    0    0  501    0  0.00000000000E+00  0.00000000000E+00  0.13670452265E+04  0.13670452265E+04  0.25500000920E-02 0. -1.
       -2   -1    0    0    0  501  0.00000000000E+00  0.00000000000E+00 -0.12137354778E+04  0.12137354778E+04  0.25500000920E-02 0.  1.
    10030    2    1    2    0    0  0.00000000000E+00  0.00000000000E+00  0.15330974876E+03  0.25807807043E+04  0.25762230425E+04 0.  0.
        5    1    3    3  502    0  0.55468529109E+03  0.97100143548E+02 -0.10838871955E+04  0.12214490381E+04  0.46999998093E+01 0.  1.
       -5    1    3    3    0  502 -0.55468529109E+03 -0.97100143548E+02  0.12371969443E+04  0.13593316663E+04  0.46999998093E+01 0. -1.
</event>
<event>
 5   0  0.1502886E-05  0.2506753E+04  0.7818609E-02  0.8400584E-01
       -1   -1    0    0    0  501  0.00000000000E+00  0.00000000000E+00  0.77335390996E+03  0.77335390998E+03  0.50400001928E-02 0. -1.
        1   -1    0    0  501    0  0.00000000000E+00  0.00000000000E+00 -0.20313503870E+04  0.20313503870E+04  0.50400001928E-02 0.  1.
    10030    2    1    2    0    0  0.00000000000E+00  0.00000000000E+00 -0.12579964771E+04  0.28047042970E+04  0.25067530906E+04 0.  0.
        4    1    3    3  502    0  0.19505760616E+03  0.11217318306E+04 -0.12153290204E+04  0.16653396081E+04  0.12699999809E+01 0.  1.
       -4    1    3    3    0  502 -0.19505760616E+03 -0.11217318306E+04 -0.42667456664E+02  0.11393646889E+04  0.12699999809E+01 0. -1.
</event>
<event>
 5   0  0.3650620E-05  0.2717383E+04  0.7818609E-02  0.8329387E-01
        2   -1    0    0  501    0  0.00000000000E+00  0.00000000000E+00  0.13194619255E+04  0.13194619255E+04  0.25500000920E-02 0.  1.
       -2   -1    0    0    0  501  0.00000000000E+00  0.00000000000E+00 -0.13990875005E+04  0.13990875005E+04  0.25500000920E-02 0. -1.
    10030    2    1    2    0    0  0.00000000000E+00  0.00000000000E+00 -0.79625574952E+02  0.27185494260E+04  0.27173830701E+04 0.  0.
        3    1    3    3  502    0 -0.10340828539E+04  0.79791782953E+03  0.33457031805E+03  0.13483091335E+04  0.10100000352E+00 0.  1.
       -3    1    3    3    0  502  0.10340828539E+04 -0.79791782953E+03 -0.41419589300E+03  0.13702402926E+04  0.10100000352E+00 0. -1.
</event>
<event>
 5   0  0.3579097E-05  0.2333569E+04  0.7818609E-02  0.8464802E-01
       -2   -1    0    0    0  501  0.00000000000E+00  0.00000000000E+00  0.66382311637E+03  0.66382311638E+03  0.25500000920E-02 0.  1.
        2   -1    0    0  501    0  0.00000000000E+00  0.00000000000E+00 -0.20508270311E+04  0.20508270311E+04  0.25500000920E-02 0. -1.
    10030    2    1    2    0    0  0.00000000000E+00  0.00000000000E+00 -0.13870039148E+04  0.27146501475E+04  0.23335692756E+04 0.  0.
        5    1    3    3  502    0 -0.85657973056E+03 -0.15687058306E+03 -0.15968634610E+04  0.18188821341E+04  0.46999998093E+01 0. -1.
       -5    1    3    3    0  502  0.85657973056E+03  0.15687058306E+03  0.20985954628E+03  0.89576801338E+03  0.46999998093E+01 0.  1.
</event>
<event>
 5   0  0.1502886E-05  0.2492420E+04  0.7818609E-02  0.8405691E-01
       -1   -1    0    0    0  501  0.00000000000E+00  0.00000000000E+00  0.25745893428E+04  0.25745893428E+04  0.50400001928E-02 0. -1.
        1   -1    0    0  501    0  0.00000000000E+00  0.00000000000E+00 -0.60321841278E+03  0.60321841281E+03  0.50400001928E-02 0.  1.
    10030    2    1    2    0    0  0.00000000000E+00  0.00000000000E+00  0.19713709300E+04  0.31778077556E+04  0.24924202671E+04 0.  0.
        4    1    3    3  502    0  0.43369311957E+02  0.11112462447E+04  0.26863723127E+03  0.11440789695E+04  0.12699999809E+01 0.  1.
       -4    1    3    3    0  502 -0.43369311957E+02 -0.11112462447E+04  0.17027336987E+04  0.20337287861E+04  0.12699999809E+01 0. -1.
</event>
<event>
 5   0  0.1421242E-05  0.2478478E+04  0.7818609E-02  0.8410693E-01
       -1   -1    0    0    0  501  0.00000000000E+00  0.00000000000E+00  0.13844885465E+04  0.13844885465E+04  0.50400001928E-02 0.  1.
        1   -1    0    0  501    0  0.00000000000E+00  0.00000000000E+00 -0.11092276534E+04  0.11092276534E+04  0.50400001928E-02 0. -1.
    10030    2    1    2    0    0  0.00000000000E+00  0.00000000000E+00  0.27526089305E+03  0.24937161999E+04  0.24784777437E+04 0.  0.
        3    1    3    3  502    0 -0.66737693416E+03 -0.93302258882E+03 -0.33406948958E+03  0.11947910100E+04  0.10100000352E+00 0. -1.
       -3    1    3    3    0  502  0.66737693416E+03  0.93302258882E+03  0.60933038263E+03  0.12989251899E+04  0.10100000352E+00 0.  1.
</event>
<event>
 5   0  0.1502886E-05  0.2452955E+04  0.7818609E-02  0.8419940E-01
       -1   -1    0    0    0  501  0.00000000000E+00  0.00000000000E+00  0.10628494532E+04  0.10628494532E+04  0.50400001928E-02 0. -1.
        1   -1    0    0  501    0  0.00000000000E+00  0.00000000000E+00 -0.14152966768E+04  0.14152966768E+04  0.50400001928E-02 0.  1.
    10030    2    1    2    0    0  0.00000000000E+00  0.00000000000E+00 -0.35244722355E+03  0.24781461300E+04  0.24529551965E+04 0.  0.
        4    1    3    3  502    0 -0.21754003972E+03  0.69701974148E+03  0.81933315884E+03  0.10974828595E+04  0.12699999809E+01 0. -1.
       -4    1    3    3    0  502  0.21754003972E+03 -0.69701974148E+03 -0.11717803824E+04  0.13806632704E+04  0.12699999809E+01 0.  1.
</event>
<event>
 5   0  0.3579097E-05  0.2479706E+04  0.7818609E-02  0.8410251E-01
        2   -1    0    0  501    0  0.00000000000E+00  0.00000000000E+00  0.13527370238E+04  0.13527370238E+04  0.25500000920E-02 0. -1.
       -2   -1    0    0    0  501  0.00000000000E+00  0.00000000000E+00 -0.11363891945E+04  0.11363891945E+04  0.25500000920E-02 0.  1.
    10030    2    1    2    0    0  0.00000000000E+00  0.00000000000E+00  0.21634782928E+03  0.24891262183E+04  0.24797062220E+04 0.  0.
        5    1    3    3  502    0 -0.15132305415E+03  0.38403331217E+02 -0.11264742371E+04  0.11372509747E+04  0.46999998093E+01 0.  1.
       -5    1    3    3    0  502  0.15132305415E+03 -0.38403331217E+02  0.13428220663E+04  0.13518752437E+04  0.46999998093E+01 0. -1.
</event>
<event>
 5   0  0.1502886E-05  0.2560293E+04  0.7818609E-02  0.8381815E-01
        1   -1    0    0  501    0  0.00000000000E+00  0.00000000000E+00  0.89009536750E+03  0.89009536751E+03  0.50400001928E-02 0. -1.
       -1   -1    0    0    0  501  0.00000000000E+00  0.00000000000E+00 -0.18411233593E+04  0.18411233593E+04  0.50400001928E-02 0.  1.
    10030    2    1    2    0    0  0.00000000000E+00  0.00000000000E+00 -0.95102799177E+03  0.27312187268E+04  0.25602932434E+04 0.  0.
        4    1    3    3  502    0  0.41071501019E+03 -0.14476531601E+03 -0.17596778358E+04  0.18127635022E+04  0.12699999809E+01 0.  1.
       -4    1    3    3    0  502 -0.41071501019E+03  0.14476531601E+03  0.80864984405E+03  0.91845522454E+03  0.12699999809E+01 0. -1.
</event>
<event>
 5   0  0.1429483E-05  0.1933175E+04  0.7818609E-02  0.8638517E-01
       -1   -1    0    0    0  501  0.00000000000E+00  0.00000000000E+00  0.53422868121E+03  0.53422868123E+03  0.50400001928E-02 0.  1.
        1   -1    0    0  501    0  0.00000000000E+00  0.00000000000E+00 -0.17488605286E+04  0.17488605286E+04  0.50400001928E-02 0. -1.
    10030    2    1    2    0    0  0.00000000000E+00  0.00000000000E+00 -0.12146318474E+04  0.22830892099E+04  0.19331750607E+04 0.  0.
        2    1    3    3  502    0  0.24207783292E+03  0.51750504246E+03  0.31347286032E+03  0.65167352281E+03  0.25500000920E-02 0.  1.
       -2    1    3    3    0  502 -0.24207783292E+03 -0.51750504246E+03 -0.15281047078E+04  0.16314156871E+04  0.25500000920E-02 0. -1.
</event>
<event>
 5   0  0.1201438E-05  0.2518477E+04  0.7818609E-02  0.8396433E-01
       -3   -1    0    0    0  501  0.00000000000E+00  0.00000000000E+00  0.19547403269E+04  0.19547403295E+04  0.10100000352E+00 0.  1.
        3   -1    0    0  501    0  0.00000000000E+00  0.00000000000E+00 -0.81119777749E+03  0.81119778378E+03  0.10100000352E+00 0. -1.
    10030    2    1    2    0    0  0.00000000000E+00  0.00000000000E+00  0.11435425495E+04  0.27659381133E+04  0.25184765404E+04 0.  0.
        2    1    3    3  502    0 -0.42528003027E+03 -0.52233823403E+03 -0.59671618930E+03  0.89987251622E+03  0.25500000920E-02 0. -1.
       -2    1    3    3    0  502  0.42528003027E+03  0.52233823403E+03  0.17402587388E+04  0.18660655971E+04  0.25500000920E-02 0.  1.
</event>
<event>
 5   0  0.3704241E-05  0.2469656E+04  0.7818609E-02  0.8413876E-01
        2   -1    0    0  501    0  0.00000000000E+00  0.00000000000E+00  0.12549357207E+04  0.12549357207E+04  0.25500000920E-02 0.  1.
       -2   -1    0    0    0  501  0.00000000000E+00  0.00000000000E+00 -0.12150425456E+04  0.12150425456E+04  0.25500000920E-02 0. -1.
    10030    2    1    2    0    0  0.00000000000E+00  0.00000000000E+00  0.39893175136E+02  0.24699782663E+04  0.24696560835E+04 0.  0.
        2    1    3    3  502    0  0.10763886422E+04  0.53039847919E+03 -0.27140780293E+03  0.12302834028E+04  0.25500000920E-02 0. -1.
       -2    1    3    3    0  502 -0.10763886422E+04 -0.53039847919E+03  0.31130097806E+03  0.12396948635E+04  0.25500000920E-02 0.  1.
</event>
<event>
 5   0  0.3578670E-05  0.2540226E+04  0.7818609E-02  0.8388793E-01
        2   -1    0    0  501    0  0.00000000000E+00  0.00000000000E+00  0.16379129217E+04  0.16379129217E+04  0.25500000920E-02 0.  1.
       -2   -1    0    0    0  501  0.00000000000E+00  0.00000000000E+00 -0.98490413214E+03  0.98490413214E+03  0.25500000920E-02 0. -1.
    10030    2    1    2    0    0  0.00000000000E+00  0.00000000000E+00  0.65300878954E+03  0.26228170538E+04  0.25402261353E+04 0.  0.
        4    1    3    3  502    0 -0.89379071786E+03  0.89412361910E+03  0.20061101841E+03  0.12800645637E+04  0.12699999809E+01 0. -1.
       -4    1    3    3    0  502  0.89379071786E+03 -0.89412361910E+03  0.45239777113E+03  0.13427524902E+04  0.12699999809E+01 0.  1.
</event>
<event>
 5   0  0.3650620E-05  0.2497455E+04  0.7818609E-02  0.8403893E-01
       -2   -1    0    0    0  501  0.00000000000E+00  0.00000000000E+00  0.11581014754E+04  0.11581014754E+04  0.25500000920E-02 0. -1.
        2   -1    0    0  501    0  0.00000000000E+00  0.00000000000E+00 -0.13464457463E+04  0.13464457463E+04  0.25500000920E-02 0.  1.
    10030    2    1    2    0    0  0.00000000000E+00  0.00000000000E+00 -0.18834427085E+03  0.25045472217E+04  0.24974553492E+04 0.  0.
        3    1    3    3  502    0 -0.10380907460E+04  0.31854012798E+03 -0.71254340713E+03  0.12987757032E+04  0.10100000352E+00 0. -1.
       -3    1    3    3    0  502  0.10380907460E+04 -0.31854012798E+03  0.52419913627E+03  0.12057715185E+04  0.10100000352E+00 0.  1.
</event>
<event>
 5   0  0.1456876E-05  0.2509307E+04  0.7818609E-02  0.8399677E-01
        1   -1    0    0  501    0  0.00000000000E+00  0.00000000000E+00  0.15344674233E+04  0.15344674233E+04  0.50400001928E-02 0. -1.
       -1   -1    0    0    0  501  0.00000000000E+00  0.00000000000E+00 -0.10258642535E+04  0.10258642535E+04  0.50400001928E-02 0.  1.
    10030    2    1    2    0    0  0.00000000000E+00  0.00000000000E+00  0.50860316976E+03  0.25603316768E+04  0.25093068985E+04 0.  0.
        1    1    3    3  502    0 -0.26163688206E+03 -0.92557471322E+03 -0.56769327784E+03  0.11168787157E+04  0.50400001928E-02 0.  1.
       -1    1    3    3    0  502  0.26163688206E+03  0.92557471322E+03  0.10762964476E+04  0.14434529611E+04  0.50400001928E-02 0. -1.
</event>
<event>
 5   0  0.1421242E-05  0.2484799E+04  0.7818609E-02  0.8408421E-01
        1   -1    0    0  501    0  0.00000000000E+00  0.00000000000E+00  0.10703760470E+04  0.10703760470E+04  0.50400001928E-02 0.  1.
       -1   -1    0    0    0  501  0.00000000000E+00  0.00000000000E+00 -0.14420692985E+04  0.14420692985E+04  0.50400001928E-02 0. -1.
    10030    2    1    2    0    0  0.00000000000E+00  0.00000000000E+00 -0.37169325148E+03  0.25124453455E+04  0.24847989337E+04 0.  0.
        3    1    3    3  502    0 -0.18001649113E+02 -0.11735870872E+04  0.22602532753E+03  0.11952899938E+04  0.10100000352E+00 0. -1.
       -3    1    3    3    0  502  0.18001649113E+02  0.11735870872E+04 -0.59771857901E+03  0.13171553517E+04  0.10100000352E+00 0.  1.
</event>
<event>
 5   0  0.1492639E-05  0.2304767E+04  0.7818609E-02  0.8476044E-01
       -1   -1    0    0    0  501  0.00000000000E+00  0.00000000000E+00  0.65260779755E+03  0.65260779757E+03  0.50400001928E-02 0. -1.
        1   -1    0    0  501    0  0.00000000000E+00  0.00000000000E+00 -0.20348945318E+04  0.20348945318E+04  0.50400001928E-02 0.  1.
    10030    2    1    2    0    0  0.00000000000E+00  0.00000000000E+00 -0.13822867342E+04  0.26875023293E+04  0.23047672669E+04 0.  0.
        5    1    3    3  502    0 -0.74342095045E+03 -0.85872024129E+03 -0.91812388408E+03  0.14604960523E+04  0.46999998093E+01 0.  1.
       -5    1    3    3    0  502  0.74342095045E+03  0.85872024129E+03 -0.46416285013E+03  0.12270062770E+04  0.46999998093E+01 0. -1.
</event>
<event>
 5   0  0.1492639E-05  0.2535658E+04  0.7818609E-02  0.8390391E-01
        1   -1    0    0  501    0  0.00000000000E+00  0.00000000000E+00  0.65297663934E+03  0.65297663936E+03  0.50400001928E-02 0.  1.
       -1   -1    0    0    0  501  0.00000000000E+00  0.00000000000E+00 -0.24616348716E+04  0.24616348717E+04  0.50400001928E-02 0. -1.
    10030    2    1    2    0    0  0.00000000000E+00  0.00000000000E+00 -0.18086582323E+04  0.31146115110E+04  0.25356577575E+04 0.  0.
        5    1    3    3  502    0  0.11552431428E+04 -0.19010792208E+03 -0.15018561275E+04  0.19042903295E+04  0.46999998093E+01 0.  1.
       -5    1    3    3    0  502 -0.11552431428E+04  0.19010792208E+03 -0.30680210477E+03  0.12103211816E+04  0.46999998093E+01 0. -1.
</event>
<event>
 5   0  0.3704241E-05  0.2511361E+04  0.7818609E-02  0.8398949E-01
        2   -1    0    0  501    0  0.00000000000E+00  0.00000000000E+00  0.11765811175E+04  0.11765811175E+04  0.25500000920E-02 0.  1.
       -2   -1    0    0    0  501  0.00000000000E+00  0.00000000000E+00 -0.13400978835E+04  0.13400978835E+04  0.25500000920E-02 0. -1.
    10030    2    1    2    0    0  0.00000000000E+00  0.00000000000E+00 -0.16351676597E+03  0.25166790011E+04  0.25113612766E+04 0.  0.
        2    1    3    3  502    0 -0.92813441875E+03 -0.33531603800E+02  0.76512040877E+03  0.12033150492E+04  0.25500000920E-02 0.  1.
       -2    1    3    3    0  502  0.92813441875E+03  0.33531603800E+02 -0.92863717474E+03  0.13133639519E+04  0.25500000920E-02 0. -1.
</event>
<event>
 5   0  0.3704241E-05  0.2497782E+04  0.7818609E-02  0.8403776E-01
       -2   -1    0    0    0  501  0.00000000000E+00  0.00000000000E+00  0.10957381102E+04  0.10957381102E+04  0.25500000920E-02 0.  1.
        2   -1    0    0  501    0  0.00000000000E+00  0.00000000000E+00 -0.14234498111E+04  0.14234498111E+04  0.25500000920E-02 0. -1.
    10030    2    1    2    0    0  0.00000000000E+00  0.00000000000E+00 -0.32771170087E+03  0.25191879213E+04  0.24977815805E+04 0.  0.
        2    1    3    3  502    0 -0.34831689276E+03  0.10957856346E+04  0.32782327390E+03  0.11956332689E+04  0.25500000920E-02 0.  1.
       -2    1    3    3    0  502  0.34831689276E+03 -0.10957856346E+04 -0.65553497477E+03  0.13235546524E+04  0.25500000920E-02 0. -1.
</event>
<event>
 5   0  0.1421242E-05  0.2479535E+04  0.7818609E-02  0.8410313E-01
       -1   -1    0    0    0  501  0.00000000000E+00  0.00000000000E+00  0.11683576824E+04  0.11683576824E+04  0.50400001928E-02 0. -1.
        1   -1    0    0  501    0  0.00000000000E+00  0.00000000000E+00 -0.13155419294E+04  0.13155419294E+04  0.50400001928E-02 0.  1.
    10030    2    1    2    0    0  0.00000000000E+00  0.00000000000E+00 -0.14718424699E+03  0.24838996118E+04  0.24795350530E+04 0.  0.
        3    1    3    3  502    0 -0.83535701694E+03  0.15011984174E+02  0.84397694338E+03  0.11875789644E+04  0.10100000352E+00 0. -1.
       -3    1    3    3    0  502  0.83535701694E+03 -0.15011984174E+02 -0.99116119037E+03  0.12963206474E+04  0.10100000352E+00 0.  1.
</event>
<event>
 5   0  0.1456876E-05  0.2481167E+04  0.7818609E-02  0.8409726E-01
        1   -1    0    0  501    0  0.00000000000E+00  0.00000000000E+00  0.76150520618E+03  0.76150520619E+03  0.50400001928E-02 0.  1.
       -1   -1    0    0    0  501  0.00000000000E+00  0.00000000000E+00 -0.20210588099E+04  0.20210588099E+04  0.50400001928E-02 0. -1.
    10030    2    1    2    0    0  0.00000000000E+00  0.00000000000E+00 -0.12595536037E+04  0.27825640161E+04  0.24811665045E+04 0.  0.
        1    1    3    3  502    0 -0.73613544616E+03 -0.23298921542E+03  0.45918983261E+03  0.89835108504E+03  0.50400001928E-02 0.  1.
       -1    1    3    3    0  502  0.73613544616E+03  0.23298921542E+03 -0.17187434363E+04  0.18842129310E+04  0.50400001928E-02 0. -1.
</event>
<event>
 5   0  0.3650620E-05  0.2449906E+04  0.7818609E-02  0.8421052E-01
        2   -1    0    0  501    0  0.00000000000E+00  0.00000000000E+00  0.22167181916E+04  0.22167181916E+04  0.25500000920E-02 0. -1.
       -2   -1    0    0    0  501  0.00000000000E+00  0.00000000000E+00 -0.67690604040E+03  0.67690604041E+03  0.25500000920E-02 0.  1.
    10030    2    1    2    0    0  0.00000000000E+00  0.00000000000E+00  0.15398121512E+04  0.28936242320E+04  0.24499060666E+04 0.  0.
        3    1    3    3  502    0 -0.83984843347E+03  0.63308219197E+03  0.15116353919E+04  0.18415156858E+04  0.10100000352E+00 0. -1.
       -3    1    3    3    0  502  0.83984843347E+03 -0.63308219197E+03  0.28176759337E+02  0.10521085462E+04  0.10100000352E+00 0.  1.
</event>
<event>
 5   0  0.3579097E-05  0.2504342E+04  0.7818609E-02  0.8401440E-01
        2   -1    0    0  501    0  0.00000000000E+00  0.00000000000E+00  0.16049397504E+04  0.16049397504E+04  0.25500000920E-02 0.  1.
       -2   -1    0    0    0  501  0.00000000000E+00  0.00000000000E+00 -0.97694179290E+03  0.97694179290E+03  0.25500000920E-02 0. -1.
    10030    2    1    2    0    0  0.00000000000E+00  0.00000000000E+00  0.62799795749E+03  0.25818815433E+04  0.25043424025E+04 0.  0.
        5    1    3    3  502    0  0.69533095113E+03  0.13768633541E+03 -0.75017541599E+03  0.10320987856E+04  0.46999998093E+01 0. -1.
       -5    1    3    3    0  502 -0.69533095113E+03 -0.13768633541E+03  0.13781733735E+04  0.15497827577E+04  0.46999998093E+01 0.  1.
</event>
<event>
 5   0  0.1429483E-05  0.2469931E+04  0.7818609E-02  0.8413777E-01
        1   -1    0    0  501    0  0.00000000000E+00  0.00000000000E+00  0.14164222002E+04  0.14164222002E+04  0.50400001928E-02 0.  1.
       -1   -1    0    0    0  501  0.00000000000E+00  0.00000000000E+00 -0.10767548479E+04  0.10767548480E+04  0.50400001928E-02 0. -1.
    10030    2    1    2    0    0  0.00000000000E+00  0.00000000000E+00  0.33966735225E+03  0.24931770481E+04  0.24699307446E+04 0.  0.
        2    1    3    3  502    0 -0.45751252450E+03  0.17903009374E+03  0.13135332336E+04  0.14024047349E+04  0.25500000920E-02 0.  1.
       -2    1    3    3    0  502  0.45751252450E+03 -0.17903009374E+03 -0.97386588136E+03  0.10907723133E+04  0.25500000920E-02 0. -1.
</event>
<event>
 5   0  0.1429483E-05  0.2509251E+04  0.7818609E-02  0.8399697E-01
       -1   -1    0    0    0  501  0.00000000000E+00  0.00000000000E+00  0.12361334960E+04  0.12361334960E+04  0.50400001928E-02 0. -1.
        1   -1    0    0  501    0  0.00000000000E+00  0.00000000000E+00 -0.12733940705E+04  0.12733940705E+04  0.50400001928E-02 0.  1.
    10030    2    1    2    0    0  0.00000000000E+00  0.00000000000E+00 -0.37260574486E+02  0.25095275665E+04  0.25092509353E+04 0.  0.
        2    1    3    3  502    0  0.30162054732E+03 -0.58711709473E+03  0.10484473322E+04  0.12389201935E+04  0.25500000920E-02 0. -1.
       -2    1    3    3    0  502 -0.30162054732E+03  0.58711709473E+03 -0.10857079067E+04  0.12706073729E+04  0.25500000920E-02 0.  1.
</event>
<event>
 5   0  0.1421242E-05  0.2563013E+04  0.7818609E-02  0.8380874E-01
       -1   -1    0    0    0  501  0.00000000000E+00  0.00000000000E+00  0.10171417625E+04  0.10171417625E+04  0.50400001928E-02 0.  1.
        1   -1    0    0  501    0  0.00000000000E+00  0.00000000000E+00 -0.16145824195E+04  0.16145824195E+04  0.50400001928E-02 0. -1.
    10030    2    1    2    0    0  0.00000000000E+00  0.00000000000E+00 -0.59744065700E+03  0.26317241820E+04  0.25630132328E+04 0.  0.
        3    1    3    3  502    0  0.11690016964E+04 -0.40250632924E+03 -0.64492830404E+03  0.13944564672E+04  0.10100000352E+00 0. -1.
       -3    1    3    3    0  502 -0.11690016964E+04  0.40250632924E+03  0.47487647040E+02  0.12372677148E+04  0.10100000352E+00 0.  1.
</event>
<event>
 5   0  0.3650620E-05  0.2493904E+04  0.7818609E-02  0.8405160E-01
        2   -1    0    0  501    0  0.00000000000E+00  0.00000000000E+00  0.17828678810E+04  0.17828678810E+04  0.25500000920E-02 0. -1.
       -2   -1    0    0    0  501  0.00000000000E+00  0.00000000000E+00 -0.87212831884E+03  0.87212831884E+03  0.25500000920E-02 0.  1.
    10030    2    1    2    0    0  0.00000000000E+00  0.00000000000E+00  0.91073956219E+03  0.26549961999E+04  0.24939042225E+04 0.  0.
        3    1    3    3  502    0  0.11258657689E+04 -0.19980217764E+03  0.98488630880E+03  0.15091373997E+04  0.10100000352E+00 0. -1.
       -3    1    3    3    0  502 -0.11258657689E+04  0.19980217764E+03 -0.74146746615E+02  0.11458588002E+04  0.10100000352E+00 0.  1.
</event>
<event>
 5   0  0.1492639E-05  0.2554347E+04  0.7818609E-02  0.8383876E-01
        1   -1    0    0  501    0  0.00000000000E+00  0.00000000000E+00  0.15131041616E+04  0.15131041616E+04  0.50400001928E-02 0. -1.
       -1   -1    0    0    0  501  0.00000000000E+00  0.00000000000E+00 -0.10780303835E+04  0.10780303835E+04  0.50400001928E-02 0.  1.
    10030    2    1    2    0    0  0.00000000000E+00  0.00000000000E+00  0.43507377809E+03  0.25911345452E+04  0.25543470866E+04 0.  0.
        5    1    3    3  502    0 -0.54060878292E+03  0.54103445171E+03 -0.82002025214E+03  0.11213525039E+04  0.46999998093E+01 0.  1.
       -5    1    3    3    0  502  0.54060878292E+03 -0.54103445171E+03  0.12550940302E+04  0.14697820413E+04  0.46999998093E+01 0. -1.
</event>
<event>
 5   0  0.1502886E-05  0.2523680E+04  0.7818609E-02  0.8394598E-01
       -1   -1    0    0    0  501  0.00000000000E+00  0.00000000000E+00  0.12114856448E+04  0.12114856448E+04  0.50400001928E-02 0.  1.
        1   -1    0    0  501    0  0.00000000000E+00  0.00000000000E+00 -0.13142875644E+04  0.13142875644E+04  0.50400001928E-02 0. -1.
    10030    2    1    2    0    0  0.00000000000E+00  0.00000000000E+00 -0.10280191961E+03  0.25257732092E+04  0.25236802630E+04 0.  0.
        4    1    3    3  502    0  0.74684035219E+03  0.56331070886E+03  0.79614811167E+03  0.12283903675E+04  0.12699999809E+01 0.  1.
       -4    1    3    3    0  502 -0.74684035219E+03 -0.56331070886E+03 -0.89895003128E+03  0.12973828417E+04  0.12699999809E+01 0. -1.
</event>
<event>
 5   0  0.3650620E-05  0.2478292E+04  0.7818609E-02  0.8410760E-01
        2   -1    0    0  501    0  0.00000000000E+00  0.00000000000E+00  0.15633806554E+04  0.15633806554E+04  0.25500000920E-02 0.  1.
       -2   -1    0    0    0  501  0.00000000000E+00  0.00000000000E+00 -0.98215540959E+03  0.98215540960E+03  0.25500000920E-02 0. -1.
    10030    2    1    2    0    0  0.00000000000E+00  0.00000000000E+00  0.58122524579E+03  0.25455360650E+04  0.24782919666E+04 0.  0.
        3    1    3    3  502    0  0.43426289002E+03  0.88311874557E+03  0.10640376675E+04  0.14493650832E+04  0.10100000352E+00 0.  1.
       -3    1    3    3    0  502 -0.43426289002E+03 -0.88311874557E+03 -0.48281242173E+03  0.10961709817E+04  0.10100000352E+00 0. -1.
</event>
<event>
 5   0  0.3579097E-05  0.2484154E+04  0.7818609E-02  0.8408653E-01
       -2   -1    0    0    0  501  0.00000000000E+00  0.00000000000E+00  0.84729852844E+03  0.84729852845E+03  0.25500000920E-02 0. -1.
        2   -1    0    0  501    0  0.00000000000E+00  0.00000000000E+00 -0.18207927083E+04  0.18207927083E+04  0.25500000920E-02 0.  1.
    10030    2    1    2    0    0  0.00000000000E+00  0.00000000000E+00 -0.97349417987E+03  0.26680912368E+04  0.24841537653E+04 0.  0.
        5    1    3    3  502    0 -0.11433559169E+03  0.95110474775E+03  0.36240027052E+03  0.10242211259E+04  0.46999998093E+01 0. -1.
       -5    1    3    3    0  502  0.11433559169E+03 -0.95110474775E+03 -0.13358944504E+04  0.16438701108E+04  0.46999998093E+01 0.  1.
</event>
<event>
 5   0  0.3579097E-05  0.2602397E+04  0.7818609E-02  0.8367387E-01
        2   -1    0    0  501    0  0.00000000000E+00  0.00000000000E+00  0.10507684163E+04  0.10507684163E+04  0.25500000920E-02 0.  1.
       -2   -1    0    0    0  501  0.00000000000E+00  0.00000000000E+00 -0.16113140734E+04  0.16113140735E+04  0.25500000920E-02 0. -1.
    10030    2    1    2    0    0  0.00000000000E+00  0.00000000000E+00 -0.56054565718E+03  0.26620824897E+04  0.26023973079E+04 0.  0.
        5    1    3    3  502    0  0.95624813581E+02  0.98742281680E+02 -0.16038577093E+04  0.16097440122E+04  0.46999998093E+01 0. -1.
       -5    1    3    3    0  502 -0.95624813581E+02 -0.98742281680E+02  0.10433120521E+04  0.10523384775E+04  0.46999998093E+01 0.  1.
</event>
<event>
 5   0  0.3579097E-05  0.2626295E+04  0.7818609E-02  0.8359324E-01
        2   -1    0    0  501    0  0.00000000000E+00  0.00000000000E+00  0.13057869372E+04  0.13057869372E+04  0.25500000920E-02 0.  1.
       -2   -1    0    0    0  501  0.00000000000E+00  0.00000000000E+00 -0.13205491777E+04  0.13205491777E+04  0.25500000920E-02 0. -1.
    10030    2    1    2    0    0  0.00000000000E+00  0.00000000000E+00 -0.14762240430E+02  0.26263361149E+04  0.26262946264E+04 0.  0.
        5    1    3    3  502    0 -0.55349835472E+03 -0.45159412556E+02  0.11825679171E+04  0.13064795328E+04  0.46999998093E+01 0.  1.
       -5    1    3    3    0  502  0.55349835472E+03  0.45159412556E+02 -0.11973301575E+04  0.13198565821E+04  0.46999998093E+01 0. -1.
</event>
<event>
 5   0  0.3704241E-05  0.2249302E+04  0.7818609E-02  0.8498183E-01
       -2   -1    0    0    0  501  0.00000000000E+00  0.00000000000E+00  0.79228195686E+03  0.79228195686E+03  0.25500000920E-02 0.  1.
        2   -1    0    0  501    0  0.00000000000E+00  0.00000000000E+00 -0.15964519784E+04  0.15964519784E+04  0.25500000920E-02 0. -1.
    10030    2    1    2    0    0  0.00000000000E+00  0.00000000000E+00 -0.80417002150E+03  0.23887339352E+04  0.22493022006E+04 0.  0.
        2    1    3    3  502    0 -0.10943901280E+04 -0.24407347876E+03 -0.49453589873E+03  0.12254906652E+04  0.25500000920E-02 0. -1.
       -2    1    3    3    0  502  0.10943901280E+04  0.24407347876E+03 -0.30963412277E+03  0.11632432700E+04  0.25500000920E-02 0.  1.
</event>
<event>
 5   0  0.3578670E-05  0.2470519E+04  0.7818609E-02  0.8413564E-01
       -2   -1    0    0    0  501  0.00000000000E+00  0.00000000000E+00  0.15016229071E+04  0.15016229071E+04  0.25500000920E-02 0.  1.
        2   -1    0    0  501    0  0.00000000000E+00  0.00000000000E+00 -0.10161445940E+04  0.10161445940E+04  0.25500000920E-02 0. -1.
    10030    2    1    2    0    0  0.00000000000E+00  0.00000000000E+00  0.48547831310E+03  0.25177675010E+04  0.24705189732E+04 0.  0.
        4    1    3    3  502    0  0.32083864753E+03 -0.91308822061E+03  0.10250108905E+04  0.14097221268E+04  0.12699999809E+01 0.  1.
       -4    1    3    3    0  502 -0.32083864753E+03  0.91308822061E+03 -0.53953257738E+03  0.11080453742E+04  0.12699999809E+01 0. -1.
</event>
<event>
 5   0  0.3579097E-05  0.2137448E+04  0.7818609E-02  0.8544924E-01
        2   -1    0    0  501    0  0.00000000000E+00  0.00000000000E+00  0.15033396770E+04  0.15033396770E+04  0.25500000920E-02 0.  1.
       -2   -1    0    0    0  501  0.00000000000E+00  0.00000000000E+00 -0.75975601267E+03  0.75975601267E+03  0.25500000920E-02 0. -1.
    10030    2    1    2    0    0  0.00000000000E+00  0.00000000000E+00  0.74358366437E+03  0.22630956897E+04  0.21374483467E+04 0.  0.
        5    1    3    3  502    0 -0.50337911741E+03 -0.14006445589E+03  0.13588717768E+04  0.14558719667E+04  0.46999998093E+01 0.  1.
       -5    1    3    3    0  502  0.50337911741E+03  0.14006445589E+03 -0.61528811244E+03  0.80722372299E+03  0.46999998093E+01 0. -1.
</event>
<event>
 5   0  0.3579097E-05  0.2445486E+04  0.7818609E-02  0.8422668E-01
        2   -1    0    0  501    0  0.00000000000E+00  0.00000000000E+00  0.13581991276E+04  0.13581991276E+04  0.25500000920E-02 0. -1.
       -2   -1    0    0    0  501  0.00000000000E+00  0.00000000000E+00 -0.11007959918E+04  0.11007959919E+04  0.25500000920E-02 0.  1.
    10030    2    1    2    0    0  0.00000000000E+00  0.00000000000E+00  0.25740313576E+03  0.24589951195E+04  0.24454857643E+04 0.  0.
        5    1    3    3  502    0 -0.66855796693E+03 -0.48097923757E+03 -0.78004272085E+03  0.11343718608E+04  0.46999998093E+01 0.  1.
       -5    1    3    3    0  502  0.66855796693E+03  0.48097923757E+03  0.10374458566E+04  0.13246232587E+04  0.46999998093E+01 0. -1.
</event>
<event>
 5   0  0.3581449E-05  0.2484937E+04  0.7818609E-02  0.8408371E-01
        2   -1    0    0  501    0  0.00000000000E+00  0.00000000000E+00  0.27753516861E+04  0.27753516861E+04  0.25500000920E-02 0.  1.
       -2   -1    0    0    0  501  0.00000000000E+00  0.00000000000E+00 -0.55622799174E+03  0.55622799175E+03  0.25500000920E-02 0. -1.
    10030    2    1    2    0    0  0.00000000000E+00  0.00000000000E+00  0.22191236944E+04  0.33315796779E+04  0.24849372586E+04 0.  0.
        1    1    3    3  502    0 -0.50661850637E+03  0.74303181815E+03 -0.39833657618E+02  0.90019182071E+03  0.50400001928E-02 0. -1.
       -1    1    3    3    0  502  0.50661850637E+03 -0.74303181815E+03  0.22589573520E+04  0.24313878572E+04  0.50400001928E-02 0.  1.
</event>
<event>
 5   0  0.3581449E-05  0.2456987E+04  0.7818609E-02  0.8418471E-01
        2   -1    0    0  501    0  0.00000000000E+00  0.00000000000E+00  0.12378182397E+04  0.12378182397E+04  0.25500000920E-02 0.  1.
       -2   -1    0    0    0  501  0.00000000000E+00  0.00000000000E+00 -0.12192392957E+04  0.12192392957E+04  0.25500000920E-02 0. -1.
    10030    2    1    2    0    0  0.00000000000E+00  0.00000000000E+00  0.18578944006E+02  0.24570575354E+04  0.24569872924E+04 0.  0.
        1    1    3    3  502    0 -0.12649926566E+03 -0.12209450573E+04  0.59168162583E+02  0.12289059235E+04  0.50400001928E-02 0. -1.
       -1    1    3    3    0  502  0.12649926566E+03  0.12209450573E+04 -0.40589218577E+02  0.12281516119E+04  0.50400001928E-02 0.  1.
</event>
<event>
 5   0  0.1429483E-05  0.2183227E+04  0.7818609E-02  0.8525442E-01
        1   -1    0    0  501    0  0.00000000000E+00  0.00000000000E+00  0.16981339916E+04  0.16981339916E+04  0.50400001928E-02 0.  1.
       -1   -1    0    0    0  501  0.00000000000E+00  0.00000000000E+00 -0.70172306101E+03  0.70172306103E+03  0.50400001928E-02 0. -1.
    10030    2    1    2    0    0  0.00000000000E+00  0.00000000000E+00  0.99641093059E+03  0.23998570526E+04  0.21832267703E+04 0.  0.
        2    1    3    3  502    0  0.66480109536E+03 -0.25987077438E+03  0.14060656629E+04  0.15768684042E+04  0.25500000920E-02 0.  1.
       -2    1    3    3    0  502 -0.66480109536E+03  0.25987077438E+03 -0.40965473230E+03  0.82298864845E+03  0.25500000920E-02 0. -1.
</event>
<event>
 5   0  0.3650620E-05  0.2501620E+04  0.7818609E-02  0.8402409E-01
        2   -1    0    0  501    0  0.00000000000E+00  0.00000000000E+00  0.19060608066E+04  0.19060608066E+04  0.25500000920E-02 0. -1.
       -2   -1    0    0    0  501  0.00000000000E+00  0.00000000000E+00 -0.82081625287E+03  0.82081625288E+03  0.25500000920E-02 0.  1.
    10030    2    1    2    0    0  0.00000000000E+00  0.00000000000E+00  0.10852445537E+04  0.27268770595E+04  0.25016200263E+04 0.  0.
        3    1    3    3  502    0  0.31030364157E+03  0.11717636772E+04  0.87896275804E+03  0.14972955638E+04  0.10100000352E+00 0. -1.
       -3    1    3    3    0  502 -0.31030364157E+03 -0.11717636772E+04  0.20628179567E+03  0.12295814957E+04  0.10100000352E+00 0.  1.
</event>
<event>
 5   0  0.1502886E-05  0.2485937E+04  0.7818609E-02  0.8408013E-01
        1   -1    0    0  501    0  0.00000000000E+00  0.00000000000E+00  0.18730836726E+04  0.18730836726E+04  0.50400001928E-02 0.  1.
       -1   -1    0    0    0  501  0.00000000000E+00  0.00000000000E+00 -0.82482719489E+03  0.82482719490E+03  0.50400001928E-02 0. -1.
    10030    2    1    2    0    0  0.00000000000E+00  0.00000000000E+00  0.10482564777E+04  0.26979108675E+04  0.24859367260E+04 0.  0.
        4    1    3    3  502    0  0.18091895787E+03  0.12293830726E+04  0.55584949325E+03  0.13612805297E+04  0.12699999809E+01 0. -1.
       -4    1    3    3    0  502 -0.18091895787E+03 -0.12293830726E+04  0.49240698441E+03  0.13366303377E+04  0.12699999809E+01 0.  1.
</event>
<event>
 5   0  0.1456876E-05  0.2292664E+04  0.7818609E-02  0.8480819E-01
       -1   -1    0    0    0  501  0.00000000000E+00  0.00000000000E+00  0.47181699685E+03  0.47181699687E+03  0.50400001928E-02 0.  1.
        1   -1    0    0  501    0  0.00000000000E+00  0.00000000000E+00 -0.27851408883E+04  0.27851408883E+04  0.50400001928E-02 0. -1.
    10030    2    1    2    0    0  0.00000000000E+00  0.00000000000E+00 -0.23133238915E+04  0.32569578852E+04  0.22926637868E+04 0.  0.
        1    1    3    3  502    0  0.68972021429E+03  0.90537785975E+03 -0.13506857624E+04  0.17662885019E+04  0.50400001928E-02 0. -1.
       -1    1    3    3    0  502 -0.68972021429E+03 -0.90537785975E+03 -0.96263812901E+03  0.14906693833E+04  0.50400001928E-02 0.  1.
</event>
<event>
 5   0  0.1492639E-05  0.2384017E+04  0.7818609E-02  0.8445512E-01
       -1   -1    0    0    0  501  0.00000000000E+00  0.00000000000E+00  0.59770573104E+03  0.59770573106E+03  0.50400001928E-02 0. -1.
        1   -1    0    0  501    0  0.00000000000E+00  0.00000000000E+00 -0.23772306084E+04  0.23772306084E+04  0.50400001928E-02 0.  1.
    10030    2    1    2    0    0  0.00000000000E+00  0.00000000000E+00 -0.17795248774E+04  0.29749363395E+04  0.23840170794E+04 0.  0.
        5    1    3    3  502    0  0.54891097811E+03 -0.21539372855E+03  0.40294864680E+03  0.71420404797E+03  0.46999998093E+01 0. -1.
       -5    1    3    3    0  502 -0.54891097811E+03  0.21539372855E+03 -0.21824735242E+04  0.22607322915E+04  0.46999998093E+01 0.  1.
</event>
<event>
 5   0  0.3578670E-05  0.2459071E+04  0.7818609E-02  0.8417714E-01
       -2   -1    0    0    0  501  0.00000000000E+00  0.00000000000E+00  0.11478465493E+04  0.11478465493E+04  0.25500000920E-02 0.  1.
        2   -1    0    0  501    0  0.00000000000E+00  0.00000000000E+00 -0.13170375269E+04  0.13170375269E+04  0.25500000920E-02 0. -1.
    10030    2    1    2    0    0  0.00000000000E+00  0.00000000000E+00 -0.16919097765E+03  0.24648840762E+04  0.24590705403E+04 0.  0.
        4    1    3    3  502    0 -0.64213402488E+03  0.11235768775E+03  0.96036370262E+03  0.11607154734E+04  0.12699999809E+01 0.  1.
       -4    1    3    3    0  502  0.64213402488E+03 -0.11235768775E+03 -0.11295546803E+04  0.13041686028E+04  0.12699999809E+01 0. -1.
</event>
<event>
 5   0  0.1502886E-05  0.2462845E+04  0.7818609E-02  0.8416343E-01
        1   -1    0    0  501    0  0.00000000000E+00  0.00000000000E+00  0.12728524578E+04  0.12728524578E+04  0.50400001928E-02 0. -1.
       -1   -1    0    0    0  501  0.00000000000E+00  0.00000000000E+00 -0.11913407738E+04  0.11913407738E+04  0.50400001928E-02 0.  1.
    10030    2    1    2    0    0  0.00000000000E+00  0.00000000000E+00  0.81511684035E+02  0.24641932316E+04  0.24628447227E+04 0.  0.
        4    1    3    3  502    0 -0.59155944748E+03 -0.66419374799E+02  0.11193281342E+04  0.12677741117E+04  0.12699999809E+01 0. -1.
       -4    1    3    3    0  502  0.59155944748E+03  0.66419374799E+02 -0.10378164502E+04  0.11964191199E+04  0.12699999809E+01 0.  1.
</event>
<event>
 5   0  0.3704241E-05  0.2330673E+04  0.7818609E-02  0.8465925E-01
       -2   -1    0    0    0  501  0.00000000000E+00  0.00000000000E+00  0.12699394316E+04  0.12699394316E+04  0.25500000920E-02 0.  1.
        2   -1    0    0  501    0  0.00000000000E+00  0.00000000000E+00 -0.10693493386E+04  0.10693493386E+04  0.25500000920E-02 0. -1.
    10030    2    1    2    0    0  0.00000000000E+00  0.00000000000E+00  0.20059009302E+03  0.23392887702E+04  0.23306727709E+04 0.  0.
        2    1    3    3  502    0 -0.91171886229E+03  0.24843725563E+03  0.78476661077E+03  0.12283366750E+04  0.25500000920E-02 0.  1.
       -2    1    3    3    0  502  0.91171886229E+03 -0.24843725563E+03 -0.58417651774E+03  0.11109520952E+04  0.25500000920E-02 0. -1.
</event>
<event>
 5   0  0.3650620E-05  0.2480543E+04  0.7818609E-02  0.8409950E-01
       -2   -1    0    0    0  501  0.00000000000E+00  0.00000000000E+00  0.51001089728E+03  0.51001089728E+03  0.25500000920E-02 0.  1.
        2   -1    0    0  501    0  0.00000000000E+00  0.00000000000E+00 -0.30161574531E+04  0.30161574531E+04  0.25500000920E-02 0. -1.
    10030    2    1    2    0    0  0.00000000000E+00  0.00000000000E+00 -0.25061465558E+04  0.35261683504E+04  0.24805428188E+04 0.  0.
        3    1    3    3  502    0  0.96741579113E+03  0.21888270642E+03 -0.23115843923E+04  0.25153976554E+04  0.10100000352E+00 0. -1.
       -3    1    3    3    0  502 -0.96741579113E+03 -0.21888270642E+03 -0.19456216354E+03  0.10107706950E+04  0.10100000352E+00 0.  1.
</event>
<event>
 5   0  0.3579097E-05  0.2480131E+04  0.7818609E-02  0.8410098E-01
        2   -1    0    0  501    0  0.00000000000E+00  0.00000000000E+00  0.15852898965E+04  0.15852898965E+04  0.25500000920E-02 0.  1.
       -2   -1    0    0    0  501  0.00000000000E+00  0.00000000000E+00 -0.97002001461E+03  0.97002001461E+03  0.25500000920E-02 0. -1.
    10030    2    1    2    0    0  0.00000000000E+00  0.00000000000E+00  0.61526988186E+03  0.25553099111E+04  0.24801313905E+04 0.  0.
        5    1    3    3  502    0  0.54743726792E+03 -0.87704664806E+03  0.10131111218E+04  0.14475201623E+04  0.46999998093E+01 0. -1.
       -5    1    3    3    0  502 -0.54743726792E+03  0.87704664806E+03 -0.39784123998E+03  0.11077897487E+04  0.46999998093E+01 0.  1.
</event>
<event>
 5   0  0.1429483E-05  0.2531320E+04  0.7818609E-02  0.8391912E-01
       -1   -1    0    0    0  501  0.00000000000E+00  0.00000000000E+00  0.10287580103E+04  0.10287580103E+04  0.50400001928E-02 0.  1.
        1   -1    0    0  501    0  0.00000000000E+00  0.00000000000E+00 -0.15571163014E+04  0.15571163014E+04  0.50400001928E-02 0. -1.
    10030    2    1    2    0    0  0.00000000000E+00  0.00000000000E+00 -0.52835829104E+03  0.25858743117E+04  0.25313204997E+04 0.  0.
        2    1    3    3  502    0 -0.10711307323E+03  0.11358635145E+04  0.29556838883E+03  0.11785668443E+04  0.25500000920E-02 0.  1.
       -2    1    3    3    0  502  0.10711307323E+03 -0.11358635145E+04 -0.82392667987E+03  0.14073074674E+04  0.25500000920E-02 0. -1.
</event>
<event>
 5   0  0.1502886E-05  0.2493252E+04  0.7818609E-02  0.8405393E-01
        1   -1    0    0  501    0  0.00000000000E+00  0.00000000000E+00  0.22905460301E+04  0.22905460301E+04  0.50400001928E-02 0. -1.
       -1   -1    0    0    0  501  0.00000000000E+00  0.00000000000E+00 -0.67847418500E+03  0.67847418502E+03  0.50400001928E-02 0.  1.
    10030    2    1    2    0    0  0.00000000000E+00  0.00000000000E+00  0.16120718451E+04  0.29690202151E+04  0.24932519736E+04 0.  0.
        4    1    3    3  502    0  0.49987797363E+03 -0.57661764390E+03  0.19798925613E+04  0.21218723013E+04  0.12699999809E+01 0. -1.
       -4    1    3    3    0  502 -0.49987797363E+03  0.57661764390E+03 -0.36782071619E+03  0.84714791385E+03  0.12699999809E+01 0.  1.
</event>
<event>
 5   0  0.3578670E-05  0.2511508E+04  0.7818609E-02  0.8398897E-01
        2   -1    0    0  501    0  0.00000000000E+00  0.00000000000E+00  0.16399261296E+04  0.16399261296E+04  0.25500000920E-02 0.  1.
       -2   -1    0    0    0  501  0.00000000000E+00  0.00000000000E+00 -0.96157868168E+03  0.96157868169E+03  0.25500000920E-02 0. -1.
    10030    2    1    2    0    0  0.00000000000E+00  0.00000000000E+00  0.67834744794E+03  0.26015048113E+04  0.25115079182E+04 0.  0.
        4    1    3    3  502    0  0.45403967104E+03  0.11573467770E+04  0.15587852559E+03  0.12529578256E+04  0.12699999809E+01 0. -1.
       -4    1    3    3    0  502 -0.45403967104E+03 -0.11573467770E+04  0.52246892235E+03  0.13485469857E+04  0.12699999809E+01 0.  1.
</event>
<event>
 5   0  0.3650620E-05  0.2466504E+04  0.7818609E-02  0.8415017E-01
       -2   -1    0    0    0  501  0.00000000000E+00  0.00000000000E+00  0.10340715604E+04  0.10340715604E+04  0.25500000920E-02 0.  1.
        2   -1    0    0  501    0  0.00000000000E+00  0.00000000000E+00 -0.14707984244E+04  0.14707984244E+04  0.25500000920E-02 0. -1.
    10030    2    1    2    0    0  0.00000000000E+00  0.00000000000E+00 -0.43672686402E+03  0.25048699847E+04  0.24665042645E+04 0.  0.
        3    1    3    3  502    0  0.79313569780E+03  0.46661761802E+03 -0.10521793400E+04  0.13978117221E+04  0.10100000352E+00 0. -1.
       -3    1    3    3    0  502 -0.79313569780E+03 -0.46661761802E+03  0.61545247599E+03  0.11070582627E+04  0.10100000352E+00 0.  1.
</event>
<event>
 5   0  0.1456876E-05  0.2504897E+04  0.7818609E-02  0.8401243E-01
        1   -1    0    0  501    0  0.00000000000E+00  0.00000000000E+00  0.10560254255E+04  0.10560254256E+04  0.50400001928E-02 0.  1.
       -1   -1    0    0    0  501  0.00000000000E+00  0.00000000000E+00 -0.14854071838E+04  0.14854071838E+04  0.50400001928E-02 0. -1.
    10030    2    1    2    0    0  0.00000000000E+00  0.00000000000E+00 -0.42938175820E+03  0.25414326093E+04  0.25048974058E+04 0.  0.
        1    1    3    3  502    0  0.51495996235E+03 -0.10065031747E+04 -0.76143419690E+03  0.13630900336E+04  0.50400001928E-02 0. -1.
       -1    1    3    3    0  502 -0.51495996235E+03  0.10065031747E+04  0.33205243870E+03  0.11783425757E+04  0.50400001928E-02 0.  1.
</event>
<event>
 5   0  0.1421242E-05  0.2430081E+04  0.7818609E-02  0.8428327E-01
        1   -1    0    0  501    0  0.00000000000E+00  0.00000000000E+00  0.16667404265E+04  0.16667404265E+04  0.50400001928E-02 0. -1.
       -1   -1    0    0    0  501  0.00000000000E+00  0.00000000000E+00 -0.88575504603E+03  0.88575504604E+03  0.50400001928E-02 0.  1.
    10030    2    1    2    0    0  0.00000000000E+00  0.00000000000E+00  0.78098538047E+03  0.25524954726E+04  0.24300812688E+04 0.  0.
        3    1    3    3  502    0  0.99723438530E+03  0.43533023094E+03  0.95840923180E+03  0.14500127913E+04  0.10100000352E+00 0. -1.
       -3    1    3    3    0  502 -0.99723438530E+03 -0.43533023094E+03 -0.17742385133E+03  0.11024826812E+04  0.10100000352E+00 0.  1.
</event>
<event>
 5   0  0.1429483E-05  0.2516105E+04  0.7818609E-02  0.8397271E-01
        1   -1    0    0  501    0  0.00000000000E+00  0.00000000000E+00  0.86784207012E+03  0.86784207014E+03  0.50400001928E-02 0. -1.
       -1   -1    0    0    0  501  0.00000000000E+00  0.00000000000E+00 -0.18237139542E+04  0.18237139542E+04  0.50400001928E-02 0.  1.
    10030    2    1    2    0    0  0.00000000000E+00  0.00000000000E+00 -0.95587188408E+03  0.26915560243E+04  0.25161046825E+04 0.  0.
        2    1    3    3  502    0  0.30481078780E+03 -0.33572260246E+03  0.77738200408E+03  0.89996781189E+03  0.25500000920E-02 0. -1.
       -2    1    3    3    0  502 -0.30481078780E+03  0.33572260246E+03 -0.17332538882E+04  0.17915882125E+04  0.25500000920E-02 0.  1.
</event>
<event>
 5   0  0.1429483E-05  0.1803128E+04  0.7818609E-02  0.8704638E-01
       -1   -1    0    0    0  501  0.00000000000E+00  0.00000000000E+00  0.98539019412E+03  0.98539019414E+03  0.50400001928E-02 0. -1.
        1   -1    0    0  501    0  0.00000000000E+00  0.00000000000E+00 -0.82486881159E+03  0.82486881161E+03  0.50400001928E-02 0.  1.
    10030    2    1    2    0    0  0.00000000000E+00  0.00000000000E+00  0.16052138253E+03  0.18102590057E+04  0.18031279915E+04 0.  0.
        2    1    3    3  502    0 -0.36913404181E+03 -0.13883964509E+03 -0.73367441990E+03  0.83295530630E+03  0.25500000920E-02 0.  1.
       -2    1    3    3    0  502  0.36913404181E+03  0.13883964509E+03  0.89419580243E+03  0.97730369945E+03  0.25500000920E-02 0. -1.
</event>
<event>
 5   0  0.3579097E-05  0.2512836E+04  0.7818609E-02  0.8398427E-01
        2   -1    0    0  501    0  0.00000000000E+00  0.00000000000E+00  0.17392524467E+04  0.17392524467E+04  0.25500000920E-02 0.  1.
       -2   -1    0    0    0  501  0.00000000000E+00  0.00000000000E+00 -0.90762336742E+03  0.90762336743E+03  0.25500000920E-02 0. -1.
    10030    2    1    2    0    0  0.00000000000E+00  0.00000000000E+00  0.83162907930E+03  0.26468758141E+04  0.25128359775E+04 0.  0.
        5    1    3    3  502    0 -0.73995908673E+03 -0.15397584871E+03  0.14730027306E+04  0.16555987275E+04  0.46999998093E+01 0.  1.
       -5    1    3    3    0  502  0.73995908673E+03  0.15397584871E+03 -0.64137365130E+03  0.99127708669E+03  0.46999998093E+01 0. -1.
</event>
<event>
 5   0  0.1492639E-05  0.2514677E+04  0.7818609E-02  0.8397775E-01
        1   -1    0    0  501    0  0.00000000000E+00  0.00000000000E+00  0.12618322173E+04  0.12618322173E+04  0.50400001928E-02 0.  1.
       -1   -1    0    0    0  501  0.00000000000E+00  0.00000000000E+00 -0.12528611497E+04  0.12528611497E+04  0.50400001928E-02 0. -1.
    10030    2    1    2    0    0  0.00000000000E+00  0.00000000000E+00  0.89710676304E+01  0.25146933670E+04  0.25146773650E+04 0.  0.
        5    1    3    3  502    0  0.64188328322E+03 -0.29363132391E+03  0.10449944226E+04  0.12610586572E+04  0.46999998093E+01 0.  1.
       -5    1    3    3    0  502 -0.64188328322E+03  0.29363132391E+03 -0.10360233550E+04  0.12536347098E+04  0.46999998093E+01 0. -1.
</event>
<event>
 5   0  0.1421242E-05  0.2520163E+04  0.7818609E-02  0.8395837E-01
        1   -1    0    0  501    0  0.00000000000E+00  0.00000000000E+00  0.19651734238E+04  0.19651734238E+04  0.50400001928E-02 0.  1.
       -1   -1    0    0    0  501  0.00000000000E+00  0.00000000000E+00 -0.80797226745E+03  0.80797226746E+03  0.50400001928E-02 0. -1.
    10030    2    1    2    0    0  0.00000000000E+00  0.00000000000E+00  0.11572011564E+04  0.27731456913E+04  0.25201631909E+04 0.  0.
        3    1    3    3  502    0 -0.93756183004E+03 -0.10339407643E+02 -0.34773436536E+03  0.10000241435E+04  0.10100000352E+00 0. -1.
       -3    1    3    3    0  502  0.93756183004E+03  0.10339407643E+02  0.15049355217E+04  0.17731215478E+04  0.10100000352E+00 0.  1.
</event>
<event>
 5   0  0.1492639E-05  0.2466776E+04  0.7818609E-02  0.8414918E-01
        1   -1    0    0  501    0  0.00000000000E+00  0.00000000000E+00  0.80232129434E+03  0.80232129435E+03  0.50400001928E-02 0. -1.
       -1   -1    0    0    0  501  0.00000000000E+00  0.00000000000E+00 -0.18960564617E+04  0.18960564617E+04  0.50400001928E-02 0.  1.
    10030    2    1    2    0    0  0.00000000000E+00  0.00000000000E+00 -0.10937351673E+04  0.26983777560E+04  0.24667764183E+04 0.  0.
        5    1    3    3  502    0 -0.48221218545E+03 -0.64296149734E+03 -0.15702795903E+04  0.17640091158E+04  0.46999998093E+01 0.  1.
       -5    1    3    3    0  502  0.48221218545E+03  0.64296149734E+03  0.47654442295E+03  0.93436864026E+03  0.46999998093E+01 0. -1.
</event>
<event>
 5   0  0.1456876E-05  0.2383217E+04  0.7818609E-02  0.8445814E-01
       -1   -1    0    0    0  501  0.00000000000E+00  0.00000000000E+00  0.11308286920E+04  0.11308286920E+04  0.50400001928E-02 0.  1.
        1   -1    0    0  501    0  0.00000000000E+00  0.00000000000E+00 -0.12556554979E+04  0.12556554979E+04  0.50400001928E-02 0. -1.
    10030    2    1    2    0    0  0.00000000000E+00  0.00000000000E+00 -0.12482680589E+03  0.23864841900E+04  0.23832173752E+04 0.  0.
        1    1    3    3  502    0 -0.74159536351E+03 -0.33292842550E+03  0.81005942075E+03  0.11476067640E+04  0.50400001928E-02 0.  1.
       -1    1    3    3    0  502  0.74159536351E+03  0.33292842550E+03 -0.93488622664E+03  0.12388774259E+04  0.50400001928E-02 0. -1.
</event>
<event>
 5   0  0.3704241E-05  0.2475221E+04  0.7818609E-02  0.8411867E-01
        2   -1    0    0  501    0  0.00000000000E+00  0.00000000000E+00  0.11955398256E+04  0.11955398256E+04  0.25500000920E-02 0. -1.
       -2   -1    0    0    0  501  0.00000000000E+00  0.00000000000E+00 -0.12811616760E+04  0.12811616760E+04  0.25500000920E-02 0.  1.
    10030    2    1    2    0    0  0.00000000000E+00  0.00000000000E+00 -0.85621850418E+02  0.24767015016E+04  0.24752210461E+04 0.  0.
        2    1    3    3  502    0 -0.11056616283E+03  0.66446422568E+03  0.99605002110E+03  0.12024363718E+04  0.25500000920E-02 0. -1.
       -2    1    3    3    0  502  0.11056616283E+03 -0.66446422568E+03 -0.10816718715E+04  0.12742651299E+04  0.25500000920E-02 0.  1.
</event>
<event>
 5   0  0.3581449E-05  0.2712925E+04  0.7818609E-02  0.8330823E-01
        2   -1    0    0  501    0  0.00000000000E+00  0.00000000000E+00  0.11768084999E+04  0.11768084999E+04  0.25500000920E-02 0. -1.
       -2   -1    0    0    0  501  0.00000000000E+00  0.00000000000E+00 -0.15635432739E+04  0.15635432739E+04  0.25500000920E-02 0.  1.
    10030    2    1    2    0    0  0.00000000000E+00  0.00000000000E+00 -0.38673477400E+03  0.27403517739E+04  0.27129253693E+04 0.  0.
        1    1    3    3  502    0 -0.18333004232E+03  0.13424524747E+04 -0.12788561166E+03  0.13609347086E+04  0.50400001928E-02 0.  1.
       -1    1    3    3    0  502  0.18333004232E+03 -0.13424524747E+04 -0.25884916234E+03  0.13794170653E+04  0.50400001928E-02 0. -1.
</event>
<event>
 5   0  0.1201438E-05  0.3168591E+04  0.7818609E-02  0.8197162E-01
       -3   -1    0    0    0  501  0.00000000000E+00  0.00000000000E+00  0.12486412072E+04  0.12486412113E+04  0.10100000352E+00 0. -1.
        3   -1    0    0  501    0  0.00000000000E+00  0.00000000000E+00 -0.20101784036E+04  0.20101784061E+04  0.10100000352E+00 0.  1.
    10030    2    1    2    0    0  0.00000000000E+00  0.00000000000E+00 -0.76153719634E+03  0.32588196174E+04  0.31685906011E+04 0.  0.
        1    1    3    3  502    0 -0.11021248505E+04  0.11381141777E+04 -0.37776449776E+03  0.16287077956E+04  0.50400001928E-02 0.  1.
       -1    1    3    3    0  502  0.11021248505E+04 -0.11381141777E+04 -0.38377269858E+03  0.16301118218E+04  0.50400001928E-02 0. -1.
</event>
<event>
 5   0  0.1429483E-05  0.2494179E+04  0.7818609E-02  0.8405062E-01
        1   -1    0    0  501    0  0.00000000000E+00  0.00000000000E+00  0.17709747172E+04  0.17709747172E+04  0.50400001928E-02 0. -1.
       -1   -1    0    0    0  501  0.00000000000E+00  0.00000000000E+00 -0.87817869004E+03  0.87817869005E+03  0.50400001928E-02 0.  1.
    10030    2    1    2    0    0  0.00000000000E+00  0.00000000000E+00  0.89279602713E+03  0.26491534072E+04  0.24941790291E+04 0.  0.
        2    1    3    3  502    0  0.34407763785E+02  0.11124562288E+04  0.10439272219E+04  0.15259511132E+04  0.25500000920E-02 0. -1.
       -2    1    3    3    0  502 -0.34407763785E+02 -0.11124562288E+04 -0.15113119481E+03  0.11232022940E+04  0.25500000920E-02 0.  1.
</event>
<event>
 5   0  0.1421242E-05  0.2580078E+04  0.7818609E-02  0.8375000E-01
       -1   -1    0    0    0  501  0.00000000000E+00  0.00000000000E+00  0.11266504717E+04  0.11266504717E+04  0.50400001928E-02 0. -1.
        1   -1    0    0  501    0  0.00000000000E+00  0.00000000000E+00 -0.14771227568E+04  0.14771227568E+04  0.50400001928E-02 0.  1.
    10030    2    1    2    0    0  0.00000000000E+00  0.00000000000E+00 -0.35047228513E+03  0.26037732285E+04  0.25800783327E+04 0.  0.
        3    1    3    3  502    0  0.10417908556E+04 -0.24013514288E+03  0.55334141330E+03  0.12038188416E+04  0.10100000352E+00 0.  1.
       -3    1    3    3    0  502 -0.10417908556E+04  0.24013514288E+03 -0.90381369842E+03  0.13999543869E+04  0.10100000352E+00 0. -1.
</event>
<event>
 5   0  0.3704241E-05  0.2506226E+04  0.7818609E-02  0.8400771E-01
       -2   -1    0    0    0  501  0.00000000000E+00  0.00000000000E+00  0.89226585380E+03  0.89226585380E+03  0.25500000920E-02 0.  1.
        2   -1    0    0  501    0  0.00000000000E+00  0.00000000000E+00 -0.17598921550E+04  0.17598921550E+04  0.25500000920E-02 0. -1.
    10030    2    1    2    0    0  0.00000000000E+00  0.00000000000E+00 -0.86762630122E+03  0.26521580088E+04  0.25062255894E+04 0.  0.
        2    1    3    3  502    0  0.12291715850E+04 -0.93074436386E+02 -0.67224588487E+03  0.14040798289E+04  0.25500000920E-02 0. -1.
       -2    1    3    3    0  502 -0.12291715850E+04  0.93074436386E+02 -0.19538041635E+03  0.12480781799E+04  0.25500000920E-02 0.  1.
</event>
<event>
 5   0  0.3650620E-05  0.2498609E+04  0.7818609E-02  0.8403481E-01
        2   -1    0    0  501    0  0.00000000000E+00  0.00000000000E+00  0.98669298856E+03  0.98669298856E+03  0.25500000920E-02 0.  1.
       -2   -1    0    0    0  501  0.00000000000E+00  0.00000000000E+00 -0.15818108899E+04  0.15818108899E+04  0.25500000920E-02 0. -1.
    10030    2    1    2    0    0  0.00000000000E+00  0.00000000000E+00 -0.59511790134E+03  0.25685038785E+04  0.24986089845E+04 0.  0.
        3    1    3    3  502    0  0.52627790313E+02  0.11649139539E+04 -0.75839330076E+03  0.13910264602E+04  0.10100000352E+00 0. -1.
       -3    1    3    3    0  502 -0.52627790313E+02 -0.11649139539E+04  0.16327539942E+03  0.11774774182E+04  0.10100000352E+00 0.  1.
</event>
<event>
 5   0  0.1456876E-05  0.2509300E+04  0.7818609E-02  0.8399680E-01
        1   -1    0    0  501    0  0.00000000000E+00  0.00000000000E+00  0.15274006632E+04  0.15274006632E+04  0.50400001928E-02 0.  1.
       -1   -1    0    0    0  501  0.00000000000E+00  0.00000000000E+00 -0.10306045553E+04  0.10306045553E+04  0.50400001928E-02 0. -1.
    10030    2    1    2    0    0  0.00000000000E+00  0.00000000000E+00  0.49679610795E+03  0.25580052185E+04  0.25092995686E+04 0.  0.
        1    1    3    3  502    0 -0.26252267505E+03 -0.11274519588E+04 -0.24481103913E+03  0.11832153309E+04  0.50400001928E-02 0. -1.
       -1    1    3    3    0  502  0.26252267505E+03  0.11274519588E+04  0.74160714708E+03  0.13747898876E+04  0.50400001928E-02 0.  1.
</event>
<event>
 5   0  0.3704241E-05  0.2608583E+04  0.7818609E-02  0.8365292E-01
       -2   -1    0    0    0  501  0.00000000000E+00  0.00000000000E+00  0.14934195567E+04  0.14934195567E+04  0.25500000920E-02 0. -1.
        2   -1    0    0  501    0  0.00000000000E+00  0.00000000000E+00 -0.11391149567E+04  0.11391149567E+04  0.25500000920E-02 0.  1.
    10030    2    1    2    0    0  0.00000000000E+00  0.00000000000E+00  0.35430460000E+03  0.26325345134E+04  0.26085831815E+04 0.  0.
        2    1    3    3  502    0  0.12763748082E+04 -0.22662084783E+02 -0.92754922652E+02  0.12799412864E+04  0.25500000920E-02 0.  1.
       -2    1    3    3    0  502 -0.12763748082E+04  0.22662084783E+02  0.44705952265E+03  0.13525932270E+04  0.25500000920E-02 0. -1.
</event>
<event>
 5   0  0.1502886E-05  0.2493899E+04  0.7818609E-02  0.8405162E-01
       -1   -1    0    0    0  501  0.00000000000E+00  0.00000000000E+00  0.11526735505E+04  0.11526735505E+04  0.50400001928E-02 0. -1.
        1   -1    0    0  501    0  0.00000000000E+00  0.00000000000E+00 -0.13489362763E+04  0.13489362763E+04  0.50400001928E-02 0.  1.
    10030    2    1    2    0    0  0.00000000000E+00  0.00000000000E+00 -0.19626272580E+03  0.25016098267E+04  0.24938990893E+04 0.  0.
        4    1    3    3  502    0 -0.53326222565E+03 -0.11195397801E+04 -0.22946988820E+03  0.12611090210E+04  0.12699999809E+01 0. -1.
       -4    1    3    3    0  502  0.53326222565E+03  0.11195397801E+04  0.33207162408E+02  0.12405008057E+04  0.12699999809E+01 0.  1.
</event>
<event>
 5   0  0.1421242E-05  0.2510906E+04  0.7818609E-02  0.8399111E-01
        1   -1    0    0  501    0  0.00000000000E+00  0.00000000000E+00  0.17315922154E+04  0.17315922154E+04  0.50400001928E-02 0.  1.
       -1   -1    0    0    0  501  0.00000000000E+00  0.00000000000E+00 -0.91023854349E+03  0.91023854350E+03  0.50400001928E-02 0. -1.
    10030    2    1    2    0    0  0.00000000000E+00  0.00000000000E+00  0.82135367189E+03  0.26418307589E+04  0.25109057936E+04 0.  0.
        3    1    3    3  502    0 -0.10826142554E+04 -0.17626931377E+03  0.10532917513E+04  0.15207064215E+04  0.10100000352E+00 0.  1.
       -3    1    3    3    0  502  0.10826142554E+04  0.17626931377E+03 -0.23193807941E+03  0.11211243374E+04  0.10100000352E+00 0. -1.
</event>
<event>
 5   0  0.3579097E-05  0.2477534E+04  0.7818609E-02  0.8411033E-01
        2   -1    0    0  501    0  0.00000000000E+00  0.00000000000E+00  0.25407679121E+04  0.25407679121E+04  0.25500000920E-02 0.  1.
       -2   -1    0    0    0  501  0.00000000000E+00  0.00000000000E+00 -0.60396834457E+03  0.60396834457E+03  0.25500000920E-02 0. -1.
    10030    2    1    2    0    0  0.00000000000E+00  0.00000000000E+00  0.19367995676E+04  0.31447362567E+04  0.24775337655E+04 0.  0.
        5    1    3    3  502    0 -0.56878220577E+03  0.26823223327E+03 -0.38628378940E+03  0.73803725144E+03  0.46999998093E+01 0. -1.
       -5    1    3    3    0  502  0.56878220577E+03 -0.26823223327E+03  0.23230833570E+04  0.24066990053E+04  0.46999998093E+01 0.  1.
</event>
<event>
 5   0  0.3704241E-05  0.2413465E+04  0.7818609E-02  0.8434480E-01
       -2   -1    0    0    0  501  0.00000000000E+00  0.00000000000E+00  0.94766414500E+03  0.94766414501E+03  0.25500000920E-02 0.  1.
        2   -1    0    0  501    0  0.00000000000E+00  0.00000000000E+00 -0.15366233664E+04  0.15366233664E+04  0.25500000920E-02 0. -1.
    10030    2    1    2    0    0  0.00000000000E+00  0.00000000000E+00 -0.58895922142E+03  0.24842875114E+04  0.24134646206E+04 0.  0.
        2    1    3    3  502    0  0.98928342634E+03  0.11718312875E+03  0.40652564649E+03  0.10759538487E+04  0.25500000920E-02 0.  1.
       -2    1    3    3    0  502 -0.98928342634E+03 -0.11718312875E+03 -0.99548486791E+03  0.14083336627E+04  0.25500000920E-02 0. -1.
</event>
<event>
 5   0  0.1201438E-05  0.2417950E+04  0.7818609E-02  0.8432814E-01
       -3   -1    0    0    0  501  0.00000000000E+00  0.00000000000E+00  0.14493936023E+04  0.14493936059E+04  0.10100000352E+00 0. -1.
        3   -1    0    0  501    0  0.00000000000E+00  0.00000000000E+00 -0.10084360497E+04  0.10084360548E+04  0.10100000352E+00 0.  1.
    10030    2    1    2    0    0  0.00000000000E+00  0.00000000000E+00  0.44095755260E+03  0.24578296607E+04  0.24179501810E+04 0.  0.
        4    1    3    3  502    0  0.24203197822E+03 -0.30374127149E+03 -0.94329746737E+03  0.10201225237E+04  0.12699999809E+01 0.  1.
       -4    1    3    3    0  502 -0.24203197822E+03  0.30374127149E+03  0.13842550200E+04  0.14377071370E+04  0.12699999809E+01 0. -1.
</event>
<event>
 5   0  0.1429483E-05  0.2517316E+04  0.7818609E-02  0.8396843E-01
        1   -1    0    0  501    0  0.00000000000E+00  0.00000000000E+00  0.12346825375E+04  0.12346825375E+04  0.50400001928E-02 0. -1.
       -1   -1    0    0    0  501  0.00000000000E+00  0.00000000000E+00 -0.12830986263E+04  0.12830986264E+04  0.50400001928E-02 0.  1.
    10030    2    1    2    0    0  0.00000000000E+00  0.00000000000E+00 -0.48416088835E+02  0.25177811639E+04  0.25173156083E+04 0.  0.
        2    1    3    3  502    0  0.99080746799E+03 -0.77451944219E+03  0.27179107441E+02  0.12579024242E+04  0.25500000920E-02 0.  1.
       -2    1    3    3    0  502 -0.99080746799E+03  0.77451944219E+03 -0.75595196276E+02  0.12598787397E+04  0.25500000920E-02 0. -1.
</event>
<event>
 5   0  0.1456876E-05  0.2525784E+04  0.7818609E-02  0.8393857E-01
        1   -1    0    0  501    0  0.00000000000E+00  0.00000000000E+00  0.10381579810E+04  0.10381579810E+04  0.50400001928E-02 0. -1.
       -1   -1    0    0    0  501  0.00000000000E+00  0.00000000000E+00 -0.15362745960E+04  0.15362745960E+04  0.50400001928E-02 0.  1.
    10030    2    1    2    0    0  0.00000000000E+00  0.00000000000E+00 -0.49811661497E+03  0.25744325771E+04  0.25257836273E+04 0.  0.
        1    1    3    3  502    0  0.47605691865E+03  0.62093250025E+03  0.76135185805E+03  0.10917160855E+04  0.50400001928E-02 0. -1.
       -1    1    3    3    0  502 -0.47605691865E+03 -0.62093250025E+03 -0.12594684730E+04  0.14827164915E+04  0.50400001928E-02 0.  1.
</event>
<event>
 5   0  0.3704241E-05  0.2531099E+04  0.7818609E-02  0.8391989E-01
       -2   -1    0    0    0  501  0.00000000000E+00  0.00000000000E+00  0.14062535779E+04  0.14062535779E+04  0.25500000920E-02 0.  1.
        2   -1    0    0  501    0  0.00000000000E+00  0.00000000000E+00 -0.11389237394E+04  0.11389237394E+04  0.25500000920E-02 0. -1.
    10030    2    1    2    0    0  0.00000000000E+00  0.00000000000E+00  0.26732983857E+03  0.25451773173E+04  0.25310990368E+04 0.  0.
        2    1    3    3  502    0  0.85838400625E+02 -0.50438524255E+03 -0.10302891470E+04  0.11503340517E+04  0.25500000920E-02 0. -1.
       -2    1    3    3    0  502 -0.85838400625E+02  0.50438524255E+03  0.12976189856E+04  0.13948432656E+04  0.25500000920E-02 0.  1.
</event>
<event>
 5   0  0.1456876E-05  0.2463494E+04  0.7818609E-02  0.8416108E-01
        1   -1    0    0  501    0  0.00000000000E+00  0.00000000000E+00  0.18200578667E+04  0.18200578667E+04  0.50400001928E-02 0. -1.
       -1   -1    0    0    0  501  0.00000000000E+00  0.00000000000E+00 -0.83360007812E+03  0.83360007814E+03  0.50400001928E-02 0.  1.
    10030    2    1    2    0    0  0.00000000000E+00  0.00000000000E+00  0.98645778858E+03  0.26536579449E+04  0.24634937629E+04 0.  0.
        1    1    3    3  502    0 -0.22067221589E+03 -0.12086423488E+04  0.58767743181E+03  0.13619388085E+04  0.50400001928E-02 0.  1.
       -1    1    3    3    0  502  0.22067221589E+03  0.12086423488E+04  0.39878035677E+03  0.12917191363E+04  0.50400001928E-02 0. -1.
</event>
<event>
 5   0  0.1429483E-05  0.2508479E+04  0.7818609E-02  0.8399971E-01
        1   -1    0    0  501    0  0.00000000000E+00  0.00000000000E+00  0.13256712789E+04  0.13256712789E+04  0.50400001928E-02 0.  1.
       -1   -1    0    0    0  501  0.00000000000E+00  0.00000000000E+00 -0.11866568411E+04  0.11866568411E+04  0.50400001928E-02 0. -1.
    10030    2    1    2    0    0  0.00000000000E+00  0.00000000000E+00  0.13901443775E+03  0.25123281200E+04  0.25084791346E+04 0.  0.
        2    1    3    3  502    0  0.64172868818E+03  0.11605881799E+03  0.11425201166E+04  0.13155369912E+04  0.25500000920E-02 0.  1.
       -2    1    3    3    0  502 -0.64172868818E+03 -0.11605881799E+03 -0.10035056788E+04  0.11967911288E+04  0.25500000920E-02 0. -1.
</event>
<event>
 5   0  0.1421242E-05  0.2501129E+04  0.7818609E-02  0.8402583E-01
       -1   -1    0    0    0  501  0.00000000000E+00  0.00000000000E+00  0.13854063639E+04  0.13854063640E+04  0.50400001928E-02 0. -1.
        1   -1    0    0  501    0  0.00000000000E+00  0.00000000000E+00 -0.11288466615E+04  0.11288466615E+04  0.50400001928E-02 0.  1.
    10030    2    1    2    0    0  0.00000000000E+00  0.00000000000E+00  0.25655970249E+03  0.25142530254E+04  0.25011288241E+04 0.  0.
        3    1    3    3  502    0  0.42390934616E+03  0.78065860091E+03 -0.75655728402E+03  0.11668358578E+04  0.10100000352E+00 0.  1.
       -3    1    3    3    0  502 -0.42390934616E+03 -0.78065860091E+03  0.10131169865E+04  0.13474171676E+04  0.10100000352E+00 0. -1.
</event>
<event>
 5   0  0.1201438E-05  0.2502230E+04  0.7818609E-02  0.8402192E-01
       -3   -1    0    0    0  501  0.00000000000E+00  0.00000000000E+00  0.14325870555E+04  0.14325870590E+04  0.10100000352E+00 0.  1.
        3   -1    0    0  501    0  0.00000000000E+00  0.00000000000E+00 -0.10926305148E+04  0.10926305194E+04  0.10100000352E+00 0. -1.
    10030    2    1    2    0    0  0.00000000000E+00  0.00000000000E+00  0.33995654070E+03  0.25252175784E+04  0.25022296795E+04 0.  0.
        5    1    3    3  502    0  0.28511269195E+03 -0.42376714023E+02  0.13986115813E+04  0.14280131226E+04  0.46999998093E+01 0.  1.
       -5    1    3    3    0  502 -0.28511269195E+03  0.42376714023E+02 -0.10586550406E+04  0.10972044559E+04  0.46999998093E+01 0. -1.
</event>
<event>
 5   0  0.1492639E-05  0.2521274E+04  0.7818609E-02  0.8395445E-01
        1   -1    0    0  501    0  0.00000000000E+00  0.00000000000E+00  0.12708510157E+04  0.12708510157E+04  0.50400001928E-02 0.  1.
       -1   -1    0    0    0  501  0.00000000000E+00  0.00000000000E+00 -0.12505055164E+04  0.12505055164E+04  0.50400001928E-02 0. -1.
    10030    2    1    2    0    0  0.00000000000E+00  0.00000000000E+00  0.20345499322E+02  0.25213565321E+04  0.25212744442E+04 0.  0.
        5    1    3    3  502    0  0.48155670540E+03  0.26195359097E+03 -0.11250591588E+04  0.12515177766E+04  0.46999998093E+01 0. -1.
       -5    1    3    3    0  502 -0.48155670540E+03 -0.26195359097E+03  0.11454046581E+04  0.12698387556E+04  0.46999998093E+01 0.  1.
</event>
<event>
 5   0  0.3704241E-05  0.2434500E+04  0.7818609E-02  0.8426699E-01
       -2   -1    0    0    0  501  0.00000000000E+00  0.00000000000E+00  0.16062816419E+04  0.16062816419E+04  0.25500000920E-02 0.  1.
        2   -1    0    0  501    0  0.00000000000E+00  0.00000000000E+00 -0.92243914001E+03  0.92243914002E+03  0.25500000920E-02 0. -1.
    10030    2    1    2    0    0  0.00000000000E+00  0.00000000000E+00  0.68384250189E+03  0.25287207819E+04  0.24344995842E+04 0.  0.
        2    1    3    3  502    0 -0.41687739054E+03  0.10340930284E+04 -0.16541012399E+03  0.11271626587E+04  0.25500000920E-02 0. -1.
       -2    1    3    3    0  502  0.41687739054E+03 -0.10340930284E+04  0.84925262588E+03  0.14015581232E+04  0.25500000920E-02 0.  1.
</event>
<event>
 5   0  0.1456876E-05  0.2495786E+04  0.7818609E-02  0.8404488E-01
        1   -1    0    0  501    0  0.00000000000E+00  0.00000000000E+00  0.23296626937E+04  0.23296626937E+04  0.50400001928E-02 0. -1.
       -1   -1    0    0    0  501  0.00000000000E+00  0.00000000000E+00 -0.66843892244E+03  0.66843892246E+03  0.50400001928E-02 0.  1.
    10030    2    1    2    0    0  0.00000000000E+00  0.00000000000E+00  0.16612237712E+04  0.29981016161E+04  0.24957862253E+04 0.  0.
        1    1    3    3  502    0  0.11566632649E+04 -0.42811610350E+03  0.60242231816E+03  0.13726128209E+04  0.50400001928E-02 0.  1.
       -1    1    3    3    0  502 -0.11566632649E+04  0.42811610350E+03  0.10588014531E+04  0.16254887953E+04  0.50400001928E-02 0. -1.
</event>
<event>
 5   0  0.3704241E-05  0.2207819E+04  0.7818609E-02  0.8515181E-01
       -2   -1    0    0    0  501  0.00000000000E+00  0.00000000000E+00  0.91626153421E+03  0.91626153422E+03  0.25500000920E-02 0.  1.
        2   -1    0    0  501    0  0.00000000000E+00  0.00000000000E+00 -0.13299872192E+04  0.13299872192E+04  0.25500000920E-02 0. -1.
    10030    2    1    2    0    0  0.00000000000E+00  0.00000000000E+00 -0.41372568495E+03  0.22462487534E+04  0.22078189508E+04 0.  0.
        2    1    3    3  502    0 -0.38829863357E+03  0.87361078930E+03 -0.76841623593E+03  0.12265541780E+04  0.25500000920E-02 0. -1.
       -2    1    3    3    0  502  0.38829863357E+03 -0.87361078930E+03  0.35469055098E+03  0.10196945753E+04  0.25500000920E-02 0.  1.
</event>
<event>
 5   0  0.1429483E-05  0.2515953E+04  0.7818609E-02  0.8397324E-01
       -1   -1    0    0    0  501  0.00000000000E+00  0.00000000000E+00  0.11526463435E+04  0.11526463435E+04  0.50400001928E-02 0. -1.
        1   -1    0    0  501    0  0.00000000000E+00  0.00000000000E+00 -0.13729322819E+04  0.13729322819E+04  0.50400001928E-02 0.  1.
    10030    2    1    2    0    0  0.00000000000E+00  0.00000000000E+00 -0.22028593842E+03  0.25255786254E+04  0.25159533975E+04 0.  0.
        2    1    3    3  502    0  0.71981242188E+03 -0.32940104723E+03  0.87128359294E+03  0.11771873563E+04  0.25500000920E-02 0. -1.
       -2    1    3    3    0  502 -0.71981242188E+03  0.32940104723E+03 -0.10915695314E+04  0.13483912690E+04  0.25500000920E-02 0.  1.
</event>
<event>
 5   0  0.1429483E-05  0.2497295E+04  0.7818609E-02  0.8403950E-01
       -1   -1    0    0    0  501  0.00000000000E+00  0.00000000000E+00  0.10833378963E+04  0.10833378964E+04  0.50400001928E-02 0. -1.
        1   -1    0    0  501    0  0.00000000000E+00  0.00000000000E+00 -0.14391823607E+04  0.14391823607E+04  0.50400001928E-02 0.  1.
    10030    2    1    2    0    0  0.00000000000E+00  0.00000000000E+00 -0.35584446435E+03  0.25225202571E+04  0.24972951697E+04 0.  0.
        2    1    3    3  502    0 -0.18559371540E+03  0.12216554570E+04 -0.35927321812E+03  0.12868427752E+04  0.25500000920E-02 0.  1.
       -2    1    3    3    0  502  0.18559371540E+03 -0.12216554570E+04  0.34287537713E+01  0.12356774819E+04  0.25500000920E-02 0. -1.
</event>
<event>
 5   0  0.1502886E-05  0.2526337E+04  0.7818609E-02  0.8393663E-01
        1   -1    0    0  501    0  0.00000000000E+00  0.00000000000E+00  0.18446614530E+04  0.18446614530E+04  0.50400001928E-02 0.  1.
       -1   -1    0    0    0  501  0.00000000000E+00  0.00000000000E+00 -0.86497958284E+03  0.86497958285E+03  0.50400001928E-02 0. -1.
    10030    2    1    2    0    0  0.00000000000E+00  0.00000000000E+00  0.97968187017E+03  0.27096410359E+04  0.25263368692E+04 0.  0.
        4    1    3    3  502    0  0.93735788148E+03 -0.80243620053E+03  0.77972765081E+03  0.14596302533E+04  0.12699999809E+01 0.  1.
       -4    1    3    3    0  502 -0.93735788148E+03  0.80243620053E+03  0.19995421935E+03  0.12500107826E+04  0.12699999809E+01 0. -1.
</event>
<event>
 5   0  0.1502886E-05  0.2516825E+04  0.7818609E-02  0.8397016E-01
        1   -1    0    0  501    0  0.00000000000E+00  0.00000000000E+00  0.11852123637E+04  0.11852123638E+04  0.50400001928E-02 0.  1.
       -1   -1    0    0    0  501  0.00000000000E+00  0.00000000000E+00 -0.13361332838E+04  0.13361332838E+04  0.50400001928E-02 0. -1.
    10030    2    1    2    0    0  0.00000000000E+00  0.00000000000E+00 -0.15092092006E+03  0.25213456476E+04  0.25168247357E+04 0.  0.
        4    1    3    3  502    0  0.11861682414E+04 -0.17815757564E+03  0.30583438401E+03  0.12378495474E+04  0.12699999809E+01 0.  1.
       -4    1    3    3    0  502 -0.11861682414E+04  0.17815757564E+03 -0.45675530407E+03  0.12834961002E+04  0.12699999809E+01 0. -1.
</event>
<event>
 5   0  0.1492639E-05  0.2503463E+04  0.7818609E-02  0.8401753E-01
       -1   -1    0    0    0  501  0.00000000000E+00  0.00000000000E+00  0.83483846265E+03  0.83483846267E+03  0.50400001928E-02 0.  1.
        1   -1    0    0  501    0  0.00000000000E+00  0.00000000000E+00 -0.18768082139E+04  0.18768082139E+04  0.50400001928E-02 0. -1.
    10030    2    1    2    0    0  0.00000000000E+00  0.00000000000E+00 -0.10419697513E+04  0.27116466766E+04  0.25034629488E+04 0.  0.
        5    1    3    3  502    0 -0.64711390134E+01  0.50407947037E+03 -0.17619797232E+04  0.18326845399E+04  0.46999998093E+01 0. -1.
       -5    1    3    3    0  502  0.64711390134E+01 -0.50407947037E+03  0.72000997188E+03  0.87896213667E+03  0.46999998093E+01 0.  1.
</event>
<event>
 5   0  0.1421242E-05  0.2521100E+04  0.7818609E-02  0.8395507E-01
       -1   -1    0    0    0  501  0.00000000000E+00  0.00000000000E+00  0.89005105121E+03  0.89005105122E+03  0.50400001928E-02 0. -1.
        1   -1    0    0  501    0  0.00000000000E+00  0.00000000000E+00 -0.17852756825E+04  0.17852756825E+04  0.50400001928E-02 0.  1.
    10030    2    1    2    0    0  0.00000000000E+00  0.00000000000E+00 -0.89522463129E+03  0.26753267337E+04  0.25211001550E+04 0.  0.
        3    1    3    3  502    0  0.38715163024E+03 -0.15171921377E+03 -0.17104014514E+04  0.17602210770E+04  0.10100000352E+00 0.  1.
       -3    1    3    3    0  502 -0.38715163024E+03  0.15171921377E+03  0.81517682016E+03  0.91510565672E+03  0.10100000352E+00 0. -1.
</event>
<event>
 5   0  0.3579097E-05  0.2590709E+04  0.7818609E-02  0.8371364E-01
       -2   -1    0    0    0  501  0.00000000000E+00  0.00000000000E+00  0.17303835105E+04  0.17303835105E+04  0.25500000920E-02 0. -1.
        2   -1    0    0  501    0  0.00000000000E+00  0.00000000000E+00 -0.96969470008E+03  0.96969470008E+03  0.25500000920E-02 0.  1.
    10030    2    1    2    0    0  0.00000000000E+00  0.00000000000E+00  0.76068881038E+03  0.27000782105E+04  0.25907093385E+04 0.  0.
        5    1    3    3  502    0 -0.26385891226E+01  0.11215930140E+04 -0.29504342224E+03  0.11597631492E+04  0.46999998093E+01 0.  1.
       -5    1    3    3    0  502  0.26385891226E+01 -0.11215930140E+04  0.10557322326E+04  0.15403150613E+04  0.46999998093E+01 0. -1.
</event>
<event>
 5   0  0.1492639E-05  0.2497557E+04  0.7818609E-02  0.8403856E-01
       -1   -1    0    0    0  501  0.00000000000E+00  0.00000000000E+00  0.87060876103E+03  0.87060876104E+03  0.50400001928E-02 0.  1.
        1   -1    0    0  501    0  0.00000000000E+00  0.00000000000E+00 -0.17912159916E+04  0.17912159916E+04  0.50400001928E-02 0. -1.
    10030    2    1    2    0    0  0.00000000000E+00  0.00000000000E+00 -0.92060723053E+03  0.26618247526E+04  0.24975574750E+04 0.  0.
        5    1    3    3  502    0  0.26497677883E+03  0.21336719082E+03 -0.17408657044E+04  0.17738020584E+04  0.46999998093E+01 0. -1.
       -5    1    3    3    0  502 -0.26497677883E+03 -0.21336719082E+03  0.82025847391E+03  0.88802269422E+03  0.46999998093E+01 0.  1.
</event>
<event>
 5   0  0.3581449E-05  0.2488795E+04  0.7818609E-02  0.8406988E-01
        2   -1    0    0  501    0  0.00000000000E+00  0.00000000000E+00  0.27966008349E+04  0.27966008349E+04  0.25500000920E-02 0.  1.
       -2   -1    0    0    0  501  0.00000000000E+00  0.00000000000E+00 -0.55371679751E+03  0.55371679751E+03  0.25500000920E-02 0. -1.
    10030    2    1    2    0    0  0.00000000000E+00  0.00000000000E+00  0.22428840374E+04  0.33503176324E+04  0.24887947752E+04 0.  0.
        1    1    3    3  502    0 -0.15107927327E+03 -0.64518350578E+02 -0.53905537188E+03  0.56353194972E+03  0.50400001928E-02 0. -1.
       -1    1    3    3    0  502  0.15107927327E+03  0.64518350578E+02  0.27819394093E+04  0.27867856827E+04  0.50400001928E-02 0.  1.
</event>
<event>
 5   0  0.1421242E-05  0.2491515E+04  0.7818609E-02  0.8406015E-01
        1   -1    0    0  501    0  0.00000000000E+00  0.00000000000E+00  0.24446853292E+04  0.24446853292E+04  0.50400001928E-02 0. -1.
       -1   -1    0    0    0  501  0.00000000000E+00  0.00000000000E+00 -0.63481044978E+03  0.63481044980E+03  0.50400001928E-02 0.  1.
    10030    2    1    2    0    0  0.00000000000E+00  0.00000000000E+00  0.18098748794E+04  0.30794957790E+04  0.24915150358E+04 0.  0.
        3    1    3    3  502    0  0.75175856931E+03  0.91186569805E+03  0.13919749091E+04  0.18259885420E+04  0.10100000352E+00 0. -1.
       -3    1    3    3    0  502 -0.75175856931E+03 -0.91186569805E+03  0.41789997034E+03  0.12535072370E+04  0.10100000352E+00 0.  1.
</event>
<event>
 5   0  0.1502886E-05  0.2463521E+04  0.7818609E-02  0.8416098E-01
       -1   -1    0    0    0  501  0.00000000000E+00  0.00000000000E+00  0.14207442700E+04  0.14207442700E+04  0.50400001928E-02 0. -1.
        1   -1    0    0  501    0  0.00000000000E+00  0.00000000000E+00 -0.10679148313E+04  0.10679148313E+04  0.50400001928E-02 0.  1.
    10030    2    1    2    0    0  0.00000000000E+00  0.00000000000E+00  0.35282943868E+03  0.24886591013E+04  0.24635209578E+04 0.  0.
        4    1    3    3  502    0  0.11941902046E+04  0.11154917803E+03 -0.10698094775E+03  0.12041511533E+04  0.12699999809E+01 0.  1.
       -4    1    3    3    0  502 -0.11941902046E+04 -0.11154917803E+03  0.45981038643E+03  0.12845079479E+04  0.12699999809E+01 0. -1.
</event>
<event>
 5   0  0.3581449E-05  0.2573555E+04  0.7818609E-02  0.8377240E-01
        2   -1    0    0  501    0  0.00000000000E+00  0.00000000000E+00  0.20594649929E+04  0.20594649929E+04  0.25500000920E-02 0. -1.
       -2   -1    0    0    0  501  0.00000000000E+00  0.00000000000E+00 -0.80399328716E+03  0.80399328717E+03  0.25500000920E-02 0.  1.
    10030    2    1    2    0    0  0.00000000000E+00  0.00000000000E+00  0.12554717057E+04  0.28634582800E+04  0.25735547629E+04 0.  0.
        1    1    3    3  502    0  0.59890194663E+03  0.91758634494E+02  0.18908196201E+04  0.19855231110E+04  0.50400001928E-02 0. -1.
       -1    1    3    3    0  502 -0.59890194663E+03 -0.91758634494E+02 -0.63534791437E+03  0.87793516902E+03  0.50400001928E-02 0.  1.
</event>
<event>
 5   0  0.3579097E-05  0.2161107E+04  0.7818609E-02  0.8534793E-01
       -2   -1    0    0    0  501  0.00000000000E+00  0.00000000000E+00  0.94424954295E+03  0.94424954296E+03  0.25500000920E-02 0.  1.
        2   -1    0    0  501    0  0.00000000000E+00  0.00000000000E+00 -0.12365333777E+04  0.12365333777E+04  0.25500000920E-02 0. -1.
    10030    2    1    2    0    0  0.00000000000E+00  0.00000000000E+00 -0.29228383479E+03  0.21807829207E+04  0.21611071947E+04 0.  0.
        5    1    3    3  502    0 -0.77291093301E+02  0.52128325596E+03 -0.10980563421E+04  0.12179737134E+04  0.46999998093E+01 0. -1.
       -5    1    3    3    0  502  0.77291093301E+02 -0.52128325596E+03  0.80577250735E+03  0.96280920729E+03  0.46999998093E+01 0.  1.
</event>
<event>
 5   0  0.3581449E-05  0.2472974E+04  0.7818609E-02  0.8412677E-01
        2   -1    0    0  501    0  0.00000000000E+00  0.00000000000E+00  0.24229992279E+04  0.24229992279E+04  0.25500000920E-02 0. -1.
       -2   -1    0    0    0  501  0.00000000000E+00  0.00000000000E+00 -0.63099476414E+03  0.63099476414E+03  0.25500000920E-02 0.  1.
    10030    2    1    2    0    0  0.00000000000E+00  0.00000000000E+00  0.17920044637E+04  0.30539939920E+04  0.24729737777E+04 0.  0.
        1    1    3    3  502    0  0.85084257766E+03  0.57546286809E+03  0.45940585944E+02  0.10282028700E+04  0.50400001928E-02 0.  1.
       -1    1    3    3    0  502 -0.85084257766E+03 -0.57546286809E+03  0.17460638778E+04  0.20257911220E+04  0.50400001928E-02 0. -1.
</event>
<event>
 5   0  0.3650620E-05  0.2476864E+04  0.7818609E-02  0.8411274E-01
       -2   -1    0    0    0  501  0.00000000000E+00  0.00000000000E+00  0.76854482214E+03  0.76854482215E+03  0.25500000920E-02 0.  1.
        2   -1    0    0  501    0  0.00000000000E+00  0.00000000000E+00 -0.19956076864E+04  0.19956076864E+04  0.25500000920E-02 0. -1.
    10030    2    1    2    0    0  0.00000000000E+00  0.00000000000E+00 -0.12270628642E+04  0.27641525085E+04  0.24768641096E+04 0.  0.
        3    1    3    3  502    0  0.85955216219E+03 -0.63259320245E+03  0.87598989372E+02  0.10708303659E+04  0.10100000352E+00 0.  1.
       -3    1    3    3    0  502 -0.85955216219E+03  0.63259320245E+03 -0.13146618536E+04  0.16933221427E+04  0.10100000352E+00 0. -1.
</event>
<event>
 5   0  0.3704241E-05  0.2319093E+04  0.7818609E-02  0.8470431E-01
       -2   -1    0    0    0  501  0.00000000000E+00  0.00000000000E+00  0.11072473801E+04  0.11072473801E+04  0.25500000920E-02 0.  1.
        2   -1    0    0  501    0  0.00000000000E+00  0.00000000000E+00 -0.12143164114E+04  0.12143164114E+04  0.25500000920E-02 0. -1.
    10030    2    1    2    0    0  0.00000000000E+00  0.00000000000E+00 -0.10706903131E+03  0.23215637915E+04  0.23190934998E+04 0.  0.
        2    1    3    3  502    0 -0.95451687022E+02  0.39344321967E+03 -0.11412645566E+04  0.12109473068E+04  0.25500000920E-02 0. -1.
       -2    1    3    3    0  502  0.95451687022E+02 -0.39344321967E+03  0.10341955253E+04  0.11106164848E+04  0.25500000920E-02 0.  1.
</event>
<event>
 5   0  0.3581449E-05  0.2464264E+04  0.7818609E-02  0.8415828E-01
        2   -1    0    0  501    0  0.00000000000E+00  0.00000000000E+00  0.26472116289E+04  0.26472116289E+04  0.25500000920E-02 0. -1.
       -2   -1    0    0    0  501  0.00000000000E+00  0.00000000000E+00 -0.57348993527E+03  0.57348993528E+03  0.25500000920E-02 0.  1.
    10030    2    1    2    0    0  0.00000000000E+00  0.00000000000E+00  0.20737216936E+04  0.32207015642E+04  0.24642639678E+04 0.  0.
        1    1    3    3  502    0 -0.17887129894E+03 -0.10669262081E+04  0.18076618123E+04  0.21066484526E+04  0.50400001928E-02 0. -1.
       -1    1    3    3    0  502  0.17887129894E+03  0.10669262081E+04  0.26605988135E+03  0.11140531116E+04  0.50400001928E-02 0.  1.
</event>
<event>
 5   0  0.1492639E-05  0.2435139E+04  0.7818609E-02  0.8426464E-01
        1   -1    0    0  501    0  0.00000000000E+00  0.00000000000E+00  0.11552238795E+04  0.11552238795E+04  0.50400001928E-02 0. -1.
       -1   -1    0    0    0  501  0.00000000000E+00  0.00000000000E+00 -0.12832802576E+04  0.12832802576E+04  0.50400001928E-02 0.  1.
    10030    2    1    2    0    0  0.00000000000E+00  0.00000000000E+00 -0.12805637805E+03  0.24385041371E+04  0.24351394192E+04 0.  0.
        5    1    3    3  502    0  0.11243032717E+04  0.39257559898E+03 -0.31791442348E+03  0.12325847306E+04  0.46999998093E+01 0.  1.
       -5    1    3    3    0  502 -0.11243032717E+04 -0.39257559898E+03  0.18985804543E+03  0.12059194065E+04  0.46999998093E+01 0. -1.
</event>
<event>
 5   0  0.1492639E-05  0.2507383E+04  0.7818609E-02  0.8400360E-01
        1   -1    0    0  501    0  0.00000000000E+00  0.00000000000E+00  0.11220705036E+04  0.11220705036E+04  0.50400001928E-02 0.  1.
       -1   -1    0    0    0  501  0.00000000000E+00  0.00000000000E+00 -0.14007517576E+04  0.14007517576E+04  0.50400001928E-02 0. -1.
    10030    2    1    2    0    0  0.00000000000E+00  0.00000000000E+00 -0.27868125398E+03  0.25228222612E+04  0.25073828827E+04 0.  0.
        5    1    3    3  502    0 -0.44478962237E+03  0.27290105046E+03 -0.12862752339E+04  0.13881062131E+04  0.46999998093E+01 0. -1.
       -5    1    3    3    0  502  0.44478962237E+03 -0.27290105046E+03  0.10075939799E+04  0.11347160481E+04  0.46999998093E+01 0.  1.
</event>
<event>
 5   0  0.3704241E-05  0.2484833E+04  0.7818609E-02  0.8408409E-01
       -2   -1    0    0    0  501  0.00000000000E+00  0.00000000000E+00  0.69959551015E+03  0.69959551016E+03  0.25500000920E-02 0. -1.
        2   -1    0    0  501    0  0.00000000000E+00  0.00000000000E+00 -0.22064167387E+04  0.22064167387E+04  0.25500000920E-02 0.  1.
    10030    2    1    2    0    0  0.00000000000E+00  0.00000000000E+00 -0.15068212286E+04  0.29060122489E+04  0.24848333900E+04 0.  0.
        2    1    3    3  502    0 -0.12075136938E+04  0.25740838417E+03 -0.91567570155E+03  0.15371435806E+04  0.25500000920E-02 0. -1.
       -2    1    3    3    0  502  0.12075136938E+04 -0.25740838417E+03 -0.59114552704E+03  0.13688686683E+04  0.25500000920E-02 0.  1.
</event>
<event>
 5   0  0.1421242E-05  0.2471433E+04  0.7818609E-02  0.8413234E-01
        1   -1    0    0  501    0  0.00000000000E+00  0.00000000000E+00  0.14505955517E+04  0.14505955517E+04  0.50400001928E-02 0. -1.
       -1   -1    0    0    0  501  0.00000000000E+00  0.00000000000E+00 -0.10526674254E+04  0.10526674254E+04  0.50400001928E-02 0.  1.
    10030    2    1    2    0    0  0.00000000000E+00  0.00000000000E+00  0.39792812629E+03  0.25032629770E+04  0.24714325276E+04 0.  0.
        3    1    3    3  502    0  0.57982913729E+03  0.47443657103E+03 -0.79639427776E+03  0.10934055717E+04  0.10100000352E+00 0.  1.
       -3    1    3    3    0  502 -0.57982913729E+03 -0.47443657103E+03  0.11943224041E+04  0.14098574053E+04  0.10100000352E+00 0. -1.
</event>
<event>
 5   0  0.1492639E-05  0.2558966E+04  0.7818609E-02  0.8382275E-01
        1   -1    0    0  501    0  0.00000000000E+00  0.00000000000E+00  0.15745023751E+04  0.15745023751E+04  0.50400001928E-02 0.  1.
       -1   -1    0    0    0  501  0.00000000000E+00  0.00000000000E+00 -0.10397425579E+04  0.10397425579E+04  0.50400001928E-02 0. -1.
    10030    2    1    2    0    0  0.00000000000E+00  0.00000000000E+00  0.53475981714E+03  0.26142449330E+04  0.25589662967E+04 0.  0.
        5    1    3    3  502    0 -0.73818999906E+03 -0.10028093062E+04  0.56784910000E+03  0.13685852804E+04  0.46999998093E+01 0.  1.
       -5    1    3    3    0  502  0.73818999906E+03  0.10028093062E+04 -0.33089282855E+02  0.12456596526E+04  0.46999998093E+01 0. -1.
</event>
<event>
 5   0  0.1429483E-05  0.2537573E+04  0.7818609E-02  0.8389721E-01
       -1   -1    0    0    0  501  0.00000000000E+00  0.00000000000E+00  0.10905703218E+04  0.10905703218E+04  0.50400001928E-02 0. -1.
        1   -1    0    0  501    0  0.00000000000E+00  0.00000000000E+00 -0.14761259495E+04  0.14761259496E+04  0.50400001928E-02 0.  1.
    10030    2    1    2    0    0  0.00000000000E+00  0.00000000000E+00 -0.38555562777E+03  0.25666962713E+04  0.25375729757E+04 0.  0.
        2    1    3    3  502    0  0.14006334350E+03 -0.46323203010E+03  0.99355019700E+03  0.11051441752E+04  0.25500000920E-02 0. -1.
       -2    1    3    3    0  502 -0.14006334350E+03  0.46323203010E+03 -0.13791058248E+04  0.14615520962E+04  0.25500000920E-02 0.  1.
</event>
<event>
 5   0  0.3650620E-05  0.2500779E+04  0.7818609E-02  0.8402708E-01
       -2   -1    0    0    0  501  0.00000000000E+00  0.00000000000E+00  0.91068652498E+03  0.91068652498E+03  0.25500000920E-02 0.  1.
        2   -1    0    0  501    0  0.00000000000E+00  0.00000000000E+00 -0.17168077551E+04  0.17168077551E+04  0.25500000920E-02 0. -1.
    10030    2    1    2    0    0  0.00000000000E+00  0.00000000000E+00 -0.80612123014E+03  0.26274942801E+04  0.25007788295E+04 0.  0.
        3    1    3    3  502    0 -0.74024552350E+02 -0.86538171050E+03 -0.13481434763E+04  0.16037007146E+04  0.10100000352E+00 0. -1.
       -3    1    3    3    0  502  0.74024552350E+02  0.86538171050E+03  0.54202224615E+03  0.10237935655E+04  0.10100000352E+00 0.  1.
</event>
<event>
 5   0  0.1201438E-05  0.2539663E+04  0.7818609E-02  0.8388990E-01
       -3   -1    0    0    0  501  0.00000000000E+00  0.00000000000E+00  0.10352826616E+04  0.10352826665E+04  0.10100000352E+00 0. -1.
        3   -1    0    0  501    0  0.00000000000E+00  0.00000000000E+00 -0.15575191881E+04  0.15575191914E+04  0.10100000352E+00 0.  1.
    10030    2    1    2    0    0  0.00000000000E+00  0.00000000000E+00 -0.52223652655E+03  0.25928018579E+04  0.25396634589E+04 0.  0.
        4    1    3    3  502    0  0.66656040245E+03 -0.91067329741E+03 -0.85539950609E+03  0.14160997679E+04  0.12699999809E+01 0.  1.
       -4    1    3    3    0  502 -0.66656040245E+03  0.91067329741E+03  0.33316297954E+03  0.11767020900E+04  0.12699999809E+01 0. -1.
</event>
<event>
 5   0  0.3704241E-05  0.2489338E+04  0.7818609E-02  0.8406794E-01
       -2   -1    0    0    0  501  0.00000000000E+00  0.00000000000E+00  0.10812829249E+04  0.10812829249E+04  0.25500000920E-02 0. -1.
        2   -1    0    0  501    0  0.00000000000E+00  0.00000000000E+00 -0.14327437480E+04  0.14327437480E+04  0.25500000920E-02 0.  1.
    10030    2    1    2    0    0  0.00000000000E+00  0.00000000000E+00 -0.35146082302E+03  0.25140266729E+04  0.24893383462E+04 0.  0.
        2    1    3    3  502    0  0.10300630686E+04  0.48427798934E+03  0.33289748788E+03  0.11859071775E+04  0.25500000920E-02 0. -1.
       -2    1    3    3    0  502 -0.10300630686E+04 -0.48427798934E+03 -0.68435831089E+03  0.13281194954E+04  0.25500000920E-02 0.  1.
</event>
<event>
 5   0  0.1421242E-05  0.2546483E+04  0.7818609E-02  0.8386610E-01
        1   -1    0    0  501    0  0.00000000000E+00  0.00000000000E+00  0.10322963411E+04  0.10322963411E+04  0.50400001928E-02 0. -1.
       -1   -1    0    0    0  501  0.00000000000E+00  0.00000000000E+00 -0.15704247712E+04  0.15704247712E+04  0.50400001928E-02 0.  1.
    10030    2    1    2    0    0  0.00000000000E+00  0.00000000000E+00 -0.53812843010E+03  0.26027211123E+04  0.25464828649E+04 0.  0.
        3    1    3    3  502    0  0.13071031234E+03  0.12621582247E+04 -0.37633522896E+03  0.13235394911E+04  0.10100000352E+00 0. -1.
       -3    1    3    3    0  502 -0.13071031234E+03 -0.12621582247E+04 -0.16179320113E+03  0.12791816212E+04  0.10100000352E+00 0.  1.
</event>
<event>
 5   0  0.3650620E-05  0.2438308E+04  0.7818609E-02  0.8425299E-01
        2   -1    0    0  501    0  0.00000000000E+00  0.00000000000E+00  0.18513532289E+04  0.18513532289E+04  0.25500000920E-02 0. -1.
       -2   -1    0    0    0  501  0.00000000000E+00  0.00000000000E+00 -0.80283779290E+03  0.80283779291E+03  0.25500000920E-02 0.  1.
    10030    2    1    2    0    0  0.00000000000E+00  0.00000000000E+00  0.10485154360E+04  0.26541910218E+04  0.24383078888E+04 0.  0.
        3    1    3    3  502    0 -0.93811269639E+03  0.12239673521E+03  0.13613002938E+04  0.16577620131E+04  0.10100000352E+00 0. -1.
       -3    1    3    3    0  502  0.93811269639E+03 -0.12239673521E+03 -0.31278485781E+03  0.99642900871E+03  0.10100000352E+00 0.  1.
</event>
<event>
 5   0  0.1429483E-05  0.2521764E+04  0.7818609E-02  0.8395273E-01
       -1   -1    0    0    0  501  0.00000000000E+00  0.00000000000E+00  0.99391401420E+03  0.99391401421E+03  0.50400001928E-02 0. -1.
        1   -1    0    0  501    0  0.00000000000E+00  0.00000000000E+00 -0.15995580930E+04  0.15995580930E+04  0.50400001928E-02 0.  1.
    10030    2    1    2    0    0  0.00000000000E+00  0.00000000000E+00 -0.60564407883E+03  0.25934721072E+04  0.25217638313E+04 0.  0.
        2    1    3    3  502    0  0.10697372088E+04 -0.53928541011E+03 -0.70726903889E+03  0.13911850858E+04  0.25500000920E-02 0. -1.
       -2    1    3    3    0  502 -0.10697372088E+04  0.53928541011E+03  0.10162496006E+03  0.12022870215E+04  0.25500000920E-02 0.  1.
</event>
<event>
 5   0  0.1421242E-05  0.2500700E+04  0.7818609E-02  0.8402736E-01
       -1   -1    0    0    0  501  0.00000000000E+00  0.00000000000E+00  0.12819995101E+04  0.12819995101E+04  0.50400001928E-02 0. -1.
        1   -1    0    0  501    0  0.00000000000E+00  0.00000000000E+00 -0.12194816674E+04  0.12194816674E+04  0.50400001928E-02 0.  1.
    10030    2    1    2    0    0  0.00000000000E+00  0.00000000000E+00  0.62517842670E+02  0.25014811775E+04  0.25006998222E+04 0.  0.
        3    1    3    3  502    0  0.65518130221E+03 -0.97419093213E+03 -0.39906658978E+03  0.12399857516E+04  0.10100000352E+00 0.  1.
       -3    1    3    3    0  502 -0.65518130221E+03  0.97419093213E+03  0.46158443245E+03  0.12614954259E+04  0.10100000352E+00 0. -1.
</event>
<event>
 5   0  0.1492639E-05  0.2500414E+04  0.7818609E-02  0.8402838E-01
        1   -1    0    0  501    0  0.00000000000E+00  0.00000000000E+00  0.11439206333E+04  0.11439206333E+04  0.50400001928E-02 0.  1.
       -1   -1    0    0    0  501  0.00000000000E+00  0.00000000000E+00 -0.13663689971E+04  0.13663689972E+04  0.50400001928E-02 0. -1.
    10030    2    1    2    0    0  0.00000000000E+00  0.00000000000E+00 -0.22244836382E+03  0.25102896305E+04  0.25004141166E+04 0.  0.
        5    1    3    3  502    0  0.14549203500E+03  0.36091270757E+02 -0.13573051917E+04  0.13655658115E+04  0.46999998093E+01 0. -1.
       -5    1    3    3    0  502 -0.14549203500E+03 -0.36091270757E+02  0.11348568279E+04  0.11447238190E+04  0.46999998093E+01 0.  1.
</event>
<event>
 5   0  0.1429483E-05  0.2497592E+04  0.7818609E-02  0.8403844E-01
       -1   -1    0    0    0  501  0.00000000000E+00  0.00000000000E+00  0.14802069584E+04  0.14802069585E+04  0.50400001928E-02 0.  1.
        1   -1    0    0  501    0  0.00000000000E+00  0.00000000000E+00 -0.10535633828E+04  0.10535633828E+04  0.50400001928E-02 0. -1.
    10030    2    1    2    0    0  0.00000000000E+00  0.00000000000E+00  0.42664357566E+03  0.25337703412E+04  0.24975923209E+04 0.  0.
        2    1    3    3  502    0 -0.86645549910E+03 -0.56983173475E+03 -0.49248471712E+03  0.11480394307E+04  0.25500000920E-02 0.  1.
       -2    1    3    3    0  502  0.86645549910E+03  0.56983173475E+03  0.91912829278E+03  0.13857309105E+04  0.25500000920E-02 0. -1.
</event>
<event>
 5   0  0.3578670E-05  0.2495731E+04  0.7818609E-02  0.8404508E-01
       -2   -1    0    0    0  501  0.00000000000E+00  0.00000000000E+00  0.79163616517E+03  0.79163616517E+03  0.25500000920E-02 0.  1.
        2   -1    0    0  501    0  0.00000000000E+00  0.00000000000E+00 -0.19670250311E+04  0.19670250311E+04  0.25500000920E-02 0. -1.
    10030    2    1    2    0    0  0.00000000000E+00  0.00000000000E+00 -0.11753888660E+04  0.27586611963E+04  0.24957308769E+04 0.  0.
        4    1    3    3  502    0 -0.10061937371E+04 -0.96302183963E+02  0.22115335887E+03  0.10347030339E+04  0.12699999809E+01 0.  1.
       -4    1    3    3    0  502  0.10061937371E+04  0.96302183963E+02 -0.13965422248E+04  0.17239581624E+04  0.12699999809E+01 0. -1.
</event>
<event>
 5   0  0.1502886E-05  0.2479852E+04  0.7818609E-02  0.8410199E-01
        1   -1    0    0  501    0  0.00000000000E+00  0.00000000000E+00  0.23801853616E+04  0.23801853616E+04  0.50400001928E-02 0. -1.
       -1   -1    0    0    0  501  0.00000000000E+00  0.00000000000E+00 -0.64592293147E+03  0.64592293149E+03  0.50400001928E-02 0.  1.
    10030    2    1    2    0    0  0.00000000000E+00  0.00000000000E+00  0.17342624301E+04  0.30261082931E+04  0.24798518554E+04 0.  0.
        4    1    3    3  502    0 -0.55577650717E+03  0.97455363313E+03  0.22283793340E+03  0.11438097164E+04  0.12699999809E+01 0.  1.
       -4    1    3    3    0  502  0.55577650717E+03 -0.97455363313E+03  0.15114244967E+04  0.18822985767E+04  0.12699999809E+01 0. -1.
</event>
<event>
 5   0  0.1492639E-05  0.2406571E+04  0.7818609E-02  0.8437048E-01
       -1   -1    0    0    0  501  0.00000000000E+00  0.00000000000E+00  0.80779377116E+03  0.80779377117E+03  0.50400001928E-02 0.  1.
        1   -1    0    0  501    0  0.00000000000E+00  0.00000000000E+00 -0.17924074359E+04  0.17924074359E+04  0.50400001928E-02 0. -1.
    10030    2    1    2    0    0  0.00000000000E+00  0.00000000000E+00 -0.98461366470E+03  0.26002012070E+04  0.24065706406E+04 0.  0.
        5    1    3    3  502    0 -0.97787779222E+03 -0.66858604870E+03 -0.26407357913E+03  0.12136759148E+04  0.46999998093E+01 0.  1.
       -5    1    3    3    0  502  0.97787779222E+03  0.66858604870E+03 -0.72054008557E+03  0.13865252922E+04  0.46999998093E+01 0. -1.
</event>
<event>
 5   0  0.1429483E-05  0.2396046E+04  0.7818609E-02  0.8440986E-01
        1   -1    0    0  501    0  0.00000000000E+00  0.00000000000E+00  0.98986355969E+03  0.98986355971E+03  0.50400001928E-02 0.  1.
       -1   -1    0    0    0  501  0.00000000000E+00  0.00000000000E+00 -0.14499559855E+04  0.14499559855E+04  0.50400001928E-02 0. -1.
    10030    2    1    2    0    0  0.00000000000E+00  0.00000000000E+00 -0.46009242580E+03  0.24398195452E+04  0.23960455699E+04 0.  0.
        2    1    3    3  502    0 -0.27858885838E+03  0.52127885061E+03 -0.12911566563E+04  0.14200101771E+04  0.25500000920E-02 0. -1.
       -2    1    3    3    0  502  0.27858885838E+03 -0.52127885061E+03  0.83106423045E+03  0.10198093681E+04  0.25500000920E-02 0.  1.
</event>
<event>
 5   0  0.3581449E-05  0.2364411E+04  0.7818609E-02  0.8452949E-01
       -2   -1    0    0    0  501  0.00000000000E+00  0.00000000000E+00  0.14608970470E+04  0.14608970470E+04  0.25500000920E-02 0. -1.
        2   -1    0    0  501    0  0.00000000000E+00  0.00000000000E+00 -0.95667923103E+03  0.95667923103E+03  0.25500000920E-02 0.  1.
    10030    2    1    2    0    0  0.00000000000E+00  0.00000000000E+00  0.50421781599E+03  0.24175762781E+04  0.23644110164E+04 0.  0.
        1    1    3    3  502    0  0.63832030556E+03 -0.91476704289E+03  0.65252439455E+03  0.12923001357E+04  0.50400001928E-02 0. -1.
       -1    1    3    3    0  502 -0.63832030556E+03  0.91476704289E+03 -0.14830657857E+03  0.11252761423E+04  0.50400001928E-02 0.  1.
</event>
<event>
 5   0  0.3650620E-05  0.2498884E+04  0.7818609E-02  0.8403383E-01
        2   -1    0    0  501    0  0.00000000000E+00  0.00000000000E+00  0.21508761608E+04  0.21508761608E+04  0.25500000920E-02 0.  1.
       -2   -1    0    0    0  501  0.00000000000E+00  0.00000000000E+00 -0.72579997366E+03  0.72579997367E+03  0.25500000920E-02 0. -1.
    10030    2    1    2    0    0  0.00000000000E+00  0.00000000000E+00  0.14250761871E+04  0.28766761345E+04  0.24988844398E+04 0.  0.
        3    1    3    3  502    0 -0.69661270642E+02 -0.33115169238E+03  0.20971172336E+04  0.21242445334E+04  0.10100000352E+00 0.  1.
       -3    1    3    3    0  502  0.69661270642E+02  0.33115169238E+03 -0.67204104645E+03  0.75243160108E+03  0.10100000352E+00 0. -1.
</event>
<event>
 5   0  0.3650620E-05  0.1992169E+04  0.7818609E-02  0.8610291E-01
       -2   -1    0    0    0  501  0.00000000000E+00  0.00000000000E+00  0.65431811258E+03  0.65431811259E+03  0.25500000920E-02 0.  1.
        2   -1    0    0  501    0  0.00000000000E+00  0.00000000000E+00 -0.15163639199E+04  0.15163639199E+04  0.25500000920E-02 0. -1.
    10030    2    1    2    0    0  0.00000000000E+00  0.00000000000E+00 -0.86204580736E+03  0.21706820325E+04  0.19921690471E+04 0.  0.
        3    1    3    3  502    0  0.53527722155E+03 -0.32603331587E+03 -0.12745823466E+04  0.14203448861E+04  0.10100000352E+00 0. -1.
       -3    1    3    3    0  502 -0.53527722155E+03  0.32603331587E+03  0.41253653922E+03  0.75033714646E+03  0.10100000352E+00 0.  1.
</event>
<event>
 5   0  0.1502886E-05  0.2469469E+04  0.7818609E-02  0.8413944E-01
       -1   -1    0    0    0  501  0.00000000000E+00  0.00000000000E+00  0.79708913091E+03  0.79708913093E+03  0.50400001928E-02 0.  1.
        1   -1    0    0  501    0  0.00000000000E+00  0.00000000000E+00 -0.19126710789E+04  0.19126710790E+04  0.50400001928E-02 0. -1.
    10030    2    1    2    0    0  0.00000000000E+00  0.00000000000E+00 -0.11155819480E+04  0.27097602099E+04  0.24694690345E+04 0.  0.
        4    1    3    3  502    0 -0.90663000750E+03 -0.65076750838E+03  0.21905287402E+02  0.11162247869E+04  0.12699999809E+01 0.  1.
       -4    1    3    3    0  502  0.90663000750E+03  0.65076750838E+03 -0.11374872354E+04  0.15935354229E+04  0.12699999809E+01 0. -1.
</event>
<event>
 5   0  0.3581449E-05  0.2475990E+04  0.7818609E-02  0.8411590E-01
       -2   -1    0    0    0  501  0.00000000000E+00  0.00000000000E+00  0.14769765765E+04  0.14769765765E+04  0.25500000920E-02 0. -1.
        2   -1    0    0  501    0  0.00000000000E+00  0.00000000000E+00 -0.10376813641E+04  0.10376813641E+04  0.25500000920E-02 0.  1.
    10030    2    1    2    0    0  0.00000000000E+00  0.00000000000E+00  0.43929521247E+03  0.25146579406E+04  0.24759895546E+04 0.  0.
        1    1    3    3  502    0 -0.24218856520E+03  0.60405102643E+03 -0.84993688055E+03  0.10704791659E+04  0.50400001928E-02 0.  1.
       -1    1    3    3    0  502  0.24218856520E+03 -0.60405102643E+03  0.12892320930E+04  0.14441787747E+04  0.50400001928E-02 0. -1.
</event>
<event>
 5   0  0.1429483E-05  0.2555783E+04  0.7818609E-02  0.8383378E-01
       -1   -1    0    0    0  501  0.00000000000E+00  0.00000000000E+00  0.15485240232E+04  0.15485240232E+04  0.50400001928E-02 0. -1.
        1   -1    0    0  501    0  0.00000000000E+00  0.00000000000E+00 -0.10545565017E+04  0.10545565017E+04  0.50400001928E-02 0.  1.
    10030    2    1    2    0    0  0.00000000000E+00  0.00000000000E+00  0.49396752151E+03  0.26030805250E+04  0.25557825234E+04 0.  0.
        2    1    3    3  502    0  0.11801507910E+04  0.49009604935E+03  0.25460894651E+03  0.13029872381E+04  0.25500000920E-02 0.  1.
       -2    1    3    3    0  502 -0.11801507910E+04 -0.49009604935E+03  0.23935857501E+03  0.13000932868E+04  0.25500000920E-02 0. -1.
</event>
<event>
 5   0  0.1421242E-05  0.2497107E+04  0.7818609E-02  0.8404017E-01
       -1   -1    0    0    0  501  0.00000000000E+00  0.00000000000E+00  0.67416083728E+03  0.67416083730E+03  0.50400001928E-02 0.  1.
        1   -1    0    0  501    0  0.00000000000E+00  0.00000000000E+00 -0.23123355391E+04  0.23123355391E+04  0.50400001928E-02 0. -1.
    10030    2    1    2    0    0  0.00000000000E+00  0.00000000000E+00 -0.16381747018E+04  0.29864963764E+04  0.24971071768E+04 0.  0.
        3    1    3    3  502    0  0.87854912152E+03  0.44835947102E+03  0.96453646881E+02  0.99104898485E+03  0.10100000352E+00 0.  1.
       -3    1    3    3    0  502 -0.87854912152E+03 -0.44835947102E+03 -0.17346283487E+04  0.19954473915E+04  0.10100000352E+00 0. -1.
</event>
<event>
 5   0  0.1492639E-05  0.2512448E+04  0.7818609E-02  0.8398564E-01
       -1   -1    0    0    0  501  0.00000000000E+00  0.00000000000E+00  0.88475088180E+03  0.88475088181E+03  0.50400001928E-02 0. -1.
        1   -1    0    0  501    0  0.00000000000E+00  0.00000000000E+00 -0.17836648129E+04  0.17836648129E+04  0.50400001928E-02 0.  1.
    10030    2    1    2    0    0  0.00000000000E+00  0.00000000000E+00 -0.89891393108E+03  0.26684156947E+04  0.25124482212E+04 0.  0.
        5    1    3    3  502    0 -0.53744845411E+03 -0.11243211375E+04 -0.28109813933E+03  0.12774925108E+04  0.46999998093E+01 0. -1.
       -5    1    3    3    0  502  0.53744845411E+03  0.11243211375E+04 -0.61781579175E+03  0.13909231839E+04  0.46999998093E+01 0.  1.
</event>
<event>
 5   0  0.3704241E-05  0.2521692E+04  0.7818609E-02  0.8395298E-01
        2   -1    0    0  501    0  0.00000000000E+00  0.00000000000E+00  0.91581589899E+03  0.91581589900E+03  0.25500000920E-02 0.  1.
       -2   -1    0    0    0  501  0.00000000000E+00  0.00000000000E+00 -0.17358650175E+04  0.17358650175E+04  0.25500000920E-02 0. -1.
    10030    2    1    2    0    0  0.00000000000E+00  0.00000000000E+00 -0.82004911849E+03  0.26516809165E+04  0.25216921156E+04 0.  0.
        2    1    3    3  502    0  0.75272043090E+03  0.51450427392E+03 -0.13257957544E+04  0.16090485006E+04  0.25500000920E-02 0. -1.
       -2    1    3    3    0  502 -0.75272043090E+03 -0.51450427392E+03  0.50574663587E+03  0.10426324159E+04  0.25500000920E-02 0.  1.
</event>
<event>
 5   0  0.3581449E-05  0.2523108E+04  0.7818609E-02  0.8394799E-01
        2   -1    0    0  501    0  0.00000000000E+00  0.00000000000E+00  0.18843399102E+04  0.18843399103E+04  0.25500000920E-02 0.  1.
       -2   -1    0    0    0  501  0.00000000000E+00  0.00000000000E+00 -0.84460279258E+03  0.84460279258E+03  0.25500000920E-02 0. -1.
    10030    2    1    2    0    0  0.00000000000E+00  0.00000000000E+00  0.10397371177E+04  0.27289427028E+04  0.25231082025E+04 0.  0.
        1    1    3    3  502    0  0.55453741844E+03 -0.97915684058E+03 -0.96972288696E+02  0.11294527399E+04  0.50400001928E-02 0. -1.
       -1    1    3    3    0  502 -0.55453741844E+03  0.97915684058E+03  0.11367094064E+04  0.15994899629E+04  0.50400001928E-02 0.  1.
</event>
<event>
 5   0  0.3579097E-05  0.2490302E+04  0.7818609E-02  0.8406449E-01
       -2   -1    0    0    0  501  0.00000000000E+00  0.00000000000E+00  0.17373991301E+04  0.17373991301E+04  0.25500000920E-02 0.  1.
        2   -1    0    0  501    0  0.00000000000E+00  0.00000000000E+00 -0.89236909298E+03  0.89236909299E+03  0.25500000920E-02 0. -1.
    10030    2    1    2    0    0  0.00000000000E+00  0.00000000000E+00  0.84503003711E+03  0.26297682231E+04  0.24903022193E+04 0.  0.
        5    1    3    3  502    0 -0.10803259979E+04  0.21476018802E+03  0.10356822381E+04  0.15119146763E+04  0.46999998093E+01 0. -1.
       -5    1    3    3    0  502  0.10803259979E+04 -0.21476018802E+03 -0.19065220101E+03  0.11178535467E+04  0.46999998093E+01 0.  1.
</event>
<event>
 5   0  0.1429483E-05  0.2525803E+04  0.7818609E-02  0.8393850E-01
       -1   -1    0    0    0  501  0.00000000000E+00  0.00000000000E+00  0.14340713661E+04  0.14340713661E+04  0.50400001928E-02 0.  1.
        1   -1    0    0  501    0  0.00000000000E+00  0.00000000000E+00 -0.11121624063E+04  0.11121624063E+04  0.50400001928E-02 0. -1.
    10030    2    1    2    0    0  0.00000000000E+00  0.00000000000E+00  0.32190895974E+03  0.25462337724E+04  0.25258030496E+04 0.  0.
        2    1    3    3  502    0 -0.61788034624E+03 -0.10141806002E+04  0.59405956947E+03  0.13278724276E+04  0.25500000920E-02 0.  1.
       -2    1    3    3    0  502  0.61788034624E+03  0.10141806002E+04 -0.27215060973E+03  0.12183613448E+04  0.25500000920E-02 0. -1.
</event>
<event>
 5   0  0.3578670E-05  0.2497189E+04  0.7818609E-02  0.8403988E-01
        2   -1    0    0  501    0  0.00000000000E+00  0.00000000000E+00  0.26622036167E+04  0.26622036167E+04  0.25500000920E-02 0. -1.
       -2   -1    0    0    0  501  0.00000000000E+00  0.00000000000E+00 -0.58560065736E+03  0.58560065737E+03  0.25500000920E-02 0.  1.
    10030    2    1    2    0    0  0.00000000000E+00  0.00000000000E+00  0.20766029594E+04  0.32478042741E+04  0.24971889700E+04 0.  0.
        4    1    3    3  502    0  0.90993467914E+03 -0.39297846915E+03  0.20258665797E+04  0.22553381585E+04  0.12699999809E+01 0. -1.
       -4    1    3    3    0  502 -0.90993467914E+03  0.39297846915E+03  0.50736379671E+02  0.99246611561E+03  0.12699999809E+01 0.  1.
</event>
<event>
 5   0  0.3581449E-05  0.2492547E+04  0.7818609E-02  0.8405645E-01
       -2   -1    0    0    0  501  0.00000000000E+00  0.00000000000E+00  0.16800269095E+04  0.16800269095E+04  0.25500000920E-02 0. -1.
        2   -1    0    0  501    0  0.00000000000E+00  0.00000000000E+00 -0.92450770748E+03  0.92450770748E+03  0.25500000920E-02 0.  1.
    10030    2    1    2    0    0  0.00000000000E+00  0.00000000000E+00  0.75551920200E+03  0.26045346170E+04  0.24925471523E+04 0.  0.
        1    1    3    3  502    0  0.46222467862E+02 -0.35227906830E+01  0.16791257218E+04  0.16797654944E+04  0.50400001928E-02 0. -1.
       -1    1    3    3    0  502 -0.46222467862E+02  0.35227906830E+01 -0.92360651980E+03  0.92476912255E+03  0.50400001928E-02 0.  1.
</event>
<event>
 5   0  0.1456876E-05  0.2560007E+04  0.7818609E-02  0.8381914E-01
       -1   -1    0    0    0  501  0.00000000000E+00  0.00000000000E+00  0.18036519282E+04  0.18036519282E+04  0.50400001928E-02 0. -1.
        1   -1    0    0  501    0  0.00000000000E+00  0.00000000000E+00 -0.90838403798E+03  0.90838403800E+03  0.50400001928E-02 0.  1.
    10030    2    1    2    0    0  0.00000000000E+00  0.00000000000E+00  0.89526789023E+03  0.27120359662E+04  0.25600067357E+04 0.  0.
        1    1    3    3  502    0  0.10380457520E+04 -0.57662603405E+03  0.95389651217E+03  0.15231398893E+04  0.50400001928E-02 0. -1.
       -1    1    3    3    0  502 -0.10380457520E+04  0.57662603405E+03 -0.58628621932E+02  0.11888960769E+04  0.50400001928E-02 0.  1.
</event>
<event>
 5   0  0.1492639E-05  0.2461283E+04  0.7818609E-02  0.8416910E-01
       -1   -1    0    0    0  501  0.00000000000E+00  0.00000000000E+00  0.17022240873E+04  0.17022240873E+04  0.50400001928E-02 0.  1.
        1   -1    0    0  501    0  0.00000000000E+00  0.00000000000E+00 -0.88970574984E+03  0.88970574985E+03  0.50400001928E-02 0. -1.
    10030    2    1    2    0    0  0.00000000000E+00  0.00000000000E+00  0.81251833743E+03  0.25919298371E+04  0.24612830459E+04 0.  0.
        5    1    3    3  502    0  0.11846952586E+04  0.32251144886E+03  0.31853066715E+03  0.12684637821E+04  0.46999998093E+01 0. -1.
       -5    1    3    3    0  502 -0.11846952586E+04 -0.32251144886E+03  0.49398767027E+03  0.13234660551E+04  0.46999998093E+01 0.  1.
</event>
<event>
 5   0  0.3579097E-05  0.2588388E+04  0.7818609E-02  0.8372156E-01
        2   -1    0    0  501    0  0.00000000000E+00  0.00000000000E+00  0.23639312504E+04  0.23639312504E+04  0.25500000920E-02 0. -1.
       -2   -1    0    0    0  501  0.00000000000E+00  0.00000000000E+00 -0.70853913787E+03  0.70853913788E+03  0.25500000920E-02 0.  1.
    10030    2    1    2    0    0  0.00000000000E+00  0.00000000000E+00  0.16553921126E+04  0.30724703883E+04  0.25883877686E+04 0.  0.
        5    1    3    3  502    0 -0.45950084445E+03 -0.23676895592E+03 -0.58067068369E+03  0.77743237483E+03  0.46999998093E+01 0.  1.
       -5    1    3    3    0  502  0.45950084445E+03  0.23676895592E+03  0.22360627962E+04  0.22950380135E+04  0.46999998093E+01 0. -1.
</event>
<event>
 5   0  0.3579097E-05  0.2520378E+04  0.7818609E-02  0.8395761E-01
       -2   -1    0    0    0  501  0.00000000000E+00  0.00000000000E+00  0.12501906496E+04  0.12501906496E+04  0.25500000920E-02 0. -1.
        2   -1    0    0  501    0  0.00000000000E+00  0.00000000000E+00 -0.12702675500E+04  0.12702675500E+04  0.25500000920E-02 0.  1.
    10030    2    1    2    0    0  0.00000000000E+00  0.00000000000E+00 -0.20076900443E+02  0.25204581996E+04  0.25203782363E+04 0.  0.
        5    1    3    3  502    0 -0.54676993104E+02 -0.35160868185E+03 -0.12189755947E+04  0.12698589801E+04  0.46999998093E+01 0.  1.
       -5    1    3    3    0  502  0.54676993104E+02  0.35160868185E+03  0.11988986943E+04  0.12505992195E+04  0.46999998093E+01 0. -1.
</event>
<event>
 5   0  0.3579097E-05  0.2524069E+04  0.7818609E-02  0.8394461E-01
       -2   -1    0    0    0  501  0.00000000000E+00  0.00000000000E+00  0.90050943127E+03  0.90050943127E+03  0.25500000920E-02 0.  1.
        2   -1    0    0  501    0  0.00000000000E+00  0.00000000000E+00 -0.17686999859E+04  0.17686999859E+04  0.25500000920E-02 0. -1.
    10030    2    1    2    0    0  0.00000000000E+00  0.00000000000E+00 -0.86819055462E+03  0.26692094172E+04  0.25240689518E+04 0.  0.
        5    1    3    3  502    0  0.99404015631E+03  0.63472802475E+03  0.40855761141E+02  0.11801215111E+04  0.46999998093E+01 0.  1.
       -5    1    3    3    0  502 -0.99404015631E+03 -0.63472802475E+03 -0.90904631576E+03  0.14890879061E+04  0.46999998093E+01 0. -1.
</event>
<event>
 5   0  0.3578670E-05  0.2190376E+04  0.7818609E-02  0.8522445E-01
        2   -1    0    0  501    0  0.00000000000E+00  0.00000000000E+00  0.10586107876E+04  0.10586107876E+04  0.25500000920E-02 0.  1.
       -2   -1    0    0    0  501  0.00000000000E+00  0.00000000000E+00 -0.11330285596E+04  0.11330285596E+04  0.25500000920E-02 0. -1.
    10030    2    1    2    0    0  0.00000000000E+00  0.00000000000E+00 -0.74417772046E+02  0.21916393472E+04  0.21903755439E+04 0.  0.
        4    1    3    3  502    0 -0.85017541105E+01 -0.21277046225E+03 -0.11121150462E+04  0.11323184350E+04  0.12699999809E+01 0. -1.
       -4    1    3    3    0  502  0.85017541105E+01  0.21277046225E+03  0.10376972741E+04  0.10593209122E+04  0.12699999809E+01 0.  1.
</event>
<event>
 5   0  0.3578670E-05  0.2523302E+04  0.7818609E-02  0.8394731E-01
        2   -1    0    0  501    0  0.00000000000E+00  0.00000000000E+00  0.20243760867E+04  0.20243760867E+04  0.25500000920E-02 0.  1.
       -2   -1    0    0    0  501  0.00000000000E+00  0.00000000000E+00 -0.78629793338E+03  0.78629793338E+03  0.25500000920E-02 0. -1.
    10030    2    1    2    0    0  0.00000000000E+00  0.00000000000E+00  0.12380781533E+04  0.28106740200E+04  0.25233015938E+04 0.  0.
        4    1    3    3  502    0  0.92462942064E+03  0.51207887613E+03 -0.14832896943E+03  0.10673178706E+04  0.12699999809E+01 0. -1.
       -4    1    3    3    0  502 -0.92462942064E+03 -0.51207887613E+03  0.13864071227E+04  0.17433561494E+04  0.12699999809E+01 0.  1.
</event>
<event>
 5   0  0.1492639E-05  0.2495488E+04  0.7818609E-02  0.8404595E-01
        1   -1    0    0  501    0  0.00000000000E+00  0.00000000000E+00  0.12942539401E+04  0.12942539401E+04  0.50400001928E-02 0. -1.
       -1   -1    0    0    0  501  0.00000000000E+00  0.00000000000E+00 -0.12029055170E+04  0.12029055170E+04  0.50400001928E-02 0.  1.
    10030    2    1    2    0    0  0.00000000000E+00  0.00000000000E+00  0.91348423094E+02  0.24971594571E+04  0.24954880925E+04 0.  0.
        5    1    3    3  502    0 -0.45516513560E+03  0.68739169670E+03  0.98286993687E+03  0.12828632227E+04  0.46999998093E+01 0. -1.
       -5    1    3    3    0  502  0.45516513560E+03 -0.68739169670E+03 -0.89152151378E+03  0.12142962344E+04  0.46999998093E+01 0.  1.
</event>
<event>
 5   0  0.3650620E-05  0.2524786E+04  0.7818609E-02  0.8394208E-01
       -2   -1    0    0    0  501  0.00000000000E+00  0.00000000000E+00  0.11789430459E+04  0.11789430459E+04  0.25500000920E-02 0.  1.
        2   -1    0    0  501    0  0.00000000000E+00  0.00000000000E+00 -0.13517503115E+04  0.13517503115E+04  0.25500000920E-02 0. -1.
    10030    2    1    2    0    0  0.00000000000E+00  0.00000000000E+00 -0.17280726563E+03  0.25306933574E+04  0.25247864302E+04 0.  0.
        3    1    3    3  502    0 -0.78532502486E+01  0.72184258074E+03 -0.11244511167E+04  0.13362292875E+04  0.10100000352E+00 0. -1.
       -3    1    3    3    0  502  0.78532502486E+01 -0.72184258074E+03  0.95164385103E+03  0.11944640699E+04  0.10100000352E+00 0.  1.
</event>
<event>
 5   0  0.3578670E-05  0.2357131E+04  0.7818609E-02  0.8455730E-01
        2   -1    0    0  501    0  0.00000000000E+00  0.00000000000E+00  0.16681288260E+04  0.16681288260E+04  0.25500000920E-02 0. -1.
       -2   -1    0    0    0  501  0.00000000000E+00  0.00000000000E+00 -0.83267962528E+03  0.83267962528E+03  0.25500000920E-02 0.  1.
    10030    2    1    2    0    0  0.00000000000E+00  0.00000000000E+00  0.83544920070E+03  0.25008084513E+04  0.23571312104E+04 0.  0.
        4    1    3    3  502    0 -0.36280179227E+03  0.76136957982E+03 -0.45568406030E+03  0.95862315497E+03  0.12699999809E+01 0.  1.
       -4    1    3    3    0  502  0.36280179227E+03 -0.76136957982E+03  0.12911332610E+04  0.15421852963E+04  0.12699999809E+01 0. -1.
</event>
<event>
 5   0  0.1421242E-05  0.2471929E+04  0.7818609E-02  0.8413055E-01
        1   -1    0    0  501    0  0.00000000000E+00  0.00000000000E+00  0.27527653128E+04  0.27527653128E+04  0.50400001928E-02 0.  1.
       -1   -1    0    0    0  501  0.00000000000E+00  0.00000000000E+00 -0.55493573154E+03  0.55493573156E+03  0.50400001928E-02 0. -1.
    10030    2    1    2    0    0  0.00000000000E+00  0.00000000000E+00  0.21978295813E+04  0.33077010444E+04  0.24719286662E+04 0.  0.
        3    1    3    3  502    0  0.47699591091E+03  0.93953906182E+03  0.19633651198E+04  0.22282417623E+04  0.10100000352E+00 0.  1.
       -3    1    3    3    0  502 -0.47699591091E+03 -0.93953906182E+03  0.23446446153E+03  0.10794592821E+04  0.10100000352E+00 0. -1.
</event>
<event>
 5   0  0.3579097E-05  0.2508012E+04  0.7818609E-02  0.8400137E-01
        2   -1    0    0  501    0  0.00000000000E+00  0.00000000000E+00  0.13936815112E+04  0.13936815112E+04  0.25500000920E-02 0. -1.
       -2   -1    0    0    0  501  0.00000000000E+00  0.00000000000E+00 -0.11283292175E+04  0.11283292175E+04  0.25500000920E-02 0.  1.
    10030    2    1    2    0    0  0.00000000000E+00  0.00000000000E+00  0.26535229371E+03  0.25220107287E+04  0.25080124154E+04 0.  0.
        5    1    3    3  502    0  0.12319145560E+04 -0.22678417633E+03  0.19186845807E+03  0.12672332584E+04  0.46999998093E+01 0. -1.
       -5    1    3    3    0  502 -0.12319145560E+04  0.22678417633E+03  0.73483835647E+02  0.12547774703E+04  0.46999998093E+01 0.  1.
</event>
<event>
 5   0  0.3704241E-05  0.2439711E+04  0.7818609E-02  0.8424784E-01
       -2   -1    0    0    0  501  0.00000000000E+00  0.00000000000E+00  0.75613853668E+03  0.75613853669E+03  0.25500000920E-02 0. -1.
        2   -1    0    0  501    0  0.00000000000E+00  0.00000000000E+00 -0.19679555862E+04  0.19679555862E+04  0.25500000920E-02 0.  1.
    10030    2    1    2    0    0  0.00000000000E+00  0.00000000000E+00 -0.12118170496E+04  0.27240941229E+04  0.24397106855E+04 0.  0.
        2    1    3    3  502    0  0.10705884925E+04  0.41907229140E+03 -0.10611954524E+04  0.15645820828E+04  0.25500000920E-02 0.  1.
       -2    1    3    3    0  502 -0.10705884925E+04 -0.41907229140E+03 -0.15062159711E+03  0.11595120401E+04  0.25500000920E-02 0. -1.
</event>
<event>
 5   0  0.1456876E-05  0.2499169E+04  0.7818609E-02  0.8403282E-01
       -1   -1    0    0    0  501  0.00000000000E+00  0.00000000000E+00  0.98754916741E+03  0.98754916742E+03  0.50400001928E-02 0.  1.
        1   -1    0    0  501    0  0.00000000000E+00  0.00000000000E+00 -0.15811476679E+04  0.15811476680E+04  0.50400001928E-02 0. -1.
    10030    2    1    2    0    0  0.00000000000E+00  0.00000000000E+00 -0.59359850054E+03  0.25686968354E+04  0.24991687122E+04 0.  0.
        1    1    3    3  502    0  0.11993970525E+04 -0.29013208297E+03 -0.94521805222E+02  0.12376042529E+04  0.50400001928E-02 0. -1.
       -1    1    3    3    0  502 -0.11993970525E+04  0.29013208297E+03 -0.49907669531E+03  0.13310925824E+04  0.50400001928E-02 0.  1.
</event>
<event>
 5   0  0.3579097E-05  0.2490672E+04  0.7818609E-02  0.8406316E-01
        2   -1    0    0  501    0  0.00000000000E+00  0.00000000000E+00  0.12711898256E+04  0.12711898256E+04  0.25500000920E-02 0. -1.
       -2   -1    0    0    0  501  0.00000000000E+00  0.00000000000E+00 -0.12200076437E+04  0.12200076437E+04  0.25500000920E-02 0.  1.
    10030    2    1    2    0    0  0.00000000000E+00  0.00000000000E+00  0.51182181969E+02  0.24911974693E+04  0.24906716394E+04 0.  0.
        5    1    3    3  502    0  0.99610838113E+03 -0.24143589030E+03  0.73307062655E+03  0.12601340522E+04  0.46999998093E+01 0. -1.
       -5    1    3    3    0  502 -0.99610838113E+03  0.24143589030E+03 -0.68188844458E+03  0.12310634171E+04  0.46999998093E+01 0.  1.
</event>
<event>
 5   0  0.1429483E-05  0.2528986E+04  0.7818609E-02  0.8392731E-01
       -1   -1    0    0    0  501  0.00000000000E+00  0.00000000000E+00  0.19798276305E+04  0.19798276305E+04  0.50400001928E-02 0.  1.
        1   -1    0    0  501    0  0.00000000000E+00  0.00000000000E+00 -0.80761682225E+03  0.80761682227E+03  0.50400001928E-02 0. -1.
    10030    2    1    2    0    0  0.00000000000E+00  0.00000000000E+00  0.11722108083E+04  0.27874444528E+04  0.25289856461E+04 0.  0.
        2    1    3    3  502    0  0.61955360844E+03  0.10465763746E+04  0.96755740534E+03  0.15541351660E+04  0.25500000920E-02 0.  1.
       -2    1    3    3    0  502 -0.61955360844E+03 -0.10465763746E+04  0.20465340293E+03  0.12333092868E+04  0.25500000920E-02 0. -1.
</event>
<event>
 5   0  0.3650620E-05  0.2509412E+04  0.7818609E-02  0.8399640E-01
        2   -1    0    0  501    0  0.00000000000E+00  0.00000000000E+00  0.64655203984E+03  0.64655203984E+03  0.25500000920E-02 0. -1.
       -2   -1    0    0    0  501  0.00000000000E+00  0.00000000000E+00 -0.24348954512E+04  0.24348954512E+04  0.25500000920E-02 0.  1.
    10030    2    1    2    0    0  0.00000000000E+00  0.00000000000E+00 -0.17883434114E+04  0.30814474911E+04  0.25094115811E+04 0.  0.
        3    1    3    3  502    0 -0.48910112909E+03 -0.96283343071E+03 -0.16785449858E+04  0.19959412339E+04  0.10100000352E+00 0.  1.
       -3    1    3    3    0  502  0.48910112909E+03  0.96283343071E+03 -0.10979842557E+03  0.10855062571E+04  0.10100000352E+00 0. -1.
</event>
<event>
 5   0  0.1429483E-05  0.2529741E+04  0.7818609E-02  0.8392466E-01
       -1   -1    0    0    0  501  0.00000000000E+00  0.00000000000E+00  0.11155057512E+04  0.11155057513E+04  0.50400001928E-02 0.  1.
        1   -1    0    0  501    0  0.00000000000E+00  0.00000000000E+00 -0.14342350375E+04  0.14342350375E+04  0.50400001928E-02 0. -1.
    10030    2    1    2    0    0  0.00000000000E+00  0.00000000000E+00 -0.31872928623E+03  0.25497407887E+04  0.25297410405E+04 0.  0.
        2    1    3    3  502    0  0.39638727570E+03 -0.73125427506E+03 -0.11198104671E+04  0.13949305249E+04  0.25500000920E-02 0. -1.
       -2    1    3    3    0  502 -0.39638727570E+03  0.73125427506E+03  0.80108118084E+03  0.11548102638E+04  0.25500000920E-02 0.  1.
</event>
<event>
 5   0  0.1492639E-05  0.2612615E+04  0.7818609E-02  0.8363929E-01
       -1   -1    0    0    0  501  0.00000000000E+00  0.00000000000E+00  0.10593597200E+04  0.10593597200E+04  0.50400001928E-02 0. -1.
        1   -1    0    0  501    0  0.00000000000E+00  0.00000000000E+00 -0.16108209566E+04  0.16108209566E+04  0.50400001928E-02 0.  1.
    10030    2    1    2    0    0  0.00000000000E+00  0.00000000000E+00 -0.55146123668E+03  0.26701806766E+04  0.26126146578E+04 0.  0.
        5    1    3    3  502    0  0.67645359000E+03 -0.10727312024E+04  0.44339087808E+02  0.12689876818E+04  0.46999998093E+01 0.  1.
       -5    1    3    3    0  502 -0.67645359000E+03  0.10727312024E+04 -0.59580032449E+03  0.14011929948E+04  0.46999998093E+01 0. -1.
</event>
<event>
 5   0  0.3704241E-05  0.2516153E+04  0.7818609E-02  0.8397253E-01
        2   -1    0    0  501    0  0.00000000000E+00  0.00000000000E+00  0.11018148961E+04  0.11018148961E+04  0.25500000920E-02 0.  1.
       -2   -1    0    0    0  501  0.00000000000E+00  0.00000000000E+00 -0.14364993769E+04  0.14364993769E+04  0.25500000920E-02 0. -1.
    10030    2    1    2    0    0  0.00000000000E+00  0.00000000000E+00 -0.33468448076E+03  0.25383142729E+04  0.25161529458E+04 0.  0.
        2    1    3    3  502    0  0.78372883798E+03 -0.95993060005E+03  0.51498719012E+02  0.12403022883E+04  0.25500000920E-02 0. -1.
       -2    1    3    3    0  502 -0.78372883798E+03  0.95993060005E+03 -0.38618319977E+03  0.12980119846E+04  0.25500000920E-02 0.  1.
</event>
<event>
 5   0  0.3581449E-05  0.2472755E+04  0.7818609E-02  0.8412757E-01
        2   -1    0    0  501    0  0.00000000000E+00  0.00000000000E+00  0.13923528345E+04  0.13923528345E+04  0.25500000920E-02 0.  1.
       -2   -1    0    0    0  501  0.00000000000E+00  0.00000000000E+00 -0.10978745754E+04  0.10978745754E+04  0.25500000920E-02 0. -1.
    10030    2    1    2    0    0  0.00000000000E+00  0.00000000000E+00  0.29447825907E+03  0.24902274099E+04  0.24727545588E+04 0.  0.
        1    1    3    3  502    0 -0.79456176179E+03 -0.65273462396E+03 -0.54407924679E+03  0.11633628451E+04  0.50400001928E-02 0. -1.
       -1    1    3    3    0  502  0.79456176179E+03  0.65273462396E+03  0.83855750586E+03  0.13268645648E+04  0.50400001928E-02 0.  1.
</event>
<event>
 5   0  0.1502886E-05  0.2472287E+04  0.7818609E-02  0.8412926E-01
       -1   -1    0    0    0  501  0.00000000000E+00  0.00000000000E+00  0.73265888008E+03  0.73265888010E+03  0.50400001928E-02 0.  1.
        1   -1    0    0  501    0  0.00000000000E+00  0.00000000000E+00 -0.20856232028E+04  0.20856232028E+04  0.50400001928E-02 0. -1.
    10030    2    1    2    0    0  0.00000000000E+00  0.00000000000E+00 -0.13529643227E+04  0.28182820829E+04  0.24722866824E+04 0.  0.
        4    1    3    3  502    0  0.34027195936E+02  0.95381060346E+02  0.72792150029E+03  0.73493313997E+03  0.12699999809E+01 0.  1.
       -4    1    3    3    0  502 -0.34027195936E+02 -0.95381060346E+02 -0.20808858230E+04  0.20833489429E+04  0.12699999809E+01 0. -1.
</event>
<event>
 5   0  0.1421242E-05  0.2513828E+04  0.7818609E-02  0.8398076E-01
        1   -1    0    0  501    0  0.00000000000E+00  0.00000000000E+00  0.11511304912E+04  0.11511304912E+04  0.50400001928E-02 0.  1.
       -1   -1    0    0    0  501  0.00000000000E+00  0.00000000000E+00 -0.13724182592E+04  0.13724182592E+04  0.50400001928E-02 0. -1.
    10030    2    1    2    0    0  0.00000000000E+00  0.00000000000E+00 -0.22128776794E+03  0.25235487504E+04  0.25138277625E+04 0.  0.
        3    1    3    3  502    0 -0.12416264463E+04  0.26050731850E+02  0.83799795973E+02  0.12447237801E+04  0.10100000352E+00 0.  1.
       -3    1    3    3    0  502  0.12416264463E+04 -0.26050731850E+02 -0.30508756392E+03  0.12788249703E+04  0.10100000352E+00 0. -1.
</event>
<event>
 5   0  0.3704241E-05  0.2512961E+04  0.7818609E-02  0.8398383E-01
        2   -1    0    0  501    0  0.00000000000E+00  0.00000000000E+00  0.14331284088E+04  0.14331284088E+04  0.25500000920E-02 0.  1.
       -2   -1    0    0    0  501  0.00000000000E+00  0.00000000000E+00 -0.11016065467E+04  0.11016065467E+04  0.25500000920E-02 0. -1.
    10030    2    1    2    0    0  0.00000000000E+00  0.00000000000E+00  0.33152186210E+03  0.25347349554E+04  0.25129613107E+04 0.  0.
        2    1    3    3  502    0  0.68740459941E+03 -0.50687665974E+03 -0.76379587405E+03  0.11457893213E+04  0.25500000920E-02 0. -1.
       -2    1    3    3    0  502 -0.68740459941E+03  0.50687665974E+03  0.10953177362E+04  0.13889456342E+04  0.25500000920E-02 0.  1.
</event>
<event>
 5   0  0.1421242E-05  0.2462163E+04  0.7818609E-02  0.8416590E-01
       -1   -1    0    0    0  501  0.00000000000E+00  0.00000000000E+00  0.11670537241E+04  0.11670537241E+04  0.50400001928E-02 0. -1.
        1   -1    0    0  501    0  0.00000000000E+00  0.00000000000E+00 -0.12986225315E+04  0.12986225315E+04  0.50400001928E-02 0.  1.
    10030    2    1    2    0    0  0.00000000000E+00  0.00000000000E+00 -0.13156880740E+03  0.24656762556E+04  0.24621634889E+04 0.  0.
        3    1    3    3  502    0 -0.10200843857E+03 -0.93309057275E+02  0.11592555807E+04  0.11674698340E+04  0.10100000352E+00 0. -1.
       -3    1    3    3    0  502  0.10200843857E+03  0.93309057275E+02 -0.12908243881E+04  0.12982064215E+04  0.10100000352E+00 0.  1.
</event>
<event>
 5   0  0.1456876E-05  0.2537355E+04  0.7818609E-02  0.8389797E-01
       -1   -1    0    0    0  501  0.00000000000E+00  0.00000000000E+00  0.14303334724E+04  0.14303334724E+04  0.50400001928E-02 0.  1.
        1   -1    0    0  501    0  0.00000000000E+00  0.00000000000E+00 -0.11252919812E+04  0.11252919812E+04  0.50400001928E-02 0. -1.
    10030    2    1    2    0    0  0.00000000000E+00  0.00000000000E+00  0.30504149122E+03  0.25556254536E+04  0.25373551482E+04 0.  0.
        1    1    3    3  502    0  0.48332675449E+03  0.11647207838E+04  0.12365864916E+02  0.12610837285E+04  0.50400001928E-02 0. -1.
       -1    1    3    3    0  502 -0.48332675449E+03 -0.11647207838E+04  0.29267562630E+03  0.12945417251E+04  0.50400001928E-02 0.  1.
</event>
<event>
 5   0  0.1429483E-05  0.2383891E+04  0.7818609E-02  0.8445559E-01
        1   -1    0    0  501    0  0.00000000000E+00  0.00000000000E+00  0.11524390839E+04  0.11524390839E+04  0.50400001928E-02 0.  1.
       -1   -1    0    0    0  501  0.00000000000E+00  0.00000000000E+00 -0.12328058326E+04  0.12328058326E+04  0.50400001928E-02 0. -1.
    10030    2    1    2    0    0  0.00000000000E+00  0.00000000000E+00 -0.80366748661E+02  0.23852449165E+04  0.23838906219E+04 0.  0.
        2    1    3    3  502    0  0.49926756230E+03  0.69001299527E+03  0.79416539803E+03  0.11645105031E+04  0.25500000920E-02 0.  1.
       -2    1    3    3    0  502 -0.49926756230E+03 -0.69001299527E+03 -0.87453214669E+03  0.12207344134E+04  0.25500000920E-02 0. -1.
</event>
<event>
 5   0  0.3578670E-05  0.2469292E+04  0.7818609E-02  0.8414008E-01
        2   -1    0    0  501    0  0.00000000000E+00  0.00000000000E+00  0.21218508669E+04  0.21218508669E+04  0.25500000920E-02 0.  1.
       -2   -1    0    0    0  501  0.00000000000E+00  0.00000000000E+00 -0.71840592595E+03  0.71840592595E+03  0.25500000920E-02 0. -1.
    10030    2    1    2    0    0  0.00000000000E+00  0.00000000000E+00  0.14034449410E+04  0.28402567929E+04  0.24692915881E+04 0.  0.
        4    1    3    3  502    0 -0.13015238912E+03  0.81668442276E+03 -0.35275531064E+03  0.89908342930E+03  0.12699999809E+01 0. -1.
       -4    1    3    3    0  502  0.13015238912E+03 -0.81668442276E+03  0.17562002516E+04  0.19411733636E+04  0.12699999809E+01 0.  1.
</event>
<event>
 5   0  0.1429483E-05  0.1868643E+04  0.7818609E-02  0.8670624E-01
        1   -1    0    0  501    0  0.00000000000E+00  0.00000000000E+00  0.10104527376E+04  0.10104527376E+04  0.50400001928E-02 0. -1.
       -1   -1    0    0    0  501  0.00000000000E+00  0.00000000000E+00 -0.86392637142E+03  0.86392637143E+03  0.50400001928E-02 0.  1.
    10030    2    1    2    0    0  0.00000000000E+00  0.00000000000E+00  0.14652636622E+03  0.18743791091E+04  0.18686431089E+04 0.  0.
        2    1    3    3  502    0 -0.35615644063E+03 -0.35539526774E+03 -0.71642948338E+03  0.87545668722E+03  0.25500000920E-02 0.  1.
       -2    1    3    3    0  502  0.35615644063E+03  0.35539526774E+03  0.86295584960E+03  0.99892242186E+03  0.25500000920E-02 0. -1.
</event>
<event>
 5   0  0.3578670E-05  0.2456831E+04  0.7818609E-02  0.8418528E-01
        2   -1    0    0  501    0  0.00000000000E+00  0.00000000000E+00  0.11213793331E+04  0.11213793331E+04  0.25500000920E-02 0. -1.
       -2   -1    0    0    0  501  0.00000000000E+00  0.00000000000E+00 -0.13456687419E+04  0.13456687419E+04  0.25500000920E-02 0.  1.
    10030    2    1    2    0    0  0.00000000000E+00  0.00000000000E+00 -0.22428940873E+03  0.24670480750E+04  0.24568313873E+04 0.  0.
        4    1    3    3  502    0 -0.15013208308E+02  0.39510615235E+03  0.10557348814E+04  0.11273473381E+04  0.12699999809E+01 0. -1.
       -4    1    3    3    0  502  0.15013208308E+02 -0.39510615235E+03 -0.12800242902E+04  0.13397007369E+04  0.12699999809E+01 0.  1.
</event>
<event>
 5   0  0.3581449E-05  0.2770764E+04  0.7818609E-02  0.8312403E-01
        2   -1    0    0  501    0  0.00000000000E+00  0.00000000000E+00  0.13773040882E+04  0.13773040882E+04  0.25500000920E-02 0.  1.
       -2   -1    0    0    0  501  0.00000000000E+00  0.00000000000E+00 -0.13935071424E+04  0.13935071424E+04  0.25500000920E-02 0. -1.
    10030    2    1    2    0    0  0.00000000000E+00  0.00000000000E+00 -0.16203054165E+02  0.27708112306E+04  0.27707638543E+04 0.  0.
        1    1    3    3  502    0 -0.12350380633E+04  0.25571065124E+03 -0.58132693267E+03  0.13887577030E+04  0.50400001928E-02 0. -1.
       -1    1    3    3    0  502  0.12350380633E+04 -0.25571065124E+03  0.56512387851E+03  0.13820535276E+04  0.50400001928E-02 0.  1.
</event>
<event>
 5   0  0.1429483E-05  0.2511656E+04  0.7818609E-02  0.8398845E-01
        1   -1    0    0  501    0  0.00000000000E+00  0.00000000000E+00  0.13946363812E+04  0.13946363812E+04  0.50400001928E-02 0. -1.
       -1   -1    0    0    0  501  0.00000000000E+00  0.00000000000E+00 -0.11308350329E+04  0.11308350329E+04  0.50400001928E-02 0.  1.
    10030    2    1    2    0    0  0.00000000000E+00  0.00000000000E+00  0.26380134828E+03  0.25254714141E+04  0.25116557710E+04 0.  0.
        2    1    3    3  502    0 -0.64940672766E+03 -0.10571199521E+04 -0.63777048304E+02  0.12422959401E+04  0.25500000920E-02 0.  1.
       -2    1    3    3    0  502  0.64940672766E+03  0.10571199521E+04  0.32757839658E+03  0.12831754739E+04  0.25500000920E-02 0. -1.
</event>
<event>
 5   0  0.3650620E-05  0.2513441E+04  0.7818609E-02  0.8398213E-01
        2   -1    0    0  501    0  0.00000000000E+00  0.00000000000E+00  0.15716012112E+04  0.15716012112E+04  0.25500000920E-02 0. -1.
       -2   -1    0    0    0  501  0.00000000000E+00  0.00000000000E+00 -0.10049284399E+04  0.10049284399E+04  0.25500000920E-02 0.  1.
    10030    2    1    2    0    0  0.00000000000E+00  0.00000000000E+00  0.56667277130E+03  0.25765296511E+04  0.25134412691E+04 0.  0.
        3    1    3    3  502    0  0.76188690426E+03 -0.95967795149E+03  0.56943549385E+03  0.13511884463E+04  0.10100000352E+00 0.  1.
       -3    1    3    3    0  502 -0.76188690426E+03  0.95967795149E+03 -0.27627225480E+01  0.12253412049E+04  0.10100000352E+00 0. -1.
</event>
<event>
 5   0  0.3578670E-05  0.2478030E+04  0.7818609E-02  0.8410854E-01
        2   -1    0    0  501    0  0.00000000000E+00  0.00000000000E+00  0.18028741802E+04  0.18028741802E+04  0.25500000920E-02 0.  1.
       -2   -1    0    0    0  501  0.00000000000E+00  0.00000000000E+00 -0.85150607274E+03  0.85150607274E+03  0.25500000920E-02 0. -1.
    10030    2    1    2    0    0  0.00000000000E+00  0.00000000000E+00  0.95136810749E+03  0.26543802530E+04  0.24780301151E+04 0.  0.
        4    1    3    3  502    0 -0.23740627758E+03  0.12109945688E+04  0.35694830530E+03  0.12846335244E+04  0.12699999809E+01 0. -1.
       -4    1    3    3    0  502  0.23740627758E+03 -0.12109945688E+04  0.59441980219E+03  0.13697467286E+04  0.12699999809E+01 0.  1.
</event>
<event>
 5   0  0.1421242E-05  0.2383205E+04  0.7818609E-02  0.8445818E-01
        1   -1    0    0  501    0  0.00000000000E+00  0.00000000000E+00  0.11689080746E+04  0.11689080746E+04  0.50400001928E-02 0. -1.
       -1   -1    0    0    0  501  0.00000000000E+00  0.00000000000E+00 -0.12147373671E+04  0.12147373671E+04  0.50400001928E-02 0.  1.
    10030    2    1    2    0    0  0.00000000000E+00  0.00000000000E+00 -0.45829292479E+02  0.23836454417E+04  0.23832048312E+04 0.  0.
        3    1    3    3  502    0 -0.24434554633E+03 -0.97900121310E+03  0.61105440519E+03  0.11796336794E+04  0.10100000352E+00 0. -1.
       -3    1    3    3    0  502  0.24434554633E+03  0.97900121310E+03 -0.65688369767E+03  0.12040117623E+04  0.10100000352E+00 0.  1.
</event>
<event>
 5   0  0.1429483E-05  0.2585962E+04  0.7818609E-02  0.8372985E-01
       -1   -1    0    0    0  501  0.00000000000E+00  0.00000000000E+00  0.12882836549E+04  0.12882836549E+04  0.50400001928E-02 0. -1.
        1   -1    0    0  501    0  0.00000000000E+00  0.00000000000E+00 -0.12976949849E+04  0.12976949849E+04  0.50400001928E-02 0.  1.
    10030    2    1    2    0    0  0.00000000000E+00  0.00000000000E+00 -0.94113299725E+01  0.25859786398E+04  0.25859615141E+04 0.  0.
        2    1    3    3  502    0 -0.40467197889E+03  0.97182668188E+03  0.74602743865E+03  0.12902571253E+04  0.25500000920E-02 0. -1.
       -2    1    3    3    0  502  0.40467197889E+03 -0.97182668188E+03 -0.75543876862E+03  0.12957215145E+04  0.25500000920E-02 0.  1.
</event>
<event>
 5   0  0.1492639E-05  0.2369283E+04  0.7818609E-02  0.8451094E-01
        1   -1    0    0  501    0  0.00000000000E+00  0.00000000000E+00  0.17524652136E+04  0.17524652137E+04  0.50400001928E-02 0. -1.
       -1   -1    0    0    0  501  0.00000000000E+00  0.00000000000E+00 -0.80080089883E+03  0.80080089884E+03  0.50400001928E-02 0.  1.
    10030    2    1    2    0    0  0.00000000000E+00  0.00000000000E+00  0.95166431482E+03  0.25532661125E+04  0.23692831982E+04 0.  0.
        5    1    3    3  502    0  0.10404846882E+04 -0.12596841997E+03 -0.11920156548E+03  0.10548495307E+04  0.46999998093E+01 0.  1.
       -5    1    3    3    0  502 -0.10404846882E+04  0.12596841997E+03  0.10708658803E+04  0.14984165818E+04  0.46999998093E+01 0. -1.
</event>
<event>
 5   0  0.3578670E-05  0.2505424E+04  0.7818609E-02  0.8401056E-01
        2   -1    0    0  501    0  0.00000000000E+00  0.00000000000E+00  0.25534597468E+04  0.25534597468E+04  0.25500000920E-02 0. -1.
       -2   -1    0    0    0  501  0.00000000000E+00  0.00000000000E+00 -0.61457296258E+03  0.61457296259E+03  0.25500000920E-02 0.  1.
    10030    2    1    2    0    0  0.00000000000E+00  0.00000000000E+00  0.19388867843E+04  0.31680327094E+04  0.25054239733E+04 0.  0.
        4    1    3    3  502    0  0.97548370467E+03  0.61352164123E+03  0.34829596606E+03  0.12038641764E+04  0.12699999809E+01 0.  1.
       -4    1    3    3    0  502 -0.97548370467E+03 -0.61352164123E+03  0.15905908182E+04  0.19641685330E+04  0.12699999809E+01 0. -1.
</event>
<event>
 5   0  0.1456876E-05  0.2506751E+04  0.7818609E-02  0.8400584E-01
       -1   -1    0    0    0  501  0.00000000000E+00  0.00000000000E+00  0.31655539323E+04  0.31655539323E+04  0.50400001928E-02 0.  1.
        1   -1    0    0  501    0  0.00000000000E+00  0.00000000000E+00 -0.49626392028E+03  0.49626392031E+03  0.50400001928E-02 0. -1.
    10030    2    1    2    0    0  0.00000000000E+00  0.00000000000E+00  0.26692900120E+04  0.36618178526E+04  0.25067510481E+04 0.  0.
        1    1    3    3  502    0  0.73572929840E+02  0.18342683607E+03 -0.47335980436E+03  0.51295992495E+03  0.50400001928E-02 0. -1.
       -1    1    3    3    0  502 -0.73572929840E+02 -0.18342683607E+03  0.31426498163E+04  0.31488579276E+04  0.50400001928E-02 0.  1.
</event>
<event>
 5   0  0.1492639E-05  0.2501347E+04  0.7818609E-02  0.8402506E-01
        1   -1    0    0  501    0  0.00000000000E+00  0.00000000000E+00  0.10726873925E+04  0.10726873926E+04  0.50400001928E-02 0.  1.
       -1   -1    0    0    0  501  0.00000000000E+00  0.00000000000E+00 -0.14581923623E+04  0.14581923623E+04  0.50400001928E-02 0. -1.
    10030    2    1    2    0    0  0.00000000000E+00  0.00000000000E+00 -0.38550496975E+03  0.25308797549E+04  0.25013472873E+04 0.  0.
        5    1    3    3  502    0 -0.42478420687E+03 -0.99157136084E+03 -0.83308067381E+03  0.13629750126E+04  0.46999998093E+01 0. -1.
       -5    1    3    3    0  502  0.42478420687E+03  0.99157136084E+03  0.44757570406E+03  0.11679047422E+04  0.46999998093E+01 0.  1.
</event>
<event>
 5   0  0.1456876E-05  0.2471448E+04  0.7818609E-02  0.8413228E-01
       -1   -1    0    0    0  501  0.00000000000E+00  0.00000000000E+00  0.12486004875E+04  0.12486004876E+04  0.50400001928E-02 0.  1.
        1   -1    0    0  501    0  0.00000000000E+00  0.00000000000E+00 -0.12229805527E+04  0.12229805527E+04  0.50400001928E-02 0. -1.
    10030    2    1    2    0    0  0.00000000000E+00  0.00000000000E+00  0.25619934858E+02  0.24715810403E+04  0.24714482510E+04 0.  0.
        1    1    3    3  502    0 -0.11126062337E+04 -0.90199518436E+02 -0.51729919601E+03  0.12302955102E+04  0.50400001928E-02 0.  1.
       -1    1    3    3    0  502  0.11126062337E+04  0.90199518436E+02  0.54291913087E+03  0.12412855300E+04  0.50400001928E-02 0. -1.
</event>
<event>
 5   0  0.1429483E-05  0.2523412E+04  0.7818609E-02  0.8394692E-01
        1   -1    0    0  501    0  0.00000000000E+00  0.00000000000E+00  0.15755615385E+04  0.15755615385E+04  0.50400001928E-02 0.  1.
       -1   -1    0    0    0  501  0.00000000000E+00  0.00000000000E+00 -0.10103713932E+04  0.10103713932E+04  0.50400001928E-02 0. -1.
    10030    2    1    2    0    0  0.00000000000E+00  0.00000000000E+00  0.56519014532E+03  0.25859329318E+04  0.25234122191E+04 0.  0.
        2    1    3    3  502    0 -0.11469293629E+04  0.21045167711E+03 -0.21117849297E+03  0.11850456649E+04  0.25500000920E-02 0. -1.
       -2    1    3    3    0  502  0.11469293629E+04 -0.21045167711E+03  0.77636863829E+03  0.14008872669E+04  0.25500000920E-02 0.  1.
</event>
<event>
 5   0  0.3579097E-05  0.2504779E+04  0.7818609E-02  0.8401285E-01
       -2   -1    0    0    0  501  0.00000000000E+00  0.00000000000E+00  0.72790849001E+03  0.72790849001E+03  0.25500000920E-02 0. -1.
        2   -1    0    0  501    0  0.00000000000E+00  0.00000000000E+00 -0.21547764363E+04  0.21547764363E+04  0.25500000920E-02 0.  1.
    10030    2    1    2    0    0  0.00000000000E+00  0.00000000000E+00 -0.14268679463E+04  0.28826849263E+04  0.25047794809E+04 0.  0.
        5    1    3    3  502    0 -0.88007881424E+03 -0.78544693787E+03 -0.22925609704E+03  0.12016846756E+04  0.46999998093E+01 0.  1.
       -5    1    3    3    0  502  0.88007881424E+03  0.78544693787E+03 -0.11976118492E+04  0.16810002507E+04  0.46999998093E+01 0. -1.
</event>
<event>
 5   0  0.3578670E-05  0.2480914E+04  0.7818609E-02  0.8409817E-01
        2   -1    0    0  501    0  0.00000000000E+00  0.00000000000E+00  0.11357378023E+04  0.11357378023E+04  0.25500000920E-02 0. -1.
       -2   -1    0    0    0  501  0.00000000000E+00  0.00000000000E+00 -0.13548322071E+04  0.13548322071E+04  0.25500000920E-02 0.  1.
    10030    2    1    2    0    0  0.00000000000E+00  0.00000000000E+00 -0.21909440487E+03  0.24905700094E+04  0.24809144712E+04 0.  0.
        4    1    3    3  502    0  0.63888733351E+03 -0.48901041621E+02 -0.11758317600E+04  0.13390856125E+04  0.12699999809E+01 0.  1.
       -4    1    3    3    0  502 -0.63888733351E+03  0.48901041621E+02  0.95673735514E+03  0.11514843969E+04  0.12699999809E+01 0. -1.
</event>
<event>
 5   0  0.1421242E-05  0.2481932E+04  0.7818609E-02  0.8409451E-01
        1   -1    0    0  501    0  0.00000000000E+00  0.00000000000E+00  0.19347649406E+04  0.19347649406E+04  0.50400001928E-02 0. -1.
       -1   -1    0    0    0  501  0.00000000000E+00  0.00000000000E+00 -0.79596078165E+03  0.79596078167E+03  0.50400001928E-02 0.  1.
    10030    2    1    2    0    0  0.00000000000E+00  0.00000000000E+00  0.11388041589E+04  0.27307257222E+04  0.24819323234E+04 0.  0.
        3    1    3    3  502    0 -0.27573723748E+03  0.10957135910E+04  0.11340498944E+04  0.16008399267E+04  0.10100000352E+00 0. -1.
       -3    1    3    3    0  502  0.27573723748E+03 -0.10957135910E+04  0.47542644753E+01  0.11298857955E+04  0.10100000352E+00 0.  1.
</event>
<event>
 5   0  0.1429483E-05  0.2495541E+04  0.7818609E-02  0.8404576E-01
       -1   -1    0    0    0  501  0.00000000000E+00  0.00000000000E+00  0.17865171595E+04  0.17865171595E+04  0.50400001928E-02 0. -1.
        1   -1    0    0  501    0  0.00000000000E+00  0.00000000000E+00 -0.87148953277E+03  0.87148953278E+03  0.50400001928E-02 0.  1.
    10030    2    1    2    0    0  0.00000000000E+00  0.00000000000E+00  0.91502762669E+03  0.26580066922E+04  0.24955408268E+04 0.  0.
        2    1    3    3  502    0 -0.16697439128E+03  0.96404457185E+03  0.12823107755E+04  0.16129424381E+04  0.25500000920E-02 0. -1.
       -2    1    3    3    0  502  0.16697439128E+03 -0.96404457185E+03 -0.36728314878E+03  0.10450642541E+04  0.25500000920E-02 0.  1.
</event>
<event>
 5   0  0.3578670E-05  0.2132960E+04  0.7818609E-02  0.8546862E-01
        2   -1    0    0  501    0  0.00000000000E+00  0.00000000000E+00  0.12861888011E+04  0.12861888011E+04  0.25500000920E-02 0. -1.
       -2   -1    0    0    0  501  0.00000000000E+00  0.00000000000E+00 -0.88430194956E+03  0.88430194956E+03  0.25500000920E-02 0.  1.
    10030    2    1    2    0    0  0.00000000000E+00  0.00000000000E+00  0.40188685155E+03  0.21704907507E+04  0.21329596943E+04 0.  0.
        4    1    3    3  502    0  0.12390271062E+03 -0.44479939093E+03 -0.77731456124E+03  0.90411167445E+03  0.12699999809E+01 0.  1.
       -4    1    3    3    0  502 -0.12390271062E+03  0.44479939093E+03  0.11792014128E+04  0.12663790762E+04  0.12699999809E+01 0. -1.
</event>
<event>
 5   0  0.1456876E-05  0.2500198E+04  0.7818609E-02  0.8402915E-01
        1   -1    0    0  501    0  0.00000000000E+00  0.00000000000E+00  0.13100653897E+04  0.13100653897E+04  0.50400001928E-02 0. -1.
       -1   -1    0    0    0  501  0.00000000000E+00  0.00000000000E+00 -0.11928774898E+04  0.11928774898E+04  0.50400001928E-02 0.  1.
    10030    2    1    2    0    0  0.00000000000E+00  0.00000000000E+00  0.11718789990E+03  0.25029428795E+04  0.25001980030E+04 0.  0.
        1    1    3    3  502    0  0.59053086899E+03 -0.74611499786E+03 -0.75305704221E+03  0.12134699033E+04  0.50400001928E-02 0.  1.
       -1    1    3    3    0  502 -0.59053086899E+03  0.74611499786E+03  0.87024494212E+03  0.12894729763E+04  0.50400001928E-02 0. -1.
</event>
<event>
 5   0  0.3581449E-05  0.2453463E+04  0.7818609E-02  0.8419755E-01
        2   -1    0    0  501    0  0.00000000000E+00  0.00000000000E+00  0.17647812540E+04  0.17647812540E+04  0.25500000920E-02 0. -1.
       -2   -1    0    0    0  501  0.00000000000E+00  0.00000000000E+00 -0.85272359436E+03  0.85272359436E+03  0.25500000920E-02 0.  1.
    10030    2    1    2    0    0  0.00000000000E+00  0.00000000000E+00  0.91205765962E+03  0.26175048483E+04  0.24534633595E+04 0.  0.
        1    1    3    3  502    0  0.15905318994E+03  0.10878040167E+04  0.10367141528E+04  0.15110895839E+04  0.50400001928E-02 0. -1.
       -1    1    3    3    0  502 -0.15905318994E+03 -0.10878040167E+04 -0.12465649314E+03  0.11064152644E+04  0.50400001928E-02 0.  1.
</event>
<event>
 5   0  0.1456876E-05  0.2487557E+04  0.7818609E-02  0.8407432E-01
        1   -1    0    0  501    0  0.00000000000E+00  0.00000000000E+00  0.11877376241E+04  0.11877376241E+04  0.50400001928E-02 0. -1.
       -1   -1    0    0    0  501  0.00000000000E+00  0.00000000000E+00 -0.13024636870E+04  0.13024636870E+04  0.50400001928E-02 0.  1.
    10030    2    1    2    0    0  0.00000000000E+00  0.00000000000E+00 -0.11472606290E+03  0.24902013112E+04  0.24875571351E+04 0.  0.
        1    1    3    3  502    0  0.54141510679E+03  0.35898427399E+03 -0.11191436113E+04  0.12940179480E+04  0.50400001928E-02 0.  1.
       -1    1    3    3    0  502 -0.54141510679E+03 -0.35898427399E+03  0.10044175484E+04  0.11961833632E+04  0.50400001928E-02 0. -1.
</event>
<event>
 5   0  0.1456876E-05  0.2485824E+04  0.7818609E-02  0.8408053E-01
       -1   -1    0    0    0  501  0.00000000000E+00  0.00000000000E+00  0.88335486783E+03  0.88335486784E+03  0.50400001928E-02 0.  1.
        1   -1    0    0  501    0  0.00000000000E+00  0.00000000000E+00 -0.17488224697E+04  0.17488224697E+04  0.50400001928E-02 0. -1.
    10030    2    1    2    0    0  0.00000000000E+00  0.00000000000E+00 -0.86546760187E+03  0.26321773375E+04  0.24858244842E+04 0.  0.
        1    1    3    3  502    0  0.11667995780E+04 -0.62444705010E+02  0.15897224599E+02  0.11685774763E+04  0.50400001928E-02 0.  1.
       -1    1    3    3    0  502 -0.11667995780E+04  0.62444705010E+02 -0.88136482647E+03  0.14635998612E+04  0.50400001928E-02 0. -1.
</event>
<event>
 5   0  0.3579097E-05  0.2412555E+04  0.7818609E-02  0.8434818E-01
       -2   -1    0    0    0  501  0.00000000000E+00  0.00000000000E+00  0.66224278277E+03  0.66224278277E+03  0.25500000920E-02 0.  1.
        2   -1    0    0  501    0  0.00000000000E+00  0.00000000000E+00 -0.21972394317E+04  0.21972394317E+04  0.25500000920E-02 0. -1.
    10030    2    1    2    0    0  0.00000000000E+00  0.00000000000E+00 -0.15349966489E+04  0.28594822144E+04  0.24125554548E+04 0.  0.
        5    1    3    3  502    0 -0.91376183673E+03  0.71163183699E+03 -0.11671637958E+04  0.16442852495E+04  0.46999998093E+01 0. -1.
       -5    1    3    3    0  502  0.91376183673E+03 -0.71163183699E+03 -0.36783285314E+03  0.12151969649E+04  0.46999998093E+01 0.  1.
</event>
<event>
 5   0  0.1201438E-05  0.2507008E+04  0.7818609E-02  0.8400493E-01
        3   -1    0    0  501    0  0.00000000000E+00  0.00000000000E+00  0.73185303647E+03  0.73185304344E+03  0.10100000352E+00 0.  1.
       -3   -1    0    0    0  501  0.00000000000E+00  0.00000000000E+00 -0.21469774862E+04  0.21469774886E+04  0.10100000352E+00 0. -1.
    10030    2    1    2    0    0  0.00000000000E+00  0.00000000000E+00 -0.14151244497E+04  0.28788305320E+04  0.25070077830E+04 0.  0.
        4    1    3    3  502    0 -0.57364017581E+03 -0.12530302884E+03 -0.19792934759E+04  0.20645503571E+04  0.12699999809E+01 0. -1.
       -4    1    3    3    0  502  0.57364017581E+03  0.12530302884E+03  0.56416902615E+03  0.81428017494E+03  0.12699999809E+01 0.  1.
</event>
<event>
 5   0  0.3650620E-05  0.2546518E+04  0.7818609E-02  0.8386598E-01
        2   -1    0    0  501    0  0.00000000000E+00  0.00000000000E+00  0.19059847273E+04  0.19059847273E+04  0.25500000920E-02 0.  1.
       -2   -1    0    0    0  501  0.00000000000E+00  0.00000000000E+00 -0.85057759467E+03  0.85057759467E+03  0.25500000920E-02 0. -1.
    10030    2    1    2    0    0  0.00000000000E+00  0.00000000000E+00  0.10554071326E+04  0.27565623220E+04  0.25465175474E+04 0.  0.
        3    1    3    3  502    0  0.39287470802E+03  0.93698011531E+03  0.13584031498E+04  0.16963317483E+04  0.10100000352E+00 0.  1.
       -3    1    3    3    0  502 -0.39287470802E+03 -0.93698011531E+03 -0.30299601720E+03  0.10602305737E+04  0.10100000352E+00 0. -1.
</event>
<event>
 5   0  0.3578670E-05  0.2499117E+04  0.7818609E-02  0.8403300E-01
       -2   -1    0    0    0  501  0.00000000000E+00  0.00000000000E+00  0.16718582443E+04  0.16718582443E+04  0.25500000920E-02 0.  1.
        2   -1    0    0  501    0  0.00000000000E+00  0.00000000000E+00 -0.93392902594E+03  0.93392902594E+03  0.25500000920E-02 0. -1.
    10030    2    1    2    0    0  0.00000000000E+00  0.00000000000E+00  0.73792921835E+03  0.26057872702E+04  0.24991173975E+04 0.  0.
        4    1    3    3  502    0 -0.42956284190E+03  0.16715387217E+03 -0.84204368025E+03  0.95994990727E+03  0.12699999809E+01 0. -1.
       -4    1    3    3    0  502  0.42956284190E+03 -0.16715387217E+03  0.15799728986E+04  0.16458373630E+04  0.12699999809E+01 0.  1.
</event>
<event>
 5   0  0.3650620E-05  0.2501533E+04  0.7818609E-02  0.8402440E-01
       -2   -1    0    0    0  501  0.00000000000E+00  0.00000000000E+00  0.17316618887E+04  0.17316618887E+04  0.25500000920E-02 0.  1.
        2   -1    0    0  501    0  0.00000000000E+00  0.00000000000E+00 -0.90341911139E+03  0.90341911139E+03  0.25500000920E-02 0. -1.
    10030    2    1    2    0    0  0.00000000000E+00  0.00000000000E+00  0.82824277730E+03  0.26350810001E+04  0.25015326859E+04 0.  0.
        3    1    3    3  502    0 -0.71782306614E+02 -0.89088990949E+03 -0.50756413545E+03  0.10278418615E+04  0.10100000352E+00 0. -1.
       -3    1    3    3    0  502  0.71782306614E+02  0.89088990949E+03  0.13358069128E+04  0.16072391386E+04  0.10100000352E+00 0.  1.
</event>
<event>
 5   0  0.3581449E-05  0.2496184E+04  0.7818609E-02  0.8404346E-01
       -2   -1    0    0    0  501  0.00000000000E+00  0.00000000000E+00  0.11915067415E+04  0.11915067415E+04  0.25500000920E-02 0. -1.
        2   -1    0    0  501    0  0.00000000000E+00  0.00000000000E+00 -0.13073647459E+04  0.13073647459E+04  0.25500000920E-02 0.  1.
    10030    2    1    2    0    0  0.00000000000E+00  0.00000000000E+00 -0.11585800436E+03  0.24988714874E+04  0.24961842146E+04 0.  0.
        1    1    3    3  502    0  0.83890066489E+03  0.85418182863E+03 -0.41094582258E+03  0.12658030617E+04  0.50400001928E-02 0.  1.
       -1    1    3    3    0  502 -0.83890066489E+03 -0.85418182863E+03  0.29508781823E+03  0.12330684257E+04  0.50400001928E-02 0. -1.
</event>
<event>
 5   0  0.1429483E-05  0.2516614E+04  0.7818609E-02  0.8397090E-01
        1   -1    0    0  501    0  0.00000000000E+00  0.00000000000E+00  0.13424770856E+04  0.13424770856E+04  0.50400001928E-02 0.  1.
       -1   -1    0    0    0  501  0.00000000000E+00  0.00000000000E+00 -0.11794144041E+04  0.11794144041E+04  0.50400001928E-02 0. -1.
    10030    2    1    2    0    0  0.00000000000E+00  0.00000000000E+00  0.16306268151E+03  0.25218914897E+04  0.25166142429E+04 0.  0.
        2    1    3    3  502    0 -0.46105658216E+03 -0.62093291048E+03 -0.91312547120E+03  0.11966323485E+04  0.25500000920E-02 0. -1.
       -2    1    3    3    0  502  0.46105658216E+03  0.62093291048E+03  0.10761881527E+04  0.13252591412E+04  0.25500000920E-02 0.  1.
</event>
<event>
 5   0  0.1502886E-05  0.2523080E+04  0.7818609E-02  0.8394809E-01
        1   -1    0    0  501    0  0.00000000000E+00  0.00000000000E+00  0.28656091351E+04  0.28656091351E+04  0.50400001928E-02 0. -1.
       -1   -1    0    0    0  501  0.00000000000E+00  0.00000000000E+00 -0.55537347788E+03  0.55537347790E+03  0.50400001928E-02 0.  1.
    10030    2    1    2    0    0  0.00000000000E+00  0.00000000000E+00  0.23102356573E+04  0.34209826130E+04  0.25230801110E+04 0.  0.
        4    1    3    3  502    0  0.98999291071E+02 -0.62660242758E+03  0.26336130618E+04  0.27089390606E+04  0.12699999809E+01 0. -1.
       -4    1    3    3    0  502 -0.98999291071E+02  0.62660242758E+03 -0.32337740455E+03  0.71204355243E+03  0.12699999809E+01 0.  1.
</event>
<event>
 5   0  0.3579097E-05  0.2456947E+04  0.7818609E-02  0.8418486E-01
       -2   -1    0    0    0  501  0.00000000000E+00  0.00000000000E+00  0.91159319206E+03  0.91159319206E+03  0.25500000920E-02 0. -1.
        2   -1    0    0  501    0  0.00000000000E+00  0.00000000000E+00 -0.16555054794E+04  0.16555054794E+04  0.25500000920E-02 0.  1.
    10030    2    1    2    0    0  0.00000000000E+00  0.00000000000E+00 -0.74391228736E+03  0.25670986715E+04  0.24569473128E+04 0.  0.
        5    1    3    3  502    0 -0.85244606287E+03  0.70150265868E+03 -0.93496016368E+03  0.14467006836E+04  0.46999998093E+01 0.  1.
       -5    1    3    3    0  502  0.85244606287E+03 -0.70150265868E+03  0.19104787632E+03  0.11203979879E+04  0.46999998093E+01 0. -1.
</event>
<event>
 5   0  0.1456876E-05  0.2491655E+04  0.7818609E-02  0.8405964E-01
        1   -1    0    0  501    0  0.00000000000E+00  0.00000000000E+00  0.13623650173E+04  0.13623650173E+04  0.50400001928E-02 0.  1.
       -1   -1    0    0    0  501  0.00000000000E+00  0.00000000000E+00 -0.11392589453E+04  0.11392589453E+04  0.50400001928E-02 0. -1.
    10030    2    1    2    0    0  0.00000000000E+00  0.00000000000E+00  0.22310607198E+03  0.25016239626E+04  0.24916552994E+04 0.  0.
        1    1    3    3  502    0 -0.11624061799E+04 -0.40532254584E+03 -0.80555219808E+02  0.12336789034E+04  0.50400001928E-02 0. -1.
       -1    1    3    3    0  502  0.11624061799E+04  0.40532254584E+03  0.30366129179E+03  0.12679450593E+04  0.50400001928E-02 0.  1.
</event>
<event>
 5   0  0.1502886E-05  0.2503932E+04  0.7818609E-02  0.8401586E-01
       -1   -1    0    0    0  501  0.00000000000E+00  0.00000000000E+00  0.13520555458E+04  0.13520555458E+04  0.50400001928E-02 0. -1.
        1   -1    0    0  501    0  0.00000000000E+00  0.00000000000E+00 -0.11592858806E+04  0.11592858806E+04  0.50400001928E-02 0.  1.
    10030    2    1    2    0    0  0.00000000000E+00  0.00000000000E+00  0.19276966516E+03  0.25113414265E+04  0.25039320311E+04 0.  0.
        4    1    3    3  502    0 -0.64289327502E+03 -0.49845256622E+03  0.10508576326E+04  0.13289357023E+04  0.12699999809E+01 0. -1.
       -4    1    3    3    0  502  0.64289327502E+03  0.49845256622E+03 -0.85808796744E+03  0.11824057242E+04  0.12699999809E+01 0.  1.
</event>
<event>
 5   0  0.1492639E-05  0.2461517E+04  0.7818609E-02  0.8416825E-01
       -1   -1    0    0    0  501  0.00000000000E+00  0.00000000000E+00  0.13543749686E+04  0.13543749686E+04  0.50400001928E-02 0. -1.
        1   -1    0    0  501    0  0.00000000000E+00  0.00000000000E+00 -0.11184243956E+04  0.11184243956E+04  0.50400001928E-02 0.  1.
    10030    2    1    2    0    0  0.00000000000E+00  0.00000000000E+00  0.23595057298E+03  0.24727993643E+04  0.24615166103E+04 0.  0.
        5    1    3    3  502    0 -0.10456673257E+04  0.65820569126E+02  0.76668390111E+03  0.12982984239E+04  0.46999998093E+01 0. -1.
       -5    1    3    3    0  502  0.10456673257E+04 -0.65820569126E+02 -0.53073332812E+03  0.11745009404E+04  0.46999998093E+01 0.  1.
</event>
<event>
 5   0  0.3578670E-05  0.2496031E+04  0.7818609E-02  0.8404401E-01
        2   -1    0    0  501    0  0.00000000000E+00  0.00000000000E+00  0.73056019753E+03  0.73056019754E+03  0.25500000920E-02 0. -1.
       -2   -1    0    0    0  501  0.00000000000E+00  0.00000000000E+00 -0.21319835390E+04  0.21319835390E+04  0.25500000920E-02 0.  1.
    10030    2    1    2    0    0  0.00000000000E+00  0.00000000000E+00 -0.14014233415E+04  0.28625437365E+04  0.24960307012E+04 0.  0.
        4    1    3    3  502    0  0.33296989188E+03  0.22729539459E+03  0.65382461609E+03  0.76812784536E+03  0.12699999809E+01 0. -1.
       -4    1    3    3    0  502 -0.33296989188E+03 -0.22729539459E+03 -0.20552479575E+04  0.20944158912E+04  0.12699999809E+01 0.  1.
</event>
<event>
 5   0  0.1456876E-05  0.2526703E+04  0.7818609E-02  0.8393534E-01
       -1   -1    0    0    0  501  0.00000000000E+00  0.00000000000E+00  0.11859355158E+04  0.11859355158E+04  0.50400001928E-02 0. -1.
        1   -1    0    0  501    0  0.00000000000E+00  0.00000000000E+00 -0.13458207237E+04  0.13458207237E+04  0.50400001928E-02 0.  1.
    10030    2    1    2    0    0  0.00000000000E+00  0.00000000000E+00 -0.15988520792E+03  0.25317562395E+04  0.25267026688E+04 0.  0.
        1    1    3    3  502    0  0.28804680104E+03  0.28395850839E+03  0.11193025463E+04  0.11901435142E+04  0.50400001928E-02 0. -1.
       -1    1    3    3    0  502 -0.28804680104E+03 -0.28395850839E+03 -0.12791877543E+04  0.13416127253E+04  0.50400001928E-02 0.  1.
</event>
<event>
 5   0  0.3704241E-05  0.2506908E+04  0.7818609E-02  0.8400529E-01
        2   -1    0    0  501    0  0.00000000000E+00  0.00000000000E+00  0.14071960142E+04  0.14071960142E+04  0.25500000920E-02 0.  1.
       -2   -1    0    0    0  501  0.00000000000E+00  0.00000000000E+00 -0.11165086188E+04  0.11165086188E+04  0.25500000920E-02 0. -1.
    10030    2    1    2    0    0  0.00000000000E+00  0.00000000000E+00  0.29068739537E+03  0.25237046330E+04  0.25069076394E+04 0.  0.
        2    1    3    3  502    0 -0.10245372140E+04  0.33507389717E+03  0.78931363550E+03  0.13360265845E+04  0.25500000920E-02 0.  1.
       -2    1    3    3    0  502  0.10245372140E+04 -0.33507389717E+03 -0.49862624013E+03  0.11876780484E+04  0.25500000920E-02 0. -1.
</event>
<event>
 5   0  0.3579097E-05  0.2536185E+04  0.7818609E-02  0.8390207E-01
        2   -1    0    0  501    0  0.00000000000E+00  0.00000000000E+00  0.19610201412E+04  0.19610201412E+04  0.25500000920E-02 0.  1.
       -2   -1    0    0    0  501  0.00000000000E+00  0.00000000000E+00 -0.82001154789E+03  0.82001154789E+03  0.25500000920E-02 0. -1.
    10030    2    1    2    0    0  0.00000000000E+00  0.00000000000E+00  0.11410085933E+04  0.27810316890E+04  0.25361854517E+04 0.  0.
        5    1    3    3  502    0 -0.67657049023E+03 -0.10056006504E+04  0.16160062798E+03  0.12227498311E+04  0.46999998093E+01 0. -1.
       -5    1    3    3    0  502  0.67657049023E+03  0.10056006504E+04  0.97940796529E+03  0.15582818580E+04  0.46999998093E+01 0.  1.
</event>
<event>
 5   0  0.1421242E-05  0.2446155E+04  0.7818609E-02  0.8422423E-01
        1   -1    0    0  501    0  0.00000000000E+00  0.00000000000E+00  0.21794491739E+04  0.21794491739E+04  0.50400001928E-02 0. -1.
       -1   -1    0    0    0  501  0.00000000000E+00  0.00000000000E+00 -0.68637449721E+03  0.68637449722E+03  0.50400001928E-02 0.  1.
    10030    2    1    2    0    0  0.00000000000E+00  0.00000000000E+00  0.14930746767E+04  0.28658236711E+04  0.24461548037E+04 0.  0.
        3    1    3    3  502    0 -0.69756769026E+03  0.94973932117E+03  0.36274931950E+03  0.12329608833E+04  0.10100000352E+00 0.  1.
       -3    1    3    3    0  502  0.69756769026E+03 -0.94973932117E+03  0.11303253572E+04  0.16328627879E+04  0.10100000352E+00 0. -1.
</event>
<event>
 5   0  0.1492639E-05  0.2510491E+04  0.7818609E-02  0.8399258E-01
       -1   -1    0    0    0  501  0.00000000000E+00  0.00000000000E+00  0.22363289926E+04  0.22363289926E+04  0.50400001928E-02 0. -1.
        1   -1    0    0  501    0  0.00000000000E+00  0.00000000000E+00 -0.70456594532E+03  0.70456594534E+03  0.50400001928E-02 0.  1.
    10030    2    1    2    0    0  0.00000000000E+00  0.00000000000E+00  0.15317630473E+04  0.29408949380E+04  0.25104909885E+04 0.  0.
        5    1    3    3  502    0  0.11141828352E+04  0.57295025073E+03  0.85619493216E+03  0.15174871439E+04  0.46999998093E+01 0.  1.
       -5    1    3    3    0  502 -0.11141828352E+04 -0.57295025073E+03  0.67556811515E+03  0.14234077941E+04  0.46999998093E+01 0. -1.
</event>
<event>
 5   0  0.3704241E-05  0.2495590E+04  0.7818609E-02  0.8404558E-01
       -2   -1    0    0    0  501  0.00000000000E+00  0.00000000000E+00  0.10172839469E+04  0.10172839469E+04  0.25500000920E-02 0. -1.
        2   -1    0    0  501    0  0.00000000000E+00  0.00000000000E+00 -0.15305382333E+04  0.15305382333E+04  0.25500000920E-02 0.  1.
    10030    2    1    2    0    0  0.00000000000E+00  0.00000000000E+00 -0.51325428638E+03  0.25478221803E+04  0.24955896898E+04 0.  0.
        2    1    3    3  502    0  0.15953040598E+03  0.56590487252E+03  0.86699596059E+03  0.10475591968E+04  0.25500000920E-02 0. -1.
       -2    1    3    3    0  502 -0.15953040598E+03 -0.56590487252E+03 -0.13802502470E+04  0.15002629834E+04  0.25500000920E-02 0.  1.
</event>
<event>
 5   0  0.1502886E-05  0.2495407E+04  0.7818609E-02  0.8404624E-01
       -1   -1    0    0    0  501  0.00000000000E+00  0.00000000000E+00  0.13344607136E+04  0.13344607137E+04  0.50400001928E-02 0.  1.
        1   -1    0    0  501    0  0.00000000000E+00  0.00000000000E+00 -0.11665868354E+04  0.11665868354E+04  0.50400001928E-02 0. -1.
    10030    2    1    2    0    0  0.00000000000E+00  0.00000000000E+00  0.16787387825E+03  0.25010475491E+04  0.24954072220E+04 0.  0.
        4    1    3    3  502    0  0.12824347069E+03 -0.91265868174E+03 -0.75901724692E+03  0.11939434874E+04  0.12699999809E+01 0. -1.
       -4    1    3    3    0  502 -0.12824347069E+03  0.91265868174E+03  0.92689112518E+03  0.13071040616E+04  0.12699999809E+01 0.  1.
</event>
<event>
 5   0  0.3650620E-05  0.2455546E+04  0.7818609E-02  0.8418996E-01
       -2   -1    0    0    0  501  0.00000000000E+00  0.00000000000E+00  0.81554903096E+03  0.81554903096E+03  0.25500000920E-02 0. -1.
        2   -1    0    0  501    0  0.00000000000E+00  0.00000000000E+00 -0.18483583627E+04  0.18483583627E+04  0.25500000920E-02 0.  1.
    10030    2    1    2    0    0  0.00000000000E+00  0.00000000000E+00 -0.10328093317E+04  0.26639073937E+04  0.24555462704E+04 0.  0.
        3    1    3    3  502    0 -0.55086185234E+03 -0.41453974877E+03 -0.16185509179E+04  0.17592609436E+04  0.10100000352E+00 0.  1.
       -3    1    3    3    0  502  0.55086185234E+03  0.41453974877E+03  0.58574158614E+03  0.90464645006E+03  0.10100000352E+00 0. -1.
</event>
<event>
 5   0  0.3579097E-05  0.2491198E+04  0.7818609E-02  0.8406128E-01
        2   -1    0    0  501    0  0.00000000000E+00  0.00000000000E+00  0.10553134753E+04  0.10553134753E+04  0.25500000920E-02 0. -1.
       -2   -1    0    0    0  501  0.00000000000E+00  0.00000000000E+00 -0.14701951011E+04  0.14701951011E+04  0.25500000920E-02 0.  1.
    10030    2    1    2    0    0  0.00000000000E+00  0.00000000000E+00 -0.41488162589E+03  0.25255085764E+04  0.24911978657E+04 0.  0.
        5    1    3    3  502    0  0.67717417681E+03  0.94860766111E+03 -0.65289359870E+03  0.13359316980E+04  0.46999998093E+01 0.  1.
       -5    1    3    3    0  502 -0.67717417681E+03 -0.94860766111E+03  0.23801197281E+03  0.11895768784E+04  0.46999998093E+01 0. -1.
</event>
<event>
 5   0  0.3581449E-05  0.2527300E+04  0.7818609E-02  0.8393324E-01
        2   -1    0    0  501    0  0.00000000000E+00  0.00000000000E+00  0.84112996173E+03  0.84112996173E+03  0.25500000920E-02 0.  1.
       -2   -1    0    0    0  501  0.00000000000E+00  0.00000000000E+00 -0.18984120251E+04  0.18984120251E+04  0.25500000920E-02 0. -1.
    10030    2    1    2    0    0  0.00000000000E+00  0.00000000000E+00 -0.10572820634E+04  0.27395419868E+04  0.25272999300E+04 0.  0.
        1    1    3    3  502    0  0.98019300589E+02 -0.85312154285E+03  0.47624217079E+03  0.98195252198E+03  0.50400001928E-02 0.  1.
       -1    1    3    3    0  502 -0.98019300589E+02  0.85312154285E+03 -0.15335242342E+04  0.17575894649E+04  0.50400001928E-02 0. -1.
</event>
<event>
 5   0  0.1456876E-05  0.2495995E+04  0.7818609E-02  0.8404414E-01
       -1   -1    0    0    0  501  0.00000000000E+00  0.00000000000E+00  0.24786885699E+04  0.24786885699E+04  0.50400001928E-02 0. -1.
        1   -1    0    0  501    0  0.00000000000E+00  0.00000000000E+00 -0.62835550748E+03  0.62835550750E+03  0.50400001928E-02 0.  1.
    10030    2    1    2    0    0  0.00000000000E+00  0.00000000000E+00  0.18503330624E+04  0.31070440774E+04  0.24959948832E+04 0.  0.
        1    1    3    3  502    0 -0.44716519992E+03 -0.44384204011E+03 -0.41585188647E+03  0.75490745400E+03  0.50400001928E-02 0.  1.
       -1    1    3    3    0  502  0.44716519992E+03  0.44384204011E+03  0.22661849488E+04  0.23521366234E+04  0.50400001928E-02 0. -1.
</event>
<event>
 5   0  0.3581449E-05  0.2531652E+04  0.7818609E-02  0.8391795E-01
       -2   -1    0    0    0  501  0.00000000000E+00  0.00000000000E+00  0.10345113577E+04  0.10345113577E+04  0.25500000920E-02 0.  1.
        2   -1    0    0  501    0  0.00000000000E+00  0.00000000000E+00 -0.15488619003E+04  0.15488619003E+04  0.25500000920E-02 0. -1.
    10030    2    1    2    0    0  0.00000000000E+00  0.00000000000E+00 -0.51435054261E+03  0.25833732580E+04  0.25316518144E+04 0.  0.
        1    1    3    3  502    0  0.63389848897E+03  0.21479857454E+03 -0.13535318945E+04  0.15099716261E+04  0.50400001928E-02 0. -1.
       -1    1    3    3    0  502 -0.63389848897E+03 -0.21479857454E+03  0.83918135192E+03  0.10734016319E+04  0.50400001928E-02 0.  1.
</event>
<event>
 5   0  0.1456876E-05  0.2534272E+04  0.7818609E-02  0.8390877E-01
       -1   -1    0    0    0  501  0.00000000000E+00  0.00000000000E+00  0.11385792768E+04  0.11385792768E+04  0.50400001928E-02 0.  1.
        1   -1    0    0  501    0  0.00000000000E+00  0.00000000000E+00 -0.14102081975E+04  0.14102081975E+04  0.50400001928E-02 0. -1.
    10030    2    1    2    0    0  0.00000000000E+00  0.00000000000E+00 -0.27162892072E+03  0.25487874743E+04  0.25342721477E+04 0.  0.
        1    1    3    3  502    0  0.65491697860E+03 -0.10546404547E+04  0.11951181738E+03  0.12471831510E+04  0.50400001928E-02 0.  1.
       -1    1    3    3    0  502 -0.65491697860E+03  0.10546404547E+04 -0.39114073810E+03  0.13016043234E+04  0.50400001928E-02 0. -1.
</event>
<event>
 5   0  0.3578670E-05  0.2510512E+04  0.7818609E-02  0.8399250E-01
       -2   -1    0    0    0  501  0.00000000000E+00  0.00000000000E+00  0.75073972832E+03  0.75073972833E+03  0.25500000920E-02 0.  1.
        2   -1    0    0  501    0  0.00000000000E+00  0.00000000000E+00 -0.20988196664E+04  0.20988196664E+04  0.25500000920E-02 0. -1.
    10030    2    1    2    0    0  0.00000000000E+00  0.00000000000E+00 -0.13480799381E+04  0.28495593947E+04  0.25105117456E+04 0.  0.
        4    1    3    3  502    0 -0.67248870143E+03  0.10583007648E+04 -0.74045870881E+03  0.14562013167E+04  0.12699999809E+01 0.  1.
       -4    1    3    3    0  502  0.67248870143E+03 -0.10583007648E+04 -0.60762122927E+03  0.13933580780E+04  0.12699999809E+01 0. -1.
</event>
<event>
 5   0  0.1456876E-05  0.2401203E+04  0.7818609E-02  0.8439053E-01
        1   -1    0    0  501    0  0.00000000000E+00  0.00000000000E+00  0.15135402960E+04  0.15135402960E+04  0.50400001928E-02 0. -1.
       -1   -1    0    0    0  501  0.00000000000E+00  0.00000000000E+00 -0.95236573854E+03  0.95236573855E+03  0.50400001928E-02 0.  1.
    10030    2    1    2    0    0  0.00000000000E+00  0.00000000000E+00  0.56117455744E+03  0.24659060345E+04  0.24012029667E+04 0.  0.
        1    1    3    3  502    0 -0.75771596994E+03  0.68636634398E+03 -0.36582751207E+03  0.10858462220E+04  0.50400001928E-02 0.  1.
       -1    1    3    3    0  502  0.75771596994E+03 -0.68636634398E+03  0.92700206951E+03  0.13800598125E+04  0.50400001928E-02 0. -1.
</event>
<event>
 5   0  0.3579097E-05  0.2484330E+04  0.7818609E-02  0.8408589E-01
        2   -1    0    0  501    0  0.00000000000E+00  0.00000000000E+00  0.17736282658E+04  0.17736282658E+04  0.25500000920E-02 0. -1.
       -2   -1    0    0    0  501  0.00000000000E+00  0.00000000000E+00 -0.86995320586E+03  0.86995320587E+03  0.25500000920E-02 0.  1.
    10030    2    1    2    0    0  0.00000000000E+00  0.00000000000E+00  0.90367505993E+03  0.26435814717E+04  0.24843297654E+04 0.  0.
        5    1    3    3  502    0 -0.59756295668E+03  0.60385732854E+03  0.14161435837E+04  0.16514266257E+04  0.46999998093E+01 0. -1.
       -5    1    3    3    0  502  0.59756295668E+03 -0.60385732854E+03 -0.51246852380E+03  0.99215484593E+03  0.46999998093E+01 0.  1.
</event>
<event>
 5   0  0.1201438E-05  0.2507867E+04  0.7818609E-02  0.8400188E-01
       -4   -1    0    0    0  501  0.00000000000E+00  0.00000000000E+00  0.15189039063E+04  0.15189044373E+04  0.12699999809E+01 0. -1.
        4   -1    0    0  501    0  0.00000000000E+00  0.00000000000E+00 -0.10351857770E+04  0.10351865561E+04  0.12699999809E+01 0.  1.
    10030    2    1    2    0    0  0.00000000000E+00  0.00000000000E+00  0.48371812929E+03  0.25540909933E+04  0.25078671364E+04 0.  0.
        2    1    3    3  502    0  0.19684002823E+03 -0.10276199599E+04 -0.46196527208E+03  0.11437485263E+04  0.25500000920E-02 0.  1.
       -2    1    3    3    0  502 -0.19684002823E+03  0.10276199599E+04  0.94568340137E+03  0.14103424671E+04  0.25500000920E-02 0. -1.
</event>
<event>
 5   0  0.3704241E-05  0.2618696E+04  0.7818609E-02  0.8361878E-01
        2   -1    0    0  501    0  0.00000000000E+00  0.00000000000E+00  0.16471783312E+04  0.16471783312E+04  0.25500000920E-02 0. -1.
       -2   -1    0    0    0  501  0.00000000000E+00  0.00000000000E+00 -0.10408053473E+04  0.10408053473E+04  0.25500000920E-02 0.  1.
    10030    2    1    2    0    0  0.00000000000E+00  0.00000000000E+00  0.60637298393E+03  0.26879836786E+04  0.26186958702E+04 0.  0.
        2    1    3    3  502    0 -0.94712499800E+03 -0.16067855436E+02  0.12310327076E+04  0.15533014727E+04  0.25500000920E-02 0. -1.
       -2    1    3    3    0  502  0.94712499800E+03  0.16067855436E+02 -0.62465972372E+03  0.11346822058E+04  0.25500000920E-02 0.  1.
</event>
<event>
 5   0  0.3704241E-05  0.2473708E+04  0.7818609E-02  0.8412413E-01
        2   -1    0    0  501    0  0.00000000000E+00  0.00000000000E+00  0.21307678537E+04  0.21307678537E+04  0.25500000920E-02 0. -1.
       -2   -1    0    0    0  501  0.00000000000E+00  0.00000000000E+00 -0.71796062758E+03  0.71796062759E+03  0.25500000920E-02 0.  1.
    10030    2    1    2    0    0  0.00000000000E+00  0.00000000000E+00  0.14128072261E+04  0.28487284813E+04  0.24737076832E+04 0.  0.
        2    1    3    3  502    0  0.50833665106E+03  0.92471346466E+03  0.14494384267E+04  0.17928672275E+04  0.25500000920E-02 0. -1.
       -2    1    3    3    0  502 -0.50833665106E+03 -0.92471346466E+03 -0.36631200539E+02  0.10558612539E+04  0.25500000920E-02 0.  1.
</event>
<event>
 5   0  0.3581449E-05  0.2623763E+04  0.7818609E-02  0.8360174E-01
        2   -1    0    0  501    0  0.00000000000E+00  0.00000000000E+00  0.19691761794E+04  0.19691761794E+04  0.25500000920E-02 0.  1.
       -2   -1    0    0    0  501  0.00000000000E+00  0.00000000000E+00 -0.87398651980E+03  0.87398651980E+03  0.25500000920E-02 0. -1.
    10030    2    1    2    0    0  0.00000000000E+00  0.00000000000E+00  0.10951896596E+04  0.28431626992E+04  0.26237632789E+04 0.  0.
        1    1    3    3  502    0  0.21055467911E+03 -0.15005640553E+03  0.19412934533E+04  0.19584357201E+04  0.50400001928E-02 0.  1.
       -1    1    3    3    0  502 -0.21055467911E+03  0.15005640553E+03 -0.84610379374E+03  0.88472697910E+03  0.50400001928E-02 0. -1.
</event>
<event>
 5   0  0.1492639E-05  0.2399824E+04  0.7818609E-02  0.8439570E-01
        1   -1    0    0  501    0  0.00000000000E+00  0.00000000000E+00  0.19783064381E+04  0.19783064381E+04  0.50400001928E-02 0. -1.
       -1   -1    0    0    0  501  0.00000000000E+00  0.00000000000E+00 -0.72778827957E+03  0.72778827959E+03  0.50400001928E-02 0.  1.
    10030    2    1    2    0    0  0.00000000000E+00  0.00000000000E+00  0.12505181586E+04  0.27060947177E+04  0.23998235261E+04 0.  0.
        5    1    3    3  502    0 -0.11867288268E+04  0.16021062624E+02  0.82438635710E+03  0.14450664132E+04  0.46999998093E+01 0. -1.
       -5    1    3    3    0  502  0.11867288268E+04 -0.16021062624E+02  0.42613180146E+03  0.12610283046E+04  0.46999998093E+01 0.  1.
</event>
<event>
 5   0  0.1421242E-05  0.2514854E+04  0.7818609E-02  0.8397713E-01
        1   -1    0    0  501    0  0.00000000000E+00  0.00000000000E+00  0.14744929737E+04  0.14744929738E+04  0.50400001928E-02 0.  1.
       -1   -1    0    0    0  501  0.00000000000E+00  0.00000000000E+00 -0.10723163953E+04  0.10723163953E+04  0.50400001928E-02 0. -1.
    10030    2    1    2    0    0  0.00000000000E+00  0.00000000000E+00  0.40217657844E+03  0.25468093691E+04  0.25148542626E+04 0.  0.
        3    1    3    3  502    0 -0.11058756161E+03 -0.55259861559E+03 -0.93726240283E+03  0.10936432968E+04  0.10100000352E+00 0. -1.
       -3    1    3    3    0  502  0.11058756161E+03  0.55259861559E+03  0.13394389813E+04  0.14531660722E+04  0.10100000352E+00 0.  1.
</event>
<event>
 5   0  0.3650620E-05  0.2552348E+04  0.7818609E-02  0.8384570E-01
        2   -1    0    0  501    0  0.00000000000E+00  0.00000000000E+00  0.10260597981E+04  0.10260597981E+04  0.25500000920E-02 0. -1.
       -2   -1    0    0    0  501  0.00000000000E+00  0.00000000000E+00 -0.15872563088E+04  0.15872563088E+04  0.25500000920E-02 0.  1.
    10030    2    1    2    0    0  0.00000000000E+00  0.00000000000E+00 -0.56119651069E+03  0.26133161069E+04  0.25523478507E+04 0.  0.
        3    1    3    3  502    0  0.84133329136E+03 -0.30951727224E+03  0.64938057630E+03  0.11069497694E+04  0.10100000352E+00 0. -1.
       -3    1    3    3    0  502 -0.84133329136E+03  0.30951727224E+03 -0.12105770870E+04  0.15063663375E+04  0.10100000352E+00 0.  1.
</event>
<event>
 5   0  0.1456876E-05  0.2500389E+04  0.7818609E-02  0.8402847E-01
        1   -1    0    0  501    0  0.00000000000E+00  0.00000000000E+00  0.18007410763E+04  0.18007410763E+04  0.50400001928E-02 0. -1.
       -1   -1    0    0    0  501  0.00000000000E+00  0.00000000000E+00 -0.86796870549E+03  0.86796870551E+03  0.50400001928E-02 0.  1.
    10030    2    1    2    0    0  0.00000000000E+00  0.00000000000E+00  0.93277237081E+03  0.26687097818E+04  0.25003894904E+04 0.  0.
        1    1    3    3  502    0  0.46668544785E+03 -0.10872037590E+04  0.35237974457E+02  0.11836591721E+04  0.50400001928E-02 0. -1.
       -1    1    3    3    0  502 -0.46668544785E+03  0.10872037590E+04  0.89753439636E+03  0.14850506097E+04  0.50400001928E-02 0.  1.
</event>
<event>
 5   0  0.3704241E-05  0.2482305E+04  0.7818609E-02  0.8409317E-01
        2   -1    0    0  501    0  0.00000000000E+00  0.00000000000E+00  0.18265245091E+04  0.18265245091E+04  0.25500000920E-02 0.  1.
       -2   -1    0    0    0  501  0.00000000000E+00  0.00000000000E+00 -0.84338281912E+03  0.84338281913E+03  0.25500000920E-02 0. -1.
    10030    2    1    2    0    0  0.00000000000E+00  0.00000000000E+00  0.98314169000E+03  0.26699073283E+04  0.24823048884E+04 0.  0.
        2    1    3    3  502    0 -0.30443718517E+03  0.97316327588E+03 -0.26953164597E+03  0.10546924051E+04  0.25500000920E-02 0. -1.
       -2    1    3    3    0  502  0.30443718517E+03 -0.97316327588E+03  0.12526733360E+04  0.16152149231E+04  0.25500000920E-02 0.  1.
</event>
<event>
 5   0  0.1502886E-05  0.2508087E+04  0.7818609E-02  0.8400110E-01
       -1   -1    0    0    0  501  0.00000000000E+00  0.00000000000E+00  0.92255920259E+03  0.92255920261E+03  0.50400001928E-02 0.  1.
        1   -1    0    0  501    0  0.00000000000E+00  0.00000000000E+00 -0.17046334094E+04  0.17046334094E+04  0.50400001928E-02 0. -1.
    10030    2    1    2    0    0  0.00000000000E+00  0.00000000000E+00 -0.78207420681E+03  0.26271926120E+04  0.25080871109E+04 0.  0.
        4    1    3    3  502    0 -0.23647925556E+03 -0.54166025078E+03  0.76751811365E+03  0.96871251322E+03  0.12699999809E+01 0.  1.
       -4    1    3    3    0  502  0.23647925556E+03  0.54166025078E+03 -0.15495923205E+04  0.16584800988E+04  0.12699999809E+01 0. -1.
</event>
<event>
 5   0  0.1456876E-05  0.2514217E+04  0.7818609E-02  0.8397938E-01
        1   -1    0    0  501    0  0.00000000000E+00  0.00000000000E+00  0.13217425235E+04  0.13217425235E+04  0.50400001928E-02 0.  1.
       -1   -1    0    0    0  501  0.00000000000E+00  0.00000000000E+00 -0.11956349823E+04  0.11956349823E+04  0.50400001928E-02 0. -1.
    10030    2    1    2    0    0  0.00000000000E+00  0.00000000000E+00  0.12610754120E+03  0.25173775058E+04  0.25142168551E+04 0.  0.
        1    1    3    3  502    0 -0.77996914288E+01 -0.63734555062E+03 -0.10218448858E+04  0.12043409637E+04  0.50400001928E-02 0. -1.
       -1    1    3    3    0  502  0.77996914288E+01  0.63734555062E+03  0.11479524270E+04  0.13130365421E+04  0.50400001928E-02 0.  1.
</event>
<event>
 5   0  0.1429483E-05  0.2493381E+04  0.7818609E-02  0.8405347E-01
       -1   -1    0    0    0  501  0.00000000000E+00  0.00000000000E+00  0.67724958614E+03  0.67724958616E+03  0.50400001928E-02 0.  1.
        1   -1    0    0  501    0  0.00000000000E+00  0.00000000000E+00 -0.22949252682E+04  0.22949252682E+04  0.50400001928E-02 0. -1.
    10030    2    1    2    0    0  0.00000000000E+00  0.00000000000E+00 -0.16176756820E+04  0.29721748543E+04  0.24933809882E+04 0.  0.
        2    1    3    3  502    0 -0.67667462399E+02  0.60206630557E+03 -0.21076399510E+04  0.21929908538E+04  0.25500000920E-02 0. -1.
       -2    1    3    3    0  502  0.67667462399E+02 -0.60206630557E+03  0.48996426899E+03  0.77918400052E+03  0.25500000920E-02 0.  1.
</event>
<event>
 5   0  0.1492639E-05  0.2490893E+04  0.7818609E-02  0.8406237E-01
       -1   -1    0    0    0  501  0.00000000000E+00  0.00000000000E+00  0.11689848244E+04  0.11689848244E+04  0.50400001928E-02 0.  1.
        1   -1    0    0  501    0  0.00000000000E+00  0.00000000000E+00 -0.13269094700E+04  0.13269094700E+04  0.50400001928E-02 0. -1.
    10030    2    1    2    0    0  0.00000000000E+00  0.00000000000E+00 -0.15792464563E+03  0.24958942944E+04  0.24908930397E+04 0.  0.
        5    1    3    3  502    0 -0.82629457929E+03  0.79644314647E+03  0.40577600904E+03  0.12172759247E+04  0.46999998093E+01 0.  1.
       -5    1    3    3    0  502  0.82629457929E+03 -0.79644314647E+03 -0.56370065467E+03  0.12786183697E+04  0.46999998093E+01 0. -1.
</event>
<event>
 5   0  0.3578670E-05  0.2499374E+04  0.7818609E-02  0.8403208E-01
       -2   -1    0    0    0  501  0.00000000000E+00  0.00000000000E+00  0.55762039098E+03  0.55762039099E+03  0.25500000920E-02 0. -1.
        2   -1    0    0  501    0  0.00000000000E+00  0.00000000000E+00 -0.28006834664E+04  0.28006834664E+04  0.25500000920E-02 0.  1.
    10030    2    1    2    0    0  0.00000000000E+00  0.00000000000E+00 -0.22430630755E+04  0.33583038574E+04  0.24993744894E+04 0.  0.
        4    1    3    3  502    0  0.49303246656E+03 -0.98915481162E+01  0.42135836963E+03  0.64863190205E+03  0.12699999809E+01 0. -1.
       -4    1    3    3    0  502 -0.49303246656E+03  0.98915481162E+01 -0.26644214451E+04  0.27096719554E+04  0.12699999809E+01 0.  1.
</event>
<event>
 5   0  0.3578670E-05  0.2527411E+04  0.7818609E-02  0.8393285E-01
        2   -1    0    0  501    0  0.00000000000E+00  0.00000000000E+00  0.11452503619E+04  0.11452503619E+04  0.25500000920E-02 0. -1.
       -2   -1    0    0    0  501  0.00000000000E+00  0.00000000000E+00 -0.13944130715E+04  0.13944130715E+04  0.25500000920E-02 0.  1.
    10030    2    1    2    0    0  0.00000000000E+00  0.00000000000E+00 -0.24916270953E+03  0.25396634334E+04  0.25274113830E+04 0.  0.
        4    1    3    3  502    0  0.14700231338E+03  0.11387813402E+04  0.40572488693E+03  0.12178041376E+04  0.12699999809E+01 0. -1.
       -4    1    3    3    0  502 -0.14700231338E+03 -0.11387813402E+04 -0.65488759646E+03  0.13218592958E+04  0.12699999809E+01 0.  1.
</event>
<event>
 5   0  0.1429483E-05  0.2413914E+04  0.7818609E-02  0.8434313E-01
        1   -1    0    0  501    0  0.00000000000E+00  0.00000000000E+00  0.15266791945E+04  0.15266791945E+04  0.50400001928E-02 0. -1.
       -1   -1    0    0    0  501  0.00000000000E+00  0.00000000000E+00 -0.95419186884E+03  0.95419186886E+03  0.50400001928E-02 0.  1.
    10030    2    1    2    0    0  0.00000000000E+00  0.00000000000E+00  0.57248732562E+03  0.24808710633E+04  0.24139137298E+04 0.  0.
        2    1    3    3  502    0  0.83189271561E+03  0.94173737320E+02  0.11797439777E+04  0.14466202114E+04  0.25500000920E-02 0. -1.
       -2    1    3    3    0  502 -0.83189271561E+03 -0.94173737320E+02 -0.60725665212E+03  0.10342508519E+04  0.25500000920E-02 0.  1.
</event>
<event>
 5   0  0.3578670E-05  0.2513342E+04  0.7818609E-02  0.8398248E-01
        2   -1    0    0  501    0  0.00000000000E+00  0.00000000000E+00  0.10580902122E+04  0.10580902122E+04  0.25500000920E-02 0. -1.
       -2   -1    0    0    0  501  0.00000000000E+00  0.00000000000E+00 -0.14925215265E+04  0.14925215265E+04  0.25500000920E-02 0.  1.
    10030    2    1    2    0    0  0.00000000000E+00  0.00000000000E+00 -0.43443131425E+03  0.25506117387E+04  0.25133423314E+04 0.  0.
        4    1    3    3  502    0  0.82274163613E+03  0.85291113906E+03  0.20714727556E+03  0.12030265241E+04  0.12699999809E+01 0.  1.
       -4    1    3    3    0  502 -0.82274163613E+03 -0.85291113906E+03 -0.64157858981E+03  0.13475852147E+04  0.12699999809E+01 0. -1.
</event>
<event>
 5   0  0.3581449E-05  0.2493332E+04  0.7818609E-02  0.8405365E-01
        2   -1    0    0  501    0  0.00000000000E+00  0.00000000000E+00  0.14625973627E+04  0.14625973627E+04  0.25500000920E-02 0. -1.
       -2   -1    0    0    0  501  0.00000000000E+00  0.00000000000E+00 -0.10626139690E+04  0.10626139690E+04  0.25500000920E-02 0.  1.
    10030    2    1    2    0    0  0.00000000000E+00  0.00000000000E+00  0.39998339371E+03  0.25252113317E+04  0.24933322190E+04 0.  0.
        1    1    3    3  502    0  0.10620444662E+04 -0.36327579694E+03 -0.34940945861E+03  0.11755827162E+04  0.50400001928E-02 0.  1.
       -1    1    3    3    0  502 -0.10620444662E+04  0.36327579694E+03  0.74939285232E+03  0.13496286155E+04  0.50400001928E-02 0. -1.
</event>
<event>
 5   0  0.3578670E-05  0.2512732E+04  0.7818609E-02  0.8398464E-01
        2   -1    0    0  501    0  0.00000000000E+00  0.00000000000E+00  0.20441290346E+04  0.20441290346E+04  0.25500000920E-02 0.  1.
       -2   -1    0    0    0  501  0.00000000000E+00  0.00000000000E+00 -0.77218947820E+03  0.77218947820E+03  0.25500000920E-02 0. -1.
    10030    2    1    2    0    0  0.00000000000E+00  0.00000000000E+00  0.12719395564E+04  0.28163185128E+04  0.25127315277E+04 0.  0.
        4    1    3    3  502    0  0.42187628829E+03  0.82024188902E+03 -0.32013390967E+03  0.97635223774E+03  0.12699999809E+01 0. -1.
       -4    1    3    3    0  502 -0.42187628829E+03 -0.82024188902E+03  0.15920734661E+04  0.18399662751E+04  0.12699999809E+01 0.  1.
</event>
<event>
 5   0  0.1492639E-05  0.2528612E+04  0.7818609E-02  0.8392863E-01
       -1   -1    0    0    0  501  0.00000000000E+00  0.00000000000E+00  0.14253557638E+04  0.14253557638E+04  0.50400001928E-02 0.  1.
        1   -1    0    0  501    0  0.00000000000E+00  0.00000000000E+00 -0.11214534365E+04  0.11214534365E+04  0.50400001928E-02 0. -1.
    10030    2    1    2    0    0  0.00000000000E+00  0.00000000000E+00  0.30390232730E+03  0.25468092002E+04  0.25286123621E+04 0.  0.
        5    1    3    3  502    0 -0.54330504212E+03  0.10566410458E+04 -0.28333641127E+03  0.12214631720E+04  0.46999998093E+01 0.  1.
       -5    1    3    3    0  502  0.54330504212E+03 -0.10566410458E+04  0.58723873857E+03  0.13253460283E+04  0.46999998093E+01 0. -1.
</event>
<event>
 5   0  0.3579097E-05  0.2500977E+04  0.7818609E-02  0.8402638E-01
       -2   -1    0    0    0  501  0.00000000000E+00  0.00000000000E+00  0.11423035267E+04  0.11423035267E+04  0.25500000920E-02 0.  1.
        2   -1    0    0  501    0  0.00000000000E+00  0.00000000000E+00 -0.13689195477E+04  0.13689195477E+04  0.25500000920E-02 0. -1.
    10030    2    1    2    0    0  0.00000000000E+00  0.00000000000E+00 -0.22661602100E+03  0.25112230744E+04  0.25009771108E+04 0.  0.
        5    1    3    3  502    0 -0.17379346427E+03  0.12807034957E+03  0.11234414488E+04  0.11440056650E+04  0.46999998093E+01 0.  1.
       -5    1    3    3    0  502  0.17379346427E+03 -0.12807034957E+03 -0.13500574698E+04  0.13672174094E+04  0.46999998093E+01 0. -1.
</event>
<event>
 5   0  0.1492639E-05  0.2443883E+04  0.7818609E-02  0.8423255E-01
       -1   -1    0    0    0  501  0.00000000000E+00  0.00000000000E+00  0.13896912322E+04  0.13896912322E+04  0.50400001928E-02 0. -1.
        1   -1    0    0  501    0  0.00000000000E+00  0.00000000000E+00 -0.10744408581E+04  0.10744408581E+04  0.50400001928E-02 0.  1.
    10030    2    1    2    0    0  0.00000000000E+00  0.00000000000E+00  0.31525037404E+03  0.24641320903E+04  0.24438830087E+04 0.  0.
        5    1    3    3  502    0 -0.65795611272E+02 -0.77225084778E+03 -0.79488111731E+03  0.11102065191E+04  0.46999998093E+01 0.  1.
       -5    1    3    3    0  502  0.65795611272E+02  0.77225084778E+03  0.11101314913E+04  0.13539255712E+04  0.46999998093E+01 0. -1.
</event>
<event>
 5   0  0.1421242E-05  0.2503790E+04  0.7818609E-02  0.8401637E-01
       -1   -1    0    0    0  501  0.00000000000E+00  0.00000000000E+00  0.85045217204E+03  0.85045217206E+03  0.50400001928E-02 0. -1.
        1   -1    0    0  501    0  0.00000000000E+00  0.00000000000E+00 -0.18428328416E+04  0.18428328416E+04  0.50400001928E-02 0.  1.
    10030    2    1    2    0    0  0.00000000000E+00  0.00000000000E+00 -0.99238066954E+03  0.26932850136E+04  0.25037900813E+04 0.  0.
        3    1    3    3  502    0 -0.10072121928E+04 -0.61155726235E+03 -0.41388084231E+02  0.11790638957E+04  0.10100000352E+00 0. -1.
       -3    1    3    3    0  502  0.10072121928E+04  0.61155726235E+03 -0.95099258530E+03  0.15142211179E+04  0.10100000352E+00 0.  1.
</event>
<event>
 5   0  0.3579097E-05  0.2406916E+04  0.7818609E-02  0.8436919E-01
       -2   -1    0    0    0  501  0.00000000000E+00  0.00000000000E+00  0.10904183659E+04  0.10904183659E+04  0.25500000920E-02 0. -1.
        2   -1    0    0  501    0  0.00000000000E+00  0.00000000000E+00 -0.13282155664E+04  0.13282155664E+04  0.25500000920E-02 0.  1.
    10030    2    1    2    0    0  0.00000000000E+00  0.00000000000E+00 -0.23779720044E+03  0.24186339323E+04  0.24069155760E+04 0.  0.
        5    1    3    3  502    0 -0.15316121832E-01 -0.68151353794E+03  0.87781145897E+03  0.11113216232E+04  0.46999998093E+01 0. -1.
       -5    1    3    3    0  502  0.15316121832E-01  0.68151353794E+03 -0.11156086594E+04  0.13073123091E+04  0.46999998093E+01 0.  1.
</event>
<event>
 5   0  0.1456876E-05  0.2487492E+04  0.7818609E-02  0.8407455E-01
       -1   -1    0    0    0  501  0.00000000000E+00  0.00000000000E+00  0.18053772802E+04  0.18053772802E+04  0.50400001928E-02 0. -1.
        1   -1    0    0  501    0  0.00000000000E+00  0.00000000000E+00 -0.85683117447E+03  0.85683117449E+03  0.50400001928E-02 0.  1.
    10030    2    1    2    0    0  0.00000000000E+00  0.00000000000E+00  0.94854610568E+03  0.26622084547E+04  0.24874915359E+04 0.  0.
        1    1    3    3  502    0 -0.12388565782E+04  0.75312856914E+02  0.56033170063E+03  0.13617669634E+04  0.50400001928E-02 0.  1.
       -1    1    3    3    0  502  0.12388565782E+04 -0.75312856914E+02  0.38821440505E+03  0.13004414913E+04  0.50400001928E-02 0. -1.
</event>
<event>
 5   0  0.1502886E-05  0.2552964E+04  0.7818609E-02  0.8384356E-01
        1   -1    0    0  501    0  0.00000000000E+00  0.00000000000E+00  0.13920033183E+04  0.13920033183E+04  0.50400001928E-02 0.  1.
       -1   -1    0    0    0  501  0.00000000000E+00  0.00000000000E+00 -0.11705472589E+04  0.11705472589E+04  0.50400001928E-02 0. -1.
    10030    2    1    2    0    0  0.00000000000E+00  0.00000000000E+00  0.22145605940E+03  0.25625505773E+04  0.25529635083E+04 0.  0.
        4    1    3    3  502    0 -0.89345944597E+03  0.74340116160E+03 -0.41897426164E+03  0.12354983260E+04  0.12699999809E+01 0.  1.
       -4    1    3    3    0  502  0.89345944597E+03 -0.74340116160E+03  0.64043032103E+03  0.13270522513E+04  0.12699999809E+01 0. -1.
</event>
<event>
 5   0  0.1492639E-05  0.2500305E+04  0.7818609E-02  0.8402877E-01
        1   -1    0    0  501    0  0.00000000000E+00  0.00000000000E+00  0.21277117132E+04  0.21277117132E+04  0.50400001928E-02 0. -1.
       -1   -1    0    0    0  501  0.00000000000E+00  0.00000000000E+00 -0.73453602481E+03  0.73453602483E+03  0.50400001928E-02 0.  1.
    10030    2    1    2    0    0  0.00000000000E+00  0.00000000000E+00  0.13931756884E+04  0.28622477380E+04  0.25003047044E+04 0.  0.
        5    1    3    3  502    0 -0.79064479837E+03 -0.32278907312E+03 -0.34856374469E+03  0.92240487695E+03  0.46999998093E+01 0.  1.
       -5    1    3    3    0  502  0.79064479837E+03  0.32278907312E+03  0.17417394331E+04  0.19398428610E+04  0.46999998093E+01 0. -1.
</event>
<event>
 5   0  0.1456876E-05  0.2498043E+04  0.7818609E-02  0.8403683E-01
       -1   -1    0    0    0  501  0.00000000000E+00  0.00000000000E+00  0.99985002502E+03  0.99985002503E+03  0.50400001928E-02 0. -1.
        1   -1    0    0  501    0  0.00000000000E+00  0.00000000000E+00 -0.15602883702E+04  0.15602883703E+04  0.50400001928E-02 0.  1.
    10030    2    1    2    0    0  0.00000000000E+00  0.00000000000E+00 -0.56043834523E+03  0.25601383953E+04  0.24980427267E+04 0.  0.
        1    1    3    3  502    0  0.62117976344E+03 -0.10538923104E+04 -0.53847735334E+03  0.13366043395E+04  0.50400001928E-02 0. -1.
       -1    1    3    3    0  502 -0.62117976344E+03  0.10538923104E+04 -0.21960991892E+02  0.12235340557E+04  0.50400001928E-02 0.  1.
</event>
<event>
 5   0  0.1456876E-05  0.2502370E+04  0.7818609E-02  0.8402142E-01
        1   -1    0    0  501    0  0.00000000000E+00  0.00000000000E+00  0.20630243918E+04  0.20630243918E+04  0.50400001928E-02 0.  1.
       -1   -1    0    0    0  501  0.00000000000E+00  0.00000000000E+00 -0.75881979205E+03  0.75881979206E+03  0.50400001928E-02 0. -1.
    10030    2    1    2    0    0  0.00000000000E+00  0.00000000000E+00  0.13042045998E+04  0.28218441839E+04  0.25023698688E+04 0.  0.
        1    1    3    3  502    0  0.91077068625E+02 -0.82845877310E+03 -0.40021549347E+03  0.92456011833E+03  0.50400001928E-02 0. -1.
       -1    1    3    3    0  502 -0.91077068625E+02  0.82845877310E+03  0.17044200933E+04  0.18972840656E+04  0.50400001928E-02 0.  1.
</event>
<event>
 5   0  0.3578670E-05  0.2534497E+04  0.7818609E-02  0.8390798E-01
        2   -1    0    0  501    0  0.00000000000E+00  0.00000000000E+00  0.11907621278E+04  0.11907621278E+04  0.25500000920E-02 0. -1.
       -2   -1    0    0    0  501  0.00000000000E+00  0.00000000000E+00 -0.13486483562E+04  0.13486483562E+04  0.25500000920E-02 0.  1.
    10030    2    1    2    0    0  0.00000000000E+00  0.00000000000E+00 -0.15788622834E+03  0.25394104840E+04  0.25344974936E+04 0.  0.
        4    1    3    3  502    0 -0.11245620977E+04 -0.51351288092E+03  0.20013295644E+03  0.12523538652E+04  0.12699999809E+01 0. -1.
       -4    1    3    3    0  502  0.11245620977E+04  0.51351288092E+03 -0.35801918478E+03  0.12870566188E+04  0.12699999809E+01 0.  1.
</event>
<event>
 5   0  0.1502886E-05  0.2345687E+04  0.7818609E-02  0.8460122E-01
       -1   -1    0    0    0  501  0.00000000000E+00  0.00000000000E+00  0.11156917583E+04  0.11156917583E+04  0.50400001928E-02 0.  1.
        1   -1    0    0  501    0  0.00000000000E+00  0.00000000000E+00 -0.12329227667E+04  0.12329227667E+04  0.50400001928E-02 0. -1.
    10030    2    1    2    0    0  0.00000000000E+00  0.00000000000E+00 -0.11723100847E+03  0.23486145250E+04  0.23456869096E+04 0.  0.
        4    1    3    3  502    0 -0.88105386269E+03  0.75004404357E+03 -0.25052679156E+03  0.11838865074E+04  0.12699999809E+01 0.  1.
       -4    1    3    3    0  502  0.88105386269E+03 -0.75004404357E+03  0.13329578309E+03  0.11647280176E+04  0.12699999809E+01 0. -1.
</event>
<event>
 5   0  0.1456876E-05  0.2331756E+04  0.7818609E-02  0.8465504E-01
        1   -1    0    0  501    0  0.00000000000E+00  0.00000000000E+00  0.12900481012E+04  0.12900481012E+04  0.50400001928E-02 0. -1.
       -1   -1    0    0    0  501  0.00000000000E+00  0.00000000000E+00 -0.10536598210E+04  0.10536598210E+04  0.50400001928E-02 0.  1.
    10030    2    1    2    0    0  0.00000000000E+00  0.00000000000E+00  0.23638828015E+03  0.23437079222E+04  0.23317562921E+04 0.  0.
        1    1    3    3  502    0 -0.17745711685E+03 -0.55993085412E+03  0.11304600414E+04  0.12739519202E+04  0.50400001928E-02 0. -1.
       -1    1    3    3    0  502  0.17745711685E+03  0.55993085412E+03 -0.89407176122E+03  0.10697560021E+04  0.50400001928E-02 0.  1.
</event>
<event>
 5   0  0.1421242E-05  0.1979781E+04  0.7818609E-02  0.8616133E-01
        1   -1    0    0  501    0  0.00000000000E+00  0.00000000000E+00  0.84201044843E+03  0.84201044845E+03  0.50400001928E-02 0.  1.
       -1   -1    0    0    0  501  0.00000000000E+00  0.00000000000E+00 -0.11637419794E+04  0.11637419794E+04  0.50400001928E-02 0. -1.
    10030    2    1    2    0    0  0.00000000000E+00  0.00000000000E+00 -0.32173153100E+03  0.20057524279E+04  0.19797807010E+04 0.  0.
        3    1    3    3  502    0 -0.33292753853E+03 -0.58590928275E+03 -0.89546572119E+03  0.11207092850E+04  0.10100000352E+00 0. -1.
       -3    1    3    3    0  502  0.33292753853E+03  0.58590928275E+03  0.57373419019E+03  0.88504314286E+03  0.10100000352E+00 0.  1.
</event>
<event>
 5   0  0.1492639E-05  0.2519178E+04  0.7818609E-02  0.8396185E-01
       -1   -1    0    0    0  501  0.00000000000E+00  0.00000000000E+00  0.17917384667E+04  0.17917384667E+04  0.50400001928E-02 0.  1.
        1   -1    0    0  501    0  0.00000000000E+00  0.00000000000E+00 -0.88548903446E+03  0.88548903447E+03  0.50400001928E-02 0. -1.
    10030    2    1    2    0    0  0.00000000000E+00  0.00000000000E+00  0.90624943222E+03  0.26772275012E+04  0.25191782509E+04 0.  0.
        5    1    3    3  502    0  0.29666545518E+03  0.73768898739E+03  0.14913212877E+04  0.16900463625E+04  0.46999998093E+01 0.  1.
       -5    1    3    3    0  502 -0.29666545518E+03 -0.73768898739E+03 -0.58507185547E+03  0.98718113863E+03  0.46999998093E+01 0. -1.
</event>
<event>
 5   0  0.3578670E-05  0.2691880E+04  0.7818609E-02  0.8337645E-01
        2   -1    0    0  501    0  0.00000000000E+00  0.00000000000E+00  0.14379052157E+04  0.14379052157E+04  0.25500000920E-02 0.  1.
       -2   -1    0    0    0  501  0.00000000000E+00  0.00000000000E+00 -0.12598564065E+04  0.12598564065E+04  0.25500000920E-02 0. -1.
    10030    2    1    2    0    0  0.00000000000E+00  0.00000000000E+00  0.17804880914E+03  0.26977616222E+04  0.26918797135E+04 0.  0.
        4    1    3    3  502    0  0.11349924882E+03  0.11701105080E+04  0.74582792945E+03  0.13922290019E+04  0.12699999809E+01 0.  1.
       -4    1    3    3    0  502 -0.11349924882E+03 -0.11701105080E+04 -0.56777912031E+03  0.13055326204E+04  0.12699999809E+01 0. -1.
</event>
<event>
 5   0  0.1429483E-05  0.2690259E+04  0.7818609E-02  0.8338173E-01
        1   -1    0    0  501    0  0.00000000000E+00  0.00000000000E+00  0.17508737675E+04  0.17508737675E+04  0.50400001928E-02 0. -1.
       -1   -1    0    0    0  501  0.00000000000E+00  0.00000000000E+00 -0.10334113847E+04  0.10334113847E+04  0.50400001928E-02 0.  1.
    10030    2    1    2    0    0  0.00000000000E+00  0.00000000000E+00  0.71746238279E+03  0.27842851522E+04  0.26902586378E+04 0.  0.
        2    1    3    3  502    0 -0.91703232239E+03 -0.66369703867E+03 -0.39325210777E+03  0.11983694171E+04  0.25500000920E-02 0.  1.
       -2    1    3    3    0  502  0.91703232239E+03  0.66369703867E+03  0.11107144906E+04  0.15859157352E+04  0.25500000920E-02 0. -1.
</event>
<event>
 5   0  0.1502886E-05  0.2500203E+04  0.7818609E-02  0.8402913E-01
        1   -1    0    0  501    0  0.00000000000E+00  0.00000000000E+00  0.15192130538E+04  0.15192130538E+04  0.50400001928E-02 0. -1.
       -1   -1    0    0    0  501  0.00000000000E+00  0.00000000000E+00 -0.10286601665E+04  0.10286601665E+04  0.50400001928E-02 0.  1.
    10030    2    1    2    0    0  0.00000000000E+00  0.00000000000E+00  0.49055288726E+03  0.25478732203E+04  0.25002031541E+04 0.  0.
        4    1    3    3  502    0  0.10077596854E+04 -0.73126425384E+03  0.35887080857E+03  0.12958074172E+04  0.12699999809E+01 0.  1.
       -4    1    3    3    0  502 -0.10077596854E+04  0.73126425384E+03  0.13168207869E+03  0.12520658031E+04  0.12699999809E+01 0. -1.
</event>
<event>
 5   0  0.3578670E-05  0.2538867E+04  0.7818609E-02  0.8389268E-01
       -2   -1    0    0    0  501  0.00000000000E+00  0.00000000000E+00  0.80475545224E+03  0.80475545224E+03  0.25500000920E-02 0. -1.
        2   -1    0    0  501    0  0.00000000000E+00  0.00000000000E+00 -0.20024239555E+04  0.20024239555E+04  0.25500000920E-02 0.  1.
    10030    2    1    2    0    0  0.00000000000E+00  0.00000000000E+00 -0.11976685033E+04  0.28071794078E+04  0.25388671457E+04 0.  0.
        4    1    3    3  502    0  0.30231067493E+03 -0.67285734153E+03 -0.17411332703E+04  0.18909456428E+04  0.12699999809E+01 0.  1.
       -4    1    3    3    0  502 -0.30231067493E+03  0.67285734153E+03  0.54346476699E+03  0.91623376498E+03  0.12699999809E+01 0. -1.
</event>
<event>
 5   0  0.3579097E-05  0.2573565E+04  0.7818609E-02  0.8377236E-01
        2   -1    0    0  501    0  0.00000000000E+00  0.00000000000E+00  0.15604243659E+04  0.15604243659E+04  0.25500000920E-02 0. -1.
       -2   -1    0    0    0  501  0.00000000000E+00  0.00000000000E+00 -0.10611272381E+04  0.10611272381E+04  0.25500000920E-02 0.  1.
    10030    2    1    2    0    0  0.00000000000E+00  0.00000000000E+00  0.49929712783E+03  0.26215516040E+04  0.25735646855E+04 0.  0.
        5    1    3    3  502    0 -0.78212098690E+03  0.31540179071E+03 -0.74037648975E+03  0.11222169863E+04  0.46999998093E+01 0.  1.
       -5    1    3    3    0  502  0.78212098690E+03 -0.31540179071E+03  0.12396736176E+04  0.14993346177E+04  0.46999998093E+01 0. -1.
</event>
<event>
 5   0  0.1502886E-05  0.2487056E+04  0.7818609E-02  0.8407611E-01
       -1   -1    0    0    0  501  0.00000000000E+00  0.00000000000E+00  0.14492171984E+04  0.14492171984E+04  0.50400001928E-02 0.  1.
        1   -1    0    0  501    0  0.00000000000E+00  0.00000000000E+00 -0.10670324858E+04  0.10670324858E+04  0.50400001928E-02 0. -1.
    10030    2    1    2    0    0  0.00000000000E+00  0.00000000000E+00  0.38218471261E+03  0.25162496842E+04  0.24870559540E+04 0.  0.
        4    1    3    3  502    0  0.19530478444E+02  0.18970663196E+03  0.14343331083E+04  0.14469565039E+04  0.12699999809E+01 0.  1.
       -4    1    3    3    0  502 -0.19530478444E+02 -0.18970663196E+03 -0.10521483957E+04  0.10692931802E+04  0.12699999809E+01 0. -1.
</event>
<event>
 5   0  0.3578670E-05  0.2495124E+04  0.7818609E-02  0.8404725E-01
       -2   -1    0    0    0  501  0.00000000000E+00  0.00000000000E+00  0.14429973759E+04  0.14429973759E+04  0.25500000920E-02 0.  1.
        2   -1    0    0  501    0  0.00000000000E+00  0.00000000000E+00 -0.10785954383E+04  0.10785954383E+04  0.25500000920E-02 0. -1.
    10030    2    1    2    0    0  0.00000000000E+00  0.00000000000E+00  0.36440193763E+03  0.25215928141E+04  0.24951235537E+04 0.  0.
        4    1    3    3  502    0  0.12407193242E+03 -0.36789458312E+03  0.13803872961E+04  0.14339494304E+04  0.12699999809E+01 0.  1.
       -4    1    3    3    0  502 -0.12407193242E+03  0.36789458312E+03 -0.10159853585E+04  0.10876433838E+04  0.12699999809E+01 0. -1.
</event>
<event>
 5   0  0.3650620E-05  0.2493523E+04  0.7818609E-02  0.8405297E-01
        2   -1    0    0  501    0  0.00000000000E+00  0.00000000000E+00  0.20287186252E+04  0.20287186252E+04  0.25500000920E-02 0.  1.
       -2   -1    0    0    0  501  0.00000000000E+00  0.00000000000E+00 -0.76620480082E+03  0.76620480083E+03  0.25500000920E-02 0. -1.
    10030    2    1    2    0    0  0.00000000000E+00  0.00000000000E+00  0.12625138243E+04  0.27949234260E+04  0.24935227692E+04 0.  0.
        3    1    3    3  502    0 -0.18849583838E+03 -0.70351506138E+03 -0.50295946000E+03  0.88511713986E+03  0.10100000352E+00 0. -1.
       -3    1    3    3    0  502  0.18849583838E+03  0.70351506138E+03  0.17654732843E+04  0.19098062861E+04  0.10100000352E+00 0.  1.
</event>
<event>
 5   0  0.1492639E-05  0.2297289E+04  0.7818609E-02  0.8478991E-01
        1   -1    0    0  501    0  0.00000000000E+00  0.00000000000E+00  0.24538726740E+04  0.24538726740E+04  0.50400001928E-02 0.  1.
       -1   -1    0    0    0  501  0.00000000000E+00  0.00000000000E+00 -0.53767446710E+03  0.53767446712E+03  0.50400001928E-02 0. -1.
    10030    2    1    2    0    0  0.00000000000E+00  0.00000000000E+00  0.19161982069E+04  0.29915471411E+04  0.22972894309E+04 0.  0.
        5    1    3    3  502    0 -0.91380819462E+03 -0.33168257411E+03  0.16140375589E+03  0.98546030308E+03  0.46999998093E+01 0. -1.
       -5    1    3    3    0  502  0.91380819462E+03  0.33168257411E+03  0.17547944510E+04  0.20060868381E+04  0.46999998093E+01 0.  1.
</event>
<event>
 5   0  0.3704241E-05  0.2531085E+04  0.7818609E-02  0.8391994E-01
       -2   -1    0    0    0  501  0.00000000000E+00  0.00000000000E+00  0.83660014482E+03  0.83660014482E+03  0.25500000920E-02 0. -1.
        2   -1    0    0  501    0  0.00000000000E+00  0.00000000000E+00 -0.19144126078E+04  0.19144126078E+04  0.25500000920E-02 0.  1.
    10030    2    1    2    0    0  0.00000000000E+00  0.00000000000E+00 -0.10778124630E+04  0.27510127527E+04  0.25310850361E+04 0.  0.
        2    1    3    3  502    0 -0.44603452729E+02 -0.58963692161E+02  0.83425086641E+03  0.83752056279E+03  0.25500000920E-02 0. -1.
       -2    1    3    3    0  502  0.44603452729E+02  0.58963692161E+02 -0.19120633294E+04  0.19134921899E+04  0.25500000920E-02 0.  1.
</event>
<event>
 5   0  0.1201438E-05  0.2362985E+04  0.7818609E-02  0.8453493E-01
       -3   -1    0    0    0  501  0.00000000000E+00  0.00000000000E+00  0.11983186301E+04  0.11983186343E+04  0.10100000352E+00 0. -1.
        3   -1    0    0  501    0  0.00000000000E+00  0.00000000000E+00 -0.11649024479E+04  0.11649024523E+04  0.10100000352E+00 0.  1.
    10030    2    1    2    0    0  0.00000000000E+00  0.00000000000E+00  0.33416182145E+02  0.23632210867E+04  0.23629848208E+04 0.  0.
        3    1    3    3  502    0  0.11228473130E+03  0.41839303695E+03 -0.10826123094E+04  0.11660660431E+04  0.10100000352E+00 0.  1.
       -3    1    3    3    0  502 -0.11228473130E+03 -0.41839303695E+03  0.11160284915E+04  0.11971550436E+04  0.10100000352E+00 0. -1.
</event>
<event>
 5   0  0.3704241E-05  0.2496517E+04  0.7818609E-02  0.8404227E-01
       -2   -1    0    0    0  501  0.00000000000E+00  0.00000000000E+00  0.11606699795E+04  0.11606699795E+04  0.25500000920E-02 0. -1.
        2   -1    0    0  501    0  0.00000000000E+00  0.00000000000E+00 -0.13424568019E+04  0.13424568019E+04  0.25500000920E-02 0.  1.
    10030    2    1    2    0    0  0.00000000000E+00  0.00000000000E+00 -0.18178682239E+03  0.25031267814E+04  0.24965170208E+04 0.  0.
        2    1    3    3  502    0  0.14569365416E+03 -0.70063565964E+03  0.93457165808E+03  0.11770901208E+04  0.25500000920E-02 0. -1.
       -2    1    3    3    0  502 -0.14569365416E+03  0.70063565964E+03 -0.11163584805E+04  0.13260366606E+04  0.25500000920E-02 0.  1.
</event>
<event>
 5   0  0.1421242E-05  0.2439607E+04  0.7818609E-02  0.8424822E-01
       -1   -1    0    0    0  501  0.00000000000E+00  0.00000000000E+00  0.10815359975E+04  0.10815359975E+04  0.50400001928E-02 0.  1.
        1   -1    0    0  501    0  0.00000000000E+00  0.00000000000E+00 -0.13757474146E+04  0.13757474146E+04  0.50400001928E-02 0. -1.
    10030    2    1    2    0    0  0.00000000000E+00  0.00000000000E+00 -0.29421141705E+03  0.24572834121E+04  0.24396068145E+04 0.  0.
        3    1    3    3  502    0  0.37897803030E+03 -0.11001601207E+04  0.22152928792E+03  0.11845049068E+04  0.10100000352E+00 0.  1.
       -3    1    3    3    0  502 -0.37897803030E+03  0.11001601207E+04 -0.51574070497E+03  0.12727785053E+04  0.10100000352E+00 0. -1.
</event>
<event>
 5   0  0.3650620E-05  0.2489435E+04  0.7818609E-02  0.8406759E-01
        2   -1    0    0  501    0  0.00000000000E+00  0.00000000000E+00  0.24775659365E+04  0.24775659365E+04  0.25500000920E-02 0. -1.
       -2   -1    0    0    0  501  0.00000000000E+00  0.00000000000E+00 -0.62534023665E+03  0.62534023666E+03  0.25500000920E-02 0.  1.
    10030    2    1    2    0    0  0.00000000000E+00  0.00000000000E+00  0.18522256998E+04  0.31029061731E+04  0.24894350114E+04 0.  0.
        3    1    3    3  502    0 -0.93689434738E+02  0.10539203738E+04  0.10896822000E+03  0.10636728575E+04  0.10100000352E+00 0.  1.
       -3    1    3    3    0  502  0.93689434738E+02 -0.10539203738E+04  0.17432574798E+04  0.20392333157E+04  0.10100000352E+00 0. -1.
</event>
<event>
 5   0  0.1502886E-05  0.2520288E+04  0.7818609E-02  0.8395793E-01
       -1   -1    0    0    0  501  0.00000000000E+00  0.00000000000E+00  0.13047441925E+04  0.13047441925E+04  0.50400001928E-02 0.  1.
        1   -1    0    0  501    0  0.00000000000E+00  0.00000000000E+00 -0.12170687316E+04  0.12170687316E+04  0.50400001928E-02 0. -1.
    10030    2    1    2    0    0  0.00000000000E+00  0.00000000000E+00  0.87675460914E+02  0.25218129241E+04  0.25202883640E+04 0.  0.
        4    1    3    3  502    0  0.40310890485E+03 -0.39744555307E+03  0.11703526728E+04  0.13000718243E+04  0.12699999809E+01 0.  1.
       -4    1    3    3    0  502 -0.40310890485E+03  0.39744555307E+03 -0.10826772119E+04  0.12217410997E+04  0.12699999809E+01 0. -1.
</event>
<event>
 5   0  0.1421242E-05  0.2510462E+04  0.7818609E-02  0.8399268E-01
       -1   -1    0    0    0  501  0.00000000000E+00  0.00000000000E+00  0.12266604263E+04  0.12266604264E+04  0.50400001928E-02 0. -1.
        1   -1    0    0  501    0  0.00000000000E+00  0.00000000000E+00 -0.12844668506E+04  0.12844668506E+04  0.50400001928E-02 0.  1.
    10030    2    1    2    0    0  0.00000000000E+00  0.00000000000E+00 -0.57806424219E+02  0.25111272769E+04  0.25104618337E+04 0.  0.
        3    1    3    3  502    0  0.72564188137E+03  0.95709935029E+03  0.33589791239E+03  0.12471658767E+04  0.10100000352E+00 0. -1.
       -3    1    3    3    0  502 -0.72564188137E+03 -0.95709935029E+03 -0.39370433661E+03  0.12639614002E+04  0.10100000352E+00 0.  1.
</event>
<event>
 5   0  0.3704241E-05  0.2558214E+04  0.7818609E-02  0.8382535E-01
        2   -1    0    0  501    0  0.00000000000E+00  0.00000000000E+00  0.19352326002E+04  0.19352326002E+04  0.25500000920E-02 0. -1.
       -2   -1    0    0    0  501  0.00000000000E+00  0.00000000000E+00 -0.84543598012E+03  0.84543598012E+03  0.25500000920E-02 0.  1.
    10030    2    1    2    0    0  0.00000000000E+00  0.00000000000E+00  0.10897966200E+04  0.27806685803E+04  0.25582144320E+04 0.  0.
        2    1    3    3  502    0  0.16591277916E+03  0.11315346289E+04  0.11676188918E+04  0.16343902665E+04  0.25500000920E-02 0. -1.
       -2    1    3    3    0  502 -0.16591277916E+03 -0.11315346289E+04 -0.77822271762E+02  0.11462783138E+04  0.25500000920E-02 0.  1.
</event>
<event>
 5   0  0.1492639E-05  0.2502270E+04  0.7818609E-02  0.8402177E-01
        1   -1    0    0  501    0  0.00000000000E+00  0.00000000000E+00  0.18335337820E+04  0.18335337820E+04  0.50400001928E-02 0.  1.
       -1   -1    0    0    0  501  0.00000000000E+00  0.00000000000E+00 -0.85372758644E+03  0.85372758645E+03  0.50400001928E-02 0. -1.
    10030    2    1    2    0    0  0.00000000000E+00  0.00000000000E+00  0.97980619554E+03  0.26872613684E+04  0.25022696660E+04 0.  0.
        5    1    3    3  502    0  0.41051785046E+03 -0.12625484360E+03  0.17518736507E+04  0.18037595652E+04  0.46999998093E+01 0.  1.
       -5    1    3    3    0  502 -0.41051785046E+03  0.12625484360E+03 -0.77206745513E+03  0.88350180325E+03  0.46999998093E+01 0. -1.
</event>
<event>
 5   0  0.3578670E-05  0.2515072E+04  0.7818609E-02  0.8397636E-01
       -2   -1    0    0    0  501  0.00000000000E+00  0.00000000000E+00  0.16462628115E+04  0.16462628115E+04  0.25500000920E-02 0.  1.
        2   -1    0    0  501    0  0.00000000000E+00  0.00000000000E+00 -0.96059771250E+03  0.96059771250E+03  0.25500000920E-02 0. -1.
    10030    2    1    2    0    0  0.00000000000E+00  0.00000000000E+00  0.68566509899E+03  0.26068605240E+04  0.25150716021E+04 0.  0.
        4    1    3    3  502    0 -0.62397960386E+03 -0.10164704653E+04  0.75591461678E+03  0.14120804771E+04  0.12699999809E+01 0.  1.
       -4    1    3    3    0  502  0.62397960386E+03  0.10164704653E+04 -0.70249517793E+02  0.11947800469E+04  0.12699999809E+01 0. -1.
</event>
<event>
 5   0  0.3650620E-05  0.2515176E+04  0.7818609E-02  0.8397599E-01
       -2   -1    0    0    0  501  0.00000000000E+00  0.00000000000E+00  0.81150916377E+03  0.81150916377E+03  0.25500000920E-02 0.  1.
        2   -1    0    0  501    0  0.00000000000E+00  0.00000000000E+00 -0.19488721725E+04  0.19488721725E+04  0.25500000920E-02 0. -1.
    10030    2    1    2    0    0  0.00000000000E+00  0.00000000000E+00 -0.11373630087E+04  0.27603813363E+04  0.25151760392E+04 0.  0.
        3    1    3    3  502    0  0.12262090307E+04  0.56472397105E+02 -0.26862296007E+03  0.12565572106E+04  0.10100000352E+00 0.  1.
       -3    1    3    3    0  502 -0.12262090307E+04 -0.56472397105E+02 -0.86874004865E+03  0.15038241257E+04  0.10100000352E+00 0. -1.
</event>
<event>
 5   0  0.1429483E-05  0.2488413E+04  0.7818609E-02  0.8407125E-01
        1   -1    0    0  501    0  0.00000000000E+00  0.00000000000E+00  0.18027104564E+04  0.18027104565E+04  0.50400001928E-02 0.  1.
       -1   -1    0    0    0  501  0.00000000000E+00  0.00000000000E+00 -0.85873429297E+03  0.85873429299E+03  0.50400001928E-02 0. -1.
    10030    2    1    2    0    0  0.00000000000E+00  0.00000000000E+00  0.94397616348E+03  0.26614447494E+04  0.24884125778E+04 0.  0.
        2    1    3    3  502    0  0.73284932634E+02 -0.80149750046E+01  0.18003724397E+04  0.18018811956E+04  0.25500000920E-02 0.  1.
       -2    1    3    3    0  502 -0.73284932634E+02  0.80149750046E+01 -0.85639627625E+03  0.85956355388E+03  0.25500000920E-02 0. -1.
</event>
<event>
 5   0  0.1502886E-05  0.2520473E+04  0.7818609E-02  0.8395728E-01
        1   -1    0    0  501    0  0.00000000000E+00  0.00000000000E+00  0.81226696268E+03  0.81226696269E+03  0.50400001928E-02 0. -1.
       -1   -1    0    0    0  501  0.00000000000E+00  0.00000000000E+00 -0.19552642316E+04  0.19552642316E+04  0.50400001928E-02 0.  1.
    10030    2    1    2    0    0  0.00000000000E+00  0.00000000000E+00 -0.11429972689E+04  0.27675311943E+04  0.25204733989E+04 0.  0.
        4    1    3    3  502    0  0.42684609533E+03  0.30844262335E+03  0.68565583151E+03  0.86455767487E+03  0.12699999809E+01 0. -1.
       -4    1    3    3    0  502 -0.42684609533E+03 -0.30844262335E+03 -0.18286531004E+04  0.19029735194E+04  0.12699999809E+01 0.  1.
</event>
<event>
 5   0  0.1421242E-05  0.2501411E+04  0.7818609E-02  0.8402483E-01
        1   -1    0    0  501    0  0.00000000000E+00  0.00000000000E+00  0.18817163166E+04  0.18817163166E+04  0.50400001928E-02 0. -1.
       -1   -1    0    0    0  501  0.00000000000E+00  0.00000000000E+00 -0.83129646234E+03  0.83129646236E+03  0.50400001928E-02 0.  1.
    10030    2    1    2    0    0  0.00000000000E+00  0.00000000000E+00  0.10504198542E+04  0.27130127790E+04  0.25014108956E+04 0.  0.
        3    1    3    3  502    0 -0.42371813322E+03 -0.97340529521E+03  0.12423622991E+04  0.16341722729E+04  0.10100000352E+00 0. -1.
       -3    1    3    3    0  502  0.42371813322E+03  0.97340529521E+03 -0.19194244483E+03  0.10788405060E+04  0.10100000352E+00 0.  1.
</event>
<event>
 5   0  0.1492639E-05  0.2556419E+04  0.7818609E-02  0.8383157E-01
        1   -1    0    0  501    0  0.00000000000E+00  0.00000000000E+00  0.23784324460E+04  0.23784324461E+04  0.50400001928E-02 0.  1.
       -1   -1    0    0    0  501  0.00000000000E+00  0.00000000000E+00 -0.68693130507E+03  0.68693130508E+03  0.50400001928E-02 0. -1.
    10030    2    1    2    0    0  0.00000000000E+00  0.00000000000E+00  0.16915011410E+04  0.30653637511E+04  0.25564191395E+04 0.  0.
        5    1    3    3  502    0 -0.10982940042E+04  0.62385398669E+03  0.10805817953E+04  0.16622643059E+04  0.46999998093E+01 0. -1.
       -5    1    3    3    0  502  0.10982940042E+04 -0.62385398669E+03  0.61091934570E+03  0.14030994453E+04  0.46999998093E+01 0.  1.
</event>
<event>
 5   0  0.3578670E-05  0.2430024E+04  0.7818609E-02  0.8428348E-01
       -2   -1    0    0    0  501  0.00000000000E+00  0.00000000000E+00  0.76044457058E+03  0.76044457058E+03  0.25500000920E-02 0. -1.
        2   -1    0    0  501    0  0.00000000000E+00  0.00000000000E+00 -0.19413033599E+04  0.19413033599E+04  0.25500000920E-02 0.  1.
    10030    2    1    2    0    0  0.00000000000E+00  0.00000000000E+00 -0.11808587893E+04  0.27017479305E+04  0.24300235389E+04 0.  0.
        4    1    3    3  502    0 -0.36745306823E+03 -0.71379239172E+03 -0.16044007824E+04  0.17940526244E+04  0.12699999809E+01 0.  1.
       -4    1    3    3    0  502  0.36745306823E+03  0.71379239172E+03  0.42354199306E+03  0.90769530604E+03  0.12699999809E+01 0. -1.
</event>
<event>
 5   0  0.3581449E-05  0.2446790E+04  0.7818609E-02  0.8422191E-01
        2   -1    0    0  501    0  0.00000000000E+00  0.00000000000E+00  0.14401576810E+04  0.14401576810E+04  0.25500000920E-02 0. -1.
       -2   -1    0    0    0  501  0.00000000000E+00  0.00000000000E+00 -0.10392581247E+04  0.10392581247E+04  0.25500000920E-02 0.  1.
    10030    2    1    2    0    0  0.00000000000E+00  0.00000000000E+00  0.40089955633E+03  0.24794158057E+04  0.24467902001E+04 0.  0.
        1    1    3    3  502    0  0.15793275810E+03 -0.11926290934E+04  0.42564867360E+03  0.12761205679E+04  0.50400001928E-02 0. -1.
       -1    1    3    3    0  502 -0.15793275810E+03  0.11926290934E+04 -0.24749117264E+02  0.12032952378E+04  0.50400001928E-02 0.  1.
</event>
<event>
 5   0  0.3579097E-05  0.2568099E+04  0.7818609E-02  0.8379119E-01
        2   -1    0    0  501    0  0.00000000000E+00  0.00000000000E+00  0.97423785043E+03  0.97423785043E+03  0.25500000920E-02 0. -1.
       -2   -1    0    0    0  501  0.00000000000E+00  0.00000000000E+00 -0.16923823336E+04  0.16923823336E+04  0.25500000920E-02 0.  1.
    10030    2    1    2    0    0  0.00000000000E+00  0.00000000000E+00 -0.71814448313E+03  0.26666201840E+04  0.25680988507E+04 0.  0.
        5    1    3    3  502    0 -0.67472470264E+02  0.80901092013E+03 -0.13920793840E+04  0.16115080839E+04  0.46999998093E+01 0.  1.
       -5    1    3    3    0  502  0.67472470264E+02 -0.80901092013E+03  0.67393490088E+03  0.10551121001E+04  0.46999998093E+01 0. -1.
</event>
<event>
 5   0  0.3578670E-05  0.2499790E+04  0.7818609E-02  0.8403060E-01
       -2   -1    0    0    0  501  0.00000000000E+00  0.00000000000E+00  0.86520428243E+03  0.86520428243E+03  0.25500000920E-02 0.  1.
        2   -1    0    0  501    0  0.00000000000E+00  0.00000000000E+00 -0.18056288317E+04  0.18056288317E+04  0.25500000920E-02 0. -1.
    10030    2    1    2    0    0  0.00000000000E+00  0.00000000000E+00 -0.94042454926E+03  0.26708331141E+04  0.24997902293E+04 0.  0.
        4    1    3    3  502    0  0.10279843976E+04  0.67971508523E+03 -0.24744759762E+03  0.12569790950E+04  0.12699999809E+01 0. -1.
       -4    1    3    3    0  502 -0.10279843976E+04 -0.67971508523E+03 -0.69297695164E+03  0.14138540191E+04  0.12699999809E+01 0.  1.
</event>
<event>
 5   0  0.3704241E-05  0.2493024E+04  0.7818609E-02  0.8405475E-01
       -2   -1    0    0    0  501  0.00000000000E+00  0.00000000000E+00  0.11834129409E+04  0.11834129409E+04  0.25500000920E-02 0.  1.
        2   -1    0    0  501    0  0.00000000000E+00  0.00000000000E+00 -0.13129759372E+04  0.13129759372E+04  0.25500000920E-02 0. -1.
    10030    2    1    2    0    0  0.00000000000E+00  0.00000000000E+00 -0.12956299628E+03  0.24963888781E+04  0.24930244404E+04 0.  0.
        2    1    3    3  502    0  0.11288439860E+04  0.50894273272E+03 -0.20808740556E+03  0.12556320394E+04  0.25500000920E-02 0. -1.
       -2    1    3    3    0  502 -0.11288439860E+04 -0.50894273272E+03  0.78524409278E+02  0.12407568387E+04  0.25500000920E-02 0.  1.
</event>
<event>
 5   0  0.3579097E-05  0.2518516E+04  0.7818609E-02  0.8396419E-01
        2   -1    0    0  501    0  0.00000000000E+00  0.00000000000E+00  0.17471866011E+04  0.17471866011E+04  0.25500000920E-02 0. -1.
       -2   -1    0    0    0  501  0.00000000000E+00  0.00000000000E+00 -0.90759062569E+03  0.90759062569E+03  0.25500000920E-02 0.  1.
    10030    2    1    2    0    0  0.00000000000E+00  0.00000000000E+00  0.83959597537E+03  0.26547772268E+04  0.25185155790E+04 0.  0.
        5    1    3    3  502    0  0.67741004370E+03 -0.65626719203E+03  0.12992878350E+04  0.16055347903E+04  0.46999998093E+01 0. -1.
       -5    1    3    3    0  502 -0.67741004370E+03  0.65626719203E+03 -0.45969185964E+03  0.10492424365E+04  0.46999998093E+01 0.  1.
</event>
<event>
 5   0  0.3579097E-05  0.2477037E+04  0.7818609E-02  0.8411212E-01
       -2   -1    0    0    0  501  0.00000000000E+00  0.00000000000E+00  0.28340297544E+04  0.28340297544E+04  0.25500000920E-02 0. -1.
        2   -1    0    0  501    0  0.00000000000E+00  0.00000000000E+00 -0.54125338543E+03  0.54125338544E+03  0.25500000920E-02 0.  1.
    10030    2    1    2    0    0  0.00000000000E+00  0.00000000000E+00  0.22927763690E+04  0.33752831399E+04  0.24770371003E+04 0.  0.
        5    1    3    3  502    0  0.52151547116E+03  0.11226240430E+04  0.10911557871E+04  0.16501230773E+04  0.46999998093E+01 0.  1.
       -5    1    3    3    0  502 -0.52151547116E+03 -0.11226240430E+04  0.12016205819E+04  0.17251600626E+04  0.46999998093E+01 0. -1.
</event>
<event>
 5   0  0.1429483E-05  0.2302824E+04  0.7818609E-02  0.8476809E-01
       -1   -1    0    0    0  501  0.00000000000E+00  0.00000000000E+00  0.14415550755E+04  0.14415550755E+04  0.50400001928E-02 0. -1.
        1   -1    0    0  501    0  0.00000000000E+00  0.00000000000E+00 -0.91966611036E+03  0.91966611037E+03  0.50400001928E-02 0.  1.
    10030    2    1    2    0    0  0.00000000000E+00  0.00000000000E+00  0.52188896514E+03  0.23612211859E+04  0.23028237876E+04 0.  0.
        2    1    3    3  502    0  0.75767543228E+03  0.58964363053E+03  0.91267100986E+03  0.13246584631E+04  0.25500000920E-02 0. -1.
       -2    1    3    3    0  502 -0.75767543228E+03 -0.58964363053E+03 -0.39078204472E+03  0.10365627227E+04  0.25500000920E-02 0.  1.
</event>
<event>
 5   0  0.1429483E-05  0.2534389E+04  0.7818609E-02  0.8390836E-01
        1   -1    0    0  501    0  0.00000000000E+00  0.00000000000E+00  0.13533570726E+04  0.13533570726E+04  0.50400001928E-02 0. -1.
       -1   -1    0    0    0  501  0.00000000000E+00  0.00000000000E+00 -0.11865177539E+04  0.11865177539E+04  0.50400001928E-02 0.  1.
    10030    2    1    2    0    0  0.00000000000E+00  0.00000000000E+00  0.16683931863E+03  0.25398748265E+04  0.25343892314E+04 0.  0.
        2    1    3    3  502    0  0.70455179009E+03 -0.88893310205E+03  0.64960879902E+03  0.13071292502E+04  0.25500000920E-02 0. -1.
       -2    1    3    3    0  502 -0.70455179009E+03  0.88893310205E+03 -0.48276948039E+03  0.12327455764E+04  0.25500000920E-02 0.  1.
</event>
<event>
 5   0  0.1429483E-05  0.2490982E+04  0.7818609E-02  0.8406205E-01
        1   -1    0    0  501    0  0.00000000000E+00  0.00000000000E+00  0.17585546612E+04  0.17585546612E+04  0.50400001928E-02 0. -1.
       -1   -1    0    0    0  501  0.00000000000E+00  0.00000000000E+00 -0.88211542976E+03  0.88211542977E+03  0.50400001928E-02 0.  1.
    10030    2    1    2    0    0  0.00000000000E+00  0.00000000000E+00  0.87643923145E+03  0.26406700910E+04  0.24909822968E+04 0.  0.
        2    1    3    3  502    0 -0.73043083533E+03  0.24724766410E+03 -0.59860637706E+03  0.97621217328E+03  0.25500000920E-02 0.  1.
       -2    1    3    3    0  502  0.73043083533E+03 -0.24724766410E+03  0.14750456085E+04  0.16644579177E+04  0.25500000920E-02 0. -1.
</event>
<event>
 5   0  0.1492639E-05  0.2451478E+04  0.7818609E-02  0.8420479E-01
        1   -1    0    0  501    0  0.00000000000E+00  0.00000000000E+00  0.15708573401E+04  0.15708573401E+04  0.50400001928E-02 0. -1.
       -1   -1    0    0    0  501  0.00000000000E+00  0.00000000000E+00 -0.95644318040E+03  0.95644318042E+03  0.50400001928E-02 0.  1.
    10030    2    1    2    0    0  0.00000000000E+00  0.00000000000E+00  0.61441415969E+03  0.25273005205E+04  0.24514777505E+04 0.  0.
        5    1    3    3  502    0 -0.86106051303E+03  0.99434926076E+02 -0.58625917733E+03  0.10464389254E+04  0.46999998093E+01 0. -1.
       -5    1    3    3    0  502  0.86106051303E+03 -0.99434926076E+02  0.12006733370E+04  0.14808615951E+04  0.46999998093E+01 0.  1.
</event>
<event>
 5   0  0.3579097E-05  0.1910793E+04  0.7818609E-02  0.8649503E-01
       -2   -1    0    0    0  501  0.00000000000E+00  0.00000000000E+00  0.97485106633E+03  0.97485106634E+03  0.25500000920E-02 0.  1.
        2   -1    0    0  501    0  0.00000000000E+00  0.00000000000E+00 -0.93632986088E+03  0.93632986089E+03  0.25500000920E-02 0. -1.
    10030    2    1    2    0    0  0.00000000000E+00  0.00000000000E+00  0.38521205451E+02  0.19111809272E+04  0.19107926767E+04 0.  0.
        5    1    3    3  502    0  0.33669917671E+03  0.28240582271E+03  0.86774935559E+03  0.97269235549E+03  0.46999998093E+01 0.  1.
       -5    1    3    3    0  502 -0.33669917671E+03 -0.28240582271E+03 -0.82922815014E+03  0.93848857174E+03  0.46999998093E+01 0. -1.
</event>
<event>
 5   0  0.1421242E-05  0.2585770E+04  0.7818609E-02  0.8373051E-01
        1   -1    0    0  501    0  0.00000000000E+00  0.00000000000E+00  0.19377164889E+04  0.19377164890E+04  0.50400001928E-02 0.  1.
       -1   -1    0    0    0  501  0.00000000000E+00  0.00000000000E+00 -0.86263989765E+03  0.86263989766E+03  0.50400001928E-02 0. -1.
    10030    2    1    2    0    0  0.00000000000E+00  0.00000000000E+00  0.10750765913E+04  0.28003563866E+04  0.25857699462E+04 0.  0.
        3    1    3    3  502    0  0.79471142177E+03  0.23427026431E+03  0.16124287000E+04  0.18128362098E+04  0.10100000352E+00 0.  1.
       -3    1    3    3    0  502 -0.79471142177E+03 -0.23427026431E+03 -0.53735210875E+03  0.98752017681E+03  0.10100000352E+00 0. -1.
</event>
<event>
 5   0  0.1429483E-05  0.2531801E+04  0.7818609E-02  0.8391743E-01
        1   -1    0    0  501    0  0.00000000000E+00  0.00000000000E+00  0.21134554417E+04  0.21134554417E+04  0.50400001928E-02 0. -1.
       -1   -1    0    0    0  501  0.00000000000E+00  0.00000000000E+00 -0.75823907132E+03  0.75823907134E+03  0.50400001928E-02 0.  1.
    10030    2    1    2    0    0  0.00000000000E+00  0.00000000000E+00  0.13552163704E+04  0.28716945131E+04  0.25318013283E+04 0.  0.
        2    1    3    3  502    0 -0.43962868508E+03  0.14694282056E+03  0.20137324492E+04  0.20663939485E+04  0.25500000920E-02 0. -1.
       -2    1    3    3    0  502  0.43962868508E+03 -0.14694282056E+03 -0.65851607882E+03  0.80530056459E+03  0.25500000920E-02 0.  1.
</event>
<event>
 5   0  0.1492639E-05  0.2542707E+04  0.7818609E-02  0.8387927E-01
       -1   -1    0    0    0  501  0.00000000000E+00  0.00000000000E+00  0.14544199627E+04  0.14544199627E+04  0.50400001928E-02 0.  1.
        1   -1    0    0  501    0  0.00000000000E+00  0.00000000000E+00 -0.11113292899E+04  0.11113292899E+04  0.50400001928E-02 0. -1.
    10030    2    1    2    0    0  0.00000000000E+00  0.00000000000E+00  0.34309067281E+03  0.25657492527E+04  0.25427068289E+04 0.  0.
        5    1    3    3  502    0 -0.63990026609E+03  0.50763683729E+03 -0.81152666222E+03  0.11514187434E+04  0.46999998093E+01 0. -1.
       -5    1    3    3    0  502  0.63990026609E+03 -0.50763683729E+03  0.11546173350E+04  0.14143305093E+04  0.46999998093E+01 0.  1.
</event>
<event>
 5   0  0.3704241E-05  0.1907291E+04  0.7818609E-02  0.8651236E-01
       -2   -1    0    0    0  501  0.00000000000E+00  0.00000000000E+00  0.58789680545E+03  0.58789680545E+03  0.25500000920E-02 0. -1.
        2   -1    0    0  501    0  0.00000000000E+00  0.00000000000E+00 -0.15469376459E+04  0.15469376459E+04  0.25500000920E-02 0.  1.
    10030    2    1    2    0    0  0.00000000000E+00  0.00000000000E+00 -0.95904084041E+03  0.21348344513E+04  0.19072909586E+04 0.  0.
        2    1    3    3  502    0 -0.49262811272E+03  0.76836985256E+03 -0.17021006044E+03  0.92846440559E+03  0.25500000920E-02 0. -1.
       -2    1    3    3    0  502  0.49262811272E+03 -0.76836985256E+03 -0.78883077997E+03  0.12063700457E+04  0.25500000920E-02 0.  1.
</event>
<event>
 5   0  0.3578670E-05  0.2587435E+04  0.7818609E-02  0.8372482E-01
       -2   -1    0    0    0  501  0.00000000000E+00  0.00000000000E+00  0.22550309428E+04  0.22550309428E+04  0.25500000920E-02 0. -1.
        2   -1    0    0  501    0  0.00000000000E+00  0.00000000000E+00 -0.74220915662E+03  0.74220915662E+03  0.25500000920E-02 0.  1.
    10030    2    1    2    0    0  0.00000000000E+00  0.00000000000E+00  0.15128217862E+04  0.29972400994E+04  0.25874347251E+04 0.  0.
        4    1    3    3  502    0 -0.96698062245E+03  0.70946641926E+03  0.19449503646E+03  0.12149996117E+04  0.12699999809E+01 0.  1.
       -4    1    3    3    0  502  0.96698062245E+03 -0.70946641926E+03  0.13183267497E+04  0.17822404878E+04  0.12699999809E+01 0. -1.
</event>
<event>
 5   0  0.1421242E-05  0.2251987E+04  0.7818609E-02  0.8497096E-01
        1   -1    0    0  501    0  0.00000000000E+00  0.00000000000E+00  0.11368440369E+04  0.11368440369E+04  0.50400001928E-02 0. -1.
       -1   -1    0    0    0  501  0.00000000000E+00  0.00000000000E+00 -0.11152461937E+04  0.11152461937E+04  0.50400001928E-02 0.  1.
    10030    2    1    2    0    0  0.00000000000E+00  0.00000000000E+00  0.21597843171E+02  0.22520902306E+04  0.22519866651E+04 0.  0.
        3    1    3    3  502    0  0.94986546082E+03  0.49919716785E+03  0.35201656004E+03  0.11293174376E+04  0.10100000352E+00 0. -1.
       -3    1    3    3    0  502 -0.94986546082E+03 -0.49919716785E+03 -0.33041871687E+03  0.11227727930E+04  0.10100000352E+00 0.  1.
</event>
<event>
 5   0  0.3704241E-05  0.2492553E+04  0.7818609E-02  0.8405643E-01
        2   -1    0    0  501    0  0.00000000000E+00  0.00000000000E+00  0.48506025564E+03  0.48506025565E+03  0.25500000920E-02 0. -1.
       -2   -1    0    0    0  501  0.00000000000E+00  0.00000000000E+00 -0.32020872822E+04  0.32020872822E+04  0.25500000920E-02 0.  1.
    10030    2    1    2    0    0  0.00000000000E+00  0.00000000000E+00 -0.27170270266E+04  0.36871475379E+04  0.24925531294E+04 0.  0.
        2    1    3    3  502    0  0.67156112979E+03  0.68013693471E+03 -0.25415787582E+04  0.27153642822E+04  0.25500000920E-02 0.  1.
       -2    1    3    3    0  502 -0.67156112979E+03 -0.68013693471E+03 -0.17544826833E+03  0.97178325560E+03  0.25500000920E-02 0. -1.
</event>
<event>
 5   0  0.1492639E-05  0.2486940E+04  0.7818609E-02  0.8407653E-01
        1   -1    0    0  501    0  0.00000000000E+00  0.00000000000E+00  0.17802469896E+04  0.17802469896E+04  0.50400001928E-02 0. -1.
       -1   -1    0    0    0  501  0.00000000000E+00  0.00000000000E+00 -0.86854083800E+03  0.86854083801E+03  0.50400001928E-02 0.  1.
    10030    2    1    2    0    0  0.00000000000E+00  0.00000000000E+00  0.91170615160E+03  0.26487878276E+04  0.24869396553E+04 0.  0.
        5    1    3    3  502    0 -0.28363976790E+03 -0.11435264604E+04  0.87933538866E+03  0.14701554677E+04  0.46999998093E+01 0. -1.
       -5    1    3    3    0  502  0.28363976790E+03  0.11435264604E+04  0.32370762949E+02  0.11786323599E+04  0.46999998093E+01 0.  1.
</event>
<event>
 5   0  0.1456876E-05  0.2484262E+04  0.7818609E-02  0.8408614E-01
       -1   -1    0    0    0  501  0.00000000000E+00  0.00000000000E+00  0.96695700948E+03  0.96695700950E+03  0.50400001928E-02 0. -1.
        1   -1    0    0  501    0  0.00000000000E+00  0.00000000000E+00 -0.15956132282E+04  0.15956132282E+04  0.50400001928E-02 0.  1.
    10030    2    1    2    0    0  0.00000000000E+00  0.00000000000E+00 -0.62865621871E+03  0.25625702377E+04  0.24842619793E+04 0.  0.
        1    1    3    3  502    0  0.64671736559E+03  0.68173333956E+03 -0.11522677633E+04  0.14868505963E+04  0.50400001928E-02 0.  1.
       -1    1    3    3    0  502 -0.64671736559E+03 -0.68173333956E+03  0.52361154463E+03  0.10757196414E+04  0.50400001928E-02 0. -1.
</event>
<event>
 5   0  0.1502886E-05  0.2466684E+04  0.7818609E-02  0.8414952E-01
       -1   -1    0    0    0  501  0.00000000000E+00  0.00000000000E+00  0.13032001497E+04  0.13032001497E+04  0.50400001928E-02 0.  1.
        1   -1    0    0  501    0  0.00000000000E+00  0.00000000000E+00 -0.11672283421E+04  0.11672283421E+04  0.50400001928E-02 0. -1.
    10030    2    1    2    0    0  0.00000000000E+00  0.00000000000E+00  0.13597180760E+03  0.24704284919E+04  0.24666837254E+04 0.  0.
        4    1    3    3  502    0  0.12211953092E+04 -0.17055759084E+03  0.41062713284E+02  0.12337323998E+04  0.12699999809E+01 0.  1.
       -4    1    3    3    0  502 -0.12211953092E+04  0.17055759084E+03  0.94909094318E+02  0.12366960921E+04  0.12699999809E+01 0. -1.
</event>
<event>
 5   0  0.1492639E-05  0.2532719E+04  0.7818609E-02  0.8391421E-01
        1   -1    0    0  501    0  0.00000000000E+00  0.00000000000E+00  0.19427452483E+04  0.19427452483E+04  0.50400001928E-02 0.  1.
       -1   -1    0    0    0  501  0.00000000000E+00  0.00000000000E+00 -0.82546394846E+03  0.82546394848E+03  0.50400001928E-02 0. -1.
    10030    2    1    2    0    0  0.00000000000E+00  0.00000000000E+00  0.11172812998E+04  0.27682091968E+04  0.25327188265E+04 0.  0.
        5    1    3    3  502    0 -0.26723841132E+03  0.10582074910E+04 -0.14327385205E+03  0.11008037741E+04  0.46999998093E+01 0. -1.
       -5    1    3    3    0  502  0.26723841132E+03 -0.10582074910E+04  0.12605551519E+04  0.16674054226E+04  0.46999998093E+01 0.  1.
</event>
<event>
 5   0  0.1421242E-05  0.2499981E+04  0.7818609E-02  0.8402992E-01
        1   -1    0    0  501    0  0.00000000000E+00  0.00000000000E+00  0.17002054088E+04  0.17002054088E+04  0.50400001928E-02 0. -1.
       -1   -1    0    0    0  501  0.00000000000E+00  0.00000000000E+00 -0.91899285848E+03  0.91899285850E+03  0.50400001928E-02 0.  1.
    10030    2    1    2    0    0  0.00000000000E+00  0.00000000000E+00  0.78121255031E+03  0.26191982673E+04  0.24999813029E+04 0.  0.
        3    1    3    3  502    0  0.42326907792E+03  0.11745879917E+04  0.45401477166E+03  0.13285116054E+04  0.10100000352E+00 0. -1.
       -3    1    3    3    0  502 -0.42326907792E+03 -0.11745879917E+04  0.32719777865E+03  0.12906866619E+04  0.10100000352E+00 0.  1.
</event>
<event>
 5   0  0.3650620E-05  0.2520547E+04  0.7818609E-02  0.8395702E-01
       -2   -1    0    0    0  501  0.00000000000E+00  0.00000000000E+00  0.13730245036E+04  0.13730245036E+04  0.25500000920E-02 0.  1.
        2   -1    0    0  501    0  0.00000000000E+00  0.00000000000E+00 -0.11567818267E+04  0.11567818268E+04  0.25500000920E-02 0. -1.
    10030    2    1    2    0    0  0.00000000000E+00  0.00000000000E+00  0.21624267682E+03  0.25298063303E+04  0.25205473956E+04 0.  0.
        3    1    3    3  502    0 -0.81655587439E+03  0.32220819100E+03  0.10157152523E+04  0.13424824387E+04  0.10100000352E+00 0.  1.
       -3    1    3    3    0  502  0.81655587439E+03 -0.32220819100E+03 -0.79947257550E+03  0.11873238916E+04  0.10100000352E+00 0. -1.
</event>
<event>
 5   0  0.3650620E-05  0.2453885E+04  0.7818609E-02  0.8419601E-01
        2   -1    0    0  501    0  0.00000000000E+00  0.00000000000E+00  0.15499743384E+04  0.15499743384E+04  0.25500000920E-02 0. -1.
       -2   -1    0    0    0  501  0.00000000000E+00  0.00000000000E+00 -0.97123391578E+03  0.97123391579E+03  0.25500000920E-02 0.  1.
    10030    2    1    2    0    0  0.00000000000E+00  0.00000000000E+00  0.57874042259E+03  0.25212082542E+04  0.24538847944E+04 0.  0.
        3    1    3    3  502    0  0.22319338911E+03 -0.11919495819E+04  0.97626030269E+02  0.12165894733E+04  0.10100000352E+00 0.  1.
       -3    1    3    3    0  502 -0.22319338911E+03  0.11919495819E+04  0.48111439232E+03  0.13046187808E+04  0.10100000352E+00 0. -1.
</event>
<event>
 5   0  0.1492639E-05  0.2497700E+04  0.7818609E-02  0.8403805E-01
       -1   -1    0    0    0  501  0.00000000000E+00  0.00000000000E+00  0.84417890276E+03  0.84417890278E+03  0.50400001928E-02 0. -1.
        1   -1    0    0  501    0  0.00000000000E+00  0.00000000000E+00 -0.18475063905E+04  0.18475063905E+04  0.50400001928E-02 0.  1.
    10030    2    1    2    0    0  0.00000000000E+00  0.00000000000E+00 -0.10033274878E+04  0.26916852933E+04  0.24976996758E+04 0.  0.
        5    1    3    3  502    0 -0.10580074521E+04  0.64134407489E+03 -0.31845475221E+03  0.12775513729E+04  0.46999998093E+01 0. -1.
       -5    1    3    3    0  502  0.10580074521E+04 -0.64134407489E+03 -0.68487273556E+03  0.14141339205E+04  0.46999998093E+01 0.  1.
</event>
<event>
 5   0  0.1421242E-05  0.2474520E+04  0.7818609E-02  0.8412120E-01
        1   -1    0    0  501    0  0.00000000000E+00  0.00000000000E+00  0.81238366945E+03  0.81238366947E+03  0.50400001928E-02 0.  1.
       -1   -1    0    0    0  501  0.00000000000E+00  0.00000000000E+00 -0.18843464790E+04  0.18843464790E+04  0.50400001928E-02 0. -1.
    10030    2    1    2    0    0  0.00000000000E+00  0.00000000000E+00 -0.10719628096E+04  0.26967301485E+04  0.24745199997E+04 0.  0.
        3    1    3    3  502    0  0.89765546076E+03 -0.49596597852E+02 -0.14623538496E+04  0.17166024410E+04  0.10100000352E+00 0. -1.
       -3    1    3    3    0  502 -0.89765546076E+03  0.49596597852E+02  0.39039104001E+03  0.98012770753E+03  0.10100000352E+00 0.  1.
</event>
<event>
 5   0  0.1421242E-05  0.2485736E+04  0.7818609E-02  0.8408085E-01
       -1   -1    0    0    0  501  0.00000000000E+00  0.00000000000E+00  0.76319834655E+03  0.76319834657E+03  0.50400001928E-02 0. -1.
        1   -1    0    0  501    0  0.00000000000E+00  0.00000000000E+00 -0.20240101598E+04  0.20240101598E+04  0.50400001928E-02 0.  1.
    10030    2    1    2    0    0  0.00000000000E+00  0.00000000000E+00 -0.12608118132E+04  0.27872085063E+04  0.24857362751E+04 0.  0.
        3    1    3    3  502    0  0.26571508891E+02  0.10811330068E+04 -0.13171998825E+04  0.17042799547E+04  0.10100000352E+00 0.  1.
       -3    1    3    3    0  502 -0.26571508891E+02 -0.10811330068E+04  0.56388069287E+02  0.10829285516E+04  0.10100000352E+00 0. -1.
</event>
<event>
 5   0  0.3704241E-05  0.2570176E+04  0.7818609E-02  0.8378403E-01
       -2   -1    0    0    0  501  0.00000000000E+00  0.00000000000E+00  0.10899049213E+04  0.10899049213E+04  0.25500000920E-02 0.  1.
        2   -1    0    0  501    0  0.00000000000E+00  0.00000000000E+00 -0.15152253362E+04  0.15152253362E+04  0.25500000920E-02 0. -1.
    10030    2    1    2    0    0  0.00000000000E+00  0.00000000000E+00 -0.42532041482E+03  0.26051302575E+04  0.25701762981E+04 0.  0.
        2    1    3    3  502    0  0.69067147620E+03 -0.10836701669E+04 -0.22191854669E+03  0.13040766696E+04  0.25500000920E-02 0.  1.
       -2    1    3    3    0  502 -0.69067147620E+03  0.10836701669E+04 -0.20340186813E+03  0.13010535879E+04  0.25500000920E-02 0. -1.
</event>
<event>
 5   0  0.3704241E-05  0.2493916E+04  0.7818609E-02  0.8405156E-01
       -2   -1    0    0    0  501  0.00000000000E+00  0.00000000000E+00  0.11082281649E+04  0.11082281649E+04  0.25500000920E-02 0. -1.
        2   -1    0    0  501    0  0.00000000000E+00  0.00000000000E+00 -0.14030540020E+04  0.14030540020E+04  0.25500000920E-02 0.  1.
    10030    2    1    2    0    0  0.00000000000E+00  0.00000000000E+00 -0.29482583712E+03  0.25112821670E+04  0.24939157660E+04 0.  0.
        2    1    3    3  502    0 -0.94945252141E+03  0.54779065343E+03  0.45117524176E+03  0.11853665210E+04  0.25500000920E-02 0. -1.
       -2    1    3    3    0  502  0.94945252141E+03 -0.54779065343E+03 -0.74600107888E+03  0.13259156459E+04  0.25500000920E-02 0.  1.
</event>
<event>
 5   0  0.1456876E-05  0.2482321E+04  0.7818609E-02  0.8409311E-01
       -1   -1    0    0    0  501  0.00000000000E+00  0.00000000000E+00  0.76174458670E+03  0.76174458671E+03  0.50400001928E-02 0. -1.
        1   -1    0    0  501    0  0.00000000000E+00  0.00000000000E+00 -0.20223044631E+04  0.20223044631E+04  0.50400001928E-02 0.  1.
    10030    2    1    2    0    0  0.00000000000E+00  0.00000000000E+00 -0.12605598764E+04  0.27840490498E+04  0.24823210731E+04 0.  0.
        1    1    3    3  502    0 -0.36279195325E+03 -0.10413156510E+03 -0.19563770354E+04  0.19924538862E+04  0.50400001928E-02 0.  1.
       -1    1    3    3    0  502  0.36279195325E+03  0.10413156510E+03  0.69581715900E+03  0.79159516356E+03  0.50400001928E-02 0. -1.
</event>
<event>
 5   0  0.3581449E-05  0.2477614E+04  0.7818609E-02  0.8411004E-01
        2   -1    0    0  501    0  0.00000000000E+00  0.00000000000E+00  0.14192958082E+04  0.14192958082E+04  0.25500000920E-02 0.  1.
       -2   -1    0    0    0  501  0.00000000000E+00  0.00000000000E+00 -0.10812708282E+04  0.10812708282E+04  0.25500000920E-02 0. -1.
    10030    2    1    2    0    0  0.00000000000E+00  0.00000000000E+00  0.33802497998E+03  0.25005666364E+04  0.24776142992E+04 0.  0.
        1    1    3    3  502    0  0.11404085163E+04 -0.33407124788E+03 -0.18424136279E+03  0.12025306909E+04  0.50400001928E-02 0. -1.
       -1    1    3    3    0  502 -0.11404085163E+04  0.33407124788E+03  0.52226634276E+03  0.12980359454E+04  0.50400001928E-02 0.  1.
</event>
<event>
 5   0  0.1429483E-05  0.2564505E+04  0.7818609E-02  0.8380359E-01
        1   -1    0    0  501    0  0.00000000000E+00  0.00000000000E+00  0.17940864168E+04  0.17940864168E+04  0.50400001928E-02 0.  1.
       -1   -1    0    0    0  501  0.00000000000E+00  0.00000000000E+00 -0.91643962529E+03  0.91643962530E+03  0.50400001928E-02 0. -1.
    10030    2    1    2    0    0  0.00000000000E+00  0.00000000000E+00  0.87764679147E+03  0.27105260421E+04  0.25645053196E+04 0.  0.
        2    1    3    3  502    0 -0.12541875132E+04  0.26649182243E+03  0.45250959073E+03  0.13596945022E+04  0.25500000920E-02 0. -1.
       -2    1    3    3    0  502  0.12541875132E+04 -0.26649182243E+03  0.42513720075E+03  0.13508315399E+04  0.25500000920E-02 0.  1.
</event>
<event>
 5   0  0.1201438E-05  0.2217616E+04  0.7818609E-02  0.8511131E-01
        4   -1    0    0  501    0  0.00000000000E+00  0.00000000000E+00  0.92205993680E+03  0.92206081141E+03  0.12699999809E+01 0. -1.
       -4   -1    0    0    0  501  0.00000000000E+00  0.00000000000E+00 -0.13333771613E+04  0.13333777662E+04  0.12699999809E+01 0.  1.
    10030    2    1    2    0    0  0.00000000000E+00  0.00000000000E+00 -0.41131722454E+03  0.22554385776E+04  0.22176161340E+04 0.  0.
        5    1    3    3  502    0  0.46661696287E+03 -0.49702300073E+03 -0.10950269291E+04  0.12899105855E+04  0.46999998093E+01 0.  1.
       -5    1    3    3    0  502 -0.46661696287E+03  0.49702300073E+03  0.68370970455E+03  0.96552799202E+03  0.46999998093E+01 0. -1.
</event>
<event>
 5   0  0.3704241E-05  0.2492123E+04  0.7818609E-02  0.8405797E-01
       -2   -1    0    0    0  501  0.00000000000E+00  0.00000000000E+00  0.22136033035E+04  0.22136033035E+04  0.25500000920E-02 0.  1.
        2   -1    0    0  501    0  0.00000000000E+00  0.00000000000E+00 -0.70142145506E+03  0.70142145507E+03  0.25500000920E-02 0. -1.
    10030    2    1    2    0    0  0.00000000000E+00  0.00000000000E+00  0.15121818484E+04  0.29150247586E+04  0.24921226696E+04 0.  0.
        2    1    3    3  502    0 -0.91970439837E+03 -0.23014529018E+03  0.17019153081E+04  0.19481629170E+04  0.25500000920E-02 0.  1.
       -2    1    3    3    0  502  0.91970439837E+03  0.23014529018E+03 -0.18973345971E+03  0.96686184159E+03  0.25500000920E-02 0. -1.
</event>
<event>
 5   0  0.1201438E-05  0.2513498E+04  0.7818609E-02  0.8398193E-01
        3   -1    0    0  501    0  0.00000000000E+00  0.00000000000E+00  0.15971653226E+04  0.15971653258E+04  0.10100000352E+00 0.  1.
       -3   -1    0    0    0  501  0.00000000000E+00  0.00000000000E+00 -0.98888807616E+03  0.98888808132E+03  0.10100000352E+00 0. -1.
    10030    2    1    2    0    0  0.00000000000E+00  0.00000000000E+00  0.60827724639E+03  0.25860534071E+04  0.25134977652E+04 0.  0.
        4    1    3    3  502    0 -0.97157565487E+03  0.57376991533E+03  0.87350716716E+03  0.14269504381E+04  0.12699999809E+01 0.  1.
       -4    1    3    3    0  502  0.97157565487E+03 -0.57376991533E+03 -0.26522992077E+03  0.11591029690E+04  0.12699999809E+01 0. -1.
</event>
<event>
 5   0  0.3579097E-05  0.2541455E+04  0.7818609E-02  0.8388364E-01
        2   -1    0    0  501    0  0.00000000000E+00  0.00000000000E+00  0.14792065954E+04  0.14792065954E+04  0.25500000920E-02 0. -1.
       -2   -1    0    0    0  501  0.00000000000E+00  0.00000000000E+00 -0.10916316488E+04  0.10916316488E+04  0.25500000920E-02 0.  1.
    10030    2    1    2    0    0  0.00000000000E+00  0.00000000000E+00  0.38757494659E+03  0.25708382441E+04  0.25414552796E+04 0.  0.
        5    1    3    3  502    0 -0.95873018547E+03 -0.79563257004E+03 -0.59167402998E+02  0.12472841002E+04  0.46999998093E+01 0. -1.
       -5    1    3    3    0  502  0.95873018547E+03  0.79563257004E+03  0.44674234959E+03  0.13235541439E+04  0.46999998093E+01 0.  1.
</event>
<event>
 5   0  0.1421242E-05  0.2450025E+04  0.7818609E-02  0.8421009E-01
       -1   -1    0    0    0  501  0.00000000000E+00  0.00000000000E+00  0.10853536014E+04  0.10853536014E+04  0.50400001928E-02 0. -1.
        1   -1    0    0  501    0  0.00000000000E+00  0.00000000000E+00 -0.13826427028E+04  0.13826427029E+04  0.50400001928E-02 0.  1.
    10030    2    1    2    0    0  0.00000000000E+00  0.00000000000E+00 -0.29728910145E+03  0.24679963043E+04  0.24500254995E+04 0.  0.
        3    1    3    3  502    0 -0.68759189496E+03 -0.71329799498E+03 -0.87440095050E+03  0.13214210821E+04  0.10100000352E+00 0.  1.
       -3    1    3    3    0  502  0.68759189496E+03  0.71329799498E+03  0.57711184905E+03  0.11465752222E+04  0.10100000352E+00 0. -1.
</event>
<event>
 5   0  0.3578670E-05  0.2487496E+04  0.7818609E-02  0.8407454E-01
        2   -1    0    0  501    0  0.00000000000E+00  0.00000000000E+00  0.11936590813E+04  0.11936590813E+04  0.25500000920E-02 0. -1.
       -2   -1    0    0    0  501  0.00000000000E+00  0.00000000000E+00 -0.12959391147E+04  0.12959391147E+04  0.25500000920E-02 0.  1.
    10030    2    1    2    0    0  0.00000000000E+00  0.00000000000E+00 -0.10228003341E+03  0.24895981960E+04  0.24874963261E+04 0.  0.
        4    1    3    3  502    0 -0.11258696610E+04 -0.50538334884E+03 -0.20590915524E+03  0.12511574705E+04  0.12699999809E+01 0.  1.
       -4    1    3    3    0  502  0.11258696610E+04  0.50538334884E+03  0.10362912183E+03  0.12384407255E+04  0.12699999809E+01 0. -1.
</event>
<event>
 5   0  0.1502886E-05  0.2463906E+04  0.7818609E-02  0.8415958E-01
        1   -1    0    0  501    0  0.00000000000E+00  0.00000000000E+00  0.14353536568E+04  0.14353536568E+04  0.50400001928E-02 0.  1.
       -1   -1    0    0    0  501  0.00000000000E+00  0.00000000000E+00 -0.10573759666E+04  0.10573759667E+04  0.50400001928E-02 0. -1.
    10030    2    1    2    0    0  0.00000000000E+00  0.00000000000E+00  0.37797769019E+03  0.24927296235E+04  0.24639062161E+04 0.  0.
        4    1    3    3  502    0  0.27659534034E+03 -0.47982338923E+03  0.13023035396E+04  0.14151789955E+04  0.12699999809E+01 0.  1.
       -4    1    3    3    0  502 -0.27659534034E+03  0.47982338923E+03 -0.92432584940E+03  0.10775506280E+04  0.12699999809E+01 0. -1.
</event>
<event>
 5   0  0.1456876E-05  0.2422446E+04  0.7818609E-02  0.8431148E-01
       -1   -1    0    0    0  501  0.00000000000E+00  0.00000000000E+00  0.15225308529E+04  0.15225308529E+04  0.50400001928E-02 0.  1.
        1   -1    0    0  501    0  0.00000000000E+00  0.00000000000E+00 -0.96356754606E+03  0.96356754607E+03  0.50400001928E-02 0. -1.
    10030    2    1    2    0    0  0.00000000000E+00  0.00000000000E+00  0.55896330684E+03  0.24860983990E+04  0.24224461338E+04 0.  0.
        1    1    3    3  502    0 -0.10961063179E+04 -0.11568511266E+03 -0.23593907098E+03  0.11271642962E+04  0.50400001928E-02 0. -1.
       -1    1    3    3    0  502  0.10961063179E+04  0.11568511266E+03  0.79490237782E+03  0.13589341028E+04  0.50400001928E-02 0.  1.
</event>
<event>
 5   0  0.3579097E-05  0.2384007E+04  0.7818609E-02  0.8445515E-01
       -2   -1    0    0    0  501  0.00000000000E+00  0.00000000000E+00  0.74694392772E+03  0.74694392772E+03  0.25500000920E-02 0.  1.
        2   -1    0    0  501    0  0.00000000000E+00  0.00000000000E+00 -0.19022478586E+04  0.19022478586E+04  0.25500000920E-02 0. -1.
    10030    2    1    2    0    0  0.00000000000E+00  0.00000000000E+00 -0.11553039309E+04  0.26491917863E+04  0.23840071199E+04 0.  0.
        5    1    3    3  502    0  0.73684525330E+03 -0.16248199759E+03  0.44776498208E+03  0.87741489389E+03  0.46999998093E+01 0.  1.
       -5    1    3    3    0  502 -0.73684525330E+03  0.16248199759E+03 -0.16030689129E+04  0.17717768924E+04  0.46999998093E+01 0. -1.
</event>
<event>
 5   0  0.1492639E-05  0.2434009E+04  0.7818609E-02  0.8426880E-01
       -1   -1    0    0    0  501  0.00000000000E+00  0.00000000000E+00  0.11605290157E+04  0.11605290157E+04  0.50400001928E-02 0. -1.
        1   -1    0    0  501    0  0.00000000000E+00  0.00000000000E+00 -0.12762279980E+04  0.12762279980E+04  0.50400001928E-02 0.  1.
    10030    2    1    2    0    0  0.00000000000E+00  0.00000000000E+00 -0.11569898226E+03  0.24367570137E+04  0.24340087283E+04 0.  0.
        5    1    3    3  502    0 -0.14216597342E+03 -0.84937990239E+03  0.80301686266E+03  0.11775039509E+04  0.46999998093E+01 0.  1.
       -5    1    3    3    0  502  0.14216597342E+03  0.84937990239E+03 -0.91871584492E+03  0.12592530628E+04  0.46999998093E+01 0. -1.
</event>
<event>
 5   0  0.3650620E-05  0.2301964E+04  0.7818609E-02  0.8477147E-01
       -2   -1    0    0    0  501  0.00000000000E+00  0.00000000000E+00  0.88566892708E+03  0.88566892709E+03  0.25500000920E-02 0.  1.
        2   -1    0    0  501    0  0.00000000000E+00  0.00000000000E+00 -0.14957723996E+04  0.14957723996E+04  0.25500000920E-02 0. -1.
    10030    2    1    2    0    0  0.00000000000E+00  0.00000000000E+00 -0.61010347247E+03  0.23814413266E+04  0.23019636281E+04 0.  0.
        3    1    3    3  502    0 -0.16980173387E+03  0.96100737147E+03  0.32625614163E+03  0.10289853629E+04  0.10100000352E+00 0.  1.
       -3    1    3    3    0  502  0.16980173387E+03 -0.96100737147E+03 -0.93635961410E+03  0.13524559638E+04  0.10100000352E+00 0. -1.
</event>
<event>
 5   0  0.3581449E-05  0.2501390E+04  0.7818609E-02  0.8402490E-01
       -2   -1    0    0    0  501  0.00000000000E+00  0.00000000000E+00  0.13822587097E+04  0.13822587097E+04  0.25500000920E-02 0.  1.
        2   -1    0    0  501    0  0.00000000000E+00  0.00000000000E+00 -0.11316535891E+04  0.11316535891E+04  0.25500000920E-02 0. -1.
    10030    2    1    2    0    0  0.00000000000E+00  0.00000000000E+00  0.25060512062E+03  0.25139122988E+04  0.25013900374E+04 0.  0.
        1    1    3    3  502    0  0.29396477262E+03  0.34545078496E+03 -0.10460735700E+04  0.11401848298E+04  0.50400001928E-02 0. -1.
       -1    1    3    3    0  502 -0.29396477262E+03 -0.34545078496E+03  0.12966786906E+04  0.13737274690E+04  0.50400001928E-02 0.  1.
</event>
<event>
 5   0  0.1429483E-05  0.2499996E+04  0.7818609E-02  0.8402987E-01
       -1   -1    0    0    0  501  0.00000000000E+00  0.00000000000E+00  0.17721536670E+04  0.17721536670E+04  0.50400001928E-02 0.  1.
        1   -1    0    0  501    0  0.00000000000E+00  0.00000000000E+00 -0.88169306089E+03  0.88169306091E+03  0.50400001928E-02 0. -1.
    10030    2    1    2    0    0  0.00000000000E+00  0.00000000000E+00  0.89046060614E+03  0.26538467280E+04  0.24999964729E+04 0.  0.
        2    1    3    3  502    0  0.11629625251E+04 -0.76935224658E+02  0.92480066302E+03  0.14878363922E+04  0.25500000920E-02 0.  1.
       -2    1    3    3    0  502 -0.11629625251E+04  0.76935224658E+02 -0.34340056879E+02  0.11660103358E+04  0.25500000920E-02 0. -1.
</event>
<event>
 5   0  0.1429483E-05  0.2770275E+04  0.7818609E-02  0.8312557E-01
       -1   -1    0    0    0  501  0.00000000000E+00  0.00000000000E+00  0.10375289695E+04  0.10375289695E+04  0.50400001928E-02 0. -1.
        1   -1    0    0  501    0  0.00000000000E+00  0.00000000000E+00 -0.18492074585E+04  0.18492074585E+04  0.50400001928E-02 0.  1.
    10030    2    1    2    0    0  0.00000000000E+00  0.00000000000E+00 -0.81167848900E+03  0.28867364279E+04  0.27702752995E+04 0.  0.
        2    1    3    3  502    0  0.83672587047E+03 -0.98565304044E+03  0.11202842367E+03  0.12977567053E+04  0.25500000920E-02 0. -1.
       -2    1    3    3    0  502 -0.83672587047E+03  0.98565304044E+03 -0.92370691267E+03  0.15889797226E+04  0.25500000920E-02 0.  1.
</event>
<event>
 5   0  0.3650620E-05  0.2376969E+04  0.7818609E-02  0.8448177E-01
        2   -1    0    0  501    0  0.00000000000E+00  0.00000000000E+00  0.13274820928E+04  0.13274820928E+04  0.25500000920E-02 0.  1.
       -2   -1    0    0    0  501  0.00000000000E+00  0.00000000000E+00 -0.10640412087E+04  0.10640412087E+04  0.25500000920E-02 0. -1.
    10030    2    1    2    0    0  0.00000000000E+00  0.00000000000E+00  0.26344088412E+03  0.23915233015E+04  0.23769692052E+04 0.  0.
        3    1    3    3  502    0  0.10241700388E+04 -0.58264820197E+03  0.28788824355E+03  0.12129644870E+04  0.10100000352E+00 0.  1.
       -3    1    3    3    0  502 -0.10241700388E+04  0.58264820197E+03 -0.24447359432E+02  0.11785588145E+04  0.10100000352E+00 0. -1.
</event>
<event>
 5   0  0.3579097E-05  0.2343011E+04  0.7818609E-02  0.8461153E-01
        2   -1    0    0  501    0  0.00000000000E+00  0.00000000000E+00  0.15430532039E+04  0.15430532039E+04  0.25500000920E-02 0.  1.
       -2   -1    0    0    0  501  0.00000000000E+00  0.00000000000E+00 -0.88942206289E+03  0.88942206289E+03  0.25500000920E-02 0. -1.
    10030    2    1    2    0    0  0.00000000000E+00  0.00000000000E+00  0.65363114103E+03  0.24324752668E+04  0.23430113647E+04 0.  0.
        5    1    3    3  502    0  0.48838895690E+03  0.10054616183E+04 -0.37180784074E+02  0.11184280664E+04  0.46999998093E+01 0. -1.
       -5    1    3    3    0  502 -0.48838895690E+03 -0.10054616183E+04  0.69081192510E+03  0.13140472004E+04  0.46999998093E+01 0.  1.
</event>
<event>
 5   0  0.1502886E-05  0.2507406E+04  0.7818609E-02  0.8400352E-01
        1   -1    0    0  501    0  0.00000000000E+00  0.00000000000E+00  0.10882482374E+04  0.10882482374E+04  0.50400001928E-02 0. -1.
       -1   -1    0    0    0  501  0.00000000000E+00  0.00000000000E+00 -0.14443131234E+04  0.14443131234E+04  0.50400001928E-02 0.  1.
    10030    2    1    2    0    0  0.00000000000E+00  0.00000000000E+00 -0.35606488603E+03  0.25325613609E+04  0.25074059989E+04 0.  0.
        4    1    3    3  502    0  0.12519060086E+04 -0.65991731400E+02 -0.16582670920E+03  0.12645646181E+04  0.12699999809E+01 0. -1.
       -4    1    3    3    0  502 -0.12519060086E+04  0.65991731400E+02 -0.19023817683E+03  0.12679967428E+04  0.12699999809E+01 0.  1.
</event>
<event>
 5   0  0.1502886E-05  0.2485830E+04  0.7818609E-02  0.8408051E-01
        1   -1    0    0  501    0  0.00000000000E+00  0.00000000000E+00  0.17077058468E+04  0.17077058468E+04  0.50400001928E-02 0. -1.
       -1   -1    0    0    0  501  0.00000000000E+00  0.00000000000E+00 -0.90462738123E+03  0.90462738124E+03  0.50400001928E-02 0.  1.
    10030    2    1    2    0    0  0.00000000000E+00  0.00000000000E+00  0.80307846554E+03  0.26123332280E+04  0.24858298157E+04 0.  0.
        4    1    3    3  502    0 -0.79972001759E+03  0.28103971963E+03  0.13568093003E+04  0.15998339042E+04  0.12699999809E+01 0. -1.
       -4    1    3    3    0  502  0.79972001759E+03 -0.28103971963E+03 -0.55373083478E+03  0.10124993239E+04  0.12699999809E+01 0.  1.
</event>
<event>
 5   0  0.1456876E-05  0.2411320E+04  0.7818609E-02  0.8435278E-01
       -1   -1    0    0    0  501  0.00000000000E+00  0.00000000000E+00  0.15799580898E+04  0.15799580898E+04  0.50400001928E-02 0.  1.
        1   -1    0    0  501    0  0.00000000000E+00  0.00000000000E+00 -0.92003440103E+03  0.92003440104E+03  0.50400001928E-02 0. -1.
    10030    2    1    2    0    0  0.00000000000E+00  0.00000000000E+00  0.65992368876E+03  0.24999924908E+04  0.24113198003E+04 0.  0.
        1    1    3    3  502    0 -0.76580804650E+03 -0.28364029186E+03 -0.58961710980E+03  0.10072547421E+04  0.50400001928E-02 0. -1.
       -1    1    3    3    0  502  0.76580804650E+03  0.28364029186E+03  0.12495407986E+04  0.14927377488E+04  0.50400001928E-02 0.  1.
</event>
<event>
 5   0  0.1456876E-05  0.2494171E+04  0.7818609E-02  0.8405065E-01
        1   -1    0    0  501    0  0.00000000000E+00  0.00000000000E+00  0.21237224002E+04  0.21237224002E+04  0.50400001928E-02 0.  1.
       -1   -1    0    0    0  501  0.00000000000E+00  0.00000000000E+00 -0.73230969880E+03  0.73230969882E+03  0.50400001928E-02 0. -1.
    10030    2    1    2    0    0  0.00000000000E+00  0.00000000000E+00  0.13914127014E+04  0.28560320990E+04  0.24941712140E+04 0.  0.
        1    1    3    3  502    0 -0.35915848899E+03  0.76761599192E+03 -0.35189930190E+03  0.91763949892E+03  0.50400001928E-02 0. -1.
       -1    1    3    3    0  502  0.35915848899E+03 -0.76761599192E+03  0.17433120033E+04  0.19383926001E+04  0.50400001928E-02 0.  1.
</event>
<event>
 5   0  0.1429483E-05  0.2435392E+04  0.7818609E-02  0.8426371E-01
        1   -1    0    0  501    0  0.00000000000E+00  0.00000000000E+00  0.66966281968E+03  0.66966281970E+03  0.50400001928E-02 0. -1.
       -1   -1    0    0    0  501  0.00000000000E+00  0.00000000000E+00 -0.22142234018E+04  0.22142234018E+04  0.50400001928E-02 0.  1.
    10030    2    1    2    0    0  0.00000000000E+00  0.00000000000E+00 -0.15445605821E+04  0.28838862215E+04  0.24353916208E+04 0.  0.
        2    1    3    3  502    0  0.61065778340E+03 -0.47640551687E+03  0.34039766922E+03  0.84601165367E+03  0.25500000920E-02 0. -1.
       -2    1    3    3    0  502 -0.61065778340E+03  0.47640551687E+03 -0.18849582514E+04  0.20378745678E+04  0.25500000920E-02 0.  1.
</event>
<event>
 5   0  0.1492639E-05  0.2502839E+04  0.7818609E-02  0.8401975E-01
       -1   -1    0    0    0  501  0.00000000000E+00  0.00000000000E+00  0.16948394768E+04  0.16948394768E+04  0.50400001928E-02 0. -1.
        1   -1    0    0  501    0  0.00000000000E+00  0.00000000000E+00 -0.92401095554E+03  0.92401095555E+03  0.50400001928E-02 0.  1.
    10030    2    1    2    0    0  0.00000000000E+00  0.00000000000E+00  0.77082852128E+03  0.26188504324E+04  0.25028385841E+04 0.  0.
        5    1    3    3  502    0 -0.90910932399E+03 -0.78060869058E+03  0.76296974581E+03  0.14205543333E+04  0.46999998093E+01 0.  1.
       -5    1    3    3    0  502  0.90910932399E+03  0.78060869058E+03  0.78587754763E+01  0.11982960991E+04  0.46999998093E+01 0. -1.
</event>
<event>
 5   0  0.1429483E-05  0.2467792E+04  0.7818609E-02  0.8414551E-01
       -1   -1    0    0    0  501  0.00000000000E+00  0.00000000000E+00  0.14323276966E+04  0.14323276966E+04  0.50400001928E-02 0.  1.
        1   -1    0    0  501    0  0.00000000000E+00  0.00000000000E+00 -0.10629544201E+04  0.10629544201E+04  0.50400001928E-02 0. -1.
    10030    2    1    2    0    0  0.00000000000E+00  0.00000000000E+00  0.36937327654E+03  0.24952821167E+04  0.24677917709E+04 0.  0.
        2    1    3    3  502    0  0.62192026744E+03 -0.48796889649E+03  0.11426584007E+04  0.13894483379E+04  0.25500000920E-02 0.  1.
       -2    1    3    3    0  502 -0.62192026744E+03  0.48796889649E+03 -0.77328512416E+03  0.11058337788E+04  0.25500000920E-02 0. -1.
</event>
<event>
 5   0  0.3581449E-05  0.1789808E+04  0.7818609E-02  0.8711738E-01
       -2   -1    0    0    0  501  0.00000000000E+00  0.00000000000E+00  0.32139566371E+03  0.32139566372E+03  0.25500000920E-02 0.  1.
        2   -1    0    0  501    0  0.00000000000E+00  0.00000000000E+00 -0.24917994322E+04  0.24917994322E+04  0.25500000920E-02 0. -1.
    10030    2    1    2    0    0  0.00000000000E+00  0.00000000000E+00 -0.21704037684E+04  0.28131950959E+04  0.17898084058E+04 0.  0.
        1    1    3    3  502    0 -0.76602870058E+03  0.38527260056E+03 -0.68257131942E+03  0.10959646678E+04  0.50400001928E-02 0.  1.
       -1    1    3    3    0  502  0.76602870058E+03 -0.38527260056E+03 -0.14878324490E+04  0.17172304281E+04  0.50400001928E-02 0. -1.
</event>
<event>
 5   0  0.3581449E-05  0.2559875E+04  0.7818609E-02  0.8381960E-01
       -2   -1    0    0    0  501  0.00000000000E+00  0.00000000000E+00  0.11205418168E+04  0.11205418168E+04  0.25500000920E-02 0. -1.
        2   -1    0    0  501    0  0.00000000000E+00  0.00000000000E+00 -0.14620069338E+04  0.14620069338E+04  0.25500000920E-02 0.  1.
    10030    2    1    2    0    0  0.00000000000E+00  0.00000000000E+00 -0.34146511709E+03  0.25825487506E+04  0.25598749233E+04 0.  0.
        1    1    3    3  502    0 -0.98957568457E+03 -0.76878082859E+03 -0.43372507569E+03  0.13260472990E+04  0.50400001928E-02 0.  1.
       -1    1    3    3    0  502  0.98957568457E+03  0.76878082859E+03  0.92259958598E+02  0.12565014516E+04  0.50400001928E-02 0. -1.
</event>
<event>
 5   0  0.3704241E-05  0.2533713E+04  0.7818609E-02  0.8391073E-01
       -2   -1    0    0    0  501  0.00000000000E+00  0.00000000000E+00  0.11668445201E+04  0.11668445201E+04  0.25500000920E-02 0.  1.
        2   -1    0    0  501    0  0.00000000000E+00  0.00000000000E+00 -0.13754403193E+04  0.13754403193E+04  0.25500000920E-02 0. -1.
    10030    2    1    2    0    0  0.00000000000E+00  0.00000000000E+00 -0.20859579919E+03  0.25422848393E+04  0.25337126903E+04 0.  0.
        2    1    3    3  502    0  0.12130723903E+04 -0.32829607737E+03 -0.26484567900E+03  0.12843154488E+04  0.25500000920E-02 0. -1.
       -2    1    3    3    0  502 -0.12130723903E+04  0.32829607737E+03  0.56249879812E+02  0.12579693905E+04  0.25500000920E-02 0.  1.
</event>
<event>
 5   0  0.1502886E-05  0.2353369E+04  0.7818609E-02  0.8457171E-01
        1   -1    0    0  501    0  0.00000000000E+00  0.00000000000E+00  0.12252738266E+04  0.12252738266E+04  0.50400001928E-02 0. -1.
       -1   -1    0    0    0  501  0.00000000000E+00  0.00000000000E+00 -0.11300224297E+04  0.11300224297E+04  0.50400001928E-02 0.  1.
    10030    2    1    2    0    0  0.00000000000E+00  0.00000000000E+00  0.95251396902E+02  0.23552962562E+04  0.23533694198E+04 0.  0.
        4    1    3    3  502    0  0.11072930535E+04 -0.32962106590E+03 -0.17579986625E+03  0.11686124932E+04  0.12699999809E+01 0.  1.
       -4    1    3    3    0  502 -0.11072930535E+04  0.32962106590E+03  0.27105126315E+03  0.11866837631E+04  0.12699999809E+01 0. -1.
</event>
<event>
 5   0  0.1502886E-05  0.2453652E+04  0.7818609E-02  0.8419686E-01
       -1   -1    0    0    0  501  0.00000000000E+00  0.00000000000E+00  0.93268989880E+03  0.93268989882E+03  0.50400001928E-02 0. -1.
        1   -1    0    0  501    0  0.00000000000E+00  0.00000000000E+00 -0.16137223322E+04  0.16137223322E+04  0.50400001928E-02 0.  1.
    10030    2    1    2    0    0  0.00000000000E+00  0.00000000000E+00 -0.68103243342E+03  0.25464122311E+04  0.24536523949E+04 0.  0.
        4    1    3    3  502    0 -0.86491820976E+03 -0.22658991265E+03  0.53128577816E+03  0.10400445611E+04  0.12699999809E+01 0. -1.
       -4    1    3    3    0  502  0.86491820976E+03  0.22658991265E+03 -0.12123182116E+04  0.15063676700E+04  0.12699999809E+01 0.  1.
</event>
<event>
 5   0  0.1456876E-05  0.2498415E+04  0.7818609E-02  0.8403550E-01
        1   -1    0    0  501    0  0.00000000000E+00  0.00000000000E+00  0.11813265045E+04  0.11813265045E+04  0.50400001928E-02 0.  1.
       -1   -1    0    0    0  501  0.00000000000E+00  0.00000000000E+00 -0.13209889938E+04  0.13209889938E+04  0.50400001928E-02 0. -1.
    10030    2    1    2    0    0  0.00000000000E+00  0.00000000000E+00 -0.13966248930E+03  0.25023154983E+04  0.24984149459E+04 0.  0.
        1    1    3    3  502    0  0.76450235112E+03  0.45594395440E+03 -0.94765298098E+03  0.13001518784E+04  0.50400001928E-02 0. -1.
       -1    1    3    3    0  502 -0.76450235112E+03 -0.45594395440E+03  0.80799049167E+03  0.12021636199E+04  0.50400001928E-02 0.  1.
</event>
<event>
 5   0  0.1429483E-05  0.2409812E+04  0.7818609E-02  0.8435839E-01
       -1   -1    0    0    0  501  0.00000000000E+00  0.00000000000E+00  0.12573571830E+04  0.12573571830E+04  0.50400001928E-02 0.  1.
        1   -1    0    0  501    0  0.00000000000E+00  0.00000000000E+00 -0.11546430535E+04  0.11546430535E+04  0.50400001928E-02 0. -1.
    10030    2    1    2    0    0  0.00000000000E+00  0.00000000000E+00  0.10271412949E+03  0.24120002366E+04  0.24098122227E+04 0.  0.
        2    1    3    3  502    0 -0.66363608152E+03 -0.66944697758E+03  0.80252274012E+03  0.12379882281E+04  0.25500000920E-02 0.  1.
       -2    1    3    3    0  502  0.66363608152E+03  0.66944697758E+03 -0.69980861062E+03  0.11740120085E+04  0.25500000920E-02 0. -1.
</event>
<event>
 5   0  0.1429483E-05  0.2509583E+04  0.7818609E-02  0.8399580E-01
        1   -1    0    0  501    0  0.00000000000E+00  0.00000000000E+00  0.13198021587E+04  0.13198021587E+04  0.50400001928E-02 0. -1.
       -1   -1    0    0    0  501  0.00000000000E+00  0.00000000000E+00 -0.11929829120E+04  0.11929829120E+04  0.50400001928E-02 0.  1.
    10030    2    1    2    0    0  0.00000000000E+00  0.00000000000E+00  0.12681924672E+03  0.25127850707E+04  0.25095827722E+04 0.  0.
        2    1    3    3  502    0 -0.16150586567E+03  0.74271485211E+03  0.10630782779E+04  0.13068454082E+04  0.25500000920E-02 0. -1.
       -2    1    3    3    0  502  0.16150586567E+03 -0.74271485211E+03 -0.93625903114E+03  0.12059396625E+04  0.25500000920E-02 0.  1.
</event>
<event>
 5   0  0.3650620E-05  0.2449123E+04  0.7818609E-02  0.8421338E-01
        2   -1    0    0  501    0  0.00000000000E+00  0.00000000000E+00  0.11643486272E+04  0.11643486272E+04  0.25500000920E-02 0.  1.
       -2   -1    0    0    0  501  0.00000000000E+00  0.00000000000E+00 -0.12878878527E+04  0.12878878527E+04  0.25500000920E-02 0. -1.
    10030    2    1    2    0    0  0.00000000000E+00  0.00000000000E+00 -0.12353922552E+03  0.24522364800E+04  0.24491226620E+04 0.  0.
        3    1    3    3  502    0  0.45078227136E+03 -0.80639086566E+03 -0.86658229656E+03  0.12666632431E+04  0.10100000352E+00 0. -1.
       -3    1    3    3    0  502 -0.45078227136E+03  0.80639086566E+03  0.74304307105E+03  0.11855732369E+04  0.10100000352E+00 0.  1.
</event>
<event>
 5   0  0.3581449E-05  0.2490670E+04  0.7818609E-02  0.8406317E-01
       -2   -1    0    0    0  501  0.00000000000E+00  0.00000000000E+00  0.65863784576E+03  0.65863784576E+03  0.25500000920E-02 0.  1.
        2   -1    0    0  501    0  0.00000000000E+00  0.00000000000E+00 -0.23546455168E+04  0.23546455168E+04  0.25500000920E-02 0. -1.
    10030    2    1    2    0    0  0.00000000000E+00  0.00000000000E+00 -0.16960076710E+04  0.30132833626E+04  0.24906695090E+04 0.  0.
        1    1    3    3  502    0  0.20069418882E+03 -0.36671777083E+03  0.57121263065E+03  0.70784458061E+03  0.50400001928E-02 0.  1.
       -1    1    3    3    0  502 -0.20069418882E+03  0.36671777083E+03 -0.22672203017E+04  0.23054387819E+04  0.50400001928E-02 0. -1.
</event>
<event>
 5   0  0.3650620E-05  0.2514715E+04  0.7818609E-02  0.8397762E-01
        2   -1    0    0  501    0  0.00000000000E+00  0.00000000000E+00  0.11536381572E+04  0.11536381572E+04  0.25500000920E-02 0.  1.
       -2   -1    0    0    0  501  0.00000000000E+00  0.00000000000E+00 -0.13704014369E+04  0.13704014369E+04  0.25500000920E-02 0. -1.
    10030    2    1    2    0    0  0.00000000000E+00  0.00000000000E+00 -0.21676327972E+03  0.25240395941E+04  0.25147146067E+04 0.  0.
        3    1    3    3  502    0 -0.26783612729E+03 -0.53956135145E+03 -0.12161429919E+04  0.13571537975E+04  0.10100000352E+00 0. -1.
       -3    1    3    3    0  502  0.26783612729E+03  0.53956135145E+03  0.99937971219E+03  0.11668857966E+04  0.10100000352E+00 0.  1.
</event>
<event>
 5   0  0.1456876E-05  0.2494523E+04  0.7818609E-02  0.8404939E-01
        1   -1    0    0  501    0  0.00000000000E+00  0.00000000000E+00  0.28472148113E+04  0.28472148113E+04  0.50400001928E-02 0. -1.
       -1   -1    0    0    0  501  0.00000000000E+00  0.00000000000E+00 -0.54638020416E+03  0.54638020418E+03  0.50400001928E-02 0.  1.
    10030    2    1    2    0    0  0.00000000000E+00  0.00000000000E+00  0.23008346071E+04  0.33935950154E+04  0.24945234494E+04 0.  0.
        1    1    3    3  502    0  0.21907760905E+03 -0.66371212175E+03  0.25557714309E+04  0.26496181586E+04  0.50400001928E-02 0. -1.
       -1    1    3    3    0  502 -0.21907760905E+03  0.66371212175E+03 -0.25493682382E+03  0.74397685683E+03  0.50400001928E-02 0.  1.
</event>
<event>
 5   0  0.3704241E-05  0.2506358E+04  0.7818609E-02  0.8400724E-01
       -2   -1    0    0    0  501  0.00000000000E+00  0.00000000000E+00  0.95119862320E+03  0.95119862320E+03  0.25500000920E-02 0.  1.
        2   -1    0    0  501    0  0.00000000000E+00  0.00000000000E+00 -0.16510302525E+04  0.16510302525E+04  0.25500000920E-02 0. -1.
    10030    2    1    2    0    0  0.00000000000E+00  0.00000000000E+00 -0.69983162928E+03  0.26022288757E+04  0.25063580774E+04 0.  0.
        2    1    3    3  502    0 -0.10489242856E+04 -0.67449428284E+02  0.35858392517E+03  0.11105737318E+04  0.25500000920E-02 0.  1.
       -2    1    3    3    0  502  0.10489242856E+04  0.67449428284E+02 -0.10584155545E+04  0.14916551439E+04  0.25500000920E-02 0. -1.
</event>
<event>
 5   0  0.3704241E-05  0.1886351E+04  0.7818609E-02  0.8661680E-01
        2   -1    0    0  501    0  0.00000000000E+00  0.00000000000E+00  0.16294502776E+04  0.16294502776E+04  0.25500000920E-02 0. -1.
       -2   -1    0    0    0  501  0.00000000000E+00  0.00000000000E+00 -0.54593867997E+03  0.54593867997E+03  0.25500000920E-02 0.  1.
    10030    2    1    2    0    0  0.00000000000E+00  0.00000000000E+00  0.10835115976E+04  0.21753889576E+04  0.18863509044E+04 0.  0.
        2    1    3    3  502    0  0.10502598747E+03  0.83003177820E+03  0.39609983112E+02  0.83758710690E+03  0.25500000920E-02 0.  1.
       -2    1    3    3    0  502 -0.10502598747E+03 -0.83003177820E+03  0.10439016145E+04  0.13378018507E+04  0.25500000920E-02 0. -1.
</event>
<event>
 5   0  0.1456876E-05  0.2468594E+04  0.7818609E-02  0.8414260E-01
        1   -1    0    0  501    0  0.00000000000E+00  0.00000000000E+00  0.13811984023E+04  0.13811984023E+04  0.50400001928E-02 0. -1.
       -1   -1    0    0    0  501  0.00000000000E+00  0.00000000000E+00 -0.11030195522E+04  0.11030195522E+04  0.50400001928E-02 0.  1.
    10030    2    1    2    0    0  0.00000000000E+00  0.00000000000E+00  0.27817885014E+03  0.24842179545E+04  0.24685938047E+04 0.  0.
        1    1    3    3  502    0  0.94468570510E+02 -0.11577826068E+04  0.55898799527E+03  0.12891285639E+04  0.50400001928E-02 0. -1.
       -1    1    3    3    0  502 -0.94468570510E+02  0.11577826068E+04 -0.28080914512E+03  0.11950893906E+04  0.50400001928E-02 0.  1.
</event>
<event>
 5   0  0.1502886E-05  0.2704804E+04  0.7818609E-02  0.8333448E-01
        1   -1    0    0  501    0  0.00000000000E+00  0.00000000000E+00  0.21349406246E+04  0.21349406246E+04  0.50400001928E-02 0. -1.
       -1   -1    0    0    0  501  0.00000000000E+00  0.00000000000E+00 -0.85669420549E+03  0.85669420551E+03  0.50400001928E-02 0.  1.
    10030    2    1    2    0    0  0.00000000000E+00  0.00000000000E+00  0.12782464191E+04  0.29916348301E+04  0.27048040685E+04 0.  0.
        4    1    3    3  502    0  0.29898381235E+03 -0.39062723188E+03 -0.75423385197E+03  0.90047280397E+03  0.12699999809E+01 0.  1.
       -4    1    3    3    0  502 -0.29898381235E+03  0.39062723188E+03  0.20324802711E+04  0.20911620261E+04  0.12699999809E+01 0. -1.
</event>
<event>
 5   0  0.1492639E-05  0.2476490E+04  0.7818609E-02  0.8411409E-01
       -1   -1    0    0    0  501  0.00000000000E+00  0.00000000000E+00  0.58314955146E+03  0.58314955149E+03  0.50400001928E-02 0.  1.
        1   -1    0    0  501    0  0.00000000000E+00  0.00000000000E+00 -0.26292574564E+04  0.26292574564E+04  0.50400001928E-02 0. -1.
    10030    2    1    2    0    0  0.00000000000E+00  0.00000000000E+00 -0.20461079050E+04  0.32124070079E+04  0.24764896983E+04 0.  0.
        5    1    3    3  502    0 -0.67068707351E+00  0.74959630688E+03 -0.23014874538E+04  0.24204878977E+04  0.46999998093E+01 0. -1.
       -5    1    3    3    0  502  0.67068707351E+00 -0.74959630688E+03  0.25537954884E+03  0.79191911018E+03  0.46999998093E+01 0.  1.
</event>
<event>
 5   0  0.3578670E-05  0.2492239E+04  0.7818609E-02  0.8405756E-01
        2   -1    0    0  501    0  0.00000000000E+00  0.00000000000E+00  0.83813584890E+03  0.83813584890E+03  0.25500000920E-02 0. -1.
       -2   -1    0    0    0  501  0.00000000000E+00  0.00000000000E+00 -0.18526987815E+04  0.18526987815E+04  0.25500000920E-02 0.  1.
    10030    2    1    2    0    0  0.00000000000E+00  0.00000000000E+00 -0.10145629326E+04  0.26908346304E+04  0.24922385648E+04 0.  0.
        4    1    3    3  502    0 -0.26207797269E+03  0.10961513446E+04  0.66659669610E+02  0.11290162791E+04  0.12699999809E+01 0. -1.
       -4    1    3    3    0  502  0.26207797269E+03 -0.10961513446E+04 -0.10812226022E+04  0.15618183513E+04  0.12699999809E+01 0.  1.
</event>
<event>
 5   0  0.1492639E-05  0.2232647E+04  0.7818609E-02  0.8504961E-01
        1   -1    0    0  501    0  0.00000000000E+00  0.00000000000E+00  0.11948218599E+04  0.11948218599E+04  0.50400001928E-02 0.  1.
       -1   -1    0    0    0  501  0.00000000000E+00  0.00000000000E+00 -0.10429827925E+04  0.10429827925E+04  0.50400001928E-02 0. -1.
    10030    2    1    2    0    0  0.00000000000E+00  0.00000000000E+00  0.15183906738E+03  0.22378046524E+04  0.22326474329E+04 0.  0.
        5    1    3    3  502    0  0.12065478771E+03 -0.43764323074E+03  0.10981122028E+04  0.11882599358E+04  0.46999998093E+01 0.  1.
       -5    1    3    3    0  502 -0.12065478771E+03  0.43764323074E+03 -0.94627313540E+03  0.10495447165E+04  0.46999998093E+01 0. -1.
</event>
<event>
 5   0  0.3650620E-05  0.2499665E+04  0.7818609E-02  0.8403105E-01
       -2   -1    0    0    0  501  0.00000000000E+00  0.00000000000E+00  0.85606165229E+03  0.85606165229E+03  0.25500000920E-02 0.  1.
        2   -1    0    0  501    0  0.00000000000E+00  0.00000000000E+00 -0.18247292179E+04  0.18247292179E+04  0.25500000920E-02 0. -1.
    10030    2    1    2    0    0  0.00000000000E+00  0.00000000000E+00 -0.96866756564E+03  0.26807908702E+04  0.24996645449E+04 0.  0.
        3    1    3    3  502    0 -0.19614706547E+03  0.12330807951E+04 -0.54422644472E+03  0.13620368394E+04  0.10100000352E+00 0.  1.
       -3    1    3    3    0  502  0.19614706547E+03 -0.12330807951E+04 -0.42444112092E+03  0.13187540308E+04  0.10100000352E+00 0. -1.
</event>
<event>
 5   0  0.1492639E-05  0.2548393E+04  0.7818609E-02  0.8385945E-01
       -1   -1    0    0    0  501  0.00000000000E+00  0.00000000000E+00  0.77987774639E+03  0.77987774641E+03  0.50400001928E-02 0.  1.
        1   -1    0    0  501    0  0.00000000000E+00  0.00000000000E+00 -0.20818348129E+04  0.20818348129E+04  0.50400001928E-02 0. -1.
    10030    2    1    2    0    0  0.00000000000E+00  0.00000000000E+00 -0.13019570665E+04  0.28617125593E+04  0.25483929385E+04 0.  0.
        5    1    3    3  502    0 -0.13327185755E+03 -0.35057815713E+03  0.71647887838E+03  0.80872152527E+03  0.46999998093E+01 0.  1.
       -5    1    3    3    0  502  0.13327185755E+03  0.35057815713E+03 -0.20184359449E+04  0.20529910341E+04  0.46999998093E+01 0. -1.
</event>
<event>
 5   0  0.1421242E-05  0.2512361E+04  0.7818609E-02  0.8398595E-01
        1   -1    0    0  501    0  0.00000000000E+00  0.00000000000E+00  0.13206966412E+04  0.13206966412E+04  0.50400001928E-02 0.  1.
       -1   -1    0    0    0  501  0.00000000000E+00  0.00000000000E+00 -0.11948162119E+04  0.11948162119E+04  0.50400001928E-02 0. -1.
    10030    2    1    2    0    0  0.00000000000E+00  0.00000000000E+00  0.12588042931E+03  0.25155128531E+04  0.25123612463E+04 0.  0.
        3    1    3    3  502    0  0.57834499805E+03  0.27182585673E+03 -0.10199050123E+04  0.12035690580E+04  0.10100000352E+00 0. -1.
       -3    1    3    3    0  502 -0.57834499805E+03 -0.27182585673E+03  0.11457854416E+04  0.13119437951E+04  0.10100000352E+00 0.  1.
</event>
<event>
 5   0  0.1421242E-05  0.2495797E+04  0.7818609E-02  0.8404484E-01
       -1   -1    0    0    0  501  0.00000000000E+00  0.00000000000E+00  0.83437078221E+03  0.83437078223E+03  0.50400001928E-02 0. -1.
        1   -1    0    0  501    0  0.00000000000E+00  0.00000000000E+00 -0.18663773300E+04  0.18663773300E+04  0.50400001928E-02 0.  1.
    10030    2    1    2    0    0  0.00000000000E+00  0.00000000000E+00 -0.10320065478E+04  0.27007481122E+04  0.24957970372E+04 0.  0.
        3    1    3    3  502    0  0.93149167746E+03 -0.16026944343E+03 -0.13977058617E+04  0.16872891648E+04  0.10100000352E+00 0.  1.
       -3    1    3    3    0  502 -0.93149167746E+03  0.16026944343E+03  0.36569931392E+03  0.10134589474E+04  0.10100000352E+00 0. -1.
</event>
<event>
 5   0  0.1201438E-05  0.2497814E+04  0.7818609E-02  0.8403765E-01
        3   -1    0    0  501    0  0.00000000000E+00  0.00000000000E+00  0.85698663197E+03  0.85698663792E+03  0.10100000352E+00 0. -1.
       -3   -1    0    0    0  501  0.00000000000E+00  0.00000000000E+00 -0.18200613637E+04  0.18200613665E+04  0.10100000352E+00 0.  1.
    10030    2    1    2    0    0  0.00000000000E+00  0.00000000000E+00 -0.96307473170E+03  0.26770480044E+04  0.24978136598E+04 0.  0.
        2    1    3    3  502    0 -0.47537711407E+03 -0.37995997412E+02 -0.17186346321E+04  0.17835728455E+04  0.25500000920E-02 0.  1.
       -2    1    3    3    0  502  0.47537711407E+03  0.37995997412E+02  0.75555990044E+03  0.89347515890E+03  0.25500000920E-02 0. -1.
</event>
<event>
 5   0  0.3578670E-05  0.2508436E+04  0.7818609E-02  0.8399986E-01
        2   -1    0    0  501    0  0.00000000000E+00  0.00000000000E+00  0.19198207459E+04  0.19198207459E+04  0.25500000920E-02 0. -1.
       -2   -1    0    0    0  501  0.00000000000E+00  0.00000000000E+00 -0.81938008550E+03  0.81938008550E+03  0.25500000920E-02 0.  1.
    10030    2    1    2    0    0  0.00000000000E+00  0.00000000000E+00  0.11004406604E+04  0.27392008314E+04  0.25084360761E+04 0.  0.
        4    1    3    3  502    0  0.10143646935E+04  0.49302574772E+03  0.11493778099E+04  0.16103046551E+04  0.12699999809E+01 0. -1.
       -4    1    3    3    0  502 -0.10143646935E+04 -0.49302574772E+03 -0.48937149510E+02  0.11288961763E+04  0.12699999809E+01 0.  1.
</event>
<event>
 5   0  0.3650620E-05  0.2510031E+04  0.7818609E-02  0.8399421E-01
        2   -1    0    0  501    0  0.00000000000E+00  0.00000000000E+00  0.16984072797E+04  0.16984072797E+04  0.25500000920E-02 0. -1.
       -2   -1    0    0    0  501  0.00000000000E+00  0.00000000000E+00 -0.92737708438E+03  0.92737708438E+03  0.25500000920E-02 0.  1.
    10030    2    1    2    0    0  0.00000000000E+00  0.00000000000E+00  0.77103019532E+03  0.26257843641E+04  0.25100310684E+04 0.  0.
        3    1    3    3  502    0  0.41728219580E+03 -0.11780551099E+04  0.50536600590E+03  0.13480849688E+04  0.10100000352E+00 0.  1.
       -3    1    3    3    0  502 -0.41728219580E+03  0.11780551099E+04  0.26566418942E+03  0.12776993953E+04  0.10100000352E+00 0. -1.
</event>
<event>
 5   0  0.3704241E-05  0.2506993E+04  0.7818609E-02  0.8400499E-01
       -2   -1    0    0    0  501  0.00000000000E+00  0.00000000000E+00  0.10979744150E+04  0.10979744150E+04  0.25500000920E-02 0.  1.
        2   -1    0    0  501    0  0.00000000000E+00  0.00000000000E+00 -0.14310471120E+04  0.14310471120E+04  0.25500000920E-02 0. -1.
    10030    2    1    2    0    0  0.00000000000E+00  0.00000000000E+00 -0.33307269697E+03  0.25290215271E+04  0.25069927130E+04 0.  0.
        2    1    3    3  502    0  0.64472224949E+03  0.78323783752E+03  0.57622466920E+03  0.11666889725E+04  0.25500000920E-02 0.  1.
       -2    1    3    3    0  502 -0.64472224949E+03 -0.78323783752E+03 -0.90929736618E+03  0.13623325546E+04  0.25500000920E-02 0. -1.
</event>
<event>
 5   0  0.3581449E-05  0.2498917E+04  0.7818609E-02  0.8403372E-01
        2   -1    0    0  501    0  0.00000000000E+00  0.00000000000E+00  0.15193641480E+04  0.15193641480E+04  0.25500000920E-02 0. -1.
       -2   -1    0    0    0  501  0.00000000000E+00  0.00000000000E+00 -0.10274997426E+04  0.10274997426E+04  0.25500000920E-02 0.  1.
    10030    2    1    2    0    0  0.00000000000E+00  0.00000000000E+00  0.49186440542E+03  0.25468638906E+04  0.24989167821E+04 0.  0.
        1    1    3    3  502    0  0.20884912734E+02 -0.30545085449E+03  0.14805418318E+04  0.15118665681E+04  0.50400001928E-02 0. -1.
       -1    1    3    3    0  502 -0.20884912734E+02  0.30545085449E+03 -0.98867742635E+03  0.10349973225E+04  0.50400001928E-02 0.  1.
</event>
<event>
 5   0  0.3579097E-05  0.2553616E+04  0.7818609E-02  0.8384130E-01
       -2   -1    0    0    0  501  0.00000000000E+00  0.00000000000E+00  0.15925800793E+04  0.15925800793E+04  0.25500000920E-02 0. -1.
        2   -1    0    0  501    0  0.00000000000E+00  0.00000000000E+00 -0.10236466266E+04  0.10236466266E+04  0.25500000920E-02 0.  1.
    10030    2    1    2    0    0  0.00000000000E+00  0.00000000000E+00  0.56893345269E+03  0.26162267059E+04  0.25536164362E+04 0.  0.
        5    1    3    3  502    0 -0.79491387985E+03 -0.40016019065E+03 -0.65351367932E+03  0.11041369814E+04  0.46999998093E+01 0.  1.
       -5    1    3    3    0  502  0.79491387985E+03  0.40016019065E+03  0.12224471320E+04  0.15120897246E+04  0.46999998093E+01 0. -1.
</event>
<event>
 5   0  0.3650620E-05  0.2529511E+04  0.7818609E-02  0.8392547E-01
       -2   -1    0    0    0  501  0.00000000000E+00  0.00000000000E+00  0.11394344683E+04  0.11394344683E+04  0.25500000920E-02 0. -1.
        2   -1    0    0  501    0  0.00000000000E+00  0.00000000000E+00 -0.14038599452E+04  0.14038599452E+04  0.25500000920E-02 0.  1.
    10030    2    1    2    0    0  0.00000000000E+00  0.00000000000E+00 -0.26442547687E+03  0.25432944135E+04  0.25295109489E+04 0.  0.
        3    1    3    3  502    0 -0.12578927413E+04  0.12682216555E+03 -0.16745211051E+03  0.12753110326E+04  0.10100000352E+00 0.  1.
       -3    1    3    3    0  502  0.12578927413E+04 -0.12682216555E+03 -0.96973366358E+02  0.12679833809E+04  0.10100000352E+00 0. -1.
</event>
<event>
 5   0  0.1421242E-05  0.2538891E+04  0.7818609E-02  0.8389260E-01
       -1   -1    0    0    0  501  0.00000000000E+00  0.00000000000E+00  0.10282956741E+04  0.10282956741E+04  0.50400001928E-02 0. -1.
        1   -1    0    0  501    0  0.00000000000E+00  0.00000000000E+00 -0.15671488267E+04  0.15671488268E+04  0.50400001928E-02 0.  1.
    10030    2    1    2    0    0  0.00000000000E+00  0.00000000000E+00 -0.53885315268E+03  0.25954445008E+04  0.25388913795E+04 0.  0.
        3    1    3    3  502    0  0.34347899296E+03 -0.18663777600E+03  0.96523453588E+03  0.10413881109E+04  0.10100000352E+00 0. -1.
       -3    1    3    3    0  502 -0.34347899296E+03  0.18663777600E+03 -0.15040876886E+04  0.15540563899E+04  0.10100000352E+00 0.  1.
</event>
<event>
 5   0  0.1421242E-05  0.2463996E+04  0.7818609E-02  0.8415926E-01
        1   -1    0    0  501    0  0.00000000000E+00  0.00000000000E+00  0.97959762515E+03  0.97959762516E+03  0.50400001928E-02 0.  1.
       -1   -1    0    0    0  501  0.00000000000E+00  0.00000000000E+00 -0.15494311925E+04  0.15494311925E+04  0.50400001928E-02 0. -1.
    10030    2    1    2    0    0  0.00000000000E+00  0.00000000000E+00 -0.56983356730E+03  0.25290288176E+04  0.24639960361E+04 0.  0.
        3    1    3    3  502    0  0.23474625462E+03 -0.72605151443E+03 -0.12776902840E+04  0.14882033052E+04  0.10100000352E+00 0. -1.
       -3    1    3    3    0  502 -0.23474625462E+03  0.72605151443E+03  0.70785671670E+03  0.10408255124E+04  0.10100000352E+00 0.  1.
</event>
<event>
 5   0  0.1492639E-05  0.2442292E+04  0.7818609E-02  0.8423838E-01
       -1   -1    0    0    0  501  0.00000000000E+00  0.00000000000E+00  0.10290488535E+04  0.10290488535E+04  0.50400001928E-02 0. -1.
        1   -1    0    0  501    0  0.00000000000E+00  0.00000000000E+00 -0.14491025715E+04  0.14491025715E+04  0.50400001928E-02 0.  1.
    10030    2    1    2    0    0  0.00000000000E+00  0.00000000000E+00 -0.42005371798E+03  0.24781514249E+04  0.24422918251E+04 0.  0.
        5    1    3    3  502    0 -0.28342498973E+03  0.67767771276E+03  0.77979523941E+03  0.10712980503E+04  0.46999998093E+01 0. -1.
       -5    1    3    3    0  502  0.28342498973E+03 -0.67767771276E+03 -0.11998489574E+04  0.14068533746E+04  0.46999998093E+01 0.  1.
</event>
<event>
 5   0  0.1421242E-05  0.2577180E+04  0.7818609E-02  0.8375994E-01
        1   -1    0    0  501    0  0.00000000000E+00  0.00000000000E+00  0.92787894129E+03  0.92787894131E+03  0.50400001928E-02 0. -1.
       -1   -1    0    0    0  501  0.00000000000E+00  0.00000000000E+00 -0.17895260832E+04  0.17895260832E+04  0.50400001928E-02 0.  1.
    10030    2    1    2    0    0  0.00000000000E+00  0.00000000000E+00 -0.86164714193E+03  0.27174050245E+04  0.25771795184E+04 0.  0.
        3    1    3    3  502    0 -0.69170609600E+03 -0.10363402501E+04 -0.84300723091E+02  0.12488254719E+04  0.10100000352E+00 0.  1.
       -3    1    3    3    0  502  0.69170609600E+03  0.10363402501E+04 -0.77734641884E+03  0.14685795526E+04  0.10100000352E+00 0. -1.
</event>
<event>
 5   0  0.3704241E-05  0.2550667E+04  0.7818609E-02  0.8385154E-01
       -2   -1    0    0    0  501  0.00000000000E+00  0.00000000000E+00  0.10312209444E+04  0.10312209444E+04  0.25500000920E-02 0.  1.
        2   -1    0    0  501    0  0.00000000000E+00  0.00000000000E+00 -0.15772327353E+04  0.15772327353E+04  0.25500000920E-02 0. -1.
    10030    2    1    2    0    0  0.00000000000E+00  0.00000000000E+00 -0.54601179091E+03  0.26084536798E+04  0.25506669174E+04 0.  0.
        2    1    3    3  502    0 -0.25483491334E+03 -0.92795853372E+03 -0.11288821786E+04  0.14833822321E+04  0.25500000920E-02 0. -1.
       -2    1    3    3    0  502  0.25483491334E+03  0.92795853372E+03  0.58287038773E+03  0.11250714476E+04  0.25500000920E-02 0.  1.
</event>
<event>
 5   0  0.3650620E-05  0.2500947E+04  0.7818609E-02  0.8402648E-01
        2   -1    0    0  501    0  0.00000000000E+00  0.00000000000E+00  0.22416510592E+04  0.22416510592E+04  0.25500000920E-02 0. -1.
       -2   -1    0    0    0  501  0.00000000000E+00  0.00000000000E+00 -0.69755898850E+03  0.69755898850E+03  0.25500000920E-02 0.  1.
    10030    2    1    2    0    0  0.00000000000E+00  0.00000000000E+00  0.15440920707E+04  0.29392100477E+04  0.25009468970E+04 0.  0.
        3    1    3    3  502    0 -0.93422949780E+02 -0.92540093236E+03  0.17543300044E+04  0.19856405787E+04  0.10100000352E+00 0. -1.
       -3    1    3    3    0  502  0.93422949780E+02  0.92540093236E+03 -0.21023793376E+03  0.95356946897E+03  0.10100000352E+00 0.  1.
</event>
<event>
 5   0  0.1421242E-05  0.2472383E+04  0.7818609E-02  0.8412891E-01
        1   -1    0    0  501    0  0.00000000000E+00  0.00000000000E+00  0.20559285284E+04  0.20559285284E+04  0.50400001928E-02 0.  1.
       -1   -1    0    0    0  501  0.00000000000E+00  0.00000000000E+00 -0.74329885652E+03  0.74329885654E+03  0.50400001928E-02 0. -1.
    10030    2    1    2    0    0  0.00000000000E+00  0.00000000000E+00  0.13126296719E+04  0.27992273849E+04  0.24723829188E+04 0.  0.
        3    1    3    3  502    0  0.93080653969E+03  0.16154421796E+02  0.15771668478E+04  0.18314248703E+04  0.10100000352E+00 0.  1.
       -3    1    3    3    0  502 -0.93080653969E+03 -0.16154421796E+02 -0.26453717590E+03  0.96780251462E+03  0.10100000352E+00 0. -1.
</event>
<event>
 5   0  0.1429483E-05  0.2551862E+04  0.7818609E-02  0.8384739E-01
       -1   -1    0    0    0  501  0.00000000000E+00  0.00000000000E+00  0.84369819375E+03  0.84369819376E+03  0.50400001928E-02 0.  1.
        1   -1    0    0  501    0  0.00000000000E+00  0.00000000000E+00 -0.19295995068E+04  0.19295995069E+04  0.50400001928E-02 0. -1.
    10030    2    1    2    0    0  0.00000000000E+00  0.00000000000E+00 -0.10859013131E+04  0.27732977006E+04  0.25518617663E+04 0.  0.
        2    1    3    3  502    0 -0.12156600033E+04 -0.38442963751E+03 -0.48988502893E+03  0.13658706862E+04  0.25500000920E-02 0.  1.
       -2    1    3    3    0  502  0.12156600033E+04  0.38442963751E+03 -0.59601628417E+03  0.14074270144E+04  0.25500000920E-02 0. -1.
</event>
<event>
 5   0  0.3704241E-05  0.2435408E+04  0.7818609E-02  0.8426365E-01
       -2   -1    0    0    0  501  0.00000000000E+00  0.00000000000E+00  0.90120808230E+03  0.90120808230E+03  0.25500000920E-02 0.  1.
        2   -1    0    0  501    0  0.00000000000E+00  0.00000000000E+00 -0.16453497991E+04  0.16453497991E+04  0.25500000920E-02 0. -1.
    10030    2    1    2    0    0  0.00000000000E+00  0.00000000000E+00 -0.74414171680E+03  0.25465578814E+04  0.24354075939E+04 0.  0.
        2    1    3    3  502    0  0.10746539853E+04  0.24849826624E+03 -0.91153355147E+03  0.14309178844E+04  0.25500000920E-02 0. -1.
       -2    1    3    3    0  502 -0.10746539853E+04 -0.24849826624E+03  0.16739183468E+03  0.11156399970E+04  0.25500000920E-02 0.  1.
</event>
<event>
 5   0  0.1502886E-05  0.2491586E+04  0.7818609E-02  0.8405989E-01
       -1   -1    0    0    0  501  0.00000000000E+00  0.00000000000E+00  0.14066706058E+04  0.14066706058E+04  0.50400001928E-02 0. -1.
        1   -1    0    0  501    0  0.00000000000E+00  0.00000000000E+00 -0.11033147460E+04  0.11033147460E+04  0.50400001928E-02 0.  1.
    10030    2    1    2    0    0  0.00000000000E+00  0.00000000000E+00  0.30335585976E+03  0.25099853518E+04  0.24915861793E+04 0.  0.
        4    1    3    3  502    0 -0.81602437736E+03 -0.41849908566E+03 -0.69773394413E+03  0.11523330850E+04  0.12699999809E+01 0.  1.
       -4    1    3    3    0  502  0.81602437736E+03  0.41849908566E+03  0.10010898039E+04  0.13576522668E+04  0.12699999809E+01 0. -1.
</event>
<event>
 5   0  0.3581449E-05  0.2507300E+04  0.7818609E-02  0.8400390E-01
        2   -1    0    0  501    0  0.00000000000E+00  0.00000000000E+00  0.16719376601E+04  0.16719376601E+04  0.25500000920E-02 0. -1.
       -2   -1    0    0    0  501  0.00000000000E+00  0.00000000000E+00 -0.94000982290E+03  0.94000982290E+03  0.25500000920E-02 0.  1.
    10030    2    1    2    0    0  0.00000000000E+00  0.00000000000E+00  0.73192783720E+03  0.26119474830E+04  0.25072996022E+04 0.  0.
        1    1    3    3  502    0 -0.12202726322E+04  0.13540573055E+03  0.62999410917E+03  0.13799610814E+04  0.50400001928E-02 0.  1.
       -1    1    3    3    0  502  0.12202726322E+04 -0.13540573055E+03  0.10193372803E+03  0.12319864016E+04  0.50400001928E-02 0. -1.
</event>
<event>
 5   0  0.1502886E-05  0.2480559E+04  0.7818609E-02  0.8409944E-01
        1   -1    0    0  501    0  0.00000000000E+00  0.00000000000E+00  0.10488212389E+04  0.10488212390E+04  0.50400001928E-02 0. -1.
       -1   -1    0    0    0  501  0.00000000000E+00  0.00000000000E+00 -0.14666878765E+04  0.14666878765E+04  0.50400001928E-02 0.  1.
    10030    2    1    2    0    0  0.00000000000E+00  0.00000000000E+00 -0.41786663752E+03  0.25155091154E+04  0.24805591271E+04 0.  0.
        4    1    3    3  502    0 -0.85133677284E+03 -0.23150976276E+03  0.67508334736E+03  0.11109051309E+04  0.12699999809E+01 0. -1.
       -4    1    3    3    0  502  0.85133677284E+03  0.23150976276E+03 -0.10929499849E+04  0.14046039845E+04  0.12699999809E+01 0.  1.
</event>
<event>
 5   0  0.1421242E-05  0.2490862E+04  0.7818609E-02  0.8406248E-01
       -1   -1    0    0    0  501  0.00000000000E+00  0.00000000000E+00  0.11616702781E+04  0.11616702781E+04  0.50400001928E-02 0.  1.
        1   -1    0    0  501    0  0.00000000000E+00  0.00000000000E+00 -0.13352310784E+04  0.13352310784E+04  0.50400001928E-02 0. -1.
    10030    2    1    2    0    0  0.00000000000E+00  0.00000000000E+00 -0.17356080036E+03  0.24969013565E+04  0.24908619056E+04 0.  0.
        3    1    3    3  502    0  0.10548297898E+04  0.51745209442E+03 -0.50091123839E+03  0.12772371097E+04  0.10100000352E+00 0.  1.
       -3    1    3    3    0  502 -0.10548297898E+04 -0.51745209442E+03  0.32735043802E+03  0.12196642468E+04  0.10100000352E+00 0. -1.
</event>
<event>
 5   0  0.1429483E-05  0.2515036E+04  0.7818609E-02  0.8397648E-01
       -1   -1    0    0    0  501  0.00000000000E+00  0.00000000000E+00  0.16081031482E+04  0.16081031482E+04  0.50400001928E-02 0. -1.
        1   -1    0    0  501    0  0.00000000000E+00  0.00000000000E+00 -0.98336425618E+03  0.98336425620E+03  0.50400001928E-02 0.  1.
    10030    2    1    2    0    0  0.00000000000E+00  0.00000000000E+00  0.62473889206E+03  0.25914674044E+04  0.25150357105E+04 0.  0.
        2    1    3    3  502    0 -0.74213247351E+03 -0.12157249477E+02  0.13583257183E+04  0.15478879688E+04  0.25500000920E-02 0. -1.
       -2    1    3    3    0  502  0.74213247351E+03  0.12157249477E+02 -0.73358682622E+03  0.10435794357E+04  0.25500000920E-02 0.  1.
</event>
<event>
 5   0  0.3581449E-05  0.2478274E+04  0.7818609E-02  0.8410767E-01
       -2   -1    0    0    0  501  0.00000000000E+00  0.00000000000E+00  0.10036325079E+04  0.10036325080E+04  0.25500000920E-02 0. -1.
        2   -1    0    0  501    0  0.00000000000E+00  0.00000000000E+00 -0.15299026570E+04  0.15299026570E+04  0.25500000920E-02 0.  1.
    10030    2    1    2    0    0  0.00000000000E+00  0.00000000000E+00 -0.52627014901E+03  0.25335351649E+04  0.24782736254E+04 0.  0.
        1    1    3    3  502    0 -0.84577451291E+03  0.22817877046E+03 -0.11590674797E+04  0.14528721556E+04  0.50400001928E-02 0.  1.
       -1    1    3    3    0  502  0.84577451291E+03 -0.22817877046E+03  0.63279733069E+03  0.10806630093E+04  0.50400001928E-02 0. -1.
</event>
<event>
 5   0  0.3579097E-05  0.2506788E+04  0.7818609E-02  0.8400571E-01
        2   -1    0    0  501    0  0.00000000000E+00  0.00000000000E+00  0.18963074034E+04  0.18963074034E+04  0.25500000920E-02 0.  1.
       -2   -1    0    0    0  501  0.00000000000E+00  0.00000000000E+00 -0.82845009477E+03  0.82845009478E+03  0.25500000920E-02 0. -1.
    10030    2    1    2    0    0  0.00000000000E+00  0.00000000000E+00  0.10678573086E+04  0.27247574982E+04  0.25067876241E+04 0.  0.
        5    1    3    3  502    0  0.11748528319E+04 -0.29206262234E+03  0.18105544871E+03  0.12240845222E+04  0.46999998093E+01 0. -1.
       -5    1    3    3    0  502 -0.11748528319E+04  0.29206262234E+03  0.88680185992E+03  0.15006729760E+04  0.46999998093E+01 0.  1.
</event>
<event>
 5   0  0.1492639E-05  0.2390007E+04  0.7818609E-02  0.8443254E-01
       -1   -1    0    0    0  501  0.00000000000E+00  0.00000000000E+00  0.79143193380E+03  0.79143193382E+03  0.50400001928E-02 0.  1.
        1   -1    0    0  501    0  0.00000000000E+00  0.00000000000E+00 -0.18043665621E+04  0.18043665621E+04  0.50400001928E-02 0. -1.
    10030    2    1    2    0    0  0.00000000000E+00  0.00000000000E+00 -0.10129346283E+04  0.25957984959E+04  0.23900069603E+04 0.  0.
        5    1    3    3  502    0  0.85984833118E+03  0.45884603759E+03 -0.12574776130E+04  0.15909591057E+04  0.46999998093E+01 0. -1.
       -5    1    3    3    0  502 -0.85984833118E+03 -0.45884603759E+03  0.24454298466E+03  0.10048393902E+04  0.46999998093E+01 0.  1.
</event>
<event>
 5   0  0.3578670E-05  0.2578275E+04  0.7818609E-02  0.8375618E-01
       -2   -1    0    0    0  501  0.00000000000E+00  0.00000000000E+00  0.77980172170E+03  0.77980172170E+03  0.25500000920E-02 0.  1.
        2   -1    0    0  501    0  0.00000000000E+00  0.00000000000E+00 -0.21311521204E+04  0.21311521204E+04  0.25500000920E-02 0. -1.
    10030    2    1    2    0    0  0.00000000000E+00  0.00000000000E+00 -0.13513503987E+04  0.29109538421E+04  0.25782754645E+04 0.  0.
        4    1    3    3  502    0 -0.11640525181E+04  0.19482843974E+03 -0.90211644660E+02  0.11836875177E+04  0.12699999809E+01 0.  1.
       -4    1    3    3    0  502  0.11640525181E+04 -0.19482843974E+03 -0.12611387540E+04  0.17272663245E+04  0.12699999809E+01 0. -1.
</event>
<event>
 5   0  0.1456876E-05  0.2482411E+04  0.7818609E-02  0.8409279E-01
       -1   -1    0    0    0  501  0.00000000000E+00  0.00000000000E+00  0.10086081184E+04  0.10086081184E+04  0.50400001928E-02 0. -1.
        1   -1    0    0  501    0  0.00000000000E+00  0.00000000000E+00 -0.15274426830E+04  0.15274426831E+04  0.50400001928E-02 0.  1.
    10030    2    1    2    0    0  0.00000000000E+00  0.00000000000E+00 -0.51883456469E+03  0.25360508014E+04  0.24824109978E+04 0.  0.
        1    1    3    3  502    0  0.55471690919E+03 -0.58371442136E+03 -0.12243678816E+04  0.14654385297E+04  0.50400001928E-02 0.  1.
       -1    1    3    3    0  502 -0.55471690919E+03  0.58371442136E+03  0.70553331686E+03  0.10706122717E+04  0.50400001928E-02 0. -1.
</event>
<event>
 5   0  0.1492639E-05  0.2507143E+04  0.7818609E-02  0.8400445E-01
       -1   -1    0    0    0  501  0.00000000000E+00  0.00000000000E+00  0.10206633611E+04  0.10206633611E+04  0.50400001928E-02 0.  1.
        1   -1    0    0  501    0  0.00000000000E+00  0.00000000000E+00 -0.15396272225E+04  0.15396272225E+04  0.50400001928E-02 0. -1.
    10030    2    1    2    0    0  0.00000000000E+00  0.00000000000E+00 -0.51896386143E+03  0.25602905836E+04  0.25071426730E+04 0.  0.
        5    1    3    3  502    0  0.10250154290E+04  0.23378982664E+02 -0.99603149841E+03  0.14294418639E+04  0.46999998093E+01 0. -1.
       -5    1    3    3    0  502 -0.10250154290E+04 -0.23378982664E+02  0.47706763698E+03  0.11308487196E+04  0.46999998093E+01 0.  1.
</event>
<event>
 5   0  0.1429483E-05  0.2515559E+04  0.7818609E-02  0.8397463E-01
       -1   -1    0    0    0  501  0.00000000000E+00  0.00000000000E+00  0.57565360460E+03  0.57565360462E+03  0.50400001928E-02 0.  1.
        1   -1    0    0  501    0  0.00000000000E+00  0.00000000000E+00 -0.27481973124E+04  0.27481973124E+04  0.50400001928E-02 0. -1.
    10030    2    1    2    0    0  0.00000000000E+00  0.00000000000E+00 -0.21725437078E+04  0.33238509170E+04  0.25155593327E+04 0.  0.
        2    1    3    3  502    0  0.25240186008E+03  0.12151511440E+04 -0.81641674543E+03  0.14855420910E+04  0.25500000920E-02 0.  1.
       -2    1    3    3    0  502 -0.25240186008E+03 -0.12151511440E+04 -0.13561269624E+04  0.18383088260E+04  0.25500000920E-02 0. -1.
</event>
<event>
 5   0  0.1429483E-05  0.2470300E+04  0.7818609E-02  0.8413643E-01
        1   -1    0    0  501    0  0.00000000000E+00  0.00000000000E+00  0.17062827995E+04  0.17062827996E+04  0.50400001928E-02 0.  1.
       -1   -1    0    0    0  501  0.00000000000E+00  0.00000000000E+00 -0.89410444466E+03  0.89410444467E+03  0.50400001928E-02 0. -1.
    10030    2    1    2    0    0  0.00000000000E+00  0.00000000000E+00  0.81217835489E+03  0.26003872442E+04  0.24702996053E+04 0.  0.
        2    1    3    3  502    0 -0.30686024598E+03 -0.40818197021E+03 -0.77777707490E+03  0.93043694554E+03  0.25500000920E-02 0. -1.
       -2    1    3    3    0  502  0.30686024598E+03  0.40818197021E+03  0.15899554298E+04  0.16699502987E+04  0.25500000920E-02 0.  1.
</event>
<event>
 5   0  0.1201438E-05  0.2641286E+04  0.7818609E-02  0.8354311E-01
       -3   -1    0    0    0  501  0.00000000000E+00  0.00000000000E+00  0.13993674796E+04  0.13993674833E+04  0.10100000352E+00 0.  1.
        3   -1    0    0  501    0  0.00000000000E+00  0.00000000000E+00 -0.12463476494E+04  0.12463476535E+04  0.10100000352E+00 0. -1.
    10030    2    1    2    0    0  0.00000000000E+00  0.00000000000E+00  0.15301983022E+03  0.26457151368E+04  0.26412863375E+04 0.  0.
        4    1    3    3  502    0 -0.96021028478E+03 -0.83703313814E+03  0.42561761926E+03  0.13430488584E+04  0.12699999809E+01 0. -1.
       -4    1    3    3    0  502  0.96021028478E+03  0.83703313814E+03 -0.27259778904E+03  0.13026662784E+04  0.12699999809E+01 0.  1.
</event>
<event>
 5   0  0.1201438E-05  0.2496644E+04  0.7818609E-02  0.8404182E-01
       -3   -1    0    0    0  501  0.00000000000E+00  0.00000000000E+00  0.16071049824E+04  0.16071049855E+04  0.10100000352E+00 0. -1.
        3   -1    0    0  501    0  0.00000000000E+00  0.00000000000E+00 -0.96963642510E+03  0.96963643036E+03  0.10100000352E+00 0.  1.
    10030    2    1    2    0    0  0.00000000000E+00  0.00000000000E+00  0.63746855726E+03  0.25767414159E+04  0.24966437797E+04 0.  0.
        2    1    3    3  502    0 -0.11295866560E+04 -0.24838479879E+03 -0.16606592813E+03  0.11684343859E+04  0.25500000920E-02 0.  1.
       -2    1    3    3    0  502  0.11295866560E+04  0.24838479879E+03  0.80353448539E+03  0.14083070300E+04  0.25500000920E-02 0. -1.
</event>
<event>
 5   0  0.1502886E-05  0.2496135E+04  0.7818609E-02  0.8404364E-01
       -1   -1    0    0    0  501  0.00000000000E+00  0.00000000000E+00  0.12573946749E+04  0.12573946749E+04  0.50400001928E-02 0.  1.
        1   -1    0    0  501    0  0.00000000000E+00  0.00000000000E+00 -0.12388098936E+04  0.12388098936E+04  0.50400001928E-02 0. -1.
    10030    2    1    2    0    0  0.00000000000E+00  0.00000000000E+00  0.18584781374E+02  0.24962045685E+04  0.24961353837E+04 0.  0.
        4    1    3    3  502    0 -0.22601868586E+03 -0.78723992254E+03 -0.93245564883E+03  0.12410907670E+04  0.12699999809E+01 0. -1.
       -4    1    3    3    0  502  0.22601868586E+03  0.78723992254E+03  0.95104043020E+03  0.12551138015E+04  0.12699999809E+01 0.  1.
</event>
<event>
 5   0  0.1429483E-05  0.2515898E+04  0.7818609E-02  0.8397344E-01
        1   -1    0    0  501    0  0.00000000000E+00  0.00000000000E+00  0.19144205869E+04  0.19144205869E+04  0.50400001928E-02 0.  1.
       -1   -1    0    0    0  501  0.00000000000E+00  0.00000000000E+00 -0.82658740760E+03  0.82658740761E+03  0.50400001928E-02 0. -1.
    10030    2    1    2    0    0  0.00000000000E+00  0.00000000000E+00  0.10878331793E+04  0.27410079945E+04  0.25158982094E+04 0.  0.
        2    1    3    3  502    0 -0.94621832048E+03  0.56952571219E+03 -0.11225788523E+03  0.11100857983E+04  0.25500000920E-02 0. -1.
       -2    1    3    3    0  502  0.94621832048E+03 -0.56952571219E+03  0.12000910645E+04  0.16309221962E+04  0.25500000920E-02 0.  1.
</event>
<event>
 5   0  0.1429483E-05  0.2513976E+04  0.7818609E-02  0.8398023E-01
       -1   -1    0    0    0  501  0.00000000000E+00  0.00000000000E+00  0.14204287500E+04  0.14204287500E+04  0.50400001928E-02 0.  1.
        1   -1    0    0  501    0  0.00000000000E+00  0.00000000000E+00 -0.11123537185E+04  0.11123537185E+04  0.50400001928E-02 0. -1.
    10030    2    1    2    0    0  0.00000000000E+00  0.00000000000E+00  0.30807503148E+03  0.25327824685E+04  0.25139762941E+04 0.  0.
        2    1    3    3  502    0 -0.78788926501E+03  0.29313208209E+03  0.10955459925E+04  0.13809116312E+04  0.25500000920E-02 0.  1.
       -2    1    3    3    0  502  0.78788926501E+03 -0.29313208209E+03 -0.78747096097E+03  0.11518708373E+04  0.25500000920E-02 0. -1.
</event>
<event>
 5   0  0.3581449E-05  0.2461941E+04  0.7818609E-02  0.8416671E-01
       -2   -1    0    0    0  501  0.00000000000E+00  0.00000000000E+00  0.96847333865E+03  0.96847333866E+03  0.25500000920E-02 0. -1.
        2   -1    0    0  501    0  0.00000000000E+00  0.00000000000E+00 -0.15646154003E+04  0.15646154003E+04  0.25500000920E-02 0.  1.
    10030    2    1    2    0    0  0.00000000000E+00  0.00000000000E+00 -0.59614206167E+03  0.25330887390E+04  0.24619409420E+04 0.  0.
        1    1    3    3  502    0 -0.10279510627E+04 -0.10694221208E+03  0.38996038121E+03  0.11046217103E+04  0.50400001928E-02 0. -1.
       -1    1    3    3    0  502  0.10279510627E+04  0.10694221208E+03 -0.98610244288E+03  0.14284670286E+04  0.50400001928E-02 0.  1.
</event>
<event>
 5   0  0.1492639E-05  0.2448910E+04  0.7818609E-02  0.8421416E-01
        1   -1    0    0  501    0  0.00000000000E+00  0.00000000000E+00  0.24034741119E+04  0.24034741119E+04  0.50400001928E-02 0. -1.
       -1   -1    0    0    0  501  0.00000000000E+00  0.00000000000E+00 -0.62380104015E+03  0.62380104017E+03  0.50400001928E-02 0.  1.
    10030    2    1    2    0    0  0.00000000000E+00  0.00000000000E+00  0.17796730717E+04  0.30272751521E+04  0.24489096766E+04 0.  0.
        5    1    3    3  502    0  0.80141929094E+03  0.41914527935E+03  0.19101934725E+04  0.21134845250E+04  0.46999998093E+01 0. -1.
       -5    1    3    3    0  502 -0.80141929094E+03 -0.41914527935E+03 -0.13052040076E+03  0.91379062706E+03  0.46999998093E+01 0.  1.
</event>
<event>
 5   0  0.1429483E-05  0.2281315E+04  0.7818609E-02  0.8485325E-01
        1   -1    0    0  501    0  0.00000000000E+00  0.00000000000E+00  0.20167391722E+04  0.20167391722E+04  0.50400001928E-02 0. -1.
       -1   -1    0    0    0  501  0.00000000000E+00  0.00000000000E+00 -0.64515017246E+03  0.64515017248E+03  0.50400001928E-02 0.  1.
    10030    2    1    2    0    0  0.00000000000E+00  0.00000000000E+00  0.13715889997E+04  0.26618893447E+04  0.22813150811E+04 0.  0.
        2    1    3    3  502    0  0.56737855043E+03 -0.95538009105E+03  0.98653168924E+03  0.14859052163E+04  0.25500000920E-02 0. -1.
       -2    1    3    3    0  502 -0.56737855043E+03  0.95538009105E+03  0.38505731046E+03  0.11759841284E+04  0.25500000920E-02 0.  1.
</event>
<event>
 5   0  0.1456876E-05  0.2533578E+04  0.7818609E-02  0.8391120E-01
        1   -1    0    0  501    0  0.00000000000E+00  0.00000000000E+00  0.20505720361E+04  0.20505720361E+04  0.50400001928E-02 0.  1.
       -1   -1    0    0    0  501  0.00000000000E+00  0.00000000000E+00 -0.78258882589E+03  0.78258882590E+03  0.50400001928E-02 0. -1.
    10030    2    1    2    0    0  0.00000000000E+00  0.00000000000E+00  0.12679832102E+04  0.28331608620E+04  0.25335783091E+04 0.  0.
        1    1    3    3  502    0  0.83789436694E+03 -0.48424911907E+03  0.15480776457E+04  0.18256803052E+04  0.50400001928E-02 0.  1.
       -1    1    3    3    0  502 -0.83789436694E+03  0.48424911907E+03 -0.28009443555E+03  0.10074805568E+04  0.50400001928E-02 0. -1.
</event>
<event>
 5   0  0.3579097E-05  0.2499334E+04  0.7818609E-02  0.8403223E-01
        2   -1    0    0  501    0  0.00000000000E+00  0.00000000000E+00  0.14859200533E+04  0.14859200533E+04  0.25500000920E-02 0.  1.
       -2   -1    0    0    0  501  0.00000000000E+00  0.00000000000E+00 -0.10509766480E+04  0.10509766480E+04  0.25500000920E-02 0. -1.
    10030    2    1    2    0    0  0.00000000000E+00  0.00000000000E+00  0.43494340526E+03  0.25368967013E+04  0.24993337327E+04 0.  0.
        5    1    3    3  502    0 -0.12120438536E+04  0.30355170396E+03  0.23903353106E+03  0.12721450621E+04  0.46999998093E+01 0.  1.
       -5    1    3    3    0  502  0.12120438536E+04 -0.30355170396E+03  0.19590987421E+03  0.12647516392E+04  0.46999998093E+01 0. -1.
</event>
<event>
 5   0  0.3579097E-05  0.2530190E+04  0.7818609E-02  0.8392308E-01
        2   -1    0    0  501    0  0.00000000000E+00  0.00000000000E+00  0.16643804376E+04  0.16643804376E+04  0.25500000920E-02 0. -1.
       -2   -1    0    0    0  501  0.00000000000E+00  0.00000000000E+00 -0.96159823797E+03  0.96159823798E+03  0.25500000920E-02 0.  1.
    10030    2    1    2    0    0  0.00000000000E+00  0.00000000000E+00  0.70278219960E+03  0.26259786756E+04  0.25301899503E+04 0.  0.
        5    1    3    3  502    0 -0.27241409028E+03  0.12318270634E+04  0.25383321642E+03  0.12868802362E+04  0.46999998093E+01 0.  1.
       -5    1    3    3    0  502  0.27241409028E+03 -0.12318270634E+04  0.44894898319E+03  0.13390984393E+04  0.46999998093E+01 0. -1.
</event>
<event>
 5   0  0.3578670E-05  0.2479209E+04  0.7818609E-02  0.8410430E-01
        2   -1    0    0  501    0  0.00000000000E+00  0.00000000000E+00  0.21090442398E+04  0.21090442398E+04  0.25500000920E-02 0. -1.
       -2   -1    0    0    0  501  0.00000000000E+00  0.00000000000E+00 -0.72858573337E+03  0.72858573337E+03  0.25500000920E-02 0.  1.
    10030    2    1    2    0    0  0.00000000000E+00  0.00000000000E+00  0.13804585064E+04  0.28376299732E+04  0.24792091837E+04 0.  0.
        4    1    3    3  502    0  0.10990367738E+04  0.57186098146E+03  0.73757518735E+03  0.14418479747E+04  0.12699999809E+01 0. -1.
       -4    1    3    3    0  502 -0.10990367738E+04 -0.57186098146E+03  0.64288331910E+03  0.13957819985E+04  0.12699999809E+01 0.  1.
</event>
<event>
 5   0  0.1492639E-05  0.2499831E+04  0.7818609E-02  0.8403046E-01
       -1   -1    0    0    0  501  0.00000000000E+00  0.00000000000E+00  0.14623265286E+04  0.14623265286E+04  0.50400001928E-02 0.  1.
        1   -1    0    0  501    0  0.00000000000E+00  0.00000000000E+00 -0.10683580808E+04  0.10683580808E+04  0.50400001928E-02 0. -1.
    10030    2    1    2    0    0  0.00000000000E+00  0.00000000000E+00  0.39396844777E+03  0.25306846094E+04  0.24998306852E+04 0.  0.
        5    1    3    3  502    0  0.34278230524E+03 -0.11710878783E+04  0.47110244559E+03  0.13080161053E+04  0.46999998093E+01 0. -1.
       -5    1    3    3    0  502 -0.34278230524E+03  0.11710878783E+04 -0.77133997821E+02  0.12226685042E+04  0.46999998093E+01 0.  1.
</event>
<event>
 5   0  0.3704241E-05  0.2362406E+04  0.7818609E-02  0.8453714E-01
        2   -1    0    0  501    0  0.00000000000E+00  0.00000000000E+00  0.10455969481E+04  0.10455969481E+04  0.25500000920E-02 0.  1.
       -2   -1    0    0    0  501  0.00000000000E+00  0.00000000000E+00 -0.13343955771E+04  0.13343955771E+04  0.25500000920E-02 0. -1.
    10030    2    1    2    0    0  0.00000000000E+00  0.00000000000E+00 -0.28879862898E+03  0.23799925252E+04  0.23624055054E+04 0.  0.
        2    1    3    3  502    0  0.42196457863E+03  0.35944280182E+03 -0.11952304741E+04  0.13175086791E+04  0.25500000920E-02 0. -1.
       -2    1    3    3    0  502 -0.42196457863E+03 -0.35944280182E+03  0.90643184507E+03  0.10624838461E+04  0.25500000920E-02 0.  1.
</event>
<event>
 5   0  0.1429483E-05  0.2488717E+04  0.7818609E-02  0.8407016E-01
        1   -1    0    0  501    0  0.00000000000E+00  0.00000000000E+00  0.14472791483E+04  0.14472791483E+04  0.50400001928E-02 0. -1.
       -1   -1    0    0    0  501  0.00000000000E+00  0.00000000000E+00 -0.10698886569E+04  0.10698886569E+04  0.50400001928E-02 0.  1.
    10030    2    1    2    0    0  0.00000000000E+00  0.00000000000E+00  0.37739049134E+03  0.25171678052E+04  0.24887165722E+04 0.  0.
        2    1    3    3  502    0  0.12235582603E+03  0.45754030384E+02 -0.10629343590E+04  0.10709312914E+04  0.25500000920E-02 0.  1.
       -2    1    3    3    0  502 -0.12235582603E+03 -0.45754030384E+02  0.14403248503E+04  0.14462365138E+04  0.25500000920E-02 0. -1.
</event>
<event>
 5   0  0.3704241E-05  0.2533497E+04  0.7818609E-02  0.8391148E-01
       -2   -1    0    0    0  501  0.00000000000E+00  0.00000000000E+00  0.15080718503E+04  0.15080718503E+04  0.25500000920E-02 0. -1.
        2   -1    0    0  501    0  0.00000000000E+00  0.00000000000E+00 -0.10640419913E+04  0.10640419913E+04  0.25500000920E-02 0.  1.
    10030    2    1    2    0    0  0.00000000000E+00  0.00000000000E+00  0.44402985894E+03  0.25721138416E+04  0.25334970098E+04 0.  0.
        2    1    3    3  502    0  0.58334109893E+03  0.42727811950E+03  0.12779639385E+04  0.14683477984E+04  0.25500000920E-02 0. -1.
       -2    1    3    3    0  502 -0.58334109893E+03 -0.42727811950E+03 -0.83393407952E+03  0.11037660432E+04  0.25500000920E-02 0.  1.
</event>
<event>
 5   0  0.1492639E-05  0.2492871E+04  0.7818609E-02  0.8405530E-01
        1   -1    0    0  501    0  0.00000000000E+00  0.00000000000E+00  0.15473248065E+04  0.15473248065E+04  0.50400001928E-02 0.  1.
       -1   -1    0    0    0  501  0.00000000000E+00  0.00000000000E+00 -0.10040563530E+04  0.10040563530E+04  0.50400001928E-02 0. -1.
    10030    2    1    2    0    0  0.00000000000E+00  0.00000000000E+00  0.54326845351E+03  0.25513811595E+04  0.24928708768E+04 0.  0.
        5    1    3    3  502    0  0.43904787482E+03  0.53117719418E+03 -0.79133146927E+03  0.10493521012E+04  0.46999998093E+01 0. -1.
       -5    1    3    3    0  502 -0.43904787482E+03 -0.53117719418E+03  0.13345999228E+04  0.15020290583E+04  0.46999998093E+01 0.  1.
</event>
<event>
 5   0  0.3578670E-05  0.2448546E+04  0.7818609E-02  0.8421549E-01
        2   -1    0    0  501    0  0.00000000000E+00  0.00000000000E+00  0.79376686754E+03  0.79376686754E+03  0.25500000920E-02 0. -1.
       -2   -1    0    0    0  501  0.00000000000E+00  0.00000000000E+00 -0.18882671571E+04  0.18882671571E+04  0.25500000920E-02 0.  1.
    10030    2    1    2    0    0  0.00000000000E+00  0.00000000000E+00 -0.10945002895E+04  0.26820340246E+04  0.24485456143E+04 0.  0.
        4    1    3    3  502    0 -0.44580257009E+03 -0.11295734943E+04 -0.37697188030E+03  0.12715288522E+04  0.12699999809E+01 0. -1.
       -4    1    3    3    0  502  0.44580257009E+03  0.11295734943E+04 -0.71752840922E+03  0.14105051724E+04  0.12699999809E+01 0.  1.
</event>
<event>
 5   0  0.1456876E-05  0.2518917E+04  0.7818609E-02  0.8396277E-01
       -1   -1    0    0    0  501  0.00000000000E+00  0.00000000000E+00  0.84201092160E+03  0.84201092162E+03  0.50400001928E-02 0. -1.
        1   -1    0    0  501    0  0.00000000000E+00  0.00000000000E+00 -0.18838660236E+04  0.18838660236E+04  0.50400001928E-02 0.  1.
    10030    2    1    2    0    0  0.00000000000E+00  0.00000000000E+00 -0.10418551020E+04  0.27258769452E+04  0.25189170425E+04 0.  0.
        1    1    3    3  502    0 -0.10261288346E+04  0.48215896394E+03  0.72604771211E+02  0.11360849900E+04  0.50400001928E-02 0.  1.
       -1    1    3    3    0  502  0.10261288346E+04 -0.48215896394E+03 -0.11144598732E+04  0.15897919552E+04  0.50400001928E-02 0. -1.
</event>
<event>
 5   0  0.1492639E-05  0.2524116E+04  0.7818609E-02  0.8394444E-01
        1   -1    0    0  501    0  0.00000000000E+00  0.00000000000E+00  0.17145502090E+04  0.17145502091E+04  0.50400001928E-02 0. -1.
       -1   -1    0    0    0  501  0.00000000000E+00  0.00000000000E+00 -0.92898447669E+03  0.92898447670E+03  0.50400001928E-02 0.  1.
    10030    2    1    2    0    0  0.00000000000E+00  0.00000000000E+00  0.78556573236E+03  0.26435346858E+04  0.25241161057E+04 0.  0.
        5    1    3    3  502    0  0.67274961684E+03  0.12785001661E+03  0.15030465733E+04  0.16516987513E+04  0.46999998093E+01 0. -1.
       -5    1    3    3    0  502 -0.67274961684E+03 -0.12785001661E+03 -0.71748084093E+03  0.99183593442E+03  0.46999998093E+01 0.  1.
</event>
<event>
 5   0  0.1456876E-05  0.2484900E+04  0.7818609E-02  0.8408385E-01
       -1   -1    0    0    0  501  0.00000000000E+00  0.00000000000E+00  0.14681784734E+04  0.14681784734E+04  0.50400001928E-02 0.  1.
        1   -1    0    0  501    0  0.00000000000E+00  0.00000000000E+00 -0.10514266009E+04  0.10514266009E+04  0.50400001928E-02 0. -1.
    10030    2    1    2    0    0  0.00000000000E+00  0.00000000000E+00  0.41675187246E+03  0.25196050743E+04  0.24848999190E+04 0.  0.
        1    1    3    3  502    0  0.54882995305E+03  0.31651817332E+03  0.12920797132E+04  0.14390510959E+04  0.50400001928E-02 0.  1.
       -1    1    3    3    0  502 -0.54882995305E+03 -0.31651817332E+03 -0.87532784073E+03  0.10805539784E+04  0.50400001928E-02 0. -1.
</event>
<event>
 5   0  0.3704241E-05  0.2484116E+04  0.7818609E-02  0.8408666E-01
       -2   -1    0    0    0  501  0.00000000000E+00  0.00000000000E+00  0.90964197783E+03  0.90964197784E+03  0.25500000920E-02 0. -1.
        2   -1    0    0  501    0  0.00000000000E+00  0.00000000000E+00 -0.16959502621E+04  0.16959502621E+04  0.25500000920E-02 0.  1.
    10030    2    1    2    0    0  0.00000000000E+00  0.00000000000E+00 -0.78630828430E+03  0.26055922400E+04  0.24841155776E+04 0.  0.
        2    1    3    3  502    0  0.24522307815E+03  0.93675379334E+03 -0.12090521217E+04  0.15490155133E+04  0.25500000920E-02 0.  1.
       -2    1    3    3    0  502 -0.24522307815E+03 -0.93675379334E+03  0.42274383736E+03  0.10565767267E+04  0.25500000920E-02 0. -1.
</event>
<event>
 5   0  0.3650620E-05  0.2467881E+04  0.7818609E-02  0.8414518E-01
        2   -1    0    0  501    0  0.00000000000E+00  0.00000000000E+00  0.11998813406E+04  0.11998813406E+04  0.25500000920E-02 0. -1.
       -2   -1    0    0    0  501  0.00000000000E+00  0.00000000000E+00 -0.12689663962E+04  0.12689663962E+04  0.25500000920E-02 0.  1.
    10030    2    1    2    0    0  0.00000000000E+00  0.00000000000E+00 -0.69085055539E+02  0.24688477368E+04  0.24678809539E+04 0.  0.
        3    1    3    3  502    0  0.37687066046E+03 -0.11013820602E+04  0.37492840091E+03  0.12229657613E+04  0.10100000352E+00 0.  1.
       -3    1    3    3    0  502 -0.37687066046E+03  0.11013820602E+04 -0.44401345645E+03  0.12458819755E+04  0.10100000352E+00 0. -1.
</event>
<event>
 5   0  0.1492639E-05  0.2483543E+04  0.7818609E-02  0.8408872E-01
        1   -1    0    0  501    0  0.00000000000E+00  0.00000000000E+00  0.93367231816E+03  0.93367231818E+03  0.50400001928E-02 0. -1.
       -1   -1    0    0    0  501  0.00000000000E+00  0.00000000000E+00 -0.16515397695E+04  0.16515397695E+04  0.50400001928E-02 0.  1.
    10030    2    1    2    0    0  0.00000000000E+00  0.00000000000E+00 -0.71786745129E+03  0.25852120876E+04  0.24835434082E+04 0.  0.
        5    1    3    3  502    0 -0.83826300438E+03 -0.54928177336E+03  0.40427932855E+03  0.10806753428E+04  0.46999998093E+01 0. -1.
       -5    1    3    3    0  502  0.83826300438E+03  0.54928177336E+03 -0.11221467798E+04  0.15045367448E+04  0.46999998093E+01 0.  1.
</event>
<event>
 5   0  0.1201438E-05  0.2082889E+04  0.7818609E-02  0.8568819E-01
        4   -1    0    0  501    0  0.00000000000E+00  0.00000000000E+00  0.11360011702E+04  0.11360018801E+04  0.12699999809E+01 0. -1.
       -4   -1    0    0    0  501  0.00000000000E+00  0.00000000000E+00 -0.95475700960E+03  0.95475785426E+03  0.12699999809E+01 0.  1.
    10030    2    1    2    0    0  0.00000000000E+00  0.00000000000E+00  0.18124416060E+03  0.20907597344E+04  0.20828890564E+04 0.  0.
        3    1    3    3  502    0 -0.18586938858E+02  0.65058527459E+03 -0.72546917835E+03  0.97463439953E+03  0.10100000352E+00 0.  1.
       -3    1    3    3    0  502  0.18586938858E+02 -0.65058527459E+03  0.90671333896E+03  0.11161253348E+04  0.10100000352E+00 0. -1.
</event>
<event>
 5   0  0.3579097E-05  0.2553018E+04  0.7818609E-02  0.8384337E-01
        2   -1    0    0  501    0  0.00000000000E+00  0.00000000000E+00  0.10007070934E+04  0.10007070934E+04  0.25500000920E-02 0.  1.
       -2   -1    0    0    0  501  0.00000000000E+00  0.00000000000E+00 -0.16283233712E+04  0.16283233712E+04  0.25500000920E-02 0. -1.
    10030    2    1    2    0    0  0.00000000000E+00  0.00000000000E+00 -0.62761627775E+03  0.26290304646E+04  0.25530176246E+04 0.  0.
        5    1    3    3  502    0 -0.77606568627E+03 -0.98413349106E+03 -0.64407274505E+02  0.12549769180E+04  0.46999998093E+01 0. -1.
       -5    1    3    3    0  502  0.77606568627E+03  0.98413349106E+03 -0.56320900324E+03  0.13740535466E+04  0.46999998093E+01 0.  1.
</event>
<event>
 5   0  0.3579097E-05  0.2494345E+04  0.7818609E-02  0.8405003E-01
        2   -1    0    0  501    0  0.00000000000E+00  0.00000000000E+00  0.15515925024E+04  0.15515925024E+04  0.25500000920E-02 0. -1.
       -2   -1    0    0    0  501  0.00000000000E+00  0.00000000000E+00 -0.10024791049E+04  0.10024791049E+04  0.25500000920E-02 0.  1.
    10030    2    1    2    0    0  0.00000000000E+00  0.00000000000E+00  0.54911339746E+03  0.25540716073E+04  0.24943448542E+04 0.  0.
        5    1    3    3  502    0  0.94050969798E+03 -0.78311194386E+03  0.28822380022E+02  0.12242040795E+04  0.46999998093E+01 0.  1.
       -5    1    3    3    0  502 -0.94050969798E+03  0.78311194386E+03  0.52029101744E+03  0.13298675278E+04  0.46999998093E+01 0. -1.
</event>
<event>
 5   0  0.1456876E-05  0.2543818E+04  0.7818609E-02  0.8387539E-01
       -1   -1    0    0    0  501  0.00000000000E+00  0.00000000000E+00  0.11638272939E+04  0.11638272939E+04  0.50400001928E-02 0.  1.
        1   -1    0    0  501    0  0.00000000000E+00  0.00000000000E+00 -0.13900279546E+04  0.13900279546E+04  0.50400001928E-02 0. -1.
    10030    2    1    2    0    0  0.00000000000E+00  0.00000000000E+00 -0.22620066067E+03  0.25538552485E+04  0.25438179753E+04 0.  0.
        1    1    3    3  502    0 -0.58065605319E+03 -0.16325794508E+03 -0.12373124280E+04  0.13765015995E+04  0.50400001928E-02 0. -1.
       -1    1    3    3    0  502  0.58065605319E+03  0.16325794508E+03  0.10111117674E+04  0.11773536490E+04  0.50400001928E-02 0.  1.
</event>
<event>
 5   0  0.3578670E-05  0.2483922E+04  0.7818609E-02  0.8408736E-01
        2   -1    0    0  501    0  0.00000000000E+00  0.00000000000E+00  0.11766428689E+04  0.11766428689E+04  0.25500000920E-02 0. -1.
       -2   -1    0    0    0  501  0.00000000000E+00  0.00000000000E+00 -0.13109046254E+04  0.13109046254E+04  0.25500000920E-02 0.  1.
    10030    2    1    2    0    0  0.00000000000E+00  0.00000000000E+00 -0.13426175659E+03  0.24875474943E+04  0.24839215602E+04 0.  0.
        4    1    3    3  502    0 -0.82332030422E+03  0.91632676003E+03  0.91067789862E+02  0.12352352042E+04  0.12699999809E+01 0.  1.
       -4    1    3    3    0  502  0.82332030422E+03 -0.91632676003E+03 -0.22532954645E+03  0.12523122901E+04  0.12699999809E+01 0. -1.
</event>
<event>
 5   0  0.1456876E-05  0.2531229E+04  0.7818609E-02  0.8391944E-01
       -1   -1    0    0    0  501  0.00000000000E+00  0.00000000000E+00  0.88401774272E+03  0.88401774274E+03  0.50400001928E-02 0.  1.
        1   -1    0    0  501    0  0.00000000000E+00  0.00000000000E+00 -0.18119315161E+04  0.18119315161E+04  0.50400001928E-02 0. -1.
    10030    2    1    2    0    0  0.00000000000E+00  0.00000000000E+00 -0.92791377336E+03  0.26959492588E+04  0.25312286415E+04 0.  0.
        1    1    3    3  502    0 -0.10627706359E+04  0.57324811944E+03 -0.86768195647E+03  0.14869320121E+04  0.50400001928E-02 0.  1.
       -1    1    3    3    0  502  0.10627706359E+04 -0.57324811944E+03 -0.60231816887E+02  0.12090172467E+04  0.50400001928E-02 0. -1.
</event>
<event>
 5   0  0.1421242E-05  0.2510623E+04  0.7818609E-02  0.8399211E-01
       -1   -1    0    0    0  501  0.00000000000E+00  0.00000000000E+00  0.28594272893E+04  0.28594272893E+04  0.50400001928E-02 0. -1.
        1   -1    0    0  501    0  0.00000000000E+00  0.00000000000E+00 -0.55109200139E+03  0.55109200141E+03  0.50400001928E-02 0.  1.
    10030    2    1    2    0    0  0.00000000000E+00  0.00000000000E+00  0.23083352879E+04  0.34105192907E+04  0.25106234347E+04 0.  0.
        3    1    3    3  502    0  0.77112327124E+03  0.58122802114E+03  0.22437566556E+04  0.24427241047E+04  0.10100000352E+00 0. -1.
       -3    1    3    3    0  502 -0.77112327124E+03 -0.58122802114E+03  0.64578632267E+02  0.96779518595E+03  0.10100000352E+00 0.  1.
</event>
<event>
 5   0  0.1502886E-05  0.2212564E+04  0.7818609E-02  0.8513217E-01
       -1   -1    0    0    0  501  0.00000000000E+00  0.00000000000E+00  0.73379439427E+03  0.73379439428E+03  0.50400001928E-02 0.  1.
        1   -1    0    0  501    0  0.00000000000E+00  0.00000000000E+00 -0.16678517204E+04  0.16678517204E+04  0.50400001928E-02 0. -1.
    10030    2    1    2    0    0  0.00000000000E+00  0.00000000000E+00 -0.93405732610E+03  0.24016461147E+04  0.22125643429E+04 0.  0.
        4    1    3    3  502    0  0.89130068565E+03 -0.36943247074E+03  0.12048542060E+03  0.97232484909E+03  0.12699999809E+01 0.  1.
       -4    1    3    3    0  502 -0.89130068565E+03  0.36943247074E+03 -0.10545427467E+04  0.14293212656E+04  0.12699999809E+01 0. -1.
</event>
<event>
 5   0  0.3578670E-05  0.2505879E+04  0.7818609E-02  0.8400894E-01
        2   -1    0    0  501    0  0.00000000000E+00  0.00000000000E+00  0.11261942036E+04  0.11261942036E+04  0.25500000920E-02 0.  1.
       -2   -1    0    0    0  501  0.00000000000E+00  0.00000000000E+00 -0.13939491797E+04  0.13939491797E+04  0.25500000920E-02 0. -1.
    10030    2    1    2    0    0  0.00000000000E+00  0.00000000000E+00 -0.26775497614E+03  0.25201433833E+04  0.25058790763E+04 0.  0.
        4    1    3    3  502    0 -0.87545551818E+03 -0.80159616008E+03  0.26950056209E+03  0.12172144158E+04  0.12699999809E+01 0.  1.
       -4    1    3    3    0  502  0.87545551818E+03  0.80159616008E+03 -0.53725553822E+03  0.13029289675E+04  0.12699999809E+01 0. -1.
</event>
<event>
 5   0  0.1502886E-05  0.2519163E+04  0.7818609E-02  0.8396190E-01
        1   -1    0    0  501    0  0.00000000000E+00  0.00000000000E+00  0.11648884958E+04  0.11648884958E+04  0.50400001928E-02 0.  1.
       -1   -1    0    0    0  501  0.00000000000E+00  0.00000000000E+00 -0.13619723657E+04  0.13619723657E+04  0.50400001928E-02 0. -1.
    10030    2    1    2    0    0  0.00000000000E+00  0.00000000000E+00 -0.19708386988E+03  0.25268608615E+04  0.25191633058E+04 0.  0.
        4    1    3    3  502    0  0.51997785477E+03 -0.50995333997E+03 -0.11293566320E+04  0.13438293766E+04  0.12699999809E+01 0. -1.
       -4    1    3    3    0  502 -0.51997785477E+03  0.50995333997E+03  0.93227276207E+03  0.11830314849E+04  0.12699999809E+01 0.  1.
</event>
<event>
 5   0  0.1421242E-05  0.2415706E+04  0.7818609E-02  0.8433647E-01
       -1   -1    0    0    0  501  0.00000000000E+00  0.00000000000E+00  0.13604865599E+04  0.13604865599E+04  0.50400001928E-02 0.  1.
        1   -1    0    0  501    0  0.00000000000E+00  0.00000000000E+00 -0.10723436604E+04  0.10723436604E+04  0.50400001928E-02 0. -1.
    10030    2    1    2    0    0  0.00000000000E+00  0.00000000000E+00  0.28814289955E+03  0.24328302203E+04  0.24157062219E+04 0.  0.
        3    1    3    3  502    0 -0.40470331356E+03 -0.10107722329E+04  0.67071606111E+03  0.12787905707E+04  0.10100000352E+00 0.  1.
       -3    1    3    3    0  502  0.40470331356E+03  0.10107722329E+04 -0.38257316156E+03  0.11540396497E+04  0.10100000352E+00 0. -1.
</event>
<event>
 5   0  0.3581449E-05  0.2490710E+04  0.7818609E-02  0.8406302E-01
       -2   -1    0    0    0  501  0.00000000000E+00  0.00000000000E+00  0.84515417950E+03  0.84515417951E+03  0.25500000920E-02 0.  1.
        2   -1    0    0  501    0  0.00000000000E+00  0.00000000000E+00 -0.18350612088E+04  0.18350612088E+04  0.25500000920E-02 0. -1.
    10030    2    1    2    0    0  0.00000000000E+00  0.00000000000E+00 -0.98990702932E+03  0.26802153883E+04  0.24907104611E+04 0.  0.
        1    1    3    3  502    0 -0.10630536473E+04  0.12487481573E+03 -0.11799664716E+04  0.15931094284E+04  0.50400001928E-02 0. -1.
       -1    1    3    3    0  502  0.10630536473E+04 -0.12487481573E+03  0.19005944230E+03  0.10871059600E+04  0.50400001928E-02 0.  1.
</event>
<event>
 5   0  0.3579097E-05  0.2536957E+04  0.7818609E-02  0.8389936E-01
       -2   -1    0    0    0  501  0.00000000000E+00  0.00000000000E+00  0.98894451390E+03  0.98894451390E+03  0.25500000920E-02 0.  1.
        2   -1    0    0  501    0  0.00000000000E+00  0.00000000000E+00 -0.16270251594E+04  0.16270251594E+04  0.25500000920E-02 0. -1.
    10030    2    1    2    0    0  0.00000000000E+00  0.00000000000E+00 -0.63808064555E+03  0.26159696733E+04  0.25369569215E+04 0.  0.
        5    1    3    3  502    0 -0.29511895947E+03  0.23939411992E+03 -0.15669430215E+04  0.16123700777E+04  0.46999998093E+01 0. -1.
       -5    1    3    3    0  502  0.29511895947E+03 -0.23939411992E+03  0.92886237595E+03  0.10035995956E+04  0.46999998093E+01 0.  1.
</event>
<event>
 5   0  0.1502886E-05  0.2489508E+04  0.7818609E-02  0.8406733E-01
       -1   -1    0    0    0  501  0.00000000000E+00  0.00000000000E+00  0.90583775516E+03  0.90583775517E+03  0.50400001928E-02 0.  1.
        1   -1    0    0  501    0  0.00000000000E+00  0.00000000000E+00 -0.17104752600E+04  0.17104752601E+04  0.50400001928E-02 0. -1.
    10030    2    1    2    0    0  0.00000000000E+00  0.00000000000E+00 -0.80463750489E+03  0.26163130152E+04  0.24895084413E+04 0.  0.
        4    1    3    3  502    0  0.98750621336E+02  0.88933150688E+03  0.50705894003E+03  0.10284807222E+04  0.12699999809E+01 0.  1.
       -4    1    3    3    0  502 -0.98750621336E+02 -0.88933150688E+03 -0.13116964449E+04  0.15878322930E+04  0.12699999809E+01 0. -1.
</event>
<event>
 5   0  0.3578670E-05  0.2534478E+04  0.7818609E-02  0.8390804E-01
       -2   -1    0    0    0  501  0.00000000000E+00  0.00000000000E+00  0.12967724431E+04  0.12967724431E+04  0.25500000920E-02 0. -1.
        2   -1    0    0  501    0  0.00000000000E+00  0.00000000000E+00 -0.12383782669E+04  0.12383782670E+04  0.25500000920E-02 0.  1.
    10030    2    1    2    0    0  0.00000000000E+00  0.00000000000E+00  0.58394176102E+02  0.25351507100E+04  0.25344781006E+04 0.  0.
        4    1    3    3  502    0 -0.20537665737E+03  0.17406808729E+03  0.12678366328E+04  0.12961059411E+04  0.12699999809E+01 0. -1.
       -4    1    3    3    0  502  0.20537665737E+03 -0.17406808729E+03 -0.12094424567E+04  0.12390447689E+04  0.12699999809E+01 0.  1.
</event>
<event>
 5   0  0.3704241E-05  0.2508601E+04  0.7818609E-02  0.8399928E-01
        2   -1    0    0  501    0  0.00000000000E+00  0.00000000000E+00  0.17671877337E+04  0.17671877337E+04  0.25500000920E-02 0.  1.
       -2   -1    0    0    0  501  0.00000000000E+00  0.00000000000E+00 -0.89026725289E+03  0.89026725289E+03  0.25500000920E-02 0. -1.
    10030    2    1    2    0    0  0.00000000000E+00  0.00000000000E+00  0.87692048085E+03  0.26574549866E+04  0.25086007008E+04 0.  0.
        2    1    3    3  502    0 -0.22912748930E+03  0.21639818135E+03  0.17245596648E+04  0.17531211073E+04  0.25500000920E-02 0.  1.
       -2    1    3    3    0  502  0.22912748930E+03 -0.21639818135E+03 -0.84763918394E+03  0.90433387939E+03  0.25500000920E-02 0. -1.
</event>
<event>
 5   0  0.1456876E-05  0.2478622E+04  0.7818609E-02  0.8410641E-01
        1   -1    0    0  501    0  0.00000000000E+00  0.00000000000E+00  0.13208942975E+04  0.13208942975E+04  0.50400001928E-02 0.  1.
       -1   -1    0    0    0  501  0.00000000000E+00  0.00000000000E+00 -0.11627667544E+04  0.11627667544E+04  0.50400001928E-02 0. -1.
    10030    2    1    2    0    0  0.00000000000E+00  0.00000000000E+00  0.15812754314E+03  0.24836610519E+04  0.24786221779E+04 0.  0.
        1    1    3    3  502    0  0.32943009670E+03  0.79462476312E+03  0.97303174919E+03  0.12987468913E+04  0.50400001928E-02 0.  1.
       -1    1    3    3    0  502 -0.32943009670E+03 -0.79462476312E+03 -0.81490420606E+03  0.11849141605E+04  0.50400001928E-02 0. -1.
</event>
<event>
 5   0  0.3704241E-05  0.2457785E+04  0.7818609E-02  0.8418181E-01
       -2   -1    0    0    0  501  0.00000000000E+00  0.00000000000E+00  0.26006217508E+04  0.26006217508E+04  0.25500000920E-02 0.  1.
        2   -1    0    0  501    0  0.00000000000E+00  0.00000000000E+00 -0.58069832842E+03  0.58069832843E+03  0.25500000920E-02 0. -1.
    10030    2    1    2    0    0  0.00000000000E+00  0.00000000000E+00  0.20199234224E+04  0.31813200793E+04  0.24577849406E+04 0.  0.
        2    1    3    3  502    0 -0.81925561714E+03  0.38836549881E+03 -0.63807868241E+02  0.90888886611E+03  0.25500000920E-02 0. -1.
       -2    1    3    3    0  502  0.81925561714E+03 -0.38836549881E+03  0.20837312907E+04  0.22724312132E+04  0.25500000920E-02 0.  1.
</event>
<event>
 5   0  0.1502886E-05  0.2512492E+04  0.7818609E-02  0.8398549E-01
       -1   -1    0    0    0  501  0.00000000000E+00  0.00000000000E+00  0.71463415315E+03  0.71463415317E+03  0.50400001928E-02 0. -1.
        1   -1    0    0  501    0  0.00000000000E+00  0.00000000000E+00 -0.22083375839E+04  0.22083375839E+04  0.50400001928E-02 0.  1.
    10030    2    1    2    0    0  0.00000000000E+00  0.00000000000E+00 -0.14937034307E+04  0.29229717370E+04  0.25124915595E+04 0.  0.
        4    1    3    3  502    0 -0.12478380134E+04 -0.84828562121E+02 -0.88379568572E+03  0.15314672767E+04  0.12699999809E+01 0.  1.
       -4    1    3    3    0  502  0.12478380134E+04  0.84828562121E+02 -0.60990774499E+03  0.13915044603E+04  0.12699999809E+01 0. -1.
</event>
<event>
 5   0  0.1456876E-05  0.2453244E+04  0.7818609E-02  0.8419834E-01
        1   -1    0    0  501    0  0.00000000000E+00  0.00000000000E+00  0.63416815825E+03  0.63416815827E+03  0.50400001928E-02 0. -1.
       -1   -1    0    0    0  501  0.00000000000E+00  0.00000000000E+00 -0.23725593496E+04  0.23725593496E+04  0.50400001928E-02 0.  1.
    10030    2    1    2    0    0  0.00000000000E+00  0.00000000000E+00 -0.17383911914E+04  0.30067275079E+04  0.24532440507E+04 0.  0.
        1    1    3    3  502    0 -0.69485797520E+03 -0.48913634146E+03  0.21498326743E+03  0.87652710827E+03  0.50400001928E-02 0. -1.
       -1    1    3    3    0  502  0.69485797520E+03  0.48913634146E+03 -0.19533744588E+04  0.21302003996E+04  0.50400001928E-02 0.  1.
</event>
<event>
 5   0  0.3581449E-05  0.2521056E+04  0.7818609E-02  0.8395522E-01
       -2   -1    0    0    0  501  0.00000000000E+00  0.00000000000E+00  0.82253022472E+03  0.82253022472E+03  0.25500000920E-02 0.  1.
        2   -1    0    0  501    0  0.00000000000E+00  0.00000000000E+00 -0.19317605119E+04  0.19317605119E+04  0.25500000920E-02 0. -1.
    10030    2    1    2    0    0  0.00000000000E+00  0.00000000000E+00 -0.11092302872E+04  0.27542907366E+04  0.25210564515E+04 0.  0.
        1    1    3    3  502    0 -0.56031715104E+03  0.68842939203E+03 -0.15324254323E+04  0.17709370523E+04  0.50400001928E-02 0. -1.
       -1    1    3    3    0  502  0.56031715104E+03 -0.68842939203E+03  0.42319514514E+03  0.98335368432E+03  0.50400001928E-02 0.  1.
</event>
<event>
 5   0  0.3704241E-05  0.2424529E+04  0.7818609E-02  0.8430377E-01
       -2   -1    0    0    0  501  0.00000000000E+00  0.00000000000E+00  0.14049388871E+04  0.14049388871E+04  0.25500000920E-02 0.  1.
        2   -1    0    0  501    0  0.00000000000E+00  0.00000000000E+00 -0.10460132941E+04  0.10460132941E+04  0.25500000920E-02 0. -1.
    10030    2    1    2    0    0  0.00000000000E+00  0.00000000000E+00  0.35892559302E+03  0.24509521812E+04  0.24245286167E+04 0.  0.
        2    1    3    3  502    0 -0.14524404052E+03  0.33967929627E+03  0.13466486399E+04  0.13964026694E+04  0.25500000920E-02 0.  1.
       -2    1    3    3    0  502  0.14524404052E+03 -0.33967929627E+03 -0.98772304690E+03  0.10545495119E+04  0.25500000920E-02 0. -1.
</event>
<event>
 5   0  0.1456876E-05  0.2527509E+04  0.7818609E-02  0.8393250E-01
        1   -1    0    0  501    0  0.00000000000E+00  0.00000000000E+00  0.85068444954E+03  0.85068444956E+03  0.50400001928E-02 0.  1.
       -1   -1    0    0    0  501  0.00000000000E+00  0.00000000000E+00 -0.18774002868E+04  0.18774002868E+04  0.50400001928E-02 0. -1.
    10030    2    1    2    0    0  0.00000000000E+00  0.00000000000E+00 -0.10267158372E+04  0.27280847363E+04  0.25275088364E+04 0.  0.
        1    1    3    3  502    0 -0.74322033264E+03  0.82735134485E+03  0.13442591565E+03  0.11202486499E+04  0.50400001928E-02 0.  1.
       -1    1    3    3    0  502  0.74322033264E+03 -0.82735134485E+03 -0.11611417529E+04  0.16078360865E+04  0.50400001928E-02 0. -1.
</event>
<event>
 5   0  0.1429483E-05  0.2427246E+04  0.7818609E-02  0.8429373E-01
        1   -1    0    0  501    0  0.00000000000E+00  0.00000000000E+00  0.18320437184E+04  0.18320437184E+04  0.50400001928E-02 0. -1.
       -1   -1    0    0    0  501  0.00000000000E+00  0.00000000000E+00 -0.80395479847E+03  0.80395479849E+03  0.50400001928E-02 0.  1.
    10030    2    1    2    0    0  0.00000000000E+00  0.00000000000E+00  0.10280889199E+04  0.26359985169E+04  0.24272456311E+04 0.  0.
        2    1    3    3  502    0 -0.10398441277E+04 -0.56276805522E+03  0.21683500978E+03  0.12020819919E+04  0.25500000920E-02 0.  1.
       -2    1    3    3    0  502  0.10398441277E+04  0.56276805522E+03  0.81125391014E+03  0.14339165250E+04  0.25500000920E-02 0. -1.
</event>
<event>
 5   0  0.3581449E-05  0.2508817E+04  0.7818609E-02  0.8399851E-01
        2   -1    0    0  501    0  0.00000000000E+00  0.00000000000E+00  0.19799028311E+04  0.19799028311E+04  0.25500000920E-02 0.  1.
       -2   -1    0    0    0  501  0.00000000000E+00  0.00000000000E+00 -0.79475652147E+03  0.79475652147E+03  0.25500000920E-02 0. -1.
    10030    2    1    2    0    0  0.00000000000E+00  0.00000000000E+00  0.11851463096E+04  0.27746593526E+04  0.25088170016E+04 0.  0.
        1    1    3    3  502    0  0.10124842396E+04  0.69384071138E+03  0.30629864024E+03  0.12650526176E+04  0.50400001928E-02 0. -1.
       -1    1    3    3    0  502 -0.10124842396E+04 -0.69384071138E+03  0.87884766941E+03  0.15096067350E+04  0.50400001928E-02 0.  1.
</event>
<event>
 5   0  0.1429483E-05  0.2519741E+04  0.7818609E-02  0.8395986E-01
        1   -1    0    0  501    0  0.00000000000E+00  0.00000000000E+00  0.10141039871E+04  0.10141039872E+04  0.50400001928E-02 0.  1.
       -1   -1    0    0    0  501  0.00000000000E+00  0.00000000000E+00 -0.15651984197E+04  0.15651984197E+04  0.50400001928E-02 0. -1.
    10030    2    1    2    0    0  0.00000000000E+00  0.00000000000E+00 -0.55109443260E+03  0.25793024069E+04  0.25197412233E+04 0.  0.
        2    1    3    3  502    0 -0.87637801351E+03  0.86519965151E+03 -0.54765991336E+03  0.13477908741E+04  0.25500000920E-02 0. -1.
       -2    1    3    3    0  502  0.87637801351E+03 -0.86519965151E+03 -0.34345192405E+01  0.12315115328E+04  0.25500000920E-02 0.  1.
</event>
<event>
 5   0  0.1421242E-05  0.1933276E+04  0.7818609E-02  0.8638468E-01
        1   -1    0    0  501    0  0.00000000000E+00  0.00000000000E+00  0.14023087080E+04  0.14023087080E+04  0.50400001928E-02 0. -1.
       -1   -1    0    0    0  501  0.00000000000E+00  0.00000000000E+00 -0.66632157744E+03  0.66632157746E+03  0.50400001928E-02 0.  1.
    10030    2    1    2    0    0  0.00000000000E+00  0.00000000000E+00  0.73598713056E+03  0.20686302855E+04  0.19332755110E+04 0.  0.
        3    1    3    3  502    0  0.45981919109E+02 -0.30510601004E+03  0.13482007070E+04  0.13830579058E+04  0.10100000352E+00 0. -1.
       -3    1    3    3    0  502 -0.45981919109E+02  0.30510601004E+03 -0.61221357649E+03  0.68557237961E+03  0.10100000352E+00 0.  1.
</event>
<event>
 5   0  0.3581449E-05  0.2511650E+04  0.7818609E-02  0.8398847E-01
        2   -1    0    0  501    0  0.00000000000E+00  0.00000000000E+00  0.20185766698E+04  0.20185766698E+04  0.25500000920E-02 0.  1.
       -2   -1    0    0    0  501  0.00000000000E+00  0.00000000000E+00 -0.78129122384E+03  0.78129122384E+03  0.25500000920E-02 0. -1.
    10030    2    1    2    0    0  0.00000000000E+00  0.00000000000E+00  0.12372854460E+04  0.27998678937E+04  0.25116498456E+04 0.  0.
        1    1    3    3  502    0 -0.58031355075E+03 -0.60620848924E+03 -0.42282708585E+03  0.93969957655E+03  0.50400001928E-02 0. -1.
       -1    1    3    3    0  502  0.58031355075E+03  0.60620848924E+03  0.16601125318E+04  0.18601683171E+04  0.50400001928E-02 0.  1.
</event>
<event>
 5   0  0.3578670E-05  0.2481112E+04  0.7818609E-02  0.8409745E-01
        2   -1    0    0  501    0  0.00000000000E+00  0.00000000000E+00  0.18683267402E+04  0.18683267402E+04  0.25500000920E-02 0.  1.
       -2   -1    0    0    0  501  0.00000000000E+00  0.00000000000E+00 -0.82372085186E+03  0.82372085187E+03  0.25500000920E-02 0. -1.
    10030    2    1    2    0    0  0.00000000000E+00  0.00000000000E+00  0.10446058883E+04  0.26920475921E+04  0.24811124070E+04 0.  0.
        4    1    3    3  502    0 -0.10763713498E+04 -0.25717631891E+03 -0.85948313156E+02  0.11100016518E+04  0.12699999809E+01 0. -1.
       -4    1    3    3    0  502  0.10763713498E+04  0.25717631891E+03  0.11305542015E+04  0.15820459402E+04  0.12699999809E+01 0.  1.
</event>
<event>
 5   0  0.3578670E-05  0.2526315E+04  0.7818609E-02  0.8393670E-01
        2   -1    0    0  501    0  0.00000000000E+00  0.00000000000E+00  0.12811142178E+04  0.12811142178E+04  0.25500000920E-02 0.  1.
       -2   -1    0    0    0  501  0.00000000000E+00  0.00000000000E+00 -0.12454526246E+04  0.12454526246E+04  0.25500000920E-02 0. -1.
    10030    2    1    2    0    0  0.00000000000E+00  0.00000000000E+00  0.35661593239E+02  0.25265668423E+04  0.25263151545E+04 0.  0.
        4    1    3    3  502    0  0.11016759845E+04  0.45836633135E+03 -0.39666891636E+03  0.12574329050E+04  0.12699999809E+01 0. -1.
       -4    1    3    3    0  502 -0.11016759845E+04 -0.45836633135E+03  0.43233050960E+03  0.12691339373E+04  0.12699999809E+01 0.  1.
</event>
<event>
 5   0  0.3650620E-05  0.2692923E+04  0.7818609E-02  0.8337305E-01
        2   -1    0    0  501    0  0.00000000000E+00  0.00000000000E+00  0.14833580072E+04  0.14833580072E+04  0.25500000920E-02 0.  1.
       -2   -1    0    0    0  501  0.00000000000E+00  0.00000000000E+00 -0.12221989719E+04  0.12221989719E+04  0.25500000920E-02 0. -1.
    10030    2    1    2    0    0  0.00000000000E+00  0.00000000000E+00  0.26115903529E+03  0.27055569791E+04  0.26929230449E+04 0.  0.
        3    1    3    3  502    0  0.69971686333E+03  0.14440112285E+03  0.12772064787E+04  0.14634588387E+04  0.10100000352E+00 0.  1.
       -3    1    3    3    0  502 -0.69971686333E+03 -0.14440112285E+03 -0.10160474434E+04  0.12420981405E+04  0.10100000352E+00 0. -1.
</event>
<event>
 5   0  0.1456876E-05  0.2508676E+04  0.7818609E-02  0.8399901E-01
       -1   -1    0    0    0  501  0.00000000000E+00  0.00000000000E+00  0.54385323381E+03  0.54385323383E+03  0.50400001928E-02 0.  1.
        1   -1    0    0  501    0  0.00000000000E+00  0.00000000000E+00 -0.28929928146E+04  0.28929928146E+04  0.50400001928E-02 0. -1.
    10030    2    1    2    0    0  0.00000000000E+00  0.00000000000E+00 -0.23491395808E+04  0.34368460485E+04  0.25086757444E+04 0.  0.
        1    1    3    3  502    0  0.62109174373E+03  0.18243944998E+03  0.29733420431E+03  0.71235295754E+03  0.50400001928E-02 0.  1.
       -1    1    3    3    0  502 -0.62109174373E+03 -0.18243944998E+03 -0.26464737851E+04  0.27244930909E+04  0.50400001928E-02 0. -1.
</event>
<event>
 5   0  0.3704241E-05  0.2734811E+04  0.7818609E-02  0.8323798E-01
       -2   -1    0    0    0  501  0.00000000000E+00  0.00000000000E+00  0.10279108217E+04  0.10279108217E+04  0.25500000920E-02 0.  1.
        2   -1    0    0  501    0  0.00000000000E+00  0.00000000000E+00 -0.18190269792E+04  0.18190269792E+04  0.25500000920E-02 0. -1.
    10030    2    1    2    0    0  0.00000000000E+00  0.00000000000E+00 -0.79111615754E+03  0.28469378010E+04  0.27348107920E+04 0.  0.
        2    1    3    3  502    0  0.32808457572E+03  0.96470343118E+03  0.55369761213E+03  0.11596867011E+04  0.25500000920E-02 0.  1.
       -2    1    3    3    0  502 -0.32808457572E+03 -0.96470343118E+03 -0.13448137697E+04  0.16872510999E+04  0.25500000920E-02 0. -1.
</event>
<event>
 5   0  0.3581449E-05  0.2339323E+04  0.7818609E-02  0.8462576E-01
        2   -1    0    0  501    0  0.00000000000E+00  0.00000000000E+00  0.15808159956E+04  0.15808159956E+04  0.25500000920E-02 0.  1.
       -2   -1    0    0    0  501  0.00000000000E+00  0.00000000000E+00 -0.86544419635E+03  0.86544419635E+03  0.25500000920E-02 0. -1.
    10030    2    1    2    0    0  0.00000000000E+00  0.00000000000E+00  0.71537179930E+03  0.24462601920E+04  0.23393230037E+04 0.  0.
        1    1    3    3  502    0 -0.78342381819E+03  0.58040248463E+03 -0.31798390373E+03  0.10255406799E+04  0.50400001928E-02 0. -1.
       -1    1    3    3    0  502  0.78342381819E+03 -0.58040248463E+03  0.10333557030E+04  0.14207195121E+04  0.50400001928E-02 0.  1.
</event>
<event>
 5   0  0.1429483E-05  0.2513180E+04  0.7818609E-02  0.8398305E-01
       -1   -1    0    0    0  501  0.00000000000E+00  0.00000000000E+00  0.79874539187E+03  0.79874539189E+03  0.50400001928E-02 0. -1.
        1   -1    0    0  501    0  0.00000000000E+00  0.00000000000E+00 -0.19768732315E+04  0.19768732316E+04  0.50400001928E-02 0.  1.
    10030    2    1    2    0    0  0.00000000000E+00  0.00000000000E+00 -0.11781278397E+04  0.27756186234E+04  0.25131799649E+04 0.  0.
        2    1    3    3  502    0  0.68779481762E+03 -0.19151817155E+02 -0.17503339860E+04  0.18807173009E+04  0.25500000920E-02 0.  1.
       -2    1    3    3    0  502 -0.68779481762E+03  0.19151817155E+02  0.57220614632E+03  0.89490132257E+03  0.25500000920E-02 0. -1.
</event>
<event>
 5   0  0.1429483E-05  0.2491690E+04  0.7818609E-02  0.8405952E-01
       -1   -1    0    0    0  501  0.00000000000E+00  0.00000000000E+00  0.82495587389E+03  0.82495587390E+03  0.50400001928E-02 0.  1.
        1   -1    0    0  501    0  0.00000000000E+00  0.00000000000E+00 -0.18814696157E+04  0.18814696157E+04  0.50400001928E-02 0. -1.
    10030    2    1    2    0    0  0.00000000000E+00  0.00000000000E+00 -0.10565137418E+04  0.27064254896E+04  0.24916897167E+04 0.  0.
        2    1    3    3  502    0  0.88867036159E+03  0.49785908293E+03  0.25086926917E+03  0.10490634243E+04  0.25500000920E-02 0.  1.
       -2    1    3    3    0  502 -0.88867036159E+03 -0.49785908293E+03 -0.13073830110E+04  0.16573620653E+04  0.25500000920E-02 0. -1.
</event>
<event>
 5   0  0.3581449E-05  0.2531567E+04  0.7818609E-02  0.8391825E-01
        2   -1    0    0  501    0  0.00000000000E+00  0.00000000000E+00  0.10762406692E+04  0.10762406692E+04  0.25500000920E-02 0.  1.
       -2   -1    0    0    0  501  0.00000000000E+00  0.00000000000E+00 -0.14887075085E+04  0.14887075085E+04  0.25500000920E-02 0. -1.
    10030    2    1    2    0    0  0.00000000000E+00  0.00000000000E+00 -0.41246683930E+03  0.25649481777E+04  0.25315667600E+04 0.  0.
        1    1    3    3  502    0 -0.42266609439E+03  0.11134544490E+04 -0.64058207858E+03  0.13523212772E+04  0.50400001928E-02 0. -1.
       -1    1    3    3    0  502  0.42266609439E+03 -0.11134544490E+04  0.22811523928E+03  0.12126269005E+04  0.50400001928E-02 0.  1.
</event>
<event>
 5   0  0.3578670E-05  0.2040358E+04  0.7818609E-02  0.8587981E-01
       -2   -1    0    0    0  501  0.00000000000E+00  0.00000000000E+00  0.52282345877E+03  0.52282345878E+03  0.25500000920E-02 0.  1.
        2   -1    0    0  501    0  0.00000000000E+00  0.00000000000E+00 -0.19906626242E+04  0.19906626242E+04  0.25500000920E-02 0. -1.
    10030    2    1    2    0    0  0.00000000000E+00  0.00000000000E+00 -0.14678391655E+04  0.25134860830E+04  0.20403579279E+04 0.  0.
        4    1    3    3  502    0  0.74745575572E+02  0.42243753575E+03  0.40630492646E+03  0.59086858001E+03  0.12699999809E+01 0.  1.
       -4    1    3    3    0  502 -0.74745575572E+02 -0.42243753575E+03 -0.18741440919E+04  0.19226175030E+04  0.12699999809E+01 0. -1.
</event>
<event>
 5   0  0.3578670E-05  0.2530127E+04  0.7818609E-02  0.8392331E-01
       -2   -1    0    0    0  501  0.00000000000E+00  0.00000000000E+00  0.78899852553E+03  0.78899852554E+03  0.25500000920E-02 0. -1.
        2   -1    0    0  501    0  0.00000000000E+00  0.00000000000E+00 -0.20283756703E+04  0.20283756703E+04  0.25500000920E-02 0.  1.
    10030    2    1    2    0    0  0.00000000000E+00  0.00000000000E+00 -0.12393771448E+04  0.28173741958E+04  0.25301268056E+04 0.  0.
        4    1    3    3  502    0  0.21144266748E+03  0.60617354826E+03  0.59412613895E+03  0.87472387307E+03  0.12699999809E+01 0. -1.
       -4    1    3    3    0  502 -0.21144266748E+03 -0.60617354826E+03 -0.18335032837E+04  0.19426503228E+04  0.12699999809E+01 0.  1.
</event>
<event>
 5   0  0.1421242E-05  0.2491245E+04  0.7818609E-02  0.8406111E-01
        1   -1    0    0  501    0  0.00000000000E+00  0.00000000000E+00  0.12274124267E+04  0.12274124267E+04  0.50400001928E-02 0.  1.
       -1   -1    0    0    0  501  0.00000000000E+00  0.00000000000E+00 -0.12641022834E+04  0.12641022834E+04  0.50400001928E-02 0. -1.
    10030    2    1    2    0    0  0.00000000000E+00  0.00000000000E+00 -0.36689856732E+02  0.24915147101E+04  0.24912445495E+04 0.  0.
        3    1    3    3  502    0 -0.49118171445E+03  0.10630104780E+04 -0.44303681718E+03  0.12520113356E+04  0.10100000352E+00 0. -1.
       -3    1    3    3    0  502  0.49118171445E+03 -0.10630104780E+04  0.40634696045E+03  0.12395033745E+04  0.10100000352E+00 0.  1.
</event>
<event>
 5   0  0.1492639E-05  0.2500417E+04  0.7818609E-02  0.8402837E-01
       -1   -1    0    0    0  501  0.00000000000E+00  0.00000000000E+00  0.73874137664E+03  0.73874137666E+03  0.50400001928E-02 0. -1.
        1   -1    0    0  501    0  0.00000000000E+00  0.00000000000E+00 -0.21157895177E+04  0.21157895177E+04  0.50400001928E-02 0.  1.
    10030    2    1    2    0    0  0.00000000000E+00  0.00000000000E+00 -0.13770481411E+04  0.28545308944E+04  0.25004169741E+04 0.  0.
        5    1    3    3  502    0 -0.26574743980E+03  0.11434057431E+04 -0.11795552662E+04  0.16641427557E+04  0.46999998093E+01 0.  1.
       -5    1    3    3    0  502  0.26574743980E+03 -0.11434057431E+04 -0.19749287487E+03  0.11903881387E+04  0.46999998093E+01 0. -1.
</event>
<event>
 5   0  0.3704241E-05  0.2474165E+04  0.7818609E-02  0.8412248E-01
       -2   -1    0    0    0  501  0.00000000000E+00  0.00000000000E+00  0.12039659404E+04  0.12039659404E+04  0.25500000920E-02 0. -1.
        2   -1    0    0  501    0  0.00000000000E+00  0.00000000000E+00 -0.12711094979E+04  0.12711094979E+04  0.25500000920E-02 0.  1.
    10030    2    1    2    0    0  0.00000000000E+00  0.00000000000E+00 -0.67143557423E+02  0.24750754383E+04  0.24741645394E+04 0.  0.
        2    1    3    3  502    0 -0.53207226223E+03  0.10970379904E+04  0.17574028312E+03  0.12318595260E+04  0.25500000920E-02 0.  1.
       -2    1    3    3    0  502  0.53207226223E+03 -0.10970379904E+04 -0.24288384055E+03  0.12432159123E+04  0.25500000920E-02 0. -1.
</event>
<event>
 5   0  0.1429483E-05  0.2491896E+04  0.7818609E-02  0.8405878E-01
       -1   -1    0    0    0  501  0.00000000000E+00  0.00000000000E+00  0.95824336739E+03  0.95824336741E+03  0.50400001928E-02 0.  1.
        1   -1    0    0  501    0  0.00000000000E+00  0.00000000000E+00 -0.16200341028E+04  0.16200341028E+04  0.50400001928E-02 0. -1.
    10030    2    1    2    0    0  0.00000000000E+00  0.00000000000E+00 -0.66179073537E+03  0.25782774702E+04  0.24918964135E+04 0.  0.
        2    1    3    3  502    0  0.46131351223E+03 -0.14591698190E+03  0.85707149294E+03  0.98421210427E+03  0.25500000920E-02 0.  1.
       -2    1    3    3    0  502 -0.46131351223E+03  0.14591698190E+03 -0.15188622283E+04  0.15940653659E+04  0.25500000920E-02 0. -1.
</event>
<event>
 5   0  0.1429483E-05  0.2521913E+04  0.7818609E-02  0.8395220E-01
        1   -1    0    0  501    0  0.00000000000E+00  0.00000000000E+00  0.67397983067E+03  0.67397983069E+03  0.50400001928E-02 0.  1.
       -1   -1    0    0    0  501  0.00000000000E+00  0.00000000000E+00 -0.23591379071E+04  0.23591379071E+04  0.50400001928E-02 0. -1.
    10030    2    1    2    0    0  0.00000000000E+00  0.00000000000E+00 -0.16851580764E+04  0.30331177378E+04  0.25219130573E+04 0.  0.
        2    1    3    3  502    0 -0.94209613236E+02  0.15584361058E+03  0.65808114863E+03  0.68281291755E+03  0.25500000920E-02 0.  1.
       -2    1    3    3    0  502  0.94209613236E+02 -0.15584361058E+03 -0.23432392251E+04  0.23503048202E+04  0.25500000920E-02 0. -1.
</event>
<event>
 5   0  0.1456876E-05  0.2524681E+04  0.7818609E-02  0.8394245E-01
       -1   -1    0    0    0  501  0.00000000000E+00  0.00000000000E+00  0.10963872141E+04  0.10963872141E+04  0.50400001928E-02 0. -1.
        1   -1    0    0  501    0  0.00000000000E+00  0.00000000000E+00 -0.14534131563E+04  0.14534131563E+04  0.50400001928E-02 0.  1.
    10030    2    1    2    0    0  0.00000000000E+00  0.00000000000E+00 -0.35702594217E+03  0.25498003704E+04  0.25246810502E+04 0.  0.
        1    1    3    3  502    0 -0.83915335422E+03 -0.85928320415E+03 -0.57091133330E+03  0.13298442493E+04  0.50400001928E-02 0.  1.
       -1    1    3    3    0  502  0.83915335422E+03  0.85928320415E+03  0.21388539113E+03  0.12199561211E+04  0.50400001928E-02 0. -1.
</event>
<event>
 5   0  0.3704241E-05  0.2482978E+04  0.7818609E-02  0.8409075E-01
        2   -1    0    0  501    0  0.00000000000E+00  0.00000000000E+00  0.99649126073E+03  0.99649126073E+03  0.25500000920E-02 0.  1.
       -2   -1    0    0    0  501  0.00000000000E+00  0.00000000000E+00 -0.15467217183E+04  0.15467217183E+04  0.25500000920E-02 0. -1.
    10030    2    1    2    0    0  0.00000000000E+00  0.00000000000E+00 -0.55023045758E+03  0.25432129790E+04  0.24829777889E+04 0.  0.
        2    1    3    3  502    0  0.95031013022E+03  0.31916579299E+03  0.47500243872E+03  0.11093166653E+04  0.25500000920E-02 0.  1.
       -2    1    3    3    0  502 -0.95031013022E+03 -0.31916579299E+03 -0.10252328963E+04  0.14338963138E+04  0.25500000920E-02 0. -1.
</event>
<event>
 5   0  0.3578670E-05  0.2484142E+04  0.7818609E-02  0.8408657E-01
        2   -1    0    0  501    0  0.00000000000E+00  0.00000000000E+00  0.81323517783E+03  0.81323517784E+03  0.25500000920E-02 0. -1.
       -2   -1    0    0    0  501  0.00000000000E+00  0.00000000000E+00 -0.18970415343E+04  0.18970415343E+04  0.25500000920E-02 0.  1.
    10030    2    1    2    0    0  0.00000000000E+00  0.00000000000E+00 -0.10838063564E+04  0.27102767121E+04  0.24841424351E+04 0.  0.
        4    1    3    3  502    0 -0.36243244444E+03 -0.89390080929E+03 -0.13956469625E+04  0.16965400056E+04  0.12699999809E+01 0.  1.
       -4    1    3    3    0  502  0.36243244444E+03  0.89390080929E+03  0.31184060610E+03  0.10137367065E+04  0.12699999809E+01 0. -1.
</event>
<event>
 5   0  0.1421242E-05  0.2425202E+04  0.7818609E-02  0.8430128E-01
        1   -1    0    0  501    0  0.00000000000E+00  0.00000000000E+00  0.15880228729E+04  0.15880228730E+04  0.50400001928E-02 0.  1.
       -1   -1    0    0    0  501  0.00000000000E+00  0.00000000000E+00 -0.92593223465E+03  0.92593223466E+03  0.50400001928E-02 0. -1.
    10030    2    1    2    0    0  0.00000000000E+00  0.00000000000E+00  0.66209063830E+03  0.25139551076E+04  0.24252023152E+04 0.  0.
        3    1    3    3  502    0  0.92117703471E+03  0.77437503495E+03  0.48541717361E+03  0.12976338723E+04  0.10100000352E+00 0. -1.
       -3    1    3    3    0  502 -0.92117703471E+03 -0.77437503495E+03  0.17667346469E+03  0.12163212353E+04  0.10100000352E+00 0.  1.
</event>
<event>
 5   0  0.3581449E-05  0.2503962E+04  0.7818609E-02  0.8401575E-01
        2   -1    0    0  501    0  0.00000000000E+00  0.00000000000E+00  0.14386472027E+04  0.14386472027E+04  0.25500000920E-02 0. -1.
       -2   -1    0    0    0  501  0.00000000000E+00  0.00000000000E+00 -0.10895349194E+04  0.10895349194E+04  0.25500000920E-02 0.  1.
    10030    2    1    2    0    0  0.00000000000E+00  0.00000000000E+00  0.34911228328E+03  0.25281821221E+04  0.25039619518E+04 0.  0.
        1    1    3    3  502    0 -0.10591194747E+04  0.53735751464E+03  0.57458180865E+03  0.13193299114E+04  0.50400001928E-02 0. -1.
       -1    1    3    3    0  502  0.10591194747E+04 -0.53735751464E+03 -0.22546952537E+03  0.12088522107E+04  0.50400001928E-02 0.  1.
</event>
<event>
 5   0  0.1429483E-05  0.2468712E+04  0.7818609E-02  0.8414218E-01
       -1   -1    0    0    0  501  0.00000000000E+00  0.00000000000E+00  0.11700383133E+04  0.11700383133E+04  0.50400001928E-02 0.  1.
        1   -1    0    0  501    0  0.00000000000E+00  0.00000000000E+00 -0.13022092597E+04  0.13022092597E+04  0.50400001928E-02 0. -1.
    10030    2    1    2    0    0  0.00000000000E+00  0.00000000000E+00 -0.13217094643E+03  0.24722475730E+04  0.24687119927E+04 0.  0.
        2    1    3    3  502    0 -0.10070593100E+04 -0.63216830602E+03 -0.39796544537E+03  0.12538667061E+04  0.25500000920E-02 0. -1.
       -2    1    3    3    0  502  0.10070593100E+04  0.63216830602E+03  0.26579449894E+03  0.12183808668E+04  0.25500000920E-02 0.  1.
</event>
<event>
 5   0  0.1456876E-05  0.2494386E+04  0.7818609E-02  0.8404988E-01
       -1   -1    0    0    0  501  0.00000000000E+00  0.00000000000E+00  0.13103794897E+04  0.13103794898E+04  0.50400001928E-02 0. -1.
        1   -1    0    0  501    0  0.00000000000E+00  0.00000000000E+00 -0.11870530107E+04  0.11870530107E+04  0.50400001928E-02 0.  1.
    10030    2    1    2    0    0  0.00000000000E+00  0.00000000000E+00  0.12332647901E+03  0.24974325005E+04  0.24943856306E+04 0.  0.
        1    1    3    3  502    0  0.11214280861E+04 -0.43055418875E+03  0.39750113132E+03  0.12653003640E+04  0.50400001928E-02 0.  1.
       -1    1    3    3    0  502 -0.11214280861E+04  0.43055418875E+03 -0.27417465231E+03  0.12321321365E+04  0.50400001928E-02 0. -1.
</event>
<event>
 5   0  0.1421242E-05  0.2479702E+04  0.7818609E-02  0.8410253E-01
        1   -1    0    0  501    0  0.00000000000E+00  0.00000000000E+00  0.82259683225E+03  0.82259683227E+03  0.50400001928E-02 0. -1.
       -1   -1    0    0    0  501  0.00000000000E+00  0.00000000000E+00 -0.18687535777E+04  0.18687535777E+04  0.50400001928E-02 0.  1.
    10030    2    1    2    0    0  0.00000000000E+00  0.00000000000E+00 -0.10461567454E+04  0.26913504099E+04  0.24797022186E+04 0.  0.
        3    1    3    3  502    0  0.29525792353E+03  0.42284369185E+03 -0.17468132801E+04  0.18213540773E+04  0.10100000352E+00 0.  1.
       -3    1    3    3    0  502 -0.29525792353E+03 -0.42284369185E+03  0.70065653465E+03  0.86999633269E+03  0.10100000352E+00 0. -1.
</event>
<event>
 5   0  0.1456876E-05  0.2492260E+04  0.7818609E-02  0.8405748E-01
        1   -1    0    0  501    0  0.00000000000E+00  0.00000000000E+00  0.19724453239E+04  0.19724453239E+04  0.50400001928E-02 0.  1.
       -1   -1    0    0    0  501  0.00000000000E+00  0.00000000000E+00 -0.78726671033E+03  0.78726671035E+03  0.50400001928E-02 0. -1.
    10030    2    1    2    0    0  0.00000000000E+00  0.00000000000E+00  0.11851786136E+04  0.27597120342E+04  0.24922604531E+04 0.  0.
        1    1    3    3  502    0 -0.56362236763E+03  0.44927212145E+03 -0.53302290122E+03  0.89645358254E+03  0.50400001928E-02 0. -1.
       -1    1    3    3    0  502  0.56362236763E+03 -0.44927212145E+03  0.17182015148E+04  0.18632584517E+04  0.50400001928E-02 0.  1.
</event>
<event>
 5   0  0.1456876E-05  0.2532791E+04  0.7818609E-02  0.8391396E-01
        1   -1    0    0  501    0  0.00000000000E+00  0.00000000000E+00  0.16101617567E+04  0.16101617567E+04  0.50400001928E-02 0. -1.
       -1   -1    0    0    0  501  0.00000000000E+00  0.00000000000E+00 -0.99602236895E+03  0.99602236896E+03  0.50400001928E-02 0.  1.
    10030    2    1    2    0    0  0.00000000000E+00  0.00000000000E+00  0.61413938770E+03  0.26061841256E+04  0.25327906564E+04 0.  0.
        1    1    3    3  502    0  0.18674300114E+03 -0.55712712054E+03  0.14614031867E+04  0.15751072507E+04  0.50400001928E-02 0. -1.
       -1    1    3    3    0  502 -0.18674300114E+03  0.55712712054E+03 -0.84726379901E+03  0.10310768750E+04  0.50400001928E-02 0.  1.
</event>
<event>
 5   0  0.1429483E-05  0.2522960E+04  0.7818609E-02  0.8394851E-01
        1   -1    0    0  501    0  0.00000000000E+00  0.00000000000E+00  0.97297495048E+03  0.97297495049E+03  0.50400001928E-02 0.  1.
       -1   -1    0    0    0  501  0.00000000000E+00  0.00000000000E+00 -0.16355322539E+04  0.16355322539E+04  0.50400001928E-02 0. -1.
    10030    2    1    2    0    0  0.00000000000E+00  0.00000000000E+00 -0.66255730339E+03  0.26085072044E+04  0.25229600978E+04 0.  0.
        2    1    3    3  502    0  0.35312151067E+03 -0.46871427595E+03 -0.14858084340E+04  0.15975026060E+04  0.25500000920E-02 0. -1.
       -2    1    3    3    0  502 -0.35312151067E+03  0.46871427595E+03  0.82325113061E+03  0.10110045983E+04  0.25500000920E-02 0.  1.
</event>
<event>
 5   0  0.1456876E-05  0.2482949E+04  0.7818609E-02  0.8409085E-01
       -1   -1    0    0    0  501  0.00000000000E+00  0.00000000000E+00  0.10202356228E+04  0.10202356228E+04  0.50400001928E-02 0.  1.
        1   -1    0    0  501    0  0.00000000000E+00  0.00000000000E+00 -0.15106886384E+04  0.15106886385E+04  0.50400001928E-02 0. -1.
    10030    2    1    2    0    0  0.00000000000E+00  0.00000000000E+00 -0.49045301566E+03  0.25309242613E+04  0.24829485407E+04 0.  0.
        1    1    3    3  502    0 -0.76271437770E+02  0.64241753247E+03 -0.13252946894E+04  0.14747622290E+04  0.50400001928E-02 0. -1.
       -1    1    3    3    0  502  0.76271437770E+02 -0.64241753247E+03  0.83484167373E+03  0.10561620323E+04  0.50400001928E-02 0.  1.
</event>
<event>
 5   0  0.3704241E-05  0.2483556E+04  0.7818609E-02  0.8408867E-01
        2   -1    0    0  501    0  0.00000000000E+00  0.00000000000E+00  0.22376813789E+04  0.22376813789E+04  0.25500000920E-02 0. -1.
       -2   -1    0    0    0  501  0.00000000000E+00  0.00000000000E+00 -0.68911160903E+03  0.68911160903E+03  0.25500000920E-02 0.  1.
    10030    2    1    2    0    0  0.00000000000E+00  0.00000000000E+00  0.15485697699E+04  0.29267929880E+04  0.24835556894E+04 0.  0.
        2    1    3    3  502    0 -0.46627878107E+03  0.18542692660E+03 -0.56430900487E+03  0.75514482040E+03  0.25500000920E-02 0.  1.
       -2    1    3    3    0  502  0.46627878107E+03 -0.18542692660E+03  0.21128787748E+04  0.21716481676E+04  0.25500000920E-02 0. -1.
</event>
<event>
 5   0  0.1429483E-05  0.2458452E+04  0.7818609E-02  0.8417939E-01
        1   -1    0    0  501    0  0.00000000000E+00  0.00000000000E+00  0.24333144932E+04  0.24333144932E+04  0.50400001928E-02 0.  1.
       -1   -1    0    0    0  501  0.00000000000E+00  0.00000000000E+00 -0.62096228524E+03  0.62096228526E+03  0.50400001928E-02 0. -1.
    10030    2    1    2    0    0  0.00000000000E+00  0.00000000000E+00  0.18123522080E+04  0.30542767785E+04  0.24584519751E+04 0.  0.
        2    1    3    3  502    0 -0.18053386922E+03 -0.86016510829E+03  0.19738233956E+04  0.21606608453E+04  0.25500000920E-02 0.  1.
       -2    1    3    3    0  502  0.18053386922E+03  0.86016510829E+03 -0.16147118768E+03  0.89361593311E+03  0.25500000920E-02 0. -1.
</event>
<event>
 5   0  0.1492639E-05  0.2371522E+04  0.7818609E-02  0.8450243E-01
       -1   -1    0    0    0  501  0.00000000000E+00  0.00000000000E+00  0.72683624449E+03  0.72683624451E+03  0.50400001928E-02 0.  1.
        1   -1    0    0  501    0  0.00000000000E+00  0.00000000000E+00 -0.19344508212E+04  0.19344508212E+04  0.50400001928E-02 0. -1.
    10030    2    1    2    0    0  0.00000000000E+00  0.00000000000E+00 -0.12076145767E+04  0.26612870657E+04  0.23715218490E+04 0.  0.
        5    1    3    3  502    0 -0.81747399102E+03  0.28015637368E+03 -0.15149606751E+04  0.17440984080E+04  0.46999998093E+01 0. -1.
       -5    1    3    3    0  502  0.81747399102E+03 -0.28015637368E+03  0.30734609836E+03  0.91718865774E+03  0.46999998093E+01 0.  1.
</event>
<event>
 5   0  0.3581449E-05  0.2493457E+04  0.7818609E-02  0.8405320E-01
       -2   -1    0    0    0  501  0.00000000000E+00  0.00000000000E+00  0.16725445821E+04  0.16725445821E+04  0.25500000920E-02 0.  1.
        2   -1    0    0  501    0  0.00000000000E+00  0.00000000000E+00 -0.92932198612E+03  0.92932198613E+03  0.25500000920E-02 0. -1.
    10030    2    1    2    0    0  0.00000000000E+00  0.00000000000E+00  0.74322259597E+03  0.26018665682E+04  0.24934574012E+04 0.  0.
        1    1    3    3  502    0  0.11945004991E+04  0.35632068511E+03  0.39578261121E+03  0.13078378143E+04  0.50400001928E-02 0. -1.
       -1    1    3    3    0  502 -0.11945004991E+04 -0.35632068511E+03  0.34743998476E+03  0.12940287540E+04  0.50400001928E-02 0.  1.
</event>
<event>
 5   0  0.3581449E-05  0.2459670E+04  0.7818609E-02  0.8417496E-01
       -2   -1    0    0    0  501  0.00000000000E+00  0.00000000000E+00  0.96618186679E+03  0.96618186679E+03  0.25500000920E-02 0.  1.
        2   -1    0    0  501    0  0.00000000000E+00  0.00000000000E+00 -0.15654342916E+04  0.15654342916E+04  0.25500000920E-02 0. -1.
    10030    2    1    2    0    0  0.00000000000E+00  0.00000000000E+00 -0.59925242477E+03  0.25316161584E+04  0.24596700805E+04 0.  0.
        1    1    3    3  502    0 -0.63550316908E+03 -0.97798954470E+03 -0.70112143477E+03  0.13608449926E+04  0.50400001928E-02 0. -1.
       -1    1    3    3    0  502  0.63550316908E+03  0.97798954470E+03  0.10186901000E+03  0.11707711658E+04  0.50400001928E-02 0.  1.
</event>
<event>
 5   0  0.3704241E-05  0.2515582E+04  0.7818609E-02  0.8397455E-01
       -2   -1    0    0    0  501  0.00000000000E+00  0.00000000000E+00  0.61229728361E+03  0.61229728361E+03  0.25500000920E-02 0.  1.
        2   -1    0    0  501    0  0.00000000000E+00  0.00000000000E+00 -0.25837750174E+04  0.25837750174E+04  0.25500000920E-02 0. -1.
    10030    2    1    2    0    0  0.00000000000E+00  0.00000000000E+00 -0.19714777338E+04  0.31960723010E+04  0.25155821788E+04 0.  0.
        2    1    3    3  502    0  0.21245196005E+03 -0.70439834913E+03  0.31038406731E+03  0.79853061234E+03  0.25500000920E-02 0.  1.
       -2    1    3    3    0  502 -0.21245196005E+03  0.70439834913E+03 -0.22818618011E+04  0.23975416887E+04  0.25500000920E-02 0. -1.
</event>
<event>
 5   0  0.3579097E-05  0.2512144E+04  0.7818609E-02  0.8398672E-01
        2   -1    0    0  501    0  0.00000000000E+00  0.00000000000E+00  0.21630024938E+04  0.21630024938E+04  0.25500000920E-02 0.  1.
       -2   -1    0    0    0  501  0.00000000000E+00  0.00000000000E+00 -0.72941060168E+03  0.72941060169E+03  0.25500000920E-02 0. -1.
    10030    2    1    2    0    0  0.00000000000E+00  0.00000000000E+00  0.14335918921E+04  0.28924130955E+04  0.25121440647E+04 0.  0.
        5    1    3    3  502    0  0.67830992844E+03 -0.27060087277E+03 -0.45983988996E+03  0.86302028119E+03  0.46999998093E+01 0. -1.
       -5    1    3    3    0  502 -0.67830992844E+03  0.27060087277E+03  0.18934317821E+04  0.20293928143E+04  0.46999998093E+01 0.  1.
</event>
<event>
 5   0  0.1502886E-05  0.2413302E+04  0.7818609E-02  0.8434540E-01
        1   -1    0    0  501    0  0.00000000000E+00  0.00000000000E+00  0.13170077661E+04  0.13170077661E+04  0.50400001928E-02 0.  1.
       -1   -1    0    0    0  501  0.00000000000E+00  0.00000000000E+00 -0.11055417024E+04  0.11055417024E+04  0.50400001928E-02 0. -1.
    10030    2    1    2    0    0  0.00000000000E+00  0.00000000000E+00  0.21146606366E+03  0.24225494685E+04  0.24133023083E+04 0.  0.
        4    1    3    3  502    0 -0.23905675726E+03  0.10036789500E+04  0.73381879279E+03  0.12661007864E+04  0.12699999809E+01 0.  1.
       -4    1    3    3    0  502  0.23905675726E+03 -0.10036789500E+04 -0.52235272913E+03  0.11564486821E+04  0.12699999809E+01 0. -1.
</event>
<event>
 5   0  0.3581449E-05  0.2467993E+04  0.7818609E-02  0.8414478E-01
       -2   -1    0    0    0  501  0.00000000000E+00  0.00000000000E+00  0.14518229150E+04  0.14518229150E+04  0.25500000920E-02 0.  1.
        2   -1    0    0  501    0  0.00000000000E+00  0.00000000000E+00 -0.10488518647E+04  0.10488518647E+04  0.25500000920E-02 0. -1.
    10030    2    1    2    0    0  0.00000000000E+00  0.00000000000E+00  0.40297105036E+03  0.25006747797E+04  0.24679928457E+04 0.  0.
        1    1    3    3  502    0 -0.81797872438E+03  0.58931985412E+03  0.92249845152E+03  0.13665249639E+04  0.50400001928E-02 0.  1.
       -1    1    3    3    0  502  0.81797872438E+03 -0.58931985412E+03 -0.51952740116E+03  0.11341498158E+04  0.50400001928E-02 0. -1.
</event>
<event>
 5   0  0.1456876E-05  0.1967444E+04  0.7818609E-02  0.8621995E-01
       -1   -1    0    0    0  501  0.00000000000E+00  0.00000000000E+00  0.92529962727E+03  0.92529962728E+03  0.50400001928E-02 0.  1.
        1   -1    0    0  501    0  0.00000000000E+00  0.00000000000E+00 -0.10458325768E+04  0.10458325768E+04  0.50400001928E-02 0. -1.
    10030    2    1    2    0    0  0.00000000000E+00  0.00000000000E+00 -0.12053294948E+03  0.19711322040E+04  0.19674435123E+04 0.  0.
        1    1    3    3  502    0  0.82755928968E+03 -0.44573365389E+03 -0.35094078927E+03  0.10033405732E+04  0.50400001928E-02 0. -1.
       -1    1    3    3    0  502 -0.82755928968E+03  0.44573365389E+03  0.23040783978E+03  0.96779163088E+03  0.50400001928E-02 0.  1.
</event>
<event>
 5   0  0.1429483E-05  0.2499311E+04  0.7818609E-02  0.8403231E-01
       -1   -1    0    0    0  501  0.00000000000E+00  0.00000000000E+00  0.13867168848E+04  0.13867168848E+04  0.50400001928E-02 0. -1.
        1   -1    0    0  501    0  0.00000000000E+00  0.00000000000E+00 -0.11261410623E+04  0.11261410623E+04  0.50400001928E-02 0.  1.
    10030    2    1    2    0    0  0.00000000000E+00  0.00000000000E+00  0.26057582248E+03  0.25128579472E+04  0.24993109657E+04 0.  0.
        2    1    3    3  502    0 -0.89017847616E+03  0.81719285393E+03  0.45047433077E+03  0.12896313437E+04  0.25500000920E-02 0. -1.
       -2    1    3    3    0  502  0.89017847616E+03 -0.81719285393E+03 -0.18989850829E+03  0.12232266035E+04  0.25500000920E-02 0.  1.
</event>
<event>
 5   0  0.1421242E-05  0.2486524E+04  0.7818609E-02  0.8407802E-01
        1   -1    0    0  501    0  0.00000000000E+00  0.00000000000E+00  0.15500672753E+04  0.15500672753E+04  0.50400001928E-02 0.  1.
       -1   -1    0    0    0  501  0.00000000000E+00  0.00000000000E+00 -0.99718242401E+03  0.99718242402E+03  0.50400001928E-02 0. -1.
    10030    2    1    2    0    0  0.00000000000E+00  0.00000000000E+00  0.55288485131E+03  0.25472496994E+04  0.24865235515E+04 0.  0.
        3    1    3    3  502    0  0.50049992519E+03 -0.36985843383E+03  0.13790197110E+04  0.15129411125E+04  0.10100000352E+00 0.  1.
       -3    1    3    3    0  502 -0.50049992519E+03  0.36985843383E+03 -0.82613485974E+03  0.10343085869E+04  0.10100000352E+00 0. -1.
</event>
<event>
 5   0  0.1492639E-05  0.2284077E+04  0.7818609E-02  0.8484226E-01
        1   -1    0    0  501    0  0.00000000000E+00  0.00000000000E+00  0.14387030417E+04  0.14387030417E+04  0.50400001928E-02 0. -1.
       -1   -1    0    0    0  501  0.00000000000E+00  0.00000000000E+00 -0.90654718229E+03  0.90654718231E+03  0.50400001928E-02 0.  1.
    10030    2    1    2    0    0  0.00000000000E+00  0.00000000000E+00  0.53215585941E+03  0.23452502240E+04  0.22840772217E+04 0.  0.
        5    1    3    3  502    0 -0.20609689059E+03 -0.11228744940E+04  0.29700165857E+03  0.11796419511E+04  0.46999998093E+01 0.  1.
       -5    1    3    3    0  502  0.20609689059E+03  0.11228744940E+04  0.23515420083E+03  0.11656082729E+04  0.46999998093E+01 0. -1.
</event>
<event>
 5   0  0.1429483E-05  0.2424133E+04  0.7818609E-02  0.8430523E-01
       -1   -1    0    0    0  501  0.00000000000E+00  0.00000000000E+00  0.83319283623E+03  0.83319283625E+03  0.50400001928E-02 0.  1.
        1   -1    0    0  501    0  0.00000000000E+00  0.00000000000E+00 -0.17632236393E+04  0.17632236393E+04  0.50400001928E-02 0. -1.
    10030    2    1    2    0    0  0.00000000000E+00  0.00000000000E+00 -0.93003080304E+03  0.25964164755E+04  0.24241330862E+04 0.  0.
        2    1    3    3  502    0 -0.26549557387E+03 -0.10534874922E+04  0.11056048075E+03  0.10920381934E+04  0.25500000920E-02 0. -1.
       -2    1    3    3    0  502  0.26549557387E+03  0.10534874922E+04 -0.10405912838E+04  0.15043782821E+04  0.25500000920E-02 0.  1.
</event>
<event>
 5   0  0.3581449E-05  0.2514502E+04  0.7818609E-02  0.8397837E-01
       -2   -1    0    0    0  501  0.00000000000E+00  0.00000000000E+00  0.14789057790E+04  0.14789057790E+04  0.25500000920E-02 0.  1.
        2   -1    0    0  501    0  0.00000000000E+00  0.00000000000E+00 -0.10688170385E+04  0.10688170385E+04  0.25500000920E-02 0. -1.
    10030    2    1    2    0    0  0.00000000000E+00  0.00000000000E+00  0.41008874041E+03  0.25477228175E+04  0.25145016961E+04 0.  0.
        1    1    3    3  502    0  0.11339270204E+04  0.53340885196E+03  0.10189461042E+03  0.12572581288E+04  0.50400001928E-02 0. -1.
       -1    1    3    3    0  502 -0.11339270204E+04 -0.53340885196E+03  0.30819412999E+03  0.12904646887E+04  0.50400001928E-02 0.  1.
</event>
<event>
 5   0  0.3650620E-05  0.2527506E+04  0.7818609E-02  0.8393251E-01
        2   -1    0    0  501    0  0.00000000000E+00  0.00000000000E+00  0.10238548641E+04  0.10238548641E+04  0.25500000920E-02 0. -1.
       -2   -1    0    0    0  501  0.00000000000E+00  0.00000000000E+00 -0.15598619727E+04  0.15598619727E+04  0.25500000920E-02 0.  1.
    10030    2    1    2    0    0  0.00000000000E+00  0.00000000000E+00 -0.53600710855E+03  0.25837168368E+04  0.25275064930E+04 0.  0.
        3    1    3    3  502    0 -0.51282859754E+03 -0.48556159177E+02  0.91166315209E+03  0.10471296883E+04  0.10100000352E+00 0. -1.
       -3    1    3    3    0  502  0.51282859754E+03  0.48556159177E+02 -0.14476702606E+04  0.15365871485E+04  0.10100000352E+00 0.  1.
</event>
<event>
 5   0  0.1456876E-05  0.2358074E+04  0.7818609E-02  0.8455369E-01
       -1   -1    0    0    0  501  0.00000000000E+00  0.00000000000E+00  0.76594585415E+03  0.76594585416E+03  0.50400001928E-02 0.  1.
        1   -1    0    0  501    0  0.00000000000E+00  0.00000000000E+00 -0.18149173621E+04  0.18149173621E+04  0.50400001928E-02 0. -1.
    10030    2    1    2    0    0  0.00000000000E+00  0.00000000000E+00 -0.10489715079E+04  0.25808632162E+04  0.23580741542E+04 0.  0.
        1    1    3    3  502    0 -0.37464007960E+03  0.11115328157E+04 -0.65522009449E+03  0.13435675502E+04  0.50400001928E-02 0. -1.
       -1    1    3    3    0  502  0.37464007960E+03 -0.11115328157E+04 -0.39375141343E+03  0.12372956661E+04  0.50400001928E-02 0.  1.
</event>
<event>
 5   0  0.1429483E-05  0.2499457E+04  0.7818609E-02  0.8403179E-01
        1   -1    0    0  501    0  0.00000000000E+00  0.00000000000E+00  0.12933239758E+04  0.12933239758E+04  0.50400001928E-02 0.  1.
       -1   -1    0    0    0  501  0.00000000000E+00  0.00000000000E+00 -0.12076023003E+04  0.12076023003E+04  0.50400001928E-02 0. -1.
    10030    2    1    2    0    0  0.00000000000E+00  0.00000000000E+00  0.85721675547E+02  0.25009262761E+04  0.24994567476E+04 0.  0.
        2    1    3    3  502    0  0.72394423814E+03 -0.76022425314E+03 -0.63561218542E+03  0.12272078167E+04  0.25500000920E-02 0. -1.
       -2    1    3    3    0  502 -0.72394423814E+03  0.76022425314E+03  0.72133386097E+03  0.12737184595E+04  0.25500000920E-02 0.  1.
</event>
<event>
 5   0  0.1456876E-05  0.2478146E+04  0.7818609E-02  0.8410813E-01
       -1   -1    0    0    0  501  0.00000000000E+00  0.00000000000E+00  0.25831983643E+04  0.25831983643E+04  0.50400001928E-02 0.  1.
        1   -1    0    0  501    0  0.00000000000E+00  0.00000000000E+00 -0.59434123431E+03  0.59434123433E+03  0.50400001928E-02 0. -1.
    10030    2    1    2    0    0  0.00000000000E+00  0.00000000000E+00  0.19888571300E+04  0.31775395986E+04  0.24781455198E+04 0.  0.
        1    1    3    3  502    0 -0.71368941906E+03 -0.36896258528E+03 -0.21509436951E+03  0.83171603570E+03  0.50400001928E-02 0. -1.
       -1    1    3    3    0  502  0.71368941906E+03  0.36896258528E+03  0.22039514995E+04  0.23458235629E+04  0.50400001928E-02 0.  1.
</event>
<event>
 5   0  0.1502886E-05  0.2517620E+04  0.7818609E-02  0.8396735E-01
       -1   -1    0    0    0  501  0.00000000000E+00  0.00000000000E+00  0.18904766883E+04  0.18904766883E+04  0.50400001928E-02 0. -1.
        1   -1    0    0  501    0  0.00000000000E+00  0.00000000000E+00 -0.83820279903E+03  0.83820279904E+03  0.50400001928E-02 0.  1.
    10030    2    1    2    0    0  0.00000000000E+00  0.00000000000E+00  0.10522738893E+04  0.27286794873E+04  0.25176201871E+04 0.  0.
        4    1    3    3  502    0 -0.46196333779E+03 -0.11503904971E+04  0.76307980724E+03  0.14557131676E+04  0.12699999809E+01 0.  1.
       -4    1    3    3    0  502  0.46196333779E+03  0.11503904971E+04  0.28919408201E+03  0.12729663197E+04  0.12699999809E+01 0. -1.
</event>
<event>
 5   0  0.1421242E-05  0.2124266E+04  0.7818609E-02  0.8550629E-01
       -1   -1    0    0    0  501  0.00000000000E+00  0.00000000000E+00  0.98623383813E+03  0.98623383814E+03  0.50400001928E-02 0.  1.
        1   -1    0    0  501    0  0.00000000000E+00  0.00000000000E+00 -0.11438734394E+04  0.11438734394E+04  0.50400001928E-02 0. -1.
    10030    2    1    2    0    0  0.00000000000E+00  0.00000000000E+00 -0.15763960127E+03  0.21301072775E+04  0.21242661721E+04 0.  0.
        3    1    3    3  502    0 -0.96711171487E+03 -0.41074509709E+03 -0.23452096301E+03  0.10765763773E+04  0.10100000352E+00 0.  1.
       -3    1    3    3    0  502  0.96711171487E+03  0.41074509709E+03  0.76881361742E+02  0.10535309003E+04  0.10100000352E+00 0. -1.
</event>
<event>
 5   0  0.3581449E-05  0.2497336E+04  0.7818609E-02  0.8403935E-01
       -2   -1    0    0    0  501  0.00000000000E+00  0.00000000000E+00  0.82241596762E+03  0.82241596762E+03  0.25500000920E-02 0.  1.
        2   -1    0    0  501    0  0.00000000000E+00  0.00000000000E+00 -0.18958428902E+04  0.18958428902E+04  0.25500000920E-02 0. -1.
    10030    2    1    2    0    0  0.00000000000E+00  0.00000000000E+00 -0.10734269226E+04  0.27182588579E+04  0.24973357524E+04 0.  0.
        1    1    3    3  502    0  0.10026643617E+04  0.49822238248E+03 -0.11384380087E+04  0.15967474642E+04  0.50400001928E-02 0. -1.
       -1    1    3    3    0  502 -0.10026643617E+04 -0.49822238248E+03  0.65011086129E+02  0.11215113936E+04  0.50400001928E-02 0.  1.
</event>
<event>
 5   0  0.1492639E-05  0.2546463E+04  0.7818609E-02  0.8386617E-01
       -1   -1    0    0    0  501  0.00000000000E+00  0.00000000000E+00  0.84781349687E+03  0.84781349689E+03  0.50400001928E-02 0. -1.
        1   -1    0    0  501    0  0.00000000000E+00  0.00000000000E+00 -0.19121173761E+04  0.19121173761E+04  0.50400001928E-02 0.  1.
    10030    2    1    2    0    0  0.00000000000E+00  0.00000000000E+00 -0.10643038793E+04  0.27599308730E+04  0.25464633664E+04 0.  0.
        5    1    3    3  502    0  0.88020602215E+03  0.91520377933E+03 -0.63345505485E+03  0.14190306535E+04  0.46999998093E+01 0.  1.
       -5    1    3    3    0  502 -0.88020602215E+03 -0.91520377933E+03 -0.43084882440E+03  0.13409002195E+04  0.46999998093E+01 0. -1.
</event>
<event>
 5   0  0.3704241E-05  0.2562454E+04  0.7818609E-02  0.8381068E-01
        2   -1    0    0  501    0  0.00000000000E+00  0.00000000000E+00  0.16729523959E+04  0.16729523959E+04  0.25500000920E-02 0. -1.
       -2   -1    0    0    0  501  0.00000000000E+00  0.00000000000E+00 -0.98122521587E+03  0.98122521587E+03  0.25500000920E-02 0.  1.
    10030    2    1    2    0    0  0.00000000000E+00  0.00000000000E+00  0.69172718001E+03  0.26541776118E+04  0.25624543514E+04 0.  0.
        2    1    3    3  502    0  0.64639056146E+02  0.27650592055E+03 -0.94822105565E+03  0.98982670305E+03  0.25500000920E-02 0.  1.
       -2    1    3    3    0  502 -0.64639056146E+02 -0.27650592055E+03  0.16399482357E+04  0.16643509087E+04  0.25500000920E-02 0. -1.
</event>
<event>
 5   0  0.1502886E-05  0.2500155E+04  0.7818609E-02  0.8402930E-01
        1   -1    0    0  501    0  0.00000000000E+00  0.00000000000E+00  0.11313127667E+04  0.11313127667E+04  0.50400001928E-02 0. -1.
       -1   -1    0    0    0  501  0.00000000000E+00  0.00000000000E+00 -0.13813098385E+04  0.13813098385E+04  0.50400001928E-02 0.  1.
    10030    2    1    2    0    0  0.00000000000E+00  0.00000000000E+00 -0.24999707179E+03  0.25126226051E+04  0.25001547592E+04 0.  0.
        4    1    3    3  502    0  0.92033990555E+02  0.12139572673E+04  0.16019353058E+03  0.12279356996E+04  0.12699999809E+01 0. -1.
       -4    1    3    3    0  502 -0.92033990555E+02 -0.12139572673E+04 -0.41019060237E+03  0.12846869056E+04  0.12699999809E+01 0.  1.
</event>
<event>
 5   0  0.3650620E-05  0.2470496E+04  0.7818609E-02  0.8413572E-01
       -2   -1    0    0    0  501  0.00000000000E+00  0.00000000000E+00  0.12213650268E+04  0.12213650268E+04  0.25500000920E-02 0. -1.
        2   -1    0    0  501    0  0.00000000000E+00  0.00000000000E+00 -0.12492889316E+04  0.12492889316E+04  0.25500000920E-02 0.  1.
    10030    2    1    2    0    0  0.00000000000E+00  0.00000000000E+00 -0.27923904753E+02  0.24706539585E+04  0.24704961522E+04 0.  0.
        3    1    3    3  502    0 -0.93456450843E+03  0.46153920275E+03  0.64895937072E+03  0.12278344885E+04  0.10100000352E+00 0. -1.
       -3    1    3    3    0  502  0.93456450843E+03 -0.46153920275E+03 -0.67688327548E+03  0.12428194700E+04  0.10100000352E+00 0.  1.
</event>
<event>
 5   0  0.1456876E-05  0.2503617E+04  0.7818609E-02  0.8401698E-01
       -1   -1    0    0    0  501  0.00000000000E+00  0.00000000000E+00  0.10669017663E+04  0.10669017663E+04  0.50400001928E-02 0. -1.
        1   -1    0    0  501    0  0.00000000000E+00  0.00000000000E+00 -0.14687619093E+04  0.14687619093E+04  0.50400001928E-02 0.  1.
    10030    2    1    2    0    0  0.00000000000E+00  0.00000000000E+00 -0.40186014302E+03  0.25356636756E+04  0.25036171235E+04 0.  0.
        1    1    3    3  502    0  0.11095110402E+04 -0.38170702232E+03 -0.64275902366E+03  0.13378543126E+04  0.50400001928E-02 0.  1.
       -1    1    3    3    0  502 -0.11095110402E+04  0.38170702232E+03  0.24089888064E+03  0.11978093630E+04  0.50400001928E-02 0. -1.
</event>
<event>
 5   0  0.3650620E-05  0.2516846E+04  0.7818609E-02  0.8397009E-01
       -2   -1    0    0    0  501  0.00000000000E+00  0.00000000000E+00  0.72068720461E+03  0.72068720461E+03  0.25500000920E-02 0. -1.
        2   -1    0    0  501    0  0.00000000000E+00  0.00000000000E+00 -0.21973860805E+04  0.21973860805E+04  0.25500000920E-02 0.  1.
    10030    2    1    2    0    0  0.00000000000E+00  0.00000000000E+00 -0.14766988759E+04  0.29180732851E+04  0.25168456701E+04 0.  0.
        3    1    3    3  502    0  0.61763695237E+02  0.11745316421E+04 -0.12572305008E+04  0.17216178074E+04  0.10100000352E+00 0.  1.
       -3    1    3    3    0  502 -0.61763695237E+02 -0.11745316421E+04 -0.21946837511E+03  0.11964554777E+04  0.10100000352E+00 0. -1.
</event>
<event>
 5   0  0.1492639E-05  0.2439129E+04  0.7818609E-02  0.8424998E-01
        1   -1    0    0  501    0  0.00000000000E+00  0.00000000000E+00  0.12472651823E+04  0.12472651823E+04  0.50400001928E-02 0. -1.
       -1   -1    0    0    0  501  0.00000000000E+00  0.00000000000E+00 -0.11924787861E+04  0.11924787861E+04  0.50400001928E-02 0.  1.
    10030    2    1    2    0    0  0.00000000000E+00  0.00000000000E+00  0.54786396243E+02  0.24397439684E+04  0.24391287548E+04 0.  0.
        5    1    3    3  502    0 -0.60025168968E+02 -0.98123091330E+02 -0.11870316532E+04  0.11926011058E+04  0.46999998093E+01 0.  1.
       -5    1    3    3    0  502  0.60025168968E+02  0.98123091330E+02  0.12418180494E+04  0.12471428626E+04  0.46999998093E+01 0. -1.
</event>
<event>
 5   0  0.1492639E-05  0.2550116E+04  0.7818609E-02  0.8385346E-01
        1   -1    0    0  501    0  0.00000000000E+00  0.00000000000E+00  0.12481136742E+04  0.12481136742E+04  0.50400001928E-02 0. -1.
       -1   -1    0    0    0  501  0.00000000000E+00  0.00000000000E+00 -0.13025840212E+04  0.13025840212E+04  0.50400001928E-02 0.  1.
    10030    2    1    2    0    0  0.00000000000E+00  0.00000000000E+00 -0.54470346943E+02  0.25506976954E+04  0.25501160198E+04 0.  0.
        5    1    3    3  502    0 -0.34465547353E+03 -0.31406778561E+03  0.11597641584E+04  0.12500003850E+04  0.46999998093E+01 0. -1.
       -5    1    3    3    0  502  0.34465547353E+03  0.31406778561E+03 -0.12142345053E+04  0.13006973104E+04  0.46999998093E+01 0.  1.
</event>
<event>
 5   0  0.1421242E-05  0.2523610E+04  0.7818609E-02  0.8394622E-01
        1   -1    0    0  501    0  0.00000000000E+00  0.00000000000E+00  0.13045105664E+04  0.13045105665E+04  0.50400001928E-02 0. -1.
       -1   -1    0    0    0  501  0.00000000000E+00  0.00000000000E+00 -0.12204973286E+04  0.12204973286E+04  0.50400001928E-02 0.  1.
    10030    2    1    2    0    0  0.00000000000E+00  0.00000000000E+00  0.84013237810E+02  0.25250078951E+04  0.25236098443E+04 0.  0.
        3    1    3    3  502    0 -0.37078817969E+03 -0.93046258717E+02  0.12451744213E+04  0.13025363066E+04  0.10100000352E+00 0. -1.
       -3    1    3    3    0  502  0.37078817969E+03  0.93046258717E+02 -0.11611611835E+04  0.12224715885E+04  0.10100000352E+00 0.  1.
</event>
<event>
 5   0  0.3579097E-05  0.2530027E+04  0.7818609E-02  0.8392366E-01
       -2   -1    0    0    0  501  0.00000000000E+00  0.00000000000E+00  0.30379193650E+04  0.30379193650E+04  0.25500000920E-02 0. -1.
        2   -1    0    0  501    0  0.00000000000E+00  0.00000000000E+00 -0.52676151660E+03  0.52676151661E+03  0.25500000920E-02 0.  1.
    10030    2    1    2    0    0  0.00000000000E+00  0.00000000000E+00  0.25111578484E+04  0.35646808816E+04  0.25300268868E+04 0.  0.
        5    1    3    3  502    0  0.57785562598E+03 -0.98505633819E+03  0.20221095251E+04  0.23223268796E+04  0.46999998093E+01 0. -1.
       -5    1    3    3    0  502 -0.57785562598E+03  0.98505633819E+03  0.48904832322E+03  0.12423540020E+04  0.46999998093E+01 0.  1.
</event>
<event>
 5   0  0.3581449E-05  0.2514681E+04  0.7818609E-02  0.8397774E-01
        2   -1    0    0  501    0  0.00000000000E+00  0.00000000000E+00  0.21997582843E+04  0.21997582843E+04  0.25500000920E-02 0. -1.
       -2   -1    0    0    0  501  0.00000000000E+00  0.00000000000E+00 -0.71867204952E+03  0.71867204952E+03  0.25500000920E-02 0.  1.
    10030    2    1    2    0    0  0.00000000000E+00  0.00000000000E+00  0.14810862347E+04  0.29184303338E+04  0.25146807309E+04 0.  0.
        1    1    3    3  502    0 -0.93393742984E+02  0.10565848203E+04 -0.42992674672E+02  0.10615753594E+04  0.50400001928E-02 0.  1.
       -1    1    3    3    0  502  0.93393742984E+02 -0.10565848203E+04  0.15240789094E+04  0.18568549744E+04  0.50400001928E-02 0. -1.
</event>
<event>
 5   0  0.3581449E-05  0.2539735E+04  0.7818609E-02  0.8388965E-01
        2   -1    0    0  501    0  0.00000000000E+00  0.00000000000E+00  0.24777570816E+04  0.24777570816E+04  0.25500000920E-02 0.  1.
       -2   -1    0    0    0  501  0.00000000000E+00  0.00000000000E+00 -0.65081580873E+03  0.65081580874E+03  0.25500000920E-02 0. -1.
    10030    2    1    2    0    0  0.00000000000E+00  0.00000000000E+00  0.18269412729E+04  0.31285728903E+04  0.25397350089E+04 0.  0.
        1    1    3    3  502    0 -0.94967210897E+03  0.81421924137E+03  0.11826049162E+04  0.17214483656E+04  0.50400001928E-02 0.  1.
       -1    1    3    3    0  502  0.94967210897E+03 -0.81421924137E+03  0.64433635671E+03  0.14071245248E+04  0.50400001928E-02 0. -1.
</event>
<event>
 5   0  0.1429483E-05  0.2470679E+04  0.7818609E-02  0.8413506E-01
       -1   -1    0    0    0  501  0.00000000000E+00  0.00000000000E+00  0.10764549924E+04  0.10764549924E+04  0.50400001928E-02 0.  1.
        1   -1    0    0  501    0  0.00000000000E+00  0.00000000000E+00 -0.14176749431E+04  0.14176749431E+04  0.50400001928E-02 0. -1.
    10030    2    1    2    0    0  0.00000000000E+00  0.00000000000E+00 -0.34121995073E+03  0.24941299356E+04  0.24706786680E+04 0.  0.
        2    1    3    3  502    0 -0.16207240763E+03  0.89428551520E+03  0.67402118237E+03  0.11315116448E+04  0.25500000920E-02 0.  1.
       -2    1    3    3    0  502  0.16207240763E+03 -0.89428551520E+03 -0.10152411331E+04  0.13626182908E+04  0.25500000920E-02 0. -1.
</event>
<event>
 5   0  0.1429483E-05  0.2447199E+04  0.7818609E-02  0.8422041E-01
       -1   -1    0    0    0  501  0.00000000000E+00  0.00000000000E+00  0.13131212551E+04  0.13131212551E+04  0.50400001928E-02 0.  1.
        1   -1    0    0  501    0  0.00000000000E+00  0.00000000000E+00 -0.11401808286E+04  0.11401808287E+04  0.50400001928E-02 0. -1.
    10030    2    1    2    0    0  0.00000000000E+00  0.00000000000E+00  0.17294042644E+03  0.24533020838E+04  0.24471989545E+04 0.  0.
        2    1    3    3  502    0  0.46449209584E+03 -0.27941820775E+03  0.11861874233E+04  0.13041733187E+04  0.25500000920E-02 0.  1.
       -2    1    3    3    0  502 -0.46449209584E+03  0.27941820775E+03 -0.10132469969E+04  0.11491287650E+04  0.25500000920E-02 0. -1.
</event>
<event>
 5   0  0.3704241E-05  0.2497231E+04  0.7818609E-02  0.8403973E-01
        2   -1    0    0  501    0  0.00000000000E+00  0.00000000000E+00  0.18714769280E+04  0.18714769280E+04  0.25500000920E-02 0. -1.
       -2   -1    0    0    0  501  0.00000000000E+00  0.00000000000E+00 -0.83305349186E+03  0.83305349186E+03  0.25500000920E-02 0.  1.
    10030    2    1    2    0    0  0.00000000000E+00  0.00000000000E+00  0.10384234361E+04  0.27045304198E+04  0.24972307781E+04 0.  0.
        2    1    3    3  502    0 -0.81763268560E+02 -0.11504508542E+04  0.11538493124E+01  0.11533532553E+04  0.25500000920E-02 0.  1.
       -2    1    3    3    0  502  0.81763268560E+02  0.11504508542E+04  0.10372695868E+04  0.15511771646E+04  0.25500000920E-02 0. -1.
</event>
<event>
 5   0  0.1492639E-05  0.2510362E+04  0.7818609E-02  0.8399303E-01
        1   -1    0    0  501    0  0.00000000000E+00  0.00000000000E+00  0.17573999943E+04  0.17573999943E+04  0.50400001928E-02 0. -1.
       -1   -1    0    0    0  501  0.00000000000E+00  0.00000000000E+00 -0.89648276691E+03  0.89648276692E+03  0.50400001928E-02 0.  1.
    10030    2    1    2    0    0  0.00000000000E+00  0.00000000000E+00  0.86091722734E+03  0.26538827612E+04  0.25103615751E+04 0.  0.
        5    1    3    3  502    0 -0.23121503242E+03 -0.11556541695E+04  0.88695571602E+03  0.14750286380E+04  0.46999998093E+01 0. -1.
       -5    1    3    3    0  502  0.23121503242E+03  0.11556541695E+04 -0.26038488678E+02  0.11788541232E+04  0.46999998093E+01 0.  1.
</event>
<event>
 5   0  0.1502886E-05  0.2411448E+04  0.7818609E-02  0.8435230E-01
       -1   -1    0    0    0  501  0.00000000000E+00  0.00000000000E+00  0.94465524601E+03  0.94465524603E+03  0.50400001928E-02 0. -1.
        1   -1    0    0  501    0  0.00000000000E+00  0.00000000000E+00 -0.15389432224E+04  0.15389432224E+04  0.50400001928E-02 0.  1.
    10030    2    1    2    0    0  0.00000000000E+00  0.00000000000E+00 -0.59428797638E+03  0.24835984684E+04  0.24114483518E+04 0.  0.
        4    1    3    3  502    0 -0.30846827375E+03  0.54711573973E+03 -0.13571515970E+04  0.14954432048E+04  0.12699999809E+01 0.  1.
       -4    1    3    3    0  502  0.30846827375E+03 -0.54711573973E+03  0.76286362060E+03  0.98815526367E+03  0.12699999809E+01 0. -1.
</event>
<event>
 5   0  0.1421242E-05  0.2576210E+04  0.7818609E-02  0.8376327E-01
       -1   -1    0    0    0  501  0.00000000000E+00  0.00000000000E+00  0.53987629014E+03  0.53987629017E+03  0.50400001928E-02 0.  1.
        1   -1    0    0  501    0  0.00000000000E+00  0.00000000000E+00 -0.30733238113E+04  0.30733238113E+04  0.50400001928E-02 0. -1.
    10030    2    1    2    0    0  0.00000000000E+00  0.00000000000E+00 -0.25334475212E+04  0.36132001015E+04  0.25762101294E+04 0.  0.
        3    1    3    3  502    0 -0.99791260838E+01 -0.10427622779E+04 -0.23272424710E+04  0.25501980864E+04  0.10100000352E+00 0. -1.
       -3    1    3    3    0  502  0.99791260838E+01  0.10427622779E+04 -0.20620505023E+03  0.10630020151E+04  0.10100000352E+00 0.  1.
</event>
<event>
 5   0  0.1492639E-05  0.2486552E+04  0.7818609E-02  0.8407792E-01
       -1   -1    0    0    0  501  0.00000000000E+00  0.00000000000E+00  0.12960642010E+04  0.12960642010E+04  0.50400001928E-02 0. -1.
        1   -1    0    0  501    0  0.00000000000E+00  0.00000000000E+00 -0.11926378317E+04  0.11926378317E+04  0.50400001928E-02 0.  1.
    10030    2    1    2    0    0  0.00000000000E+00  0.00000000000E+00  0.10342636933E+03  0.24887020327E+04  0.24865519890E+04 0.  0.
        5    1    3    3  502    0  0.93397320787E+02 -0.12113584678E+04  0.31576076859E+03  0.12553244003E+04  0.46999998093E+01 0.  1.
       -5    1    3    3    0  502 -0.93397320787E+02  0.12113584678E+04 -0.21233439926E+03  0.12333776324E+04  0.46999998093E+01 0. -1.
</event>
<event>
 5   0  0.3704241E-05  0.2456569E+04  0.7818609E-02  0.8418624E-01
        2   -1    0    0  501    0  0.00000000000E+00  0.00000000000E+00  0.26781681177E+04  0.26781681177E+04  0.25500000920E-02 0.  1.
       -2   -1    0    0    0  501  0.00000000000E+00  0.00000000000E+00 -0.56332628614E+03  0.56332628614E+03  0.25500000920E-02 0. -1.
    10030    2    1    2    0    0  0.00000000000E+00  0.00000000000E+00  0.21148418316E+04  0.32414944039E+04  0.24565687448E+04 0.  0.
        2    1    3    3  502    0 -0.59669946606E+02 -0.61927396778E+03  0.24548814936E+04  0.25324896638E+04  0.25500000920E-02 0.  1.
       -2    1    3    3    0  502  0.59669946606E+02  0.61927396778E+03 -0.34003966200E+03  0.70900474007E+03  0.25500000920E-02 0. -1.
</event>
<event>
 5   0  0.3704241E-05  0.2475107E+04  0.7818609E-02  0.8411908E-01
       -2   -1    0    0    0  501  0.00000000000E+00  0.00000000000E+00  0.17362546292E+04  0.17362546292E+04  0.25500000920E-02 0.  1.
        2   -1    0    0  501    0  0.00000000000E+00  0.00000000000E+00 -0.88209309981E+03  0.88209309982E+03  0.25500000920E-02 0. -1.
    10030    2    1    2    0    0  0.00000000000E+00  0.00000000000E+00  0.85416152942E+03  0.26183477291E+04  0.24751066466E+04 0.  0.
        2    1    3    3  502    0 -0.48280550249E+03  0.94658612406E+03  0.10981521971E+04  0.15280918465E+04  0.25500000920E-02 0.  1.
       -2    1    3    3    0  502  0.48280550249E+03 -0.94658612406E+03 -0.24399066763E+03  0.10902558825E+04  0.25500000920E-02 0. -1.
</event>
<event>
 5   0  0.1502886E-05  0.2535386E+04  0.7818609E-02  0.8390487E-01
       -1   -1    0    0    0  501  0.00000000000E+00  0.00000000000E+00  0.72031326275E+03  0.72031326277E+03  0.50400001928E-02 0.  1.
        1   -1    0    0  501    0  0.00000000000E+00  0.00000000000E+00 -0.22310364630E+04  0.22310364630E+04  0.50400001928E-02 0. -1.
    10030    2    1    2    0    0  0.00000000000E+00  0.00000000000E+00 -0.15107232002E+04  0.29513497257E+04  0.25353856937E+04 0.  0.
        4    1    3    3  502    0  0.47151762450E+03 -0.23736409660E+03 -0.20970036219E+04  0.21624283543E+04  0.12699999809E+01 0. -1.
       -4    1    3    3    0  502 -0.47151762450E+03  0.23736409660E+03  0.58628042165E+03  0.78892137142E+03  0.12699999809E+01 0.  1.
</event>
<event>
 5   0  0.1421242E-05  0.2467597E+04  0.7818609E-02  0.8414621E-01
       -1   -1    0    0    0  501  0.00000000000E+00  0.00000000000E+00  0.14028620253E+04  0.14028620253E+04  0.50400001928E-02 0. -1.
        1   -1    0    0  501    0  0.00000000000E+00  0.00000000000E+00 -0.10851095939E+04  0.10851095939E+04  0.50400001928E-02 0.  1.
    10030    2    1    2    0    0  0.00000000000E+00  0.00000000000E+00  0.31775243142E+03  0.24879716192E+04  0.24675972463E+04 0.  0.
        3    1    3    3  502    0  0.12106384389E+04  0.15801101738E+03  0.33823860798E+03  0.12668931594E+04  0.10100000352E+00 0. -1.
       -3    1    3    3    0  502 -0.12106384389E+04 -0.15801101738E+03 -0.20486176564E+02  0.12210784598E+04  0.10100000352E+00 0.  1.
</event>
<event>
 5   0  0.1456876E-05  0.2091522E+04  0.7818609E-02  0.8564987E-01
        1   -1    0    0  501    0  0.00000000000E+00  0.00000000000E+00  0.15533569044E+04  0.15533569044E+04  0.50400001928E-02 0.  1.
       -1   -1    0    0    0  501  0.00000000000E+00  0.00000000000E+00 -0.70403409032E+03  0.70403409034E+03  0.50400001928E-02 0. -1.
    10030    2    1    2    0    0  0.00000000000E+00  0.00000000000E+00  0.84932281404E+03  0.22573909947E+04  0.20915221396E+04 0.  0.
        1    1    3    3  502    0 -0.12094713428E+03  0.19360507271E+03  0.15261373561E+04  0.15431157971E+04  0.50400001928E-02 0.  1.
       -1    1    3    3    0  502  0.12094713428E+03 -0.19360507271E+03 -0.67681454211E+03  0.71427519760E+03  0.50400001928E-02 0. -1.
</event>
<event>
 5   0  0.1492639E-05  0.2475861E+04  0.7818609E-02  0.8411636E-01
        1   -1    0    0  501    0  0.00000000000E+00  0.00000000000E+00  0.10312038904E+04  0.10312038904E+04  0.50400001928E-02 0. -1.
       -1   -1    0    0    0  501  0.00000000000E+00  0.00000000000E+00 -0.14861003308E+04  0.14861003309E+04  0.50400001928E-02 0.  1.
    10030    2    1    2    0    0  0.00000000000E+00  0.00000000000E+00 -0.45489644045E+03  0.25173042213E+04  0.24758614200E+04 0.  0.
        5    1    3    3  502    0 -0.69856076912E+03  0.44107970387E+03 -0.11647864417E+04  0.14280364134E+04  0.46999998093E+01 0.  1.
       -5    1    3    3    0  502  0.69856076912E+03 -0.44107970387E+03  0.70989000125E+03  0.10892678078E+04  0.46999998093E+01 0. -1.
</event>
<event>
 5   0  0.3581449E-05  0.2508670E+04  0.7818609E-02  0.8399903E-01
        2   -1    0    0  501    0  0.00000000000E+00  0.00000000000E+00  0.83298276989E+03  0.83298276989E+03  0.25500000920E-02 0. -1.
       -2   -1    0    0    0  501  0.00000000000E+00  0.00000000000E+00 -0.18888218093E+04  0.18888218093E+04  0.25500000920E-02 0.  1.
    10030    2    1    2    0    0  0.00000000000E+00  0.00000000000E+00 -0.10558390394E+04  0.27218045792E+04  0.25086697850E+04 0.  0.
        1    1    3    3  502    0 -0.10050834123E+04 -0.73387499669E+03 -0.35778196899E+03  0.12949027430E+04  0.50400001928E-02 0.  1.
       -1    1    3    3    0  502  0.10050834123E+04  0.73387499669E+03 -0.69805707041E+03  0.14269018362E+04  0.50400001928E-02 0. -1.
</event>
<event>
 5   0  0.3650620E-05  0.2532988E+04  0.7818609E-02  0.8391327E-01
       -2   -1    0    0    0  501  0.00000000000E+00  0.00000000000E+00  0.97729999657E+03  0.97729999658E+03  0.25500000920E-02 0. -1.
        2   -1    0    0  501    0  0.00000000000E+00  0.00000000000E+00 -0.16412643378E+04  0.16412643378E+04  0.25500000920E-02 0.  1.
    10030    2    1    2    0    0  0.00000000000E+00  0.00000000000E+00 -0.66396434125E+03  0.26185643344E+04  0.25329884577E+04 0.  0.
        3    1    3    3  502    0  0.92573558185E+03 -0.43343664023E+03 -0.11050110689E+04  0.15052917196E+04  0.10100000352E+00 0.  1.
       -3    1    3    3    0  502 -0.92573558185E+03  0.43343664023E+03  0.44104672766E+03  0.11132726148E+04  0.10100000352E+00 0. -1.
</event>
<event>
 5   0  0.3581449E-05  0.2507190E+04  0.7818609E-02  0.8400428E-01
       -2   -1    0    0    0  501  0.00000000000E+00  0.00000000000E+00  0.12536332708E+04  0.12536332708E+04  0.25500000920E-02 0.  1.
        2   -1    0    0  501    0  0.00000000000E+00  0.00000000000E+00 -0.12535571772E+04  0.12535571772E+04  0.25500000920E-02 0. -1.
    10030    2    1    2    0    0  0.00000000000E+00  0.00000000000E+00  0.76093521893E-01  0.25071904480E+04  0.25071904468E+04 0.  0.
        1    1    3    3  502    0 -0.35619032848E+03 -0.60373879294E+03 -0.10392544553E+04  0.12535636813E+04  0.50400001928E-02 0. -1.
       -1    1    3    3    0  502  0.35619032848E+03  0.60373879294E+03  0.10393305489E+04  0.12536267666E+04  0.50400001928E-02 0.  1.
</event>
<event>
 5   0  0.3650620E-05  0.2442309E+04  0.7818609E-02  0.8423831E-01
       -2   -1    0    0    0  501  0.00000000000E+00  0.00000000000E+00  0.10078474726E+04  0.10078474726E+04  0.25500000920E-02 0. -1.
        2   -1    0    0  501    0  0.00000000000E+00  0.00000000000E+00 -0.14796072333E+04  0.14796072333E+04  0.25500000920E-02 0.  1.
    10030    2    1    2    0    0  0.00000000000E+00  0.00000000000E+00 -0.47175976075E+03  0.24874547059E+04  0.24423090800E+04 0.  0.
        3    1    3    3  502    0  0.67807170132E+03 -0.64943531169E+03 -0.10311273689E+04  0.13945505073E+04  0.10100000352E+00 0.  1.
       -3    1    3    3    0  502 -0.67807170132E+03  0.64943531169E+03  0.55936760816E+03  0.10929041987E+04  0.10100000352E+00 0. -1.
</event>
<event>
 5   0  0.3579097E-05  0.1869124E+04  0.7818609E-02  0.8670380E-01
       -2   -1    0    0    0  501  0.00000000000E+00  0.00000000000E+00  0.76491434721E+03  0.76491434721E+03  0.25500000920E-02 0.  1.
        2   -1    0    0  501    0  0.00000000000E+00  0.00000000000E+00 -0.11418352235E+04  0.11418352235E+04  0.25500000920E-02 0. -1.
    10030    2    1    2    0    0  0.00000000000E+00  0.00000000000E+00 -0.37692087630E+03  0.19067495707E+04  0.18691240137E+04 0.  0.
        5    1    3    3  502    0 -0.48597328041E+02 -0.78889058632E+03  0.32025009229E+03  0.85281432275E+03  0.46999998093E+01 0. -1.
       -5    1    3    3    0  502  0.48597328041E+02  0.78889058632E+03 -0.69717096859E+03  0.10539352480E+04  0.46999998093E+01 0.  1.
</event>
<event>
 5   0  0.1429483E-05  0.2504495E+04  0.7818609E-02  0.8401386E-01
       -1   -1    0    0    0  501  0.00000000000E+00  0.00000000000E+00  0.16996702524E+04  0.16996702524E+04  0.50400001928E-02 0.  1.
        1   -1    0    0  501    0  0.00000000000E+00  0.00000000000E+00 -0.92260469180E+03  0.92260469182E+03  0.50400001928E-02 0. -1.
    10030    2    1    2    0    0  0.00000000000E+00  0.00000000000E+00  0.77706556061E+03  0.26222749442E+04  0.25044949586E+04 0.  0.
        2    1    3    3  502    0  0.86249542161E+02  0.82447150242E+03 -0.59418572714E+03  0.10199259386E+04  0.25500000920E-02 0. -1.
       -2    1    3    3    0  502 -0.86249542161E+02 -0.82447150242E+03  0.13712512877E+04  0.16023490057E+04  0.25500000920E-02 0.  1.
</event>
<event>
 5   0  0.1421242E-05  0.2515502E+04  0.7818609E-02  0.8397484E-01
       -1   -1    0    0    0  501  0.00000000000E+00  0.00000000000E+00  0.11715574574E+04  0.11715574574E+04  0.50400001928E-02 0.  1.
        1   -1    0    0  501    0  0.00000000000E+00  0.00000000000E+00 -0.13502860463E+04  0.13502860463E+04  0.50400001928E-02 0. -1.
    10030    2    1    2    0    0  0.00000000000E+00  0.00000000000E+00 -0.17872858893E+03  0.25218435037E+04  0.25155020868E+04 0.  0.
        3    1    3    3  502    0 -0.13938073459E+02 -0.59625182224E+03 -0.11995072771E+04  0.13396000237E+04  0.10100000352E+00 0. -1.
       -3    1    3    3    0  502  0.13938073459E+02  0.59625182224E+03  0.10207786882E+04  0.11822434800E+04  0.10100000352E+00 0.  1.
</event>
<event>
 5   0  0.3581449E-05  0.2450377E+04  0.7818609E-02  0.8420880E-01
        2   -1    0    0  501    0  0.00000000000E+00  0.00000000000E+00  0.11861986005E+04  0.11861986005E+04  0.25500000920E-02 0.  1.
       -2   -1    0    0    0  501  0.00000000000E+00  0.00000000000E+00 -0.12654604835E+04  0.12654604835E+04  0.25500000920E-02 0. -1.
    10030    2    1    2    0    0  0.00000000000E+00  0.00000000000E+00 -0.79261883076E+02  0.24516590840E+04  0.24503774848E+04 0.  0.
        1    1    3    3  502    0  0.71442995913E+03  0.28395560802E+03 -0.99409345871E+03  0.12566872159E+04  0.50400001928E-02 0. -1.
       -1    1    3    3    0  502 -0.71442995913E+03 -0.28395560802E+03  0.91483157564E+03  0.11949718681E+04  0.50400001928E-02 0.  1.
</event>
<event>
 5   0  0.1421242E-05  0.2559397E+04  0.7818609E-02  0.8382125E-01
       -1   -1    0    0    0  501  0.00000000000E+00  0.00000000000E+00  0.98063709925E+03  0.98063709926E+03  0.50400001928E-02 0.  1.
        1   -1    0    0  501    0  0.00000000000E+00  0.00000000000E+00 -0.16699637001E+04  0.16699637001E+04  0.50400001928E-02 0. -1.
    10030    2    1    2    0    0  0.00000000000E+00  0.00000000000E+00 -0.68932660083E+03  0.26506007993E+04  0.25593970843E+04 0.  0.
        3    1    3    3  502    0 -0.62227122319E+03  0.11474178888E+03  0.80728725815E+03  0.10257192017E+04  0.10100000352E+00 0.  1.
       -3    1    3    3    0  502  0.62227122319E+03 -0.11474178888E+03 -0.14966138590E+04  0.16248815977E+04  0.10100000352E+00 0. -1.
</event>
<event>
 5   0  0.1429483E-05  0.2505949E+04  0.7818609E-02  0.8400869E-01
        1   -1    0    0  501    0  0.00000000000E+00  0.00000000000E+00  0.11242290123E+04  0.11242290123E+04  0.50400001928E-02 0.  1.
       -1   -1    0    0    0  501  0.00000000000E+00  0.00000000000E+00 -0.13964639304E+04  0.13964639305E+04  0.50400001928E-02 0. -1.
    10030    2    1    2    0    0  0.00000000000E+00  0.00000000000E+00 -0.27223491818E+03  0.25206929427E+04  0.25059491337E+04 0.  0.
        2    1    3    3  502    0 -0.11343312391E+04  0.52120403880E+03 -0.27854036831E+02  0.12486540183E+04  0.25500000920E-02 0.  1.
       -2    1    3    3    0  502  0.11343312391E+04 -0.52120403880E+03 -0.24438088135E+03  0.12720389244E+04  0.25500000920E-02 0. -1.
</event>
<event>
 5   0  0.1502886E-05  0.2498449E+04  0.7818609E-02  0.8403538E-01
        1   -1    0    0  501    0  0.00000000000E+00  0.00000000000E+00  0.22304211394E+04  0.22304211395E+04  0.50400001928E-02 0. -1.
       -1   -1    0    0    0  501  0.00000000000E+00  0.00000000000E+00 -0.69967112050E+03  0.69967112052E+03  0.50400001928E-02 0.  1.
    10030    2    1    2    0    0  0.00000000000E+00  0.00000000000E+00  0.15307500189E+04  0.29300922600E+04  0.24984485249E+04 0.  0.
        4    1    3    3  502    0 -0.77165050802E+03  0.34947318090E+02  0.19167730545E+04  0.20665639058E+04  0.12699999809E+01 0. -1.
       -4    1    3    3    0  502  0.77165050802E+03 -0.34947318090E+02 -0.38602303554E+03  0.86352835416E+03  0.12699999809E+01 0.  1.
</event>
<event>
 5   0  0.3578670E-05  0.2480615E+04  0.7818609E-02  0.8409924E-01
        2   -1    0    0  501    0  0.00000000000E+00  0.00000000000E+00  0.16902632486E+04  0.16902632486E+04  0.25500000920E-02 0. -1.
       -2   -1    0    0    0  501  0.00000000000E+00  0.00000000000E+00 -0.91013197671E+03  0.91013197671E+03  0.25500000920E-02 0.  1.
    10030    2    1    2    0    0  0.00000000000E+00  0.00000000000E+00  0.78013127189E+03  0.26003952253E+04  0.24806149493E+04 0.  0.
        4    1    3    3  502    0  0.11832683347E+04  0.36820309883E+03  0.33596404744E+03  0.12839668718E+04  0.12699999809E+01 0.  1.
       -4    1    3    3    0  502 -0.11832683347E+04 -0.36820309883E+03  0.44416722446E+03  0.13164283535E+04  0.12699999809E+01 0. -1.
</event>
<event>
 5   0  0.1201438E-05  0.2484011E+04  0.7818609E-02  0.8408704E-01
        3   -1    0    0  501    0  0.00000000000E+00  0.00000000000E+00  0.14857865856E+04  0.14857865890E+04  0.10100000352E+00 0. -1.
       -3   -1    0    0    0  501  0.00000000000E+00  0.00000000000E+00 -0.10382229419E+04  0.10382229468E+04  0.10100000352E+00 0.  1.
    10030    2    1    2    0    0  0.00000000000E+00  0.00000000000E+00  0.44756364371E+03  0.25240095358E+04  0.24840110550E+04 0.  0.
        4    1    3    3  502    0 -0.50916849638E+03 -0.75047113967E+03  0.10860431063E+04  0.14149030818E+04  0.12699999809E+01 0. -1.
       -4    1    3    3    0  502  0.50916849638E+03  0.75047113967E+03 -0.63847946261E+03  0.11091064540E+04  0.12699999809E+01 0.  1.
</event>
<event>
 5   0  0.1492639E-05  0.2491481E+04  0.7818609E-02  0.8406027E-01
        1   -1    0    0  501    0  0.00000000000E+00  0.00000000000E+00  0.67661863657E+03  0.67661863659E+03  0.50400001928E-02 0. -1.
       -1   -1    0    0    0  501  0.00000000000E+00  0.00000000000E+00 -0.22935654506E+04  0.22935654506E+04  0.50400001928E-02 0.  1.
    10030    2    1    2    0    0  0.00000000000E+00  0.00000000000E+00 -0.16169468140E+04  0.29701840872E+04  0.24914807871E+04 0.  0.
        5    1    3    3  502    0 -0.71172602130E+03  0.49740199553E+03 -0.18733414688E+04  0.20647985430E+04  0.46999998093E+01 0.  1.
       -5    1    3    3    0  502  0.71172602130E+03 -0.49740199553E+03  0.25639465479E+03  0.90538554415E+03  0.46999998093E+01 0. -1.
</event>
<event>
 5   0  0.1492639E-05  0.2368321E+04  0.7818609E-02  0.8451460E-01
       -1   -1    0    0    0  501  0.00000000000E+00  0.00000000000E+00  0.11381812566E+04  0.11381812566E+04  0.50400001928E-02 0. -1.
        1   -1    0    0  501    0  0.00000000000E+00  0.00000000000E+00 -0.12319967424E+04  0.12319967424E+04  0.50400001928E-02 0.  1.
    10030    2    1    2    0    0  0.00000000000E+00  0.00000000000E+00 -0.93815485850E+02  0.23701779990E+04  0.23683205867E+04 0.  0.
        5    1    3    3  502    0  0.19157695868E+03 -0.11204885946E+04 -0.37885611749E+03  0.11982280540E+04  0.46999998093E+01 0.  1.
       -5    1    3    3    0  502 -0.19157695868E+03  0.11204885946E+04  0.28504063164E+03  0.11719499449E+04  0.46999998093E+01 0. -1.
</event>
<event>
 5   0  0.3579097E-05  0.2482330E+04  0.7818609E-02  0.8409308E-01
        2   -1    0    0  501    0  0.00000000000E+00  0.00000000000E+00  0.18082244580E+04  0.18082244581E+04  0.25500000920E-02 0.  1.
       -2   -1    0    0    0  501  0.00000000000E+00  0.00000000000E+00 -0.85193571092E+03  0.85193571093E+03  0.25500000920E-02 0. -1.
    10030    2    1    2    0    0  0.00000000000E+00  0.00000000000E+00  0.95628874712E+03  0.26601601690E+04  0.24823303480E+04 0.  0.
        5    1    3    3  502    0 -0.39893835411E+03  0.10436911252E+04 -0.10096275768E+03  0.11218995247E+04  0.46999998093E+01 0. -1.
       -5    1    3    3    0  502  0.39893835411E+03 -0.10436911252E+04  0.10572515048E+04  0.15382606442E+04  0.46999998093E+01 0.  1.
</event>
<event>
 5   0  0.3650620E-05  0.2500751E+04  0.7818609E-02  0.8402718E-01
       -2   -1    0    0    0  501  0.00000000000E+00  0.00000000000E+00  0.92822835667E+03  0.92822835668E+03  0.25500000920E-02 0.  1.
        2   -1    0    0  501    0  0.00000000000E+00  0.00000000000E+00 -0.16843255937E+04  0.16843255937E+04  0.25500000920E-02 0. -1.
    10030    2    1    2    0    0  0.00000000000E+00  0.00000000000E+00 -0.75609723703E+03  0.26125539504E+04  0.25007509096E+04 0.  0.
        3    1    3    3  502    0  0.42702068958E+03 -0.20405459137E+03  0.83104159249E+03  0.95635510363E+03  0.10100000352E+00 0.  1.
       -3    1    3    3    0  502 -0.42702068958E+03  0.20405459137E+03 -0.15871388295E+04  0.16561988467E+04  0.10100000352E+00 0. -1.
</event>
<event>
 5   0  0.1429483E-05  0.2484460E+04  0.7818609E-02  0.8408543E-01
       -1   -1    0    0    0  501  0.00000000000E+00  0.00000000000E+00  0.19072113902E+04  0.19072113902E+04  0.50400001928E-02 0. -1.
        1   -1    0    0  501    0  0.00000000000E+00  0.00000000000E+00 -0.80910556738E+03  0.80910556739E+03  0.50400001928E-02 0.  1.
    10030    2    1    2    0    0  0.00000000000E+00  0.00000000000E+00  0.10981058228E+04  0.27163169576E+04  0.24844599848E+04 0.  0.
        2    1    3    3  502    0  0.11624948880E+04 -0.71161148622E+02  0.10214355616E+04  0.15491251984E+04  0.25500000920E-02 0.  1.
       -2    1    3    3    0  502 -0.11624948880E+04  0.71161148622E+02  0.76670261226E+02  0.11671917592E+04  0.25500000920E-02 0. -1.
</event>
<event>
 5   0  0.1429483E-05  0.2495806E+04  0.7818609E-02  0.8404481E-01
        1   -1    0    0  501    0  0.00000000000E+00  0.00000000000E+00  0.24961053012E+04  0.24961053012E+04  0.50400001928E-02 0. -1.
       -1   -1    0    0    0  501  0.00000000000E+00  0.00000000000E+00 -0.62387652118E+03  0.62387652120E+03  0.50400001928E-02 0.  1.
    10030    2    1    2    0    0  0.00000000000E+00  0.00000000000E+00  0.18722287801E+04  0.31199818224E+04  0.24958056750E+04 0.  0.
        2    1    3    3  502    0  0.44728073311E+03 -0.31565325089E+03 -0.46575135574E+03  0.71876376813E+03  0.25500000920E-02 0.  1.
       -2    1    3    3    0  502 -0.44728073311E+03  0.31565325089E+03  0.23379801358E+04  0.24012180543E+04  0.25500000920E-02 0. -1.
</event>
<event>
 5   0  0.3581449E-05  0.2481662E+04  0.7818609E-02  0.8409548E-01
        2   -1    0    0  501    0  0.00000000000E+00  0.00000000000E+00  0.15093370642E+04  0.15093370642E+04  0.25500000920E-02 0. -1.
       -2   -1    0    0    0  501  0.00000000000E+00  0.00000000000E+00 -0.10200908676E+04  0.10200908676E+04  0.25500000920E-02 0.  1.
    10030    2    1    2    0    0  0.00000000000E+00  0.00000000000E+00  0.48924619661E+03  0.25294279319E+04  0.24816615042E+04 0.  0.
        1    1    3    3  502    0  0.64198700535E+03  0.10618280635E+04  0.25063613401E+03  0.12658770174E+04  0.50400001928E-02 0.  1.
       -1    1    3    3    0  502 -0.64198700535E+03 -0.10618280635E+04  0.23861006259E+03  0.12635509145E+04  0.50400001928E-02 0. -1.
</event>
<event>
 5   0  0.3581449E-05  0.2517277E+04  0.7818609E-02  0.8396856E-01
        2   -1    0    0  501    0  0.00000000000E+00  0.00000000000E+00  0.11713036141E+04  0.11713036141E+04  0.25500000920E-02 0. -1.
       -2   -1    0    0    0  501  0.00000000000E+00  0.00000000000E+00 -0.13524852913E+04  0.13524852913E+04  0.25500000920E-02 0.  1.
    10030    2    1    2    0    0  0.00000000000E+00  0.00000000000E+00 -0.18118167721E+03  0.25237889054E+04  0.25172770287E+04 0.  0.
        1    1    3    3  502    0  0.62304792549E+03 -0.10182124706E+04  0.30947217552E+03  0.12331741078E+04  0.50400001928E-02 0. -1.
       -1    1    3    3    0  502 -0.62304792549E+03  0.10182124706E+04 -0.49065385273E+03  0.12906147976E+04  0.50400001928E-02 0.  1.
</event>
<event>
 5   0  0.3579097E-05  0.2499487E+04  0.7818609E-02  0.8403168E-01
        2   -1    0    0  501    0  0.00000000000E+00  0.00000000000E+00  0.13479605744E+04  0.13479605744E+04  0.25500000920E-02 0.  1.
       -2   -1    0    0    0  501  0.00000000000E+00  0.00000000000E+00 -0.11586831587E+04  0.11586831587E+04  0.25500000920E-02 0. -1.
    10030    2    1    2    0    0  0.00000000000E+00  0.00000000000E+00  0.18927741565E+03  0.25066437331E+04  0.24994873204E+04 0.  0.
        5    1    3    3  502    0 -0.64845756755E+03  0.64644675406E+03  0.94763056533E+03  0.13177315360E+04  0.46999998093E+01 0.  1.
       -5    1    3    3    0  502  0.64845756755E+03 -0.64644675406E+03 -0.75835314968E+03  0.11889121971E+04  0.46999998093E+01 0. -1.
</event>
<event>
 5   0  0.1502886E-05  0.2447248E+04  0.7818609E-02  0.8422024E-01
       -1   -1    0    0    0  501  0.00000000000E+00  0.00000000000E+00  0.91668135549E+03  0.91668135550E+03  0.50400001928E-02 0. -1.
        1   -1    0    0  501    0  0.00000000000E+00  0.00000000000E+00 -0.16333435129E+04  0.16333435129E+04  0.50400001928E-02 0.  1.
    10030    2    1    2    0    0  0.00000000000E+00  0.00000000000E+00 -0.71666215741E+03  0.25500248684E+04  0.24472478791E+04 0.  0.
        4    1    3    3  502    0 -0.35962201457E+03  0.11647990905E+04 -0.46845304261E+03  0.13059612478E+04  0.12699999809E+01 0.  1.
       -4    1    3    3    0  502  0.35962201457E+03 -0.11647990905E+04 -0.24820911480E+03  0.12440636206E+04  0.12699999809E+01 0. -1.
</event>
<event>
 5   0  0.1502886E-05  0.2497678E+04  0.7818609E-02  0.8403813E-01
       -1   -1    0    0    0  501  0.00000000000E+00  0.00000000000E+00  0.15707125329E+04  0.15707125329E+04  0.50400001928E-02 0. -1.
        1   -1    0    0  501    0  0.00000000000E+00  0.00000000000E+00 -0.99292466996E+03  0.99292466998E+03  0.50400001928E-02 0.  1.
    10030    2    1    2    0    0  0.00000000000E+00  0.00000000000E+00  0.57778786297E+03  0.25636372029E+04  0.24976783007E+04 0.  0.
        4    1    3    3  502    0 -0.10522132571E+03 -0.88439593020E+03  0.11874378108E+04  0.14843307772E+04  0.12699999809E+01 0. -1.
       -4    1    3    3    0  502  0.10522132571E+03  0.88439593020E+03 -0.60964994785E+03  0.10793064257E+04  0.12699999809E+01 0.  1.
</event>
<event>
 5   0  0.1456876E-05  0.2513827E+04  0.7818609E-02  0.8398076E-01
        1   -1    0    0  501    0  0.00000000000E+00  0.00000000000E+00  0.19762475361E+04  0.19762475361E+04  0.50400001928E-02 0. -1.
       -1   -1    0    0    0  501  0.00000000000E+00  0.00000000000E+00 -0.79940968877E+03  0.79940968879E+03  0.50400001928E-02 0.  1.
    10030    2    1    2    0    0  0.00000000000E+00  0.00000000000E+00  0.11768378473E+04  0.27756572249E+04  0.25138269056E+04 0.  0.
        1    1    3    3  502    0 -0.84486697492E+03 -0.72502017250E+03 -0.55765986856E+02  0.11147036831E+04  0.50400001928E-02 0.  1.
       -1    1    3    3    0  502  0.84486697492E+03  0.72502017250E+03  0.12326038342E+04  0.16609535418E+04  0.50400001928E-02 0. -1.
</event>
<event>
 5   0  0.3579097E-05  0.2502624E+04  0.7818609E-02  0.8402051E-01
       -2   -1    0    0    0  501  0.00000000000E+00  0.00000000000E+00  0.94286426899E+03  0.94286426899E+03  0.25500000920E-02 0.  1.
        2   -1    0    0  501    0  0.00000000000E+00  0.00000000000E+00 -0.16606654140E+04  0.16606654140E+04  0.25500000920E-02 0. -1.
    10030    2    1    2    0    0  0.00000000000E+00  0.00000000000E+00 -0.71780114504E+03  0.26035296830E+04  0.25026242879E+04 0.  0.
        5    1    3    3  502    0  0.11477256653E+04  0.18226469587E+03 -0.84157463633E+03  0.14348395662E+04  0.46999998093E+01 0. -1.
       -5    1    3    3    0  502 -0.11477256653E+04 -0.18226469587E+03  0.12377349130E+03  0.11686901169E+04  0.46999998093E+01 0.  1.
</event>
<event>
 5   0  0.1421242E-05  0.2463496E+04  0.7818609E-02  0.8416107E-01
       -1   -1    0    0    0  501  0.00000000000E+00  0.00000000000E+00  0.75447070360E+03  0.75447070361E+03  0.50400001928E-02 0.  1.
        1   -1    0    0  501    0  0.00000000000E+00  0.00000000000E+00 -0.20109500954E+04  0.20109500954E+04  0.50400001928E-02 0. -1.
    10030    2    1    2    0    0  0.00000000000E+00  0.00000000000E+00 -0.12564793918E+04  0.27654207990E+04  0.24634958359E+04 0.  0.
        3    1    3    3  502    0 -0.10725154384E+04 -0.60550057571E+03 -0.64711106558E+03  0.13912846777E+04  0.10100000352E+00 0.  1.
       -3    1    3    3    0  502  0.10725154384E+04  0.60550057571E+03 -0.60936832625E+03  0.13741361214E+04  0.10100000352E+00 0. -1.
</event>
<event>
 5   0  0.1201438E-05  0.2191903E+04  0.7818609E-02  0.8521806E-01
       -4   -1    0    0    0  501  0.00000000000E+00  0.00000000000E+00  0.13568075209E+04  0.13568081152E+04  0.12699999809E+01 0.  1.
        4   -1    0    0  501    0  0.00000000000E+00  0.00000000000E+00 -0.88524540456E+03  0.88524631555E+03  0.12699999809E+01 0. -1.
    10030    2    1    2    0    0  0.00000000000E+00  0.00000000000E+00  0.47156211631E+03  0.22420544308E+04  0.21919026532E+04 0.  0.
        5    1    3    3  502    0  0.87173138212E+03  0.53205751534E+03  0.64247918219E+03  0.12065663644E+04  0.46999998093E+01 0. -1.
       -5    1    3    3    0  502 -0.87173138212E+03 -0.53205751534E+03 -0.17091706588E+03  0.10354880664E+04  0.46999998093E+01 0.  1.
</event>
<event>
 5   0  0.3581449E-05  0.2455783E+04  0.7818609E-02  0.8418910E-01
        2   -1    0    0  501    0  0.00000000000E+00  0.00000000000E+00  0.17640808720E+04  0.17640808720E+04  0.25500000920E-02 0. -1.
       -2   -1    0    0    0  501  0.00000000000E+00  0.00000000000E+00 -0.85467587417E+03  0.85467587417E+03  0.25500000920E-02 0.  1.
    10030    2    1    2    0    0  0.00000000000E+00  0.00000000000E+00  0.90940499784E+03  0.26187567462E+04  0.24557828580E+04 0.  0.
        1    1    3    3  502    0  0.55106588875E+03 -0.64622770722E+03  0.14003650642E+04  0.16377747636E+04  0.50400001928E-02 0. -1.
       -1    1    3    3    0  502 -0.55106588875E+03  0.64622770722E+03 -0.49096006636E+03  0.98098198256E+03  0.50400001928E-02 0.  1.
</event>
<event>
 5   0  0.3578670E-05  0.2516910E+04  0.7818609E-02  0.8396986E-01
        2   -1    0    0  501    0  0.00000000000E+00  0.00000000000E+00  0.11541497630E+04  0.11541497630E+04  0.25500000920E-02 0.  1.
       -2   -1    0    0    0  501  0.00000000000E+00  0.00000000000E+00 -0.13721864318E+04  0.13721864318E+04  0.25500000920E-02 0. -1.
    10030    2    1    2    0    0  0.00000000000E+00  0.00000000000E+00 -0.21803666887E+03  0.25263361948E+04  0.25169097283E+04 0.  0.
        4    1    3    3  502    0 -0.89075160710E+03 -0.27217334327E+03  0.74043145981E+03  0.11898559215E+04  0.12699999809E+01 0.  1.
       -4    1    3    3    0  502  0.89075160710E+03  0.27217334327E+03 -0.95846812868E+03  0.13364802733E+04  0.12699999809E+01 0. -1.
</event>
<event>
 5   0  0.3579097E-05  0.2527941E+04  0.7818609E-02  0.8393099E-01
       -2   -1    0    0    0  501  0.00000000000E+00  0.00000000000E+00  0.82249850957E+03  0.82249850957E+03  0.25500000920E-02 0.  1.
        2   -1    0    0  501    0  0.00000000000E+00  0.00000000000E+00 -0.19423996648E+04  0.19423996648E+04  0.25500000920E-02 0. -1.
    10030    2    1    2    0    0  0.00000000000E+00  0.00000000000E+00 -0.11199011553E+04  0.27648981744E+04  0.25279405288E+04 0.  0.
        5    1    3    3  502    0  0.53754511248E+03  0.11195370002E+04 -0.81710845216E+03  0.14866089450E+04  0.46999998093E+01 0. -1.
       -5    1    3    3    0  502 -0.53754511248E+03 -0.11195370002E+04 -0.30279270310E+03  0.12782892294E+04  0.46999998093E+01 0.  1.
</event>
<event>
 5   0  0.1502886E-05  0.2507310E+04  0.7818609E-02  0.8400386E-01
        1   -1    0    0  501    0  0.00000000000E+00  0.00000000000E+00  0.16926098329E+04  0.16926098329E+04  0.50400001928E-02 0.  1.
       -1   -1    0    0    0  501  0.00000000000E+00  0.00000000000E+00 -0.92853733857E+03  0.92853733859E+03  0.50400001928E-02 0. -1.
    10030    2    1    2    0    0  0.00000000000E+00  0.00000000000E+00  0.76407249433E+03  0.26211471715E+04  0.25073104551E+04 0.  0.
        4    1    3    3  502    0  0.29809231212E+03  0.76617191177E+03 -0.60738649561E+03  0.10221538010E+04  0.12699999809E+01 0. -1.
       -4    1    3    3    0  502 -0.29809231212E+03 -0.76617191177E+03  0.13714589899E+04  0.15989933705E+04  0.12699999809E+01 0.  1.
</event>
<event>
 5   0  0.3581449E-05  0.2496024E+04  0.7818609E-02  0.8404403E-01
        2   -1    0    0  501    0  0.00000000000E+00  0.00000000000E+00  0.12298603010E+04  0.12298603010E+04  0.25500000920E-02 0. -1.
       -2   -1    0    0    0  501  0.00000000000E+00  0.00000000000E+00 -0.12664312495E+04  0.12664312495E+04  0.25500000920E-02 0.  1.
    10030    2    1    2    0    0  0.00000000000E+00  0.00000000000E+00 -0.36570948475E+02  0.24962915506E+04  0.24960236520E+04 0.  0.
        1    1    3    3  502    0  0.10683633070E+04  0.15122777337E+03  0.60888909886E+03  0.12389575981E+04  0.50400001928E-02 0. -1.
       -1    1    3    3    0  502 -0.10683633070E+04 -0.15122777337E+03 -0.64546004733E+03  0.12573339524E+04  0.50400001928E-02 0.  1.
</event>
<event>
 5   0  0.1456876E-05  0.2492773E+04  0.7818609E-02  0.8405565E-01
        1   -1    0    0  501    0  0.00000000000E+00  0.00000000000E+00  0.19883817401E+04  0.19883817401E+04  0.50400001928E-02 0.  1.
       -1   -1    0    0    0  501  0.00000000000E+00  0.00000000000E+00 -0.78127844230E+03  0.78127844231E+03  0.50400001928E-02 0. -1.
    10030    2    1    2    0    0  0.00000000000E+00  0.00000000000E+00  0.12071032978E+04  0.27696601824E+04  0.24927733861E+04 0.  0.
        1    1    3    3  502    0  0.82155153237E+03  0.30951351103E+03  0.15865456292E+04  0.18132491741E+04  0.50400001928E-02 0.  1.
       -1    1    3    3    0  502 -0.82155153237E+03 -0.30951351103E+03 -0.37944233143E+03  0.95641100828E+03  0.50400001928E-02 0. -1.
</event>
<event>
 5   0  0.1429483E-05  0.1798165E+04  0.7818609E-02  0.8707276E-01
       -1   -1    0    0    0  501  0.00000000000E+00  0.00000000000E+00  0.60233578628E+03  0.60233578630E+03  0.50400001928E-02 0. -1.
        1   -1    0    0  501    0  0.00000000000E+00  0.00000000000E+00 -0.13420249762E+04  0.13420249762E+04  0.50400001928E-02 0.  1.
    10030    2    1    2    0    0  0.00000000000E+00  0.00000000000E+00 -0.73968918996E+03  0.19443607625E+04  0.17981653643E+04 0.  0.
        2    1    3    3  502    0 -0.64179755221E+03 -0.54452462258E+03 -0.28011861331E+02  0.84213765324E+03  0.25500000920E-02 0. -1.
       -2    1    3    3    0  502  0.64179755221E+03  0.54452462258E+03 -0.71167732863E+03  0.11022231093E+04  0.25500000920E-02 0.  1.
</event>
<event>
 5   0  0.1429483E-05  0.2539251E+04  0.7818609E-02  0.8389134E-01
       -1   -1    0    0    0  501  0.00000000000E+00  0.00000000000E+00  0.79977046501E+03  0.79977046502E+03  0.50400001928E-02 0.  1.
        1   -1    0    0  501    0  0.00000000000E+00  0.00000000000E+00 -0.20155146452E+04  0.20155146452E+04  0.50400001928E-02 0. -1.
    10030    2    1    2    0    0  0.00000000000E+00  0.00000000000E+00 -0.12157441802E+04  0.28152851102E+04  0.25392511377E+04 0.  0.
        2    1    3    3  502    0  0.65152597899E+03  0.49194054638E+02 -0.18148067779E+04  0.19288415687E+04  0.25500000920E-02 0. -1.
       -2    1    3    3    0  502 -0.65152597899E+03 -0.49194054638E+02  0.59906259767E+03  0.88644354149E+03  0.25500000920E-02 0.  1.
</event>
<event>
 5   0  0.1456876E-05  0.2596734E+04  0.7818609E-02  0.8369311E-01
       -1   -1    0    0    0  501  0.00000000000E+00  0.00000000000E+00  0.27424166869E+04  0.27424166869E+04  0.50400001928E-02 0. -1.
        1   -1    0    0  501    0  0.00000000000E+00  0.00000000000E+00 -0.61469779853E+03  0.61469779855E+03  0.50400001928E-02 0.  1.
    10030    2    1    2    0    0  0.00000000000E+00  0.00000000000E+00  0.21277188884E+04  0.33571144855E+04  0.25967344879E+04 0.  0.
        1    1    3    3  502    0  0.75723975012E+03 -0.10449772845E+04  0.12483661327E+04  0.17954964678E+04  0.50400001928E-02 0. -1.
       -1    1    3    3    0  502 -0.75723975012E+03  0.10449772845E+04  0.87935275566E+03  0.15616180177E+04  0.50400001928E-02 0.  1.
</event>
<event>
 5   0  0.1502886E-05  0.2450797E+04  0.7818609E-02  0.8420727E-01
        1   -1    0    0  501    0  0.00000000000E+00  0.00000000000E+00  0.20591111016E+04  0.20591111016E+04  0.50400001928E-02 0. -1.
       -1   -1    0    0    0  501  0.00000000000E+00  0.00000000000E+00 -0.72924743515E+03  0.72924743517E+03  0.50400001928E-02 0.  1.
    10030    2    1    2    0    0  0.00000000000E+00  0.00000000000E+00  0.13298636664E+04  0.27883585368E+04  0.24507970047E+04 0.  0.
        4    1    3    3  502    0 -0.10858827059E+04 -0.32963360429E+03  0.13885952329E+03  0.11432773698E+04  0.12699999809E+01 0.  1.
       -4    1    3    3    0  502  0.10858827059E+04  0.32963360429E+03  0.11910041432E+04  0.16450811670E+04  0.12699999809E+01 0. -1.
</event>
<event>
 5   0  0.3578670E-05  0.1873058E+04  0.7818609E-02  0.8668385E-01
        2   -1    0    0  501    0  0.00000000000E+00  0.00000000000E+00  0.71321445415E+03  0.71321445415E+03  0.25500000920E-02 0.  1.
       -2   -1    0    0    0  501  0.00000000000E+00  0.00000000000E+00 -0.12297649737E+04  0.12297649737E+04  0.25500000920E-02 0. -1.
    10030    2    1    2    0    0  0.00000000000E+00  0.00000000000E+00 -0.51655051957E+03  0.19429794279E+04  0.18730575586E+04 0.  0.
        4    1    3    3  502    0 -0.36014035545E+03  0.18004380144E+03 -0.11353978346E+04  0.12046770114E+04  0.12699999809E+01 0. -1.
       -4    1    3    3    0  502  0.36014035545E+03 -0.18004380144E+03  0.61884731499E+03  0.73830241652E+03  0.12699999809E+01 0.  1.
</event>
<event>
 5   0  0.3578670E-05  0.2504970E+04  0.7818609E-02  0.8401217E-01
       -2   -1    0    0    0  501  0.00000000000E+00  0.00000000000E+00  0.79751643010E+03  0.79751643010E+03  0.25500000920E-02 0.  1.
        2   -1    0    0  501    0  0.00000000000E+00  0.00000000000E+00 -0.19670041823E+04  0.19670041823E+04  0.25500000920E-02 0. -1.
    10030    2    1    2    0    0  0.00000000000E+00  0.00000000000E+00 -0.11694877522E+04  0.27645206124E+04  0.25049695834E+04 0.  0.
        4    1    3    3  502    0 -0.64074012698E+03 -0.79670781330E+03 -0.13831883638E+04  0.17200299162E+04  0.12699999809E+01 0. -1.
       -4    1    3    3    0  502  0.64074012698E+03  0.79670781330E+03  0.21370061159E+03  0.10444906962E+04  0.12699999809E+01 0.  1.
</event>
<event>
 5   0  0.1492639E-05  0.1954624E+04  0.7818609E-02  0.8628134E-01
        1   -1    0    0  501    0  0.00000000000E+00  0.00000000000E+00  0.22939765094E+04  0.22939765094E+04  0.50400001928E-02 0.  1.
       -1   -1    0    0    0  501  0.00000000000E+00  0.00000000000E+00 -0.41636816605E+03  0.41636816608E+03  0.50400001928E-02 0. -1.
    10030    2    1    2    0    0  0.00000000000E+00  0.00000000000E+00  0.18776083434E+04  0.27103446755E+04  0.19546240480E+04 0.  0.
        5    1    3    3  502    0 -0.73168662023E+03  0.63299695537E+03  0.11302711519E+04  0.14878122941E+04  0.46999998093E+01 0. -1.
       -5    1    3    3    0  502  0.73168662023E+03 -0.63299695537E+03  0.74733719143E+03  0.12225323813E+04  0.46999998093E+01 0.  1.
</event>
<event>
 5   0  0.3704241E-05  0.2508476E+04  0.7818609E-02  0.8399972E-01
        2   -1    0    0  501    0  0.00000000000E+00  0.00000000000E+00  0.12226984807E+04  0.12226984807E+04  0.25500000920E-02 0. -1.
       -2   -1    0    0    0  501  0.00000000000E+00  0.00000000000E+00 -0.12865906654E+04  0.12865906655E+04  0.25500000920E-02 0.  1.
    10030    2    1    2    0    0  0.00000000000E+00  0.00000000000E+00 -0.63892184788E+02  0.25092891461E+04  0.25084755944E+04 0.  0.
        2    1    3    3  502    0  0.11369882069E+04 -0.50013510578E+03 -0.20588504754E+03  0.12590734528E+04  0.25500000920E-02 0. -1.
       -2    1    3    3    0  502 -0.11369882069E+04  0.50013510578E+03  0.14199286275E+03  0.12502156933E+04  0.25500000920E-02 0.  1.
</event>
<event>
 5   0  0.1201438E-05  0.2494331E+04  0.7818609E-02  0.8405008E-01
        3   -1    0    0  501    0  0.00000000000E+00  0.00000000000E+00  0.15532926244E+04  0.15532926277E+04  0.10100000352E+00 0.  1.
       -3   -1    0    0    0  501  0.00000000000E+00  0.00000000000E+00 -0.10013707005E+04  0.10013707056E+04  0.10100000352E+00 0. -1.
    10030    2    1    2    0    0  0.00000000000E+00  0.00000000000E+00  0.55192192384E+03  0.25546633333E+04  0.24943309597E+04 0.  0.
        2    1    3    3  502    0 -0.59124201254E+03  0.24012151939E+03  0.13734183431E+04  0.15144317108E+04  0.25500000920E-02 0.  1.
       -2    1    3    3    0  502  0.59124201254E+03 -0.24012151939E+03 -0.82149641930E+03  0.10402316225E+04  0.25500000920E-02 0. -1.
</event>
<event>
 5   0  0.3581449E-05  0.2488652E+04  0.7818609E-02  0.8407040E-01
       -2   -1    0    0    0  501  0.00000000000E+00  0.00000000000E+00  0.97624626750E+03  0.97624626751E+03  0.25500000920E-02 0. -1.
        2   -1    0    0  501    0  0.00000000000E+00  0.00000000000E+00 -0.15860208244E+04  0.15860208244E+04  0.25500000920E-02 0.  1.
    10030    2    1    2    0    0  0.00000000000E+00  0.00000000000E+00 -0.60977455692E+03  0.25622670919E+04  0.24886517716E+04 0.  0.
        1    1    3    3  502    0  0.41195911406E+03 -0.63674322605E+03  0.71080026554E+03  0.10394177529E+04  0.50400001928E-02 0. -1.
       -1    1    3    3    0  502 -0.41195911406E+03  0.63674322605E+03 -0.13205748225E+04  0.15228493390E+04  0.50400001928E-02 0.  1.
</event>
<event>
 5   0  0.3578670E-05  0.2482887E+04  0.7818609E-02  0.8409108E-01
       -2   -1    0    0    0  501  0.00000000000E+00  0.00000000000E+00  0.12090784807E+04  0.12090784807E+04  0.25500000920E-02 0. -1.
        2   -1    0    0  501    0  0.00000000000E+00  0.00000000000E+00 -0.12746743763E+04  0.12746743763E+04  0.25500000920E-02 0.  1.
    10030    2    1    2    0    0  0.00000000000E+00  0.00000000000E+00 -0.65595895649E+02  0.24837528570E+04  0.24828865123E+04 0.  0.
        4    1    3    3  502    0  0.51779178656E+03  0.40559335614E+03  0.10204537747E+04  0.12140600578E+04  0.12699999809E+01 0. -1.
       -4    1    3    3    0  502 -0.51779178656E+03 -0.40559335614E+03 -0.10860496704E+04  0.12696927991E+04  0.12699999809E+01 0.  1.
</event>
<event>
 5   0  0.1492639E-05  0.2337317E+04  0.7818609E-02  0.8463351E-01
       -1   -1    0    0    0  501  0.00000000000E+00  0.00000000000E+00  0.84525178749E+03  0.84525178750E+03  0.50400001928E-02 0. -1.
        1   -1    0    0  501    0  0.00000000000E+00  0.00000000000E+00 -0.16158054839E+04  0.16158054839E+04  0.50400001928E-02 0.  1.
    10030    2    1    2    0    0  0.00000000000E+00  0.00000000000E+00 -0.77055369638E+03  0.24610572714E+04  0.23373168151E+04 0.  0.
        5    1    3    3  502    0  0.29468282562E+03  0.90949584363E+03  0.32240599190E+03  0.10089540975E+04  0.46999998093E+01 0. -1.
       -5    1    3    3    0  502 -0.29468282562E+03 -0.90949584363E+03 -0.10929596883E+04  0.14521031739E+04  0.46999998093E+01 0.  1.
</event>
<event>
 5   0  0.3578670E-05  0.2578747E+04  0.7818609E-02  0.8375456E-01
       -2   -1    0    0    0  501  0.00000000000E+00  0.00000000000E+00  0.11040658017E+04  0.11040658017E+04  0.25500000920E-02 0. -1.
        2   -1    0    0  501    0  0.00000000000E+00  0.00000000000E+00 -0.15057830823E+04  0.15057830823E+04  0.25500000920E-02 0.  1.
    10030    2    1    2    0    0  0.00000000000E+00  0.00000000000E+00 -0.40171728059E+03  0.26098488840E+04  0.25787466769E+04 0.  0.
        4    1    3    3  502    0  0.10810794496E+04 -0.70185745862E+03 -0.23510945685E+03  0.13101964503E+04  0.12699999809E+01 0.  1.
       -4    1    3    3    0  502 -0.10810794496E+04  0.70185745862E+03 -0.16660782374E+03  0.12996524337E+04  0.12699999809E+01 0. -1.
</event>
<event>
 5   0  0.3579097E-05  0.2481867E+04  0.7818609E-02  0.8409474E-01
        2   -1    0    0  501    0  0.00000000000E+00  0.00000000000E+00  0.16980519380E+04  0.16980519380E+04  0.25500000920E-02 0.  1.
       -2   -1    0    0    0  501  0.00000000000E+00  0.00000000000E+00 -0.90687196899E+03  0.90687196899E+03  0.25500000920E-02 0. -1.
    10030    2    1    2    0    0  0.00000000000E+00  0.00000000000E+00  0.79117996901E+03  0.26049239070E+04  0.24818668010E+04 0.  0.
        5    1    3    3  502    0 -0.10067397916E+04 -0.35301525794E+03 -0.26967380369E+03  0.11004048485E+04  0.46999998093E+01 0. -1.
       -5    1    3    3    0  502  0.10067397916E+04  0.35301525794E+03  0.10608537727E+04  0.15045190585E+04  0.46999998093E+01 0.  1.
</event>
<event>
 5   0  0.3581449E-05  0.2457679E+04  0.7818609E-02  0.8418219E-01
       -2   -1    0    0    0  501  0.00000000000E+00  0.00000000000E+00  0.10127815807E+04  0.10127815807E+04  0.25500000920E-02 0. -1.
        2   -1    0    0  501    0  0.00000000000E+00  0.00000000000E+00 -0.14909899224E+04  0.14909899224E+04  0.25500000920E-02 0.  1.
    10030    2    1    2    0    0  0.00000000000E+00  0.00000000000E+00 -0.47820834171E+03  0.25037715031E+04  0.24576794993E+04 0.  0.
        1    1    3    3  502    0 -0.51867749377E+03 -0.18382261231E+03 -0.13584504533E+04  0.14656755198E+04  0.50400001928E-02 0.  1.
       -1    1    3    3    0  502  0.51867749377E+03  0.18382261231E+03  0.88024211160E+03  0.10380959832E+04  0.50400001928E-02 0. -1.
</event>
<event>
 5   0  0.1502886E-05  0.2448451E+04  0.7818609E-02  0.8421584E-01
        1   -1    0    0  501    0  0.00000000000E+00  0.00000000000E+00  0.16820621217E+04  0.16820621217E+04  0.50400001928E-02 0.  1.
       -1   -1    0    0    0  501  0.00000000000E+00  0.00000000000E+00 -0.89100623660E+03  0.89100623661E+03  0.50400001928E-02 0. -1.
    10030    2    1    2    0    0  0.00000000000E+00  0.00000000000E+00  0.79105588506E+03  0.25730683583E+04  0.24484508088E+04 0.  0.
        4    1    3    3  502    0 -0.25057320021E+03 -0.35207666144E+02 -0.86322485204E+03  0.89954725640E+03  0.12699999809E+01 0. -1.
       -4    1    3    3    0  502  0.25057320021E+03  0.35207666144E+02  0.16542807371E+04  0.16735211019E+04  0.12699999809E+01 0.  1.
</event>
<event>
 5   0  0.3581449E-05  0.2416992E+04  0.7818609E-02  0.8433169E-01
       -2   -1    0    0    0  501  0.00000000000E+00  0.00000000000E+00  0.13391677251E+04  0.13391677251E+04  0.25500000920E-02 0.  1.
        2   -1    0    0  501    0  0.00000000000E+00  0.00000000000E+00 -0.10905751668E+04  0.10905751668E+04  0.25500000920E-02 0. -1.
    10030    2    1    2    0    0  0.00000000000E+00  0.00000000000E+00  0.24859255823E+03  0.24297428919E+04  0.24169923998E+04 0.  0.
        1    1    3    3  502    0 -0.81358762925E+03 -0.54769647832E+03  0.83411379827E+03  0.12874945015E+04  0.50400001928E-02 0.  1.
       -1    1    3    3    0  502  0.81358762925E+03  0.54769647832E+03 -0.58552124004E+03  0.11422483904E+04  0.50400001928E-02 0. -1.
</event>
<event>
 5   0  0.1502886E-05  0.2537546E+04  0.7818609E-02  0.8389731E-01
        1   -1    0    0  501    0  0.00000000000E+00  0.00000000000E+00  0.28986546703E+04  0.28986546703E+04  0.50400001928E-02 0.  1.
       -1   -1    0    0    0  501  0.00000000000E+00  0.00000000000E+00 -0.55535570592E+03  0.55535570595E+03  0.50400001928E-02 0. -1.
    10030    2    1    2    0    0  0.00000000000E+00  0.00000000000E+00  0.23432989644E+04  0.34540103762E+04  0.25375455942E+04 0.  0.
        4    1    3    3  502    0 -0.20672162346E+03 -0.10068624106E+04  0.21841170332E+04  0.24138919966E+04  0.12699999809E+01 0.  1.
       -4    1    3    3    0  502  0.20672162346E+03  0.10068624106E+04  0.15918193117E+03  0.10401183797E+04  0.12699999809E+01 0. -1.
</event>
<event>
 5   0  0.3650620E-05  0.2523654E+04  0.7818609E-02  0.8394607E-01
       -2   -1    0    0    0  501  0.00000000000E+00  0.00000000000E+00  0.93174862395E+03  0.93174862395E+03  0.25500000920E-02 0.  1.
        2   -1    0    0  501    0  0.00000000000E+00  0.00000000000E+00 -0.17088379082E+04  0.17088379082E+04  0.25500000920E-02 0. -1.
    10030    2    1    2    0    0  0.00000000000E+00  0.00000000000E+00 -0.77708928428E+03  0.26405865322E+04  0.25236539934E+04 0.  0.
        3    1    3    3  502    0 -0.10941551786E+04 -0.62239452778E+03 -0.29698673827E+03  0.12933490001E+04  0.10100000352E+00 0. -1.
       -3    1    3    3    0  502  0.10941551786E+04  0.62239452778E+03 -0.48010254601E+03  0.13472375321E+04  0.10100000352E+00 0.  1.
</event>
<event>
 5   0  0.1502886E-05  0.2503937E+04  0.7818609E-02  0.8401584E-01
        1   -1    0    0  501    0  0.00000000000E+00  0.00000000000E+00  0.17025469393E+04  0.17025469393E+04  0.50400001928E-02 0. -1.
       -1   -1    0    0    0  501  0.00000000000E+00  0.00000000000E+00 -0.92063513858E+03  0.92063513859E+03  0.50400001928E-02 0.  1.
    10030    2    1    2    0    0  0.00000000000E+00  0.00000000000E+00  0.78191180074E+03  0.26231820779E+04  0.25039365307E+04 0.  0.
        4    1    3    3  502    0  0.75574571533E+02  0.64430816296E+03  0.15127341062E+04  0.16459679868E+04  0.12699999809E+01 0. -1.
       -4    1    3    3    0  502 -0.75574571533E+02 -0.64430816296E+03 -0.73082230547E+03  0.97721409107E+03  0.12699999809E+01 0.  1.
</event>
<event>
 5   0  0.1456876E-05  0.2523456E+04  0.7818609E-02  0.8394677E-01
       -1   -1    0    0    0  501  0.00000000000E+00  0.00000000000E+00  0.13924908653E+04  0.13924908653E+04  0.50400001928E-02 0. -1.
        1   -1    0    0  501    0  0.00000000000E+00  0.00000000000E+00 -0.11432443366E+04  0.11432443366E+04  0.50400001928E-02 0.  1.
    10030    2    1    2    0    0  0.00000000000E+00  0.00000000000E+00  0.24924652868E+03  0.25357352019E+04  0.25234558015E+04 0.  0.
        1    1    3    3  502    0  0.26557148423E+03  0.79232055952E+02 -0.11122813445E+04  0.11462878004E+04  0.50400001928E-02 0.  1.
       -1    1    3    3    0  502 -0.26557148423E+03 -0.79232055952E+02  0.13615278732E+04  0.13894474015E+04  0.50400001928E-02 0. -1.
</event>
<event>
 5   0  0.3650620E-05  0.2430718E+04  0.7818609E-02  0.8428092E-01
        2   -1    0    0  501    0  0.00000000000E+00  0.00000000000E+00  0.14384360310E+04  0.14384360310E+04  0.25500000920E-02 0.  1.
       -2   -1    0    0    0  501  0.00000000000E+00  0.00000000000E+00 -0.10268771199E+04  0.10268771199E+04  0.25500000920E-02 0. -1.
    10030    2    1    2    0    0  0.00000000000E+00  0.00000000000E+00  0.41155891107E+03  0.24653131509E+04  0.24307176296E+04 0.  0.
        3    1    3    3  502    0 -0.10458340953E+01  0.11846164210E+04 -0.69710997665E+02  0.11866662513E+04  0.10100000352E+00 0.  1.
       -3    1    3    3    0  502  0.10458340953E+01 -0.11846164210E+04  0.48126990874E+03  0.12786468996E+04  0.10100000352E+00 0. -1.
</event>
<event>
 5   0  0.3578670E-05  0.2892930E+04  0.7818609E-02  0.8274984E-01
       -2   -1    0    0    0  501  0.00000000000E+00  0.00000000000E+00  0.90877112716E+03  0.90877112716E+03  0.25500000920E-02 0.  1.
        2   -1    0    0  501    0  0.00000000000E+00  0.00000000000E+00 -0.23022970512E+04  0.23022970512E+04  0.25500000920E-02 0. -1.
    10030    2    1    2    0    0  0.00000000000E+00  0.00000000000E+00 -0.13935259240E+04  0.32110681784E+04  0.28929300623E+04 0.  0.
        4    1    3    3  502    0 -0.41907733571E+03  0.25218344806E+02 -0.22331798895E+04  0.22723018747E+04  0.12699999809E+01 0. -1.
       -4    1    3    3    0  502  0.41907733571E+03 -0.25218344806E+02  0.83965396545E+03  0.93876630362E+03  0.12699999809E+01 0.  1.
</event>
<event>
 5   0  0.1201438E-05  0.2480600E+04  0.7818609E-02  0.8409930E-01
        3   -1    0    0  501    0  0.00000000000E+00  0.00000000000E+00  0.13096190516E+04  0.13096190555E+04  0.10100000352E+00 0. -1.
       -3   -1    0    0    0  501  0.00000000000E+00  0.00000000000E+00 -0.11746500347E+04  0.11746500391E+04  0.10100000352E+00 0.  1.
    10030    2    1    2    0    0  0.00000000000E+00  0.00000000000E+00  0.13496901686E+03  0.24842690945E+04  0.24805999876E+04 0.  0.
        4    1    3    3  502    0  0.11144514890E+04 -0.14301093658E+02 -0.47750403118E+03  0.12125256102E+04  0.12699999809E+01 0.  1.
       -4    1    3    3    0  502 -0.11144514890E+04  0.14301093658E+02  0.61247304805E+03  0.12717434844E+04  0.12699999809E+01 0. -1.
</event>
<event>
 5   0  0.3581449E-05  0.2574139E+04  0.7818609E-02  0.8377039E-01
        2   -1    0    0  501    0  0.00000000000E+00  0.00000000000E+00  0.16608313422E+04  0.16608313422E+04  0.25500000920E-02 0. -1.
       -2   -1    0    0    0  501  0.00000000000E+00  0.00000000000E+00 -0.99742085678E+03  0.99742085679E+03  0.25500000920E-02 0.  1.
    10030    2    1    2    0    0  0.00000000000E+00  0.00000000000E+00  0.66341048542E+03  0.26582521990E+04  0.25741389398E+04 0.  0.
        1    1    3    3  502    0  0.54999705071E+03  0.11607656763E+04  0.41606995914E+03  0.13501806998E+04  0.50400001928E-02 0. -1.
       -1    1    3    3    0  502 -0.54999705071E+03 -0.11607656763E+04  0.24734052628E+03  0.13080714992E+04  0.50400001928E-02 0.  1.
</event>
<event>
 5   0  0.3650620E-05  0.2502903E+04  0.7818609E-02  0.8401952E-01
       -2   -1    0    0    0  501  0.00000000000E+00  0.00000000000E+00  0.15453959025E+04  0.15453959025E+04  0.25500000920E-02 0.  1.
        2   -1    0    0  501    0  0.00000000000E+00  0.00000000000E+00 -0.10134168919E+04  0.10134168919E+04  0.25500000920E-02 0. -1.
    10030    2    1    2    0    0  0.00000000000E+00  0.00000000000E+00  0.53197901055E+03  0.25588127944E+04  0.25029025648E+04 0.  0.
        3    1    3    3  502    0 -0.53917714803E+03 -0.97497063620E+03  0.84867791897E+03  0.14005477353E+04  0.10100000352E+00 0.  1.
       -3    1    3    3    0  502  0.53917714803E+03  0.97497063620E+03 -0.31669890842E+03  0.11582650591E+04  0.10100000352E+00 0. -1.
</event>
<event>
 5   0  0.1456876E-05  0.2414257E+04  0.7818609E-02  0.8434185E-01
       -1   -1    0    0    0  501  0.00000000000E+00  0.00000000000E+00  0.10418108653E+04  0.10418108653E+04  0.50400001928E-02 0.  1.
        1   -1    0    0  501    0  0.00000000000E+00  0.00000000000E+00 -0.13986795050E+04  0.13986795050E+04  0.50400001928E-02 0. -1.
    10030    2    1    2    0    0  0.00000000000E+00  0.00000000000E+00 -0.35686863975E+03  0.24404903703E+04  0.24142572401E+04 0.  0.
        1    1    3    3  502    0  0.11743879750E+04  0.18028888648E+03 -0.39398428010E+03  0.12517646790E+04  0.50400001928E-02 0.  1.
       -1    1    3    3    0  502 -0.11743879750E+04 -0.18028888648E+03  0.37115640352E+02  0.11887256913E+04  0.50400001928E-02 0. -1.
</event>
<event>
 5   0  0.1456876E-05  0.2463606E+04  0.7818609E-02  0.8416067E-01
        1   -1    0    0  501    0  0.00000000000E+00  0.00000000000E+00  0.14182883860E+04  0.14182883860E+04  0.50400001928E-02 0. -1.
       -1   -1    0    0    0  501  0.00000000000E+00  0.00000000000E+00 -0.10698377614E+04  0.10698377614E+04  0.50400001928E-02 0.  1.
    10030    2    1    2    0    0  0.00000000000E+00  0.00000000000E+00  0.34845062461E+03  0.24881261474E+04  0.24636058710E+04 0.  0.
        1    1    3    3  502    0 -0.72711431327E+03  0.25733701360E+03 -0.79576128651E+03  0.11082209113E+04  0.50400001928E-02 0.  1.
       -1    1    3    3    0  502  0.72711431327E+03 -0.25733701360E+03  0.11442119111E+04  0.13799052361E+04  0.50400001928E-02 0. -1.
</event>
<event>
 5   0  0.1421242E-05  0.2482490E+04  0.7818609E-02  0.8409250E-01
       -1   -1    0    0    0  501  0.00000000000E+00  0.00000000000E+00  0.14760522030E+04  0.14760522030E+04  0.50400001928E-02 0.  1.
        1   -1    0    0  501    0  0.00000000000E+00  0.00000000000E+00 -0.10437904250E+04  0.10437904250E+04  0.50400001928E-02 0. -1.
    10030    2    1    2    0    0  0.00000000000E+00  0.00000000000E+00  0.43226177796E+03  0.25198426280E+04  0.24824900051E+04 0.  0.
        3    1    3    3  502    0  0.81575639201E+03  0.56408748534E+03  0.97370919140E+03  0.13898786932E+04  0.10100000352E+00 0.  1.
       -3    1    3    3    0  502 -0.81575639201E+03 -0.56408748534E+03 -0.54144741344E+03  0.11299639348E+04  0.10100000352E+00 0. -1.
</event>
<event>
 5   0  0.1492639E-05  0.2399047E+04  0.7818609E-02  0.8439861E-01
        1   -1    0    0  501    0  0.00000000000E+00  0.00000000000E+00  0.10919754654E+04  0.10919754654E+04  0.50400001928E-02 0.  1.
       -1   -1    0    0    0  501  0.00000000000E+00  0.00000000000E+00 -0.13176635040E+04  0.13176635040E+04  0.50400001928E-02 0. -1.
    10030    2    1    2    0    0  0.00000000000E+00  0.00000000000E+00 -0.22568803860E+03  0.24096389694E+04  0.23990466590E+04 0.  0.
        5    1    3    3  502    0  0.12224613536E+03  0.78600427884E+03 -0.10146317426E+04  0.12892813917E+04  0.46999998093E+01 0. -1.
       -5    1    3    3    0  502 -0.12224613536E+03 -0.78600427884E+03  0.78894370396E+03  0.11203575777E+04  0.46999998093E+01 0.  1.
</event>
<event>
 5   0  0.1492639E-05  0.2515287E+04  0.7818609E-02  0.8397560E-01
        1   -1    0    0  501    0  0.00000000000E+00  0.00000000000E+00  0.32659215253E+04  0.32659215253E+04  0.50400001928E-02 0.  1.
       -1   -1    0    0    0  501  0.00000000000E+00  0.00000000000E+00 -0.48429427287E+03  0.48429427290E+03  0.50400001928E-02 0. -1.
    10030    2    1    2    0    0  0.00000000000E+00  0.00000000000E+00  0.27816272524E+04  0.37502157982E+04  0.25152869342E+04 0.  0.
        5    1    3    3  502    0  0.31585815864E+03 -0.81890661238E+03  0.47889151923E+02  0.87902780221E+03  0.46999998093E+01 0. -1.
       -5    1    3    3    0  502 -0.31585815864E+03  0.81890661238E+03  0.27337381005E+04  0.28711879960E+04  0.46999998093E+01 0.  1.
</event>
<event>
 5   0  0.3578670E-05  0.2301187E+04  0.7818609E-02  0.8477453E-01
        2   -1    0    0  501    0  0.00000000000E+00  0.00000000000E+00  0.21617180162E+04  0.21617180162E+04  0.25500000920E-02 0. -1.
       -2   -1    0    0    0  501  0.00000000000E+00  0.00000000000E+00 -0.61241343633E+03  0.61241343634E+03  0.25500000920E-02 0.  1.
    10030    2    1    2    0    0  0.00000000000E+00  0.00000000000E+00  0.15493045799E+04  0.27741314526E+04  0.23011867883E+04 0.  0.
        4    1    3    3  502    0 -0.11424439887E+03 -0.77788096229E+03 -0.23806730806E+03  0.82147929385E+03  0.12699999809E+01 0.  1.
       -4    1    3    3    0  502  0.11424439887E+03  0.77788096229E+03  0.17873718880E+04  0.19526521587E+04  0.12699999809E+01 0. -1.
</event>
<event>
 5   0  0.3581449E-05  0.2487163E+04  0.7818609E-02  0.8407573E-01
       -2   -1    0    0    0  501  0.00000000000E+00  0.00000000000E+00  0.11457192982E+04  0.11457192982E+04  0.25500000920E-02 0. -1.
        2   -1    0    0  501    0  0.00000000000E+00  0.00000000000E+00 -0.13498027577E+04  0.13498027577E+04  0.25500000920E-02 0.  1.
    10030    2    1    2    0    0  0.00000000000E+00  0.00000000000E+00 -0.20408345950E+03  0.24955220559E+04  0.24871630974E+04 0.  0.
        1    1    3    3  502    0  0.50940565749E+03 -0.99299383885E+03 -0.65248751731E+03  0.12927764107E+04  0.50400001928E-02 0.  1.
       -1    1    3    3    0  502 -0.50940565749E+03  0.99299383885E+03  0.44840405781E+03  0.12027456452E+04  0.50400001928E-02 0. -1.
</event>
<event>
 5   0  0.1502886E-05  0.2485397E+04  0.7818609E-02  0.8408206E-01
        1   -1    0    0  501    0  0.00000000000E+00  0.00000000000E+00  0.16668953651E+04  0.16668953651E+04  0.50400001928E-02 0. -1.
       -1   -1    0    0    0  501  0.00000000000E+00  0.00000000000E+00 -0.92645283029E+03  0.92645283030E+03  0.50400001928E-02 0.  1.
    10030    2    1    2    0    0  0.00000000000E+00  0.00000000000E+00  0.74044253476E+03  0.25933481954E+04  0.24853972952E+04 0.  0.
        4    1    3    3  502    0 -0.61731393176E+03  0.63339581947E+03  0.12810809710E+04  0.15567391630E+04  0.12699999809E+01 0. -1.
       -4    1    3    3    0  502  0.61731393176E+03 -0.63339581947E+03 -0.54063843619E+03  0.10366090324E+04  0.12699999809E+01 0.  1.
</event>
<event>
 5   0  0.3579097E-05  0.2493100E+04  0.7818609E-02  0.8405448E-01
       -2   -1    0    0    0  501  0.00000000000E+00  0.00000000000E+00  0.11336390981E+04  0.11336390981E+04  0.25500000920E-02 0. -1.
        2   -1    0    0  501    0  0.00000000000E+00  0.00000000000E+00 -0.13707074077E+04  0.13707074078E+04  0.25500000920E-02 0.  1.
    10030    2    1    2    0    0  0.00000000000E+00  0.00000000000E+00 -0.23706830961E+03  0.25043465059E+04  0.24931004870E+04 0.  0.
        5    1    3    3  502    0 -0.53063893421E+03  0.22950748766E+03 -0.12278771491E+04  0.13571867037E+04  0.46999998093E+01 0.  1.
       -5    1    3    3    0  502  0.53063893421E+03 -0.22950748766E+03  0.99080883948E+03  0.11471598022E+04  0.46999998093E+01 0. -1.
</event>
<event>
 5   0  0.1429483E-05  0.2532245E+04  0.7818609E-02  0.8391587E-01
        1   -1    0    0  501    0  0.00000000000E+00  0.00000000000E+00  0.24654834771E+04  0.24654834771E+04  0.50400001928E-02 0.  1.
       -1   -1    0    0    0  501  0.00000000000E+00  0.00000000000E+00 -0.65020341116E+03  0.65020341118E+03  0.50400001928E-02 0. -1.
    10030    2    1    2    0    0  0.00000000000E+00  0.00000000000E+00  0.18152800660E+04  0.31156868883E+04  0.25322446699E+04 0.  0.
        2    1    3    3  502    0  0.52769831979E+03 -0.10442901363E+04  0.31237520655E+03  0.12110267029E+04  0.25500000920E-02 0. -1.
       -2    1    3    3    0  502 -0.52769831979E+03  0.10442901363E+04  0.15029048594E+04  0.19046601854E+04  0.25500000920E-02 0.  1.
</event>
<event>
 5   0  0.3704241E-05  0.2479562E+04  0.7818609E-02  0.8410303E-01
       -2   -1    0    0    0  501  0.00000000000E+00  0.00000000000E+00  0.64121442802E+03  0.64121442802E+03  0.25500000920E-02 0. -1.
        2   -1    0    0  501    0  0.00000000000E+00  0.00000000000E+00 -0.23971021268E+04  0.23971021268E+04  0.25500000920E-02 0.  1.
    10030    2    1    2    0    0  0.00000000000E+00  0.00000000000E+00 -0.17558876988E+04  0.30383165548E+04  0.24795616299E+04 0.  0.
        2    1    3    3  502    0  0.25235770761E+02 -0.10070115611E+04 -0.17635442551E+04  0.20309597406E+04  0.25500000920E-02 0.  1.
       -2    1    3    3    0  502 -0.25235770761E+02  0.10070115611E+04  0.76565562633E+01  0.10073568142E+04  0.25500000920E-02 0. -1.
</event>
<event>
 5   0  0.3650620E-05  0.2468833E+04  0.7818609E-02  0.8414174E-01
       -2   -1    0    0    0  501  0.00000000000E+00  0.00000000000E+00  0.15347137507E+04  0.15347137507E+04  0.25500000920E-02 0. -1.
        2   -1    0    0  501    0  0.00000000000E+00  0.00000000000E+00 -0.99287873043E+03  0.99287873043E+03  0.25500000920E-02 0.  1.
    10030    2    1    2    0    0  0.00000000000E+00  0.00000000000E+00  0.54183502028E+03  0.25275924811E+04  0.24688334414E+04 0.  0.
        3    1    3    3  502    0 -0.70453647333E+02  0.10682576997E+04  0.90007292443E+03  0.13986670472E+04  0.10100000352E+00 0. -1.
       -3    1    3    3    0  502  0.70453647333E+02 -0.10682576997E+04 -0.35823790415E+03  0.11289254340E+04  0.10100000352E+00 0.  1.
</event>
<event>
 5   0  0.3581449E-05  0.2480857E+04  0.7818609E-02  0.8409837E-01
        2   -1    0    0  501    0  0.00000000000E+00  0.00000000000E+00  0.16039124127E+04  0.16039124127E+04  0.25500000920E-02 0.  1.
       -2   -1    0    0    0  501  0.00000000000E+00  0.00000000000E+00 -0.95931839039E+03  0.95931839039E+03  0.25500000920E-02 0. -1.
    10030    2    1    2    0    0  0.00000000000E+00  0.00000000000E+00  0.64459402236E+03  0.25632308031E+04  0.24808568472E+04 0.  0.
        1    1    3    3  502    0 -0.36444728183E+03 -0.23700168174E+03 -0.87803109593E+03  0.97976028896E+03  0.50400001928E-02 0. -1.
       -1    1    3    3    0  502  0.36444728183E+03  0.23700168174E+03  0.15226251183E+04  0.15834705142E+04  0.50400001928E-02 0.  1.
</event>
<event>
 5   0  0.3578670E-05  0.2474082E+04  0.7818609E-02  0.8412277E-01
        2   -1    0    0  501    0  0.00000000000E+00  0.00000000000E+00  0.25274476242E+04  0.25274476242E+04  0.25500000920E-02 0.  1.
       -2   -1    0    0    0  501  0.00000000000E+00  0.00000000000E+00 -0.60546086038E+03  0.60546086038E+03  0.25500000920E-02 0. -1.
    10030    2    1    2    0    0  0.00000000000E+00  0.00000000000E+00  0.19219867638E+04  0.31329084846E+04  0.24740821434E+04 0.  0.
        4    1    3    3  502    0 -0.10019936263E+04  0.68118275127E+03  0.64500910870E+03  0.13726031950E+04  0.12699999809E+01 0.  1.
       -4    1    3    3    0  502  0.10019936263E+04 -0.68118275127E+03  0.12769776551E+04  0.17603052896E+04  0.12699999809E+01 0. -1.
</event>
<event>
 5   0  0.1492639E-05  0.2501230E+04  0.7818609E-02  0.8402547E-01
       -1   -1    0    0    0  501  0.00000000000E+00  0.00000000000E+00  0.14956109230E+04  0.14956109230E+04  0.50400001928E-02 0.  1.
        1   -1    0    0  501    0  0.00000000000E+00  0.00000000000E+00 -0.10457522168E+04  0.10457522168E+04  0.50400001928E-02 0. -1.
    10030    2    1    2    0    0  0.00000000000E+00  0.00000000000E+00  0.44985870625E+03  0.25413631398E+04  0.25012304477E+04 0.  0.
        5    1    3    3  502    0  0.12351340642E+04 -0.65605506414E+02  0.41270843704E+03  0.13039212334E+04  0.46999998093E+01 0.  1.
       -5    1    3    3    0  502 -0.12351340642E+04  0.65605506414E+02  0.37150269210E+02  0.12374419063E+04  0.46999998093E+01 0. -1.
</event>
<event>
 5   0  0.1502886E-05  0.2486594E+04  0.7818609E-02  0.8407777E-01
       -1   -1    0    0    0  501  0.00000000000E+00  0.00000000000E+00  0.15154049541E+04  0.15154049541E+04  0.50400001928E-02 0.  1.
        1   -1    0    0  501    0  0.00000000000E+00  0.00000000000E+00 -0.10200494788E+04  0.10200494788E+04  0.50400001928E-02 0. -1.
    10030    2    1    2    0    0  0.00000000000E+00  0.00000000000E+00  0.49535547531E+03  0.25354544329E+04  0.24865944854E+04 0.  0.
        4    1    3    3  502    0  0.69431721324E+03  0.17767346247E+03  0.12835843484E+04  0.14701138202E+04  0.12699999809E+01 0.  1.
       -4    1    3    3    0  502 -0.69431721324E+03 -0.17767346247E+03 -0.78822887312E+03  0.10653406128E+04  0.12699999809E+01 0. -1.
</event>
<event>
 5   0  0.1201438E-05  0.2499479E+04  0.7818609E-02  0.8403171E-01
       -3   -1    0    0    0  501  0.00000000000E+00  0.00000000000E+00  0.18176387022E+04  0.18176387050E+04  0.10100000352E+00 0. -1.
        3   -1    0    0  501    0  0.00000000000E+00  0.00000000000E+00 -0.85927350178E+03  0.85927350772E+03  0.10100000352E+00 0.  1.
    10030    2    1    2    0    0  0.00000000000E+00  0.00000000000E+00  0.95836520043E+03  0.26769122127E+04  0.24994789732E+04 0.  0.
        1    1    3    3  502    0  0.90512923585E+03 -0.67971228256E+03  0.10464839542E+04  0.15415564820E+04  0.50400001928E-02 0. -1.
       -1    1    3    3    0  502 -0.90512923585E+03  0.67971228256E+03 -0.88118753758E+02  0.11353557308E+04  0.50400001928E-02 0.  1.
</event>
<event>
 5   0  0.3650620E-05  0.2488754E+04  0.7818609E-02  0.8407003E-01
       -2   -1    0    0    0  501  0.00000000000E+00  0.00000000000E+00  0.14849416841E+04  0.14849416841E+04  0.25500000920E-02 0.  1.
        2   -1    0    0  501    0  0.00000000000E+00  0.00000000000E+00 -0.10427847287E+04  0.10427847287E+04  0.25500000920E-02 0. -1.
    10030    2    1    2    0    0  0.00000000000E+00  0.00000000000E+00  0.44215695549E+03  0.25277264128E+04  0.24887543159E+04 0.  0.
        3    1    3    3  502    0  0.76212848592E+03  0.64463020816E+03 -0.53358204201E+03  0.11318558831E+04  0.10100000352E+00 0. -1.
       -3    1    3    3    0  502 -0.76212848592E+03 -0.64463020816E+03  0.97573899749E+03  0.13958705297E+04  0.10100000352E+00 0.  1.
</event>
<event>
 5   0  0.3704241E-05  0.2381159E+04  0.7818609E-02  0.8446591E-01
       -2   -1    0    0    0  501  0.00000000000E+00  0.00000000000E+00  0.15722946136E+04  0.15722946136E+04  0.25500000920E-02 0.  1.
        2   -1    0    0  501    0  0.00000000000E+00  0.00000000000E+00 -0.90153559623E+03  0.90153559624E+03  0.25500000920E-02 0. -1.
    10030    2    1    2    0    0  0.00000000000E+00  0.00000000000E+00  0.67075901738E+03  0.24738302099E+04  0.23811590135E+04 0.  0.
        2    1    3    3  502    0 -0.32777885751E+03 -0.10881282581E+03  0.15191086830E+04  0.15578736795E+04  0.25500000920E-02 0.  1.
       -2    1    3    3    0  502  0.32777885751E+03  0.10881282581E+03 -0.84834966558E+03  0.91595653040E+03  0.25500000920E-02 0. -1.
</event>
<event>
 5   0  0.3579097E-05  0.2493892E+04  0.7818609E-02  0.8405165E-01
        2   -1    0    0  501    0  0.00000000000E+00  0.00000000000E+00  0.12875869766E+04  0.12875869766E+04  0.25500000920E-02 0. -1.
       -2   -1    0    0    0  501  0.00000000000E+00  0.00000000000E+00 -0.12075873646E+04  0.12075873646E+04  0.25500000920E-02 0.  1.
    10030    2    1    2    0    0  0.00000000000E+00  0.00000000000E+00  0.79999612000E+02  0.24951743412E+04  0.24938915484E+04 0.  0.
        5    1    3    3  502    0 -0.99618564519E+03  0.48361596202E+03  0.61351488846E+03  0.12659750577E+04  0.46999998093E+01 0. -1.
       -5    1    3    3    0  502  0.99618564519E+03 -0.48361596202E+03 -0.53351527646E+03  0.12291992835E+04  0.46999998093E+01 0.  1.
</event>
<event>
 5   0  0.1502886E-05  0.2236184E+04  0.7818609E-02  0.8503517E-01
       -1   -1    0    0    0  501  0.00000000000E+00  0.00000000000E+00  0.12469047565E+04  0.12469047565E+04  0.50400001928E-02 0.  1.
        1   -1    0    0  501    0  0.00000000000E+00  0.00000000000E+00 -0.10025866167E+04  0.10025866168E+04  0.50400001928E-02 0. -1.
    10030    2    1    2    0    0  0.00000000000E+00  0.00000000000E+00  0.24431813972E+03  0.22494913732E+04  0.22361842690E+04 0.  0.
        4    1    3    3  502    0 -0.44720291266E+03 -0.81289251155E+02  0.11497711898E+04  0.12363550417E+04  0.12699999809E+01 0.  1.
       -4    1    3    3    0  502  0.44720291266E+03  0.81289251155E+02 -0.90545305006E+03  0.10131363315E+04  0.12699999809E+01 0. -1.
</event>
<event>
 5   0  0.1421242E-05  0.2453757E+04  0.7818609E-02  0.8419648E-01
        1   -1    0    0  501    0  0.00000000000E+00  0.00000000000E+00  0.12795286054E+04  0.12795286054E+04  0.50400001928E-02 0. -1.
       -1   -1    0    0    0  501  0.00000000000E+00  0.00000000000E+00 -0.11763946240E+04  0.11763946240E+04  0.50400001928E-02 0.  1.
    10030    2    1    2    0    0  0.00000000000E+00  0.00000000000E+00  0.10313398137E+03  0.24559232295E+04  0.24537567709E+04 0.  0.
        3    1    3    3  502    0  0.27194417349E+03  0.85943012796E+03  0.88456185153E+03  0.12629423810E+04  0.10100000352E+00 0. -1.
       -3    1    3    3    0  502 -0.27194417349E+03 -0.85943012796E+03 -0.78142787015E+03  0.11929808485E+04  0.10100000352E+00 0.  1.
</event>
<event>
 5   0  0.3704241E-05  0.2534391E+04  0.7818609E-02  0.8390835E-01
        2   -1    0    0  501    0  0.00000000000E+00  0.00000000000E+00  0.13618579953E+04  0.13618579953E+04  0.25500000920E-02 0.  1.
       -2   -1    0    0    0  501  0.00000000000E+00  0.00000000000E+00 -0.11791133210E+04  0.11791133210E+04  0.25500000920E-02 0. -1.
    10030    2    1    2    0    0  0.00000000000E+00  0.00000000000E+00  0.18274467435E+03  0.25409713163E+04  0.25343913696E+04 0.  0.
        2    1    3    3  502    0  0.62504635788E+03 -0.96430612946E+03 -0.44407005468E+03  0.12319770592E+04  0.25500000920E-02 0. -1.
       -2    1    3    3    0  502 -0.62504635788E+03  0.96430612946E+03  0.62681472903E+03  0.13089942572E+04  0.25500000920E-02 0.  1.
</event>
<event>
 5   0  0.1456876E-05  0.2427311E+04  0.7818609E-02  0.8429349E-01
       -1   -1    0    0    0  501  0.00000000000E+00  0.00000000000E+00  0.11440129712E+04  0.11440129712E+04  0.50400001928E-02 0. -1.
        1   -1    0    0  501    0  0.00000000000E+00  0.00000000000E+00 -0.12875380113E+04  0.12875380113E+04  0.50400001928E-02 0.  1.
    10030    2    1    2    0    0  0.00000000000E+00  0.00000000000E+00 -0.14352504014E+03  0.24315509826E+04  0.24273114229E+04 0.  0.
        1    1    3    3  502    0 -0.10761372904E+04 -0.45574526172E+03  0.25620046820E+03  0.11964171059E+04  0.50400001928E-02 0. -1.
       -1    1    3    3    0  502  0.10761372904E+04  0.45574526172E+03 -0.39972550834E+03  0.12351338767E+04  0.50400001928E-02 0.  1.
</event>
<event>
 5   0  0.3578670E-05  0.2572201E+04  0.7818609E-02  0.8377706E-01
        2   -1    0    0  501    0  0.00000000000E+00  0.00000000000E+00  0.20324312814E+04  0.20324312814E+04  0.25500000920E-02 0. -1.
       -2   -1    0    0    0  501  0.00000000000E+00  0.00000000000E+00 -0.81383047432E+03  0.81383047432E+03  0.25500000920E-02 0.  1.
    10030    2    1    2    0    0  0.00000000000E+00  0.00000000000E+00  0.12186008071E+04  0.28462617557E+04  0.25722010137E+04 0.  0.
        4    1    3    3  502    0 -0.12233948299E+04  0.22878650709E+03  0.96788780940E+03  0.15766567794E+04  0.12699999809E+01 0. -1.
       -4    1    3    3    0  502  0.12233948299E+04 -0.22878650709E+03  0.25071299768E+03  0.12696049763E+04  0.12699999809E+01 0.  1.
</event>
<event>
 5   0  0.1492639E-05  0.2484204E+04  0.7818609E-02  0.8408635E-01
       -1   -1    0    0    0  501  0.00000000000E+00  0.00000000000E+00  0.77522924026E+03  0.77522924027E+03  0.50400001928E-02 0.  1.
        1   -1    0    0  501    0  0.00000000000E+00  0.00000000000E+00 -0.19901434003E+04  0.19901434003E+04  0.50400001928E-02 0. -1.
    10030    2    1    2    0    0  0.00000000000E+00  0.00000000000E+00 -0.12149141601E+04  0.27653726406E+04  0.24842039822E+04 0.  0.
        5    1    3    3  502    0  0.75509082015E+03 -0.87182076026E+03 -0.11206833721E+04  0.16081625836E+04  0.46999998093E+01 0. -1.
       -5    1    3    3    0  502 -0.75509082015E+03  0.87182076026E+03 -0.94230787951E+02  0.11572100570E+04  0.46999998093E+01 0.  1.
</event>
<event>
 5   0  0.3579097E-05  0.2475167E+04  0.7818609E-02  0.8411886E-01
        2   -1    0    0  501    0  0.00000000000E+00  0.00000000000E+00  0.14635300682E+04  0.14635300682E+04  0.25500000920E-02 0. -1.
       -2   -1    0    0    0  501  0.00000000000E+00  0.00000000000E+00 -0.10465199864E+04  0.10465199864E+04  0.25500000920E-02 0.  1.
    10030    2    1    2    0    0  0.00000000000E+00  0.00000000000E+00  0.41701008185E+03  0.25100500546E+04  0.24751674425E+04 0.  0.
        5    1    3    3  502    0  0.47903271843E+02  0.63314735432E+03  0.12857473295E+04  0.14339939264E+04  0.46999998093E+01 0. -1.
       -5    1    3    3    0  502 -0.47903271843E+02 -0.63314735432E+03 -0.86873724761E+03  0.10760561282E+04  0.46999998093E+01 0.  1.
</event>
<event>
 5   0  0.3581449E-05  0.2540517E+04  0.7818609E-02  0.8388692E-01
       -2   -1    0    0    0  501  0.00000000000E+00  0.00000000000E+00  0.95225998581E+03  0.95225998581E+03  0.25500000920E-02 0.  1.
        2   -1    0    0  501    0  0.00000000000E+00  0.00000000000E+00 -0.16944498853E+04  0.16944498853E+04  0.25500000920E-02 0. -1.
    10030    2    1    2    0    0  0.00000000000E+00  0.00000000000E+00 -0.74218989950E+03  0.26467098711E+04  0.25405171314E+04 0.  0.
        1    1    3    3  502    0  0.22520370209E+02  0.12615877227E+04 -0.52366107432E+03  0.13661375004E+04  0.50400001928E-02 0.  1.
       -1    1    3    3    0  502 -0.22520370209E+02 -0.12615877227E+04 -0.21852882518E+03  0.12805723707E+04  0.50400001928E-02 0. -1.
</event>
<event>
 5   0  0.1421242E-05  0.2479555E+04  0.7818609E-02  0.8410306E-01
       -1   -1    0    0    0  501  0.00000000000E+00  0.00000000000E+00  0.10173996948E+04  0.10173996948E+04  0.50400001928E-02 0. -1.
        1   -1    0    0  501    0  0.00000000000E+00  0.00000000000E+00 -0.15107615940E+04  0.15107615940E+04  0.50400001928E-02 0.  1.
    10030    2    1    2    0    0  0.00000000000E+00  0.00000000000E+00 -0.49336189925E+03  0.25281612888E+04  0.24795551090E+04 0.  0.
        3    1    3    3  502    0 -0.11743155396E+04 -0.16792637245E+03 -0.61406651488E+03  0.13357746621E+04  0.10100000352E+00 0.  1.
       -3    1    3    3    0  502  0.11743155396E+04  0.16792637245E+03  0.12070461563E+03  0.11923866267E+04  0.10100000352E+00 0. -1.
</event>
<event>
 5   0  0.1502886E-05  0.2478488E+04  0.7818609E-02  0.8410690E-01
        1   -1    0    0  501    0  0.00000000000E+00  0.00000000000E+00  0.10307616346E+04  0.10307616346E+04  0.50400001928E-02 0.  1.
       -1   -1    0    0    0  501  0.00000000000E+00  0.00000000000E+00 -0.14898941228E+04  0.14898941228E+04  0.50400001928E-02 0. -1.
    10030    2    1    2    0    0  0.00000000000E+00  0.00000000000E+00 -0.45913248816E+03  0.25206557574E+04  0.24784880080E+04 0.  0.
        4    1    3    3  502    0  0.14165051320E+03 -0.11728507585E+04  0.15107450365E+03  0.11909949152E+04  0.12699999809E+01 0.  1.
       -4    1    3    3    0  502 -0.14165051320E+03  0.11728507585E+04 -0.61020699180E+03  0.13296608422E+04  0.12699999809E+01 0. -1.
</event>
<event>
 5   0  0.1502886E-05  0.2493359E+04  0.7818609E-02  0.8405355E-01
       -1   -1    0    0    0  501  0.00000000000E+00  0.00000000000E+00  0.94252591158E+03  0.94252591160E+03  0.50400001928E-02 0. -1.
        1   -1    0    0  501    0  0.00000000000E+00  0.00000000000E+00 -0.16489830184E+04  0.16489830184E+04  0.50400001928E-02 0.  1.
    10030    2    1    2    0    0  0.00000000000E+00  0.00000000000E+00 -0.70645710680E+03  0.25915089300E+04  0.24933585563E+04 0.  0.
        4    1    3    3  502    0 -0.86199588612E+03  0.25400904298E+03  0.54487525773E+03  0.10509272863E+04  0.12699999809E+01 0. -1.
       -4    1    3    3    0  502  0.86199588612E+03 -0.25400904298E+03 -0.12513323645E+04  0.15405816437E+04  0.12699999809E+01 0.  1.
</event>
<event>
 5   0  0.1502886E-05  0.2485945E+04  0.7818609E-02  0.8408010E-01
       -1   -1    0    0    0  501  0.00000000000E+00  0.00000000000E+00  0.13608079921E+04  0.13608079921E+04  0.50400001928E-02 0. -1.
        1   -1    0    0  501    0  0.00000000000E+00  0.00000000000E+00 -0.11353402125E+04  0.11353402126E+04  0.50400001928E-02 0.  1.
    10030    2    1    2    0    0  0.00000000000E+00  0.00000000000E+00  0.22546777955E+03  0.24961482046E+04  0.24859445167E+04 0.  0.
        4    1    3    3  502    0 -0.82162260775E+03  0.93269200160E+03  0.11214610908E+03  0.12480210103E+04  0.12699999809E+01 0.  1.
       -4    1    3    3    0  502  0.82162260775E+03 -0.93269200160E+03  0.11332167047E+03  0.12481271944E+04  0.12699999809E+01 0. -1.
</event>
<event>
 5   0  0.1421242E-05  0.2448374E+04  0.7818609E-02  0.8421612E-01
        1   -1    0    0  501    0  0.00000000000E+00  0.00000000000E+00  0.17811484408E+04  0.17811484408E+04  0.50400001928E-02 0.  1.
       -1   -1    0    0    0  501  0.00000000000E+00  0.00000000000E+00 -0.84138654852E+03  0.84138654853E+03  0.50400001928E-02 0. -1.
    10030    2    1    2    0    0  0.00000000000E+00  0.00000000000E+00  0.93976189226E+03  0.26225349893E+04  0.24483744313E+04 0.  0.
        3    1    3    3  502    0  0.55747776440E+02 -0.16299608923E+03  0.17681008453E+04  0.17764729520E+04  0.10100000352E+00 0.  1.
       -3    1    3    3    0  502 -0.55747776440E+02  0.16299608923E+03 -0.82833895306E+03  0.84606203734E+03  0.10100000352E+00 0. -1.
</event>
<event>
 5   0  0.3579097E-05  0.2495262E+04  0.7818609E-02  0.8404675E-01
       -2   -1    0    0    0  501  0.00000000000E+00  0.00000000000E+00  0.13930930277E+04  0.13930930277E+04  0.25500000920E-02 0.  1.
        2   -1    0    0  501    0  0.00000000000E+00  0.00000000000E+00 -0.11173576847E+04  0.11173576847E+04  0.25500000920E-02 0. -1.
    10030    2    1    2    0    0  0.00000000000E+00  0.00000000000E+00  0.27573534297E+03  0.25104507124E+04  0.24952620704E+04 0.  0.
        5    1    3    3  502    0 -0.41375888262E+03 -0.35437780830E+03 -0.99136405812E+03  0.11311961942E+04  0.46999998093E+01 0. -1.
       -5    1    3    3    0  502  0.41375888262E+03  0.35437780830E+03  0.12670994011E+04  0.13792545183E+04  0.46999998093E+01 0.  1.
</event>
<event>
 5   0  0.3704241E-05  0.2495584E+04  0.7818609E-02  0.8404560E-01
        2   -1    0    0  501    0  0.00000000000E+00  0.00000000000E+00  0.20982154948E+04  0.20982154948E+04  0.25500000920E-02 0. -1.
       -2   -1    0    0    0  501  0.00000000000E+00  0.00000000000E+00 -0.74205186259E+03  0.74205186259E+03  0.25500000920E-02 0.  1.
    10030    2    1    2    0    0  0.00000000000E+00  0.00000000000E+00  0.13561636322E+04  0.28402673574E+04  0.24955838724E+04 0.  0.
        2    1    3    3  502    0  0.72456476053E+02 -0.83526407627E+03  0.17298825143E+04  0.19223448003E+04  0.25500000920E-02 0. -1.
       -2    1    3    3    0  502 -0.72456476053E+02  0.83526407627E+03 -0.37371888205E+03  0.91792255710E+03  0.25500000920E-02 0.  1.
</event>
<event>
 5   0  0.1429483E-05  0.2491504E+04  0.7818609E-02  0.8406019E-01
       -1   -1    0    0    0  501  0.00000000000E+00  0.00000000000E+00  0.96189790113E+03  0.96189790114E+03  0.50400001928E-02 0.  1.
        1   -1    0    0  501    0  0.00000000000E+00  0.00000000000E+00 -0.16133702298E+04  0.16133702298E+04  0.50400001928E-02 0. -1.
    10030    2    1    2    0    0  0.00000000000E+00  0.00000000000E+00 -0.65147232868E+03  0.25752681310E+04  0.24915035122E+04 0.  0.
        2    1    3    3  502    0  0.26246639776E+02 -0.44126444319E+03  0.87810704466E+03  0.98309469371E+03  0.25500000920E-02 0.  1.
       -2    1    3    3    0  502 -0.26246639776E+02  0.44126444319E+03 -0.15295793733E+04  0.15921734372E+04  0.25500000920E-02 0. -1.
</event>
<event>
 5   0  0.1456876E-05  0.2234050E+04  0.7818609E-02  0.8504388E-01
        1   -1    0    0  501    0  0.00000000000E+00  0.00000000000E+00  0.19763750525E+04  0.19763750525E+04  0.50400001928E-02 0. -1.
       -1   -1    0    0    0  501  0.00000000000E+00  0.00000000000E+00 -0.63132978217E+03  0.63132978219E+03  0.50400001928E-02 0.  1.
    10030    2    1    2    0    0  0.00000000000E+00  0.00000000000E+00  0.13450452703E+04  0.26077048347E+04  0.22340496247E+04 0.  0.
        1    1    3    3  502    0  0.10244632078E+04  0.38281601023E+03  0.40718978434E+03  0.11669946368E+04  0.50400001928E-02 0. -1.
       -1    1    3    3    0  502 -0.10244632078E+04 -0.38281601023E+03  0.93785548597E+03  0.14407101979E+04  0.50400001928E-02 0.  1.
</event>
<event>
 5   0  0.1421242E-05  0.2468807E+04  0.7818609E-02  0.8414183E-01
       -1   -1    0    0    0  501  0.00000000000E+00  0.00000000000E+00  0.20051776039E+04  0.20051776039E+04  0.50400001928E-02 0. -1.
        1   -1    0    0  501    0  0.00000000000E+00  0.00000000000E+00 -0.75990884790E+03  0.75990884792E+03  0.50400001928E-02 0.  1.
    10030    2    1    2    0    0  0.00000000000E+00  0.00000000000E+00  0.12452687560E+04  0.27650864518E+04  0.24688071637E+04 0.  0.
        3    1    3    3  502    0  0.18387402796E+03  0.91442158456E+03 -0.28296461858E+03  0.97470276394E+03  0.10100000352E+00 0.  1.
       -3    1    3    3    0  502 -0.18387402796E+03 -0.91442158456E+03  0.15282333746E+04  0.17903836879E+04  0.10100000352E+00 0. -1.
</event>
<event>
 5   0  0.1456876E-05  0.2301600E+04  0.7818609E-02  0.8477290E-01
        1   -1    0    0  501    0  0.00000000000E+00  0.00000000000E+00  0.14091386258E+04  0.14091386258E+04  0.50400001928E-02 0. -1.
       -1   -1    0    0    0  501  0.00000000000E+00  0.00000000000E+00 -0.93982292187E+03  0.93982292188E+03  0.50400001928E-02 0.  1.
    10030    2    1    2    0    0  0.00000000000E+00  0.00000000000E+00  0.46931570390E+03  0.23489615477E+04  0.23016001222E+04 0.  0.
        1    1    3    3  502    0 -0.39291458126E+03  0.95823250072E+03 -0.27741322487E+03  0.10721704580E+04  0.50400001928E-02 0.  1.
       -1    1    3    3    0  502  0.39291458126E+03 -0.95823250072E+03  0.74672892877E+03  0.12767910897E+04  0.50400001928E-02 0. -1.
</event>
<event>
 5   0  0.1502886E-05  0.2509913E+04  0.7818609E-02  0.8399462E-01
        1   -1    0    0  501    0  0.00000000000E+00  0.00000000000E+00  0.15811489504E+04  0.15811489504E+04  0.50400001928E-02 0.  1.
       -1   -1    0    0    0  501  0.00000000000E+00  0.00000000000E+00 -0.99605802324E+03  0.99605802325E+03  0.50400001928E-02 0. -1.
    10030    2    1    2    0    0  0.00000000000E+00  0.00000000000E+00  0.58509092716E+03  0.25772069737E+04  0.25099132240E+04 0.  0.
        4    1    3    3  502    0  0.11097995128E+03 -0.12386884071E+04  0.11996490640E+03  0.12494233514E+04  0.12699999809E+01 0. -1.
       -4    1    3    3    0  502 -0.11097995128E+03  0.12386884071E+04  0.46512602075E+03  0.13277836222E+04  0.12699999809E+01 0.  1.
</event>
<event>
 5   0  0.1502886E-05  0.2479255E+04  0.7818609E-02  0.8410413E-01
       -1   -1    0    0    0  501  0.00000000000E+00  0.00000000000E+00  0.16866996744E+04  0.16866996744E+04  0.50400001928E-02 0. -1.
        1   -1    0    0  501    0  0.00000000000E+00  0.00000000000E+00 -0.91105520497E+03  0.91105520499E+03  0.50400001928E-02 0.  1.
    10030    2    1    2    0    0  0.00000000000E+00  0.00000000000E+00  0.77564446946E+03  0.25977548794E+04  0.24792551443E+04 0.  0.
        4    1    3    3  502    0  0.74403592693E+03 -0.72881617489E+03 -0.31655301669E+03  0.10885632286E+04  0.12699999809E+01 0.  1.
       -4    1    3    3    0  502 -0.74403592693E+03  0.72881617489E+03  0.10921974861E+04  0.15091916508E+04  0.12699999809E+01 0. -1.
</event>
<event>
 5   0  0.1421242E-05  0.2521684E+04  0.7818609E-02  0.8395301E-01
        1   -1    0    0  501    0  0.00000000000E+00  0.00000000000E+00  0.78348965160E+03  0.78348965162E+03  0.50400001928E-02 0.  1.
       -1   -1    0    0    0  501  0.00000000000E+00  0.00000000000E+00 -0.20290277153E+04  0.20290277153E+04  0.50400001928E-02 0. -1.
    10030    2    1    2    0    0  0.00000000000E+00  0.00000000000E+00 -0.12455380637E+04  0.28125173670E+04  0.25216837374E+04 0.  0.
        3    1    3    3  502    0  0.61846961740E+03 -0.94675156797E+03 -0.12446400171E+04  0.16816575101E+04  0.10100000352E+00 0. -1.
       -3    1    3    3    0  502 -0.61846961740E+03  0.94675156797E+03 -0.89804666693E+00  0.11308598568E+04  0.10100000352E+00 0.  1.
</event>
<event>
 5   0  0.3704241E-05  0.2552337E+04  0.7818609E-02  0.8384574E-01
       -2   -1    0    0    0  501  0.00000000000E+00  0.00000000000E+00  0.78840806969E+03  0.78840806969E+03  0.25500000920E-02 0.  1.
        2   -1    0    0  501    0  0.00000000000E+00  0.00000000000E+00 -0.20656893723E+04  0.20656893723E+04  0.25500000920E-02 0. -1.
    10030    2    1    2    0    0  0.00000000000E+00  0.00000000000E+00 -0.12772813027E+04  0.28540974420E+04  0.25523371021E+04 0.  0.
        2    1    3    3  502    0 -0.10680488684E+04 -0.67235218440E+03 -0.42700173630E+03  0.13323349158E+04  0.25500000920E-02 0.  1.
       -2    1    3    3    0  502  0.10680488684E+04  0.67235218440E+03 -0.85027956636E+03  0.15217625262E+04  0.25500000920E-02 0. -1.
</event>
<event>
 5   0  0.1201438E-05  0.2499690E+04  0.7818609E-02  0.8403096E-01
        3   -1    0    0  501    0  0.00000000000E+00  0.00000000000E+00  0.11881152510E+04  0.11881152553E+04  0.10100000352E+00 0.  1.
       -3   -1    0    0    0  501  0.00000000000E+00  0.00000000000E+00 -0.13147823544E+04  0.13147823583E+04  0.10100000352E+00 0. -1.
    10030    2    1    2    0    0  0.00000000000E+00  0.00000000000E+00 -0.12666710338E+03  0.25028976135E+04  0.24996903626E+04 0.  0.
        4    1    3    3  502    0 -0.38344565858E+03 -0.18892116961E+03 -0.12393146446E+04  0.13109630745E+04  0.12699999809E+01 0. -1.
       -4    1    3    3    0  502  0.38344565858E+03  0.18892116961E+03  0.11126475413E+04  0.11919345390E+04  0.12699999809E+01 0.  1.
</event>
<event>
 5   0  0.3581449E-05  0.2510405E+04  0.7818609E-02  0.8399288E-01
       -2   -1    0    0    0  501  0.00000000000E+00  0.00000000000E+00  0.89914528724E+03  0.89914528724E+03  0.25500000920E-02 0. -1.
        2   -1    0    0  501    0  0.00000000000E+00  0.00000000000E+00 -0.17522566717E+04  0.17522566717E+04  0.25500000920E-02 0.  1.
    10030    2    1    2    0    0  0.00000000000E+00  0.00000000000E+00 -0.85311138448E+03  0.26514019590E+04  0.25104050099E+04 0.  0.
        1    1    3    3  502    0 -0.36115474374E+03 -0.79740172148E+03  0.52355328611E+03  0.10199952440E+04  0.50400001928E-02 0. -1.
       -1    1    3    3    0  502  0.36115474374E+03  0.79740172148E+03 -0.13766646706E+04  0.16314067150E+04  0.50400001928E-02 0.  1.
</event>
<event>
 5   0  0.1421242E-05  0.2503929E+04  0.7818609E-02  0.8401587E-01
       -1   -1    0    0    0  501  0.00000000000E+00  0.00000000000E+00  0.10088101230E+04  0.10088101230E+04  0.50400001928E-02 0.  1.
        1   -1    0    0  501    0  0.00000000000E+00  0.00000000000E+00 -0.15537263159E+04  0.15537263159E+04  0.50400001928E-02 0. -1.
    10030    2    1    2    0    0  0.00000000000E+00  0.00000000000E+00 -0.54491619291E+03  0.25625364389E+04  0.25039287816E+04 0.  0.
        3    1    3    3  502    0 -0.11407929143E+03  0.81708785823E+01 -0.15483687035E+04  0.15525870346E+04  0.10100000352E+00 0. -1.
       -3    1    3    3    0  502  0.11407929143E+03 -0.81708785823E+01  0.10034525106E+04  0.10099494042E+04  0.10100000352E+00 0.  1.
</event>
<event>
 5   0  0.3581449E-05  0.2486156E+04  0.7818609E-02  0.8407934E-01
       -2   -1    0    0    0  501  0.00000000000E+00  0.00000000000E+00  0.11426506044E+04  0.11426506044E+04  0.25500000920E-02 0. -1.
        2   -1    0    0  501    0  0.00000000000E+00  0.00000000000E+00 -0.13523324575E+04  0.13523324575E+04  0.25500000920E-02 0.  1.
    10030    2    1    2    0    0  0.00000000000E+00  0.00000000000E+00 -0.20968185305E+03  0.24949830619E+04  0.24861564712E+04 0.  0.
        1    1    3    3  502    0  0.13934509360E+03  0.11775075422E+04  0.26971657001E+03  0.12160131970E+04  0.50400001928E-02 0. -1.
       -1    1    3    3    0  502 -0.13934509360E+03 -0.11775075422E+04 -0.47939842306E+03  0.12789698649E+04  0.50400001928E-02 0.  1.
</event>
<event>
 5   0  0.1456876E-05  0.2479620E+04  0.7818609E-02  0.8410282E-01
       -1   -1    0    0    0  501  0.00000000000E+00  0.00000000000E+00  0.12630131259E+04  0.12630131259E+04  0.50400001928E-02 0. -1.
        1   -1    0    0  501    0  0.00000000000E+00  0.00000000000E+00 -0.12170332845E+04  0.12170332845E+04  0.50400001928E-02 0.  1.
    10030    2    1    2    0    0  0.00000000000E+00  0.00000000000E+00  0.45979841454E+02  0.24800464104E+04  0.24796201427E+04 0.  0.
        1    1    3    3  502    0  0.10644230436E+04 -0.46313568163E+03 -0.41255932329E+03  0.12319481607E+04  0.50400001928E-02 0.  1.
       -1    1    3    3    0  502 -0.10644230436E+04  0.46313568163E+03  0.45853916474E+03  0.12480982497E+04  0.50400001928E-02 0. -1.
</event>
<event>
 5   0  0.3579097E-05  0.2523474E+04  0.7818609E-02  0.8394670E-01
       -2   -1    0    0    0  501  0.00000000000E+00  0.00000000000E+00  0.10051651820E+04  0.10051651820E+04  0.25500000920E-02 0.  1.
        2   -1    0    0  501    0  0.00000000000E+00  0.00000000000E+00 -0.15837994216E+04  0.15837994216E+04  0.25500000920E-02 0. -1.
    10030    2    1    2    0    0  0.00000000000E+00  0.00000000000E+00 -0.57863423965E+03  0.25889646036E+04  0.25234738230E+04 0.  0.
        5    1    3    3  502    0 -0.51858128701E+03 -0.55009019811E+03 -0.13256979681E+04  0.15261136819E+04  0.46999998093E+01 0. -1.
       -5    1    3    3    0  502  0.51858128701E+03  0.55009019811E+03  0.74706372849E+03  0.10628509217E+04  0.46999998093E+01 0.  1.
</event>
<event>
 5   0  0.1429483E-05  0.2469377E+04  0.7818609E-02  0.8413977E-01
        1   -1    0    0  501    0  0.00000000000E+00  0.00000000000E+00  0.90355281322E+03  0.90355281324E+03  0.50400001928E-02 0.  1.
       -1   -1    0    0    0  501  0.00000000000E+00  0.00000000000E+00 -0.16871796300E+04  0.16871796300E+04  0.50400001928E-02 0. -1.
    10030    2    1    2    0    0  0.00000000000E+00  0.00000000000E+00 -0.78362681675E+03  0.25907324432E+04  0.24693771693E+04 0.  0.
        2    1    3    3  502    0 -0.47668137555E+03  0.14235845950E+03  0.79374950232E+03  0.93676535868E+03  0.25500000920E-02 0.  1.
       -2    1    3    3    0  502  0.47668137555E+03 -0.14235845950E+03 -0.15773763191E+04  0.16539670845E+04  0.25500000920E-02 0. -1.
</event>
<event>
 5   0  0.3650620E-05  0.2516163E+04  0.7818609E-02  0.8397250E-01
        2   -1    0    0  501    0  0.00000000000E+00  0.00000000000E+00  0.27083980048E+04  0.27083980048E+04  0.25500000920E-02 0.  1.
       -2   -1    0    0    0  501  0.00000000000E+00  0.00000000000E+00 -0.58439316878E+03  0.58439316879E+03  0.25500000920E-02 0. -1.
    10030    2    1    2    0    0  0.00000000000E+00  0.00000000000E+00  0.21240048360E+04  0.32927911736E+04  0.25161631842E+04 0.  0.
        3    1    3    3  502    0 -0.96645308761E+03 -0.16406911189E+03  0.30055418380E+02  0.98074134327E+03  0.10100000352E+00 0. -1.
       -3    1    3    3    0  502  0.96645308761E+03  0.16406911189E+03  0.20939494176E+04  0.23120498303E+04  0.10100000352E+00 0.  1.
</event>
<event>
 5   0  0.3704241E-05  0.2271734E+04  0.7818609E-02  0.8489150E-01
       -2   -1    0    0    0  501  0.00000000000E+00  0.00000000000E+00  0.11241227228E+04  0.11241227228E+04  0.25500000920E-02 0.  1.
        2   -1    0    0  501    0  0.00000000000E+00  0.00000000000E+00 -0.11477337311E+04  0.11477337311E+04  0.25500000920E-02 0. -1.
    10030    2    1    2    0    0  0.00000000000E+00  0.00000000000E+00 -0.23611008239E+02  0.22718564539E+04  0.22717337581E+04 0.  0.
        2    1    3    3  502    0 -0.86640964810E+03  0.54731596638E+03 -0.50170247695E+03  0.11410196408E+04  0.25500000920E-02 0. -1.
       -2    1    3    3    0  502  0.86640964810E+03 -0.54731596638E+03  0.47809146871E+03  0.11308368131E+04  0.25500000920E-02 0.  1.
</event>
<event>
 5   0  0.1429483E-05  0.2541842E+04  0.7818609E-02  0.8388229E-01
        1   -1    0    0  501    0  0.00000000000E+00  0.00000000000E+00  0.11113580480E+04  0.11113580481E+04  0.50400001928E-02 0.  1.
       -1   -1    0    0    0  501  0.00000000000E+00  0.00000000000E+00 -0.14533927018E+04  0.14533927018E+04  0.50400001928E-02 0. -1.
    10030    2    1    2    0    0  0.00000000000E+00  0.00000000000E+00 -0.34203465376E+03  0.25647507499E+04  0.25418415971E+04 0.  0.
        2    1    3    3  502    0 -0.38608300806E+03 -0.10381028403E+04  0.45791589435E+03  0.11985009647E+04  0.25500000920E-02 0.  1.
       -2    1    3    3    0  502  0.38608300806E+03  0.10381028403E+04 -0.79995054811E+03  0.13662497852E+04  0.25500000920E-02 0. -1.
</event>
<event>
 5   0  0.1201438E-05  0.2468185E+04  0.7818609E-02  0.8414408E-01
       -4   -1    0    0    0  501  0.00000000000E+00  0.00000000000E+00  0.91171507677E+03  0.91171596131E+03  0.12699999809E+01 0.  1.
        4   -1    0    0  501    0  0.00000000000E+00  0.00000000000E+00 -0.16704592733E+04  0.16704597561E+04  0.12699999809E+01 0. -1.
    10030    2    1    2    0    0  0.00000000000E+00  0.00000000000E+00 -0.75874419658E+03  0.25821757174E+04  0.24681853009E+04 0.  0.
        5    1    3    3  502    0 -0.11237801854E+04  0.11150521447E+03  0.14125263527E+03  0.11381079540E+04  0.46999998093E+01 0. -1.
       -5    1    3    3    0  502  0.11237801854E+04 -0.11150521447E+03 -0.89999683185E+03  0.14440677634E+04  0.46999998093E+01 0.  1.
</event>
<event>
 5   0  0.3579097E-05  0.2499422E+04  0.7818609E-02  0.8403192E-01
        2   -1    0    0  501    0  0.00000000000E+00  0.00000000000E+00  0.13040841809E+04  0.13040841809E+04  0.25500000920E-02 0.  1.
       -2   -1    0    0    0  501  0.00000000000E+00  0.00000000000E+00 -0.11976046650E+04  0.11976046650E+04  0.25500000920E-02 0. -1.
    10030    2    1    2    0    0  0.00000000000E+00  0.00000000000E+00  0.10647951584E+03  0.25016888459E+04  0.24994217720E+04 0.  0.
        5    1    3    3  502    0  0.27391455223E+03 -0.12177783309E+04 -0.79873171025E+01  0.12482384117E+04  0.46999998093E+01 0. -1.
       -5    1    3    3    0  502 -0.27391455223E+03  0.12177783309E+04  0.11446683294E+03  0.12534504342E+04  0.46999998093E+01 0.  1.
</event>
<event>
 5   0  0.3650620E-05  0.2385648E+04  0.7818609E-02  0.8444896E-01
       -2   -1    0    0    0  501  0.00000000000E+00  0.00000000000E+00  0.14358068490E+04  0.14358068490E+04  0.25500000920E-02 0. -1.
        2   -1    0    0  501    0  0.00000000000E+00  0.00000000000E+00 -0.99096165154E+03  0.99096165155E+03  0.25500000920E-02 0.  1.
    10030    2    1    2    0    0  0.00000000000E+00  0.00000000000E+00  0.44484519746E+03  0.24267685006E+04  0.23856483617E+04 0.  0.
        3    1    3    3  502    0 -0.10409180061E+04  0.56585741955E+03  0.81747212307E+02  0.11875973777E+04  0.10100000352E+00 0.  1.
       -3    1    3    3    0  502  0.10409180061E+04 -0.56585741955E+03  0.36309798515E+03  0.12391711228E+04  0.10100000352E+00 0. -1.
</event>
<event>
 5   0  0.3581449E-05  0.2462624E+04  0.7818609E-02  0.8416423E-01
       -2   -1    0    0    0  501  0.00000000000E+00  0.00000000000E+00  0.15309531264E+04  0.15309531264E+04  0.25500000920E-02 0. -1.
        2   -1    0    0  501    0  0.00000000000E+00  0.00000000000E+00 -0.99031694775E+03  0.99031694776E+03  0.25500000920E-02 0.  1.
    10030    2    1    2    0    0  0.00000000000E+00  0.00000000000E+00  0.54063617867E+03  0.25212700742E+04  0.24626236638E+04 0.  0.
        1    1    3    3  502    0 -0.16602764594E+02 -0.11426122083E+04  0.73981329859E+03  0.13613089389E+04  0.50400001928E-02 0.  1.
       -1    1    3    3    0  502  0.16602764594E+02  0.11426122083E+04 -0.19917711992E+03  0.11599611353E+04  0.50400001928E-02 0. -1.
</event>
<event>
 5   0  0.1492639E-05  0.2497198E+04  0.7818609E-02  0.8403984E-01
       -1   -1    0    0    0  501  0.00000000000E+00  0.00000000000E+00  0.10277658295E+04  0.10277658295E+04  0.50400001928E-02 0.  1.
        1   -1    0    0  501    0  0.00000000000E+00  0.00000000000E+00 -0.15168822273E+04  0.15168822273E+04  0.50400001928E-02 0. -1.
    10030    2    1    2    0    0  0.00000000000E+00  0.00000000000E+00 -0.48911639780E+03  0.25446480568E+04  0.24971982065E+04 0.  0.
        5    1    3    3  502    0  0.68593927913E+03  0.94178096885E+03  0.21287410316E+03  0.11843992409E+04  0.46999998093E+01 0.  1.
       -5    1    3    3    0  502 -0.68593927913E+03 -0.94178096885E+03 -0.70199050096E+03  0.13602488160E+04  0.46999998093E+01 0. -1.
</event>
<event>
 5   0  0.1456876E-05  0.1824548E+04  0.7818609E-02  0.8693353E-01
       -1   -1    0    0    0  501  0.00000000000E+00  0.00000000000E+00  0.42847408650E+03  0.42847408653E+03  0.50400001928E-02 0.  1.
        1   -1    0    0  501    0  0.00000000000E+00  0.00000000000E+00 -0.19423438036E+04  0.19423438037E+04  0.50400001928E-02 0. -1.
    10030    2    1    2    0    0  0.00000000000E+00  0.00000000000E+00 -0.15138697171E+04  0.23708178902E+04  0.18245481490E+04 0.  0.
        1    1    3    3  502    0 -0.11415270894E+03  0.38670960286E+03  0.30640699758E+03  0.50641919997E+03  0.50400001928E-02 0.  1.
       -1    1    3    3    0  502  0.11415270894E+03 -0.38670960286E+03 -0.18202767147E+04  0.18643986902E+04  0.50400001928E-02 0. -1.
</event>
<event>
 5   0  0.3704241E-05  0.2269502E+04  0.7818609E-02  0.8490044E-01
        2   -1    0    0  501    0  0.00000000000E+00  0.00000000000E+00  0.14596247549E+04  0.14596247549E+04  0.25500000920E-02 0.  1.
       -2   -1    0    0    0  501  0.00000000000E+00  0.00000000000E+00 -0.88218572915E+03  0.88218572916E+03  0.25500000920E-02 0. -1.
    10030    2    1    2    0    0  0.00000000000E+00  0.00000000000E+00  0.57743902570E+03  0.23418104840E+04  0.22695022614E+04 0.  0.
        2    1    3    3  502    0  0.19011642792E+02 -0.10533206528E+04  0.72383491261E+03  0.12781951419E+04  0.25500000920E-02 0.  1.
       -2    1    3    3    0  502 -0.19011642792E+02  0.10533206528E+04 -0.14639588691E+03  0.10636153421E+04  0.25500000920E-02 0. -1.
</event>
<event>
 5   0  0.1429483E-05  0.2506716E+04  0.7818609E-02  0.8400597E-01
        1   -1    0    0  501    0  0.00000000000E+00  0.00000000000E+00  0.13332709030E+04  0.13332709030E+04  0.50400001928E-02 0. -1.
       -1   -1    0    0    0  501  0.00000000000E+00  0.00000000000E+00 -0.11782350335E+04  0.11782350336E+04  0.50400001928E-02 0.  1.
    10030    2    1    2    0    0  0.00000000000E+00  0.00000000000E+00  0.15503586944E+03  0.25115059365E+04  0.25067161683E+04 0.  0.
        2    1    3    3  502    0  0.94951301607E+02  0.11563283021E+04  0.55255002125E+03  0.12850768140E+04  0.25500000920E-02 0. -1.
       -2    1    3    3    0  502 -0.94951301607E+02 -0.11563283021E+04 -0.39751415181E+03  0.12264291226E+04  0.25500000920E-02 0.  1.
</event>
<event>
 5   0  0.3650620E-05  0.2434991E+04  0.7818609E-02  0.8426519E-01
        2   -1    0    0  501    0  0.00000000000E+00  0.00000000000E+00  0.14747634245E+04  0.14747634245E+04  0.25500000920E-02 0.  1.
       -2   -1    0    0    0  501  0.00000000000E+00  0.00000000000E+00 -0.10051069751E+04  0.10051069751E+04  0.25500000920E-02 0. -1.
    10030    2    1    2    0    0  0.00000000000E+00  0.00000000000E+00  0.46965644941E+03  0.24798703995E+04  0.24349907634E+04 0.  0.
        3    1    3    3  502    0 -0.40973270959E+03  0.69219740326E+03 -0.69595144896E+03  0.10636571665E+04  0.10100000352E+00 0. -1.
       -3    1    3    3    0  502  0.40973270959E+03 -0.69219740326E+03  0.11656078984E+04  0.14162132330E+04  0.10100000352E+00 0.  1.
</event>
<event>
 5   0  0.3579097E-05  0.2491992E+04  0.7818609E-02  0.8405844E-01
        2   -1    0    0  501    0  0.00000000000E+00  0.00000000000E+00  0.17145958900E+04  0.17145958900E+04  0.25500000920E-02 0. -1.
       -2   -1    0    0    0  501  0.00000000000E+00  0.00000000000E+00 -0.90546459849E+03  0.90546459849E+03  0.25500000920E-02 0.  1.
    10030    2    1    2    0    0  0.00000000000E+00  0.00000000000E+00  0.80913129151E+03  0.26200604885E+04  0.24919918773E+04 0.  0.
        5    1    3    3  502    0  0.11069911948E+04 -0.57185180900E+03  0.41119794475E+03  0.13120784415E+04  0.46999998093E+01 0. -1.
       -5    1    3    3    0  502 -0.11069911948E+04  0.57185180900E+03  0.39793334676E+03  0.13079820470E+04  0.46999998093E+01 0.  1.
</event>
<event>
 5   0  0.1492639E-05  0.2346544E+04  0.7818609E-02  0.8459792E-01
       -1   -1    0    0    0  501  0.00000000000E+00  0.00000000000E+00  0.55092268415E+03  0.55092268417E+03  0.50400001928E-02 0.  1.
        1   -1    0    0  501    0  0.00000000000E+00  0.00000000000E+00 -0.24986571459E+04  0.24986571459E+04  0.50400001928E-02 0. -1.
    10030    2    1    2    0    0  0.00000000000E+00  0.00000000000E+00 -0.19477344617E+04  0.30495798300E+04  0.23465437576E+04 0.  0.
        5    1    3    3  502    0 -0.20266089316E+03  0.11408398417E+04 -0.73438057964E+03  0.13718323177E+04  0.46999998093E+01 0.  1.
       -5    1    3    3    0  502  0.20266089316E+03 -0.11408398417E+04 -0.12133538821E+04  0.16777475124E+04  0.46999998093E+01 0. -1.
</event>
<event>
 5   0  0.1492639E-05  0.2268763E+04  0.7818609E-02  0.8490340E-01
        1   -1    0    0  501    0  0.00000000000E+00  0.00000000000E+00  0.94339942273E+03  0.94339942274E+03  0.50400001928E-02 0. -1.
       -1   -1    0    0    0  501  0.00000000000E+00  0.00000000000E+00 -0.13640263991E+04  0.13640263991E+04  0.50400001928E-02 0.  1.
    10030    2    1    2    0    0  0.00000000000E+00  0.00000000000E+00 -0.42062697638E+03  0.23074258219E+04  0.22687632909E+04 0.  0.
        5    1    3    3  502    0  0.20146680930E+03 -0.92028421778E+03  0.43234690250E+03  0.10365605872E+04  0.46999998093E+01 0. -1.
       -5    1    3    3    0  502 -0.20146680930E+03  0.92028421778E+03 -0.85297387889E+03  0.12708652347E+04  0.46999998093E+01 0.  1.
</event>
<event>
 5   0  0.3581449E-05  0.2273758E+04  0.7818609E-02  0.8488340E-01
        2   -1    0    0  501    0  0.00000000000E+00  0.00000000000E+00  0.79281940668E+03  0.79281940668E+03  0.25500000920E-02 0. -1.
       -2   -1    0    0    0  501  0.00000000000E+00  0.00000000000E+00 -0.16302504372E+04  0.16302504372E+04  0.25500000920E-02 0.  1.
    10030    2    1    2    0    0  0.00000000000E+00  0.00000000000E+00 -0.83743103050E+03  0.24230698439E+04  0.22737582847E+04 0.  0.
        1    1    3    3  502    0  0.31921118374E+03 -0.94653703003E+03 -0.99719330979E+03  0.14114611671E+04  0.50400001928E-02 0. -1.
       -1    1    3    3    0  502 -0.31921118374E+03  0.94653703003E+03  0.15976227929E+03  0.10116086768E+04  0.50400001928E-02 0.  1.
</event>
<event>
 5   0  0.3578670E-05  0.2435081E+04  0.7818609E-02  0.8426485E-01
        2   -1    0    0  501    0  0.00000000000E+00  0.00000000000E+00  0.23261840523E+04  0.23261840523E+04  0.25500000920E-02 0.  1.
       -2   -1    0    0    0  501  0.00000000000E+00  0.00000000000E+00 -0.63726877351E+03  0.63726877351E+03  0.25500000920E-02 0. -1.
    10030    2    1    2    0    0  0.00000000000E+00  0.00000000000E+00  0.16889152788E+04  0.29634528258E+04  0.24350806623E+04 0.  0.
        4    1    3    3  502    0  0.55018104139E+03  0.25209984277E+03  0.21301759205E+04  0.22144761400E+04  0.12699999809E+01 0.  1.
       -4    1    3    3    0  502 -0.55018104139E+03 -0.25209984277E+03 -0.44126064179E+03  0.74897668583E+03  0.12699999809E+01 0. -1.
</event>
<event>
 5   0  0.1429483E-05  0.2395859E+04  0.7818609E-02  0.8441056E-01
       -1   -1    0    0    0  501  0.00000000000E+00  0.00000000000E+00  0.73093610882E+03  0.73093610883E+03  0.50400001928E-02 0. -1.
        1   -1    0    0  501    0  0.00000000000E+00  0.00000000000E+00 -0.19632838034E+04  0.19632838034E+04  0.50400001928E-02 0.  1.
    10030    2    1    2    0    0  0.00000000000E+00  0.00000000000E+00 -0.12323476946E+04  0.26942199122E+04  0.23958589473E+04 0.  0.
        2    1    3    3  502    0 -0.11682705707E+04 -0.25753916132E+03 -0.68597166964E+03  0.13790357782E+04  0.25500000920E-02 0. -1.
       -2    1    3    3    0  502  0.11682705707E+04  0.25753916132E+03 -0.54637602494E+03  0.13151841341E+04  0.25500000920E-02 0.  1.
</event>
<event>
 5   0  0.1502886E-05  0.1846437E+04  0.7818609E-02  0.8681988E-01
        1   -1    0    0  501    0  0.00000000000E+00  0.00000000000E+00  0.11559375897E+04  0.11559375897E+04  0.50400001928E-02 0.  1.
       -1   -1    0    0    0  501  0.00000000000E+00  0.00000000000E+00 -0.73735117488E+03  0.73735117490E+03  0.50400001928E-02 0. -1.
    10030    2    1    2    0    0  0.00000000000E+00  0.00000000000E+00  0.41858641484E+03  0.18932887646E+04  0.18464365030E+04 0.  0.
        4    1    3    3  502    0 -0.32925462124E+03  0.36449309596E+03 -0.59224959676E+03  0.76943162164E+03  0.12699999809E+01 0. -1.
       -4    1    3    3    0  502  0.32925462124E+03 -0.36449309596E+03  0.10108360116E+04  0.11238571430E+04  0.12699999809E+01 0.  1.
</event>
<event>
 5   0  0.3579097E-05  0.2519843E+04  0.7818609E-02  0.8395950E-01
        2   -1    0    0  501    0  0.00000000000E+00  0.00000000000E+00  0.16081185279E+04  0.16081185279E+04  0.25500000920E-02 0. -1.
       -2   -1    0    0    0  501  0.00000000000E+00  0.00000000000E+00 -0.98711794834E+03  0.98711794834E+03  0.25500000920E-02 0.  1.
    10030    2    1    2    0    0  0.00000000000E+00  0.00000000000E+00  0.62100057956E+03  0.25952364762E+04  0.25198433776E+04 0.  0.
        5    1    3    3  502    0 -0.73750405664E+03  0.61296390490E+03 -0.53110460481E+03  0.10962349992E+04  0.46999998093E+01 0.  1.
       -5    1    3    3    0  502  0.73750405664E+03 -0.61296390490E+03  0.11521051844E+04  0.14990014770E+04  0.46999998093E+01 0. -1.
</event>
<event>
 5   0  0.1456876E-05  0.2057102E+04  0.7818609E-02  0.8580379E-01
       -1   -1    0    0    0  501  0.00000000000E+00  0.00000000000E+00  0.73245902927E+03  0.73245902929E+03  0.50400001928E-02 0. -1.
        1   -1    0    0  501    0  0.00000000000E+00  0.00000000000E+00 -0.14443358098E+04  0.14443358098E+04  0.50400001928E-02 0.  1.
    10030    2    1    2    0    0  0.00000000000E+00  0.00000000000E+00 -0.71187678056E+03  0.21767948391E+04  0.20571016555E+04 0.  0.
        1    1    3    3  502    0  0.77361985989E+03  0.38067736249E+03  0.23750820431E+03  0.89432269851E+03  0.50400001928E-02 0. -1.
       -1    1    3    3    0  502 -0.77361985989E+03 -0.38067736249E+03 -0.94938498487E+03  0.12824721406E+04  0.50400001928E-02 0.  1.
</event>
<event>
 5   0  0.3579097E-05  0.2551369E+04  0.7818609E-02  0.8384910E-01
       -2   -1    0    0    0  501  0.00000000000E+00  0.00000000000E+00  0.80539574243E+03  0.80539574244E+03  0.25500000920E-02 0. -1.
        2   -1    0    0  501    0  0.00000000000E+00  0.00000000000E+00 -0.20205858301E+04  0.20205858302E+04  0.25500000920E-02 0.  1.
    10030    2    1    2    0    0  0.00000000000E+00  0.00000000000E+00 -0.12151900877E+04  0.28259815726E+04  0.25513692205E+04 0.  0.
        5    1    3    3  502    0 -0.11787227538E+04 -0.60483136889E+02 -0.71446057354E+02  0.11824433049E+04  0.46999998093E+01 0. -1.
       -5    1    3    3    0  502  0.11787227538E+04  0.60483136889E+02 -0.11437440304E+04  0.16435382677E+04  0.46999998093E+01 0.  1.
</event>
<event>
 5   0  0.1429483E-05  0.2573001E+04  0.7818609E-02  0.8377430E-01
       -1   -1    0    0    0  501  0.00000000000E+00  0.00000000000E+00  0.84701045562E+03  0.84701045563E+03  0.50400001928E-02 0.  1.
        1   -1    0    0  501    0  0.00000000000E+00  0.00000000000E+00 -0.19540297629E+04  0.19540297629E+04  0.50400001928E-02 0. -1.
    10030    2    1    2    0    0  0.00000000000E+00  0.00000000000E+00 -0.11070193073E+04  0.28010402185E+04  0.25730010803E+04 0.  0.
        2    1    3    3  502    0 -0.78822076531E+03 -0.34339612160E+03  0.48831942552E+03  0.98877132469E+03  0.25500000920E-02 0.  1.
       -2    1    3    3    0  502  0.78822076531E+03  0.34339612160E+03 -0.15953387328E+04  0.18122688938E+04  0.25500000920E-02 0. -1.
</event>
<event>
 5   0  0.3581449E-05  0.2840878E+04  0.7818609E-02  0.8290689E-01
        2   -1    0    0  501    0  0.00000000000E+00  0.00000000000E+00  0.22210434169E+04  0.22210434169E+04  0.25500000920E-02 0.  1.
       -2   -1    0    0    0  501  0.00000000000E+00  0.00000000000E+00 -0.90842280553E+03  0.90842280553E+03  0.25500000920E-02 0. -1.
    10030    2    1    2    0    0  0.00000000000E+00  0.00000000000E+00  0.13126206114E+04  0.31294662224E+04  0.28408776756E+04 0.  0.
        1    1    3    3  502    0  0.61453201003E+03  0.49391173571E+03 -0.64526087838E+03  0.10188032171E+04  0.50400001928E-02 0. -1.
       -1    1    3    3    0  502 -0.61453201003E+03 -0.49391173571E+03  0.19578814898E+04  0.21106630053E+04  0.50400001928E-02 0.  1.
</event>
<event>
 5   0  0.3704241E-05  0.2524888E+04  0.7818609E-02  0.8394172E-01
       -2   -1    0    0    0  501  0.00000000000E+00  0.00000000000E+00  0.92611697710E+03  0.92611697711E+03  0.25500000920E-02 0.  1.
        2   -1    0    0  501    0  0.00000000000E+00  0.00000000000E+00 -0.17209113744E+04  0.17209113744E+04  0.25500000920E-02 0. -1.
    10030    2    1    2    0    0  0.00000000000E+00  0.00000000000E+00 -0.79479439729E+03  0.26470283515E+04  0.25248883064E+04 0.  0.
        2    1    3    3  502    0 -0.17594373846E+03 -0.26058957241E+03 -0.16792046746E+04  0.17083885575E+04  0.25500000920E-02 0. -1.
       -2    1    3    3    0  502  0.17594373846E+03  0.26058957241E+03  0.88441027726E+03  0.93863979400E+03  0.25500000920E-02 0.  1.
</event>
<event>
 5   0  0.1502886E-05  0.2536782E+04  0.7818609E-02  0.8389998E-01
       -1   -1    0    0    0  501  0.00000000000E+00  0.00000000000E+00  0.60328249880E+03  0.60328249882E+03  0.50400001928E-02 0. -1.
        1   -1    0    0  501    0  0.00000000000E+00  0.00000000000E+00 -0.26667694539E+04  0.26667694540E+04  0.50400001928E-02 0.  1.
    10030    2    1    2    0    0  0.00000000000E+00  0.00000000000E+00 -0.20634869551E+04  0.32700519528E+04  0.25367816934E+04 0.  0.
        4    1    3    3  502    0  0.10530356064E+04  0.34755982232E+03 -0.23802456952E+03  0.11341689146E+04  0.12699999809E+01 0. -1.
       -4    1    3    3    0  502 -0.10530356064E+04 -0.34755982232E+03 -0.18254623856E+04  0.21358830381E+04  0.12699999809E+01 0.  1.
</event>
<event>
 5   0  0.3578670E-05  0.2495361E+04  0.7818609E-02  0.8404640E-01
        2   -1    0    0  501    0  0.00000000000E+00  0.00000000000E+00  0.19707296108E+04  0.19707296108E+04  0.25500000920E-02 0. -1.
       -2   -1    0    0    0  501  0.00000000000E+00  0.00000000000E+00 -0.78991383668E+03  0.78991383669E+03  0.25500000920E-02 0.  1.
    10030    2    1    2    0    0  0.00000000000E+00  0.00000000000E+00  0.11808157741E+04  0.27606434475E+04  0.24953609662E+04 0.  0.
        4    1    3    3  502    0 -0.47301635114E+03 -0.61835445543E+03  0.16690452310E+04  0.18416895224E+04  0.12699999809E+01 0. -1.
       -4    1    3    3    0  502  0.47301635114E+03  0.61835445543E+03 -0.48822945686E+03  0.91895392509E+03  0.12699999809E+01 0.  1.
</event>
<event>
 5   0  0.3579097E-05  0.2490230E+04  0.7818609E-02  0.8406474E-01
        2   -1    0    0  501    0  0.00000000000E+00  0.00000000000E+00  0.20578988972E+04  0.20578988972E+04  0.25500000920E-02 0. -1.
       -2   -1    0    0    0  501  0.00000000000E+00  0.00000000000E+00 -0.75334684415E+03  0.75334684415E+03  0.25500000920E-02 0.  1.
    10030    2    1    2    0    0  0.00000000000E+00  0.00000000000E+00  0.13045520531E+04  0.28112457414E+04  0.24902302221E+04 0.  0.
        5    1    3    3  502    0  0.54346053510E+03 -0.56988336845E+03 -0.43650666683E+03  0.90037579211E+03  0.46999998093E+01 0.  1.
       -5    1    3    3    0  502 -0.54346053510E+03  0.56988336845E+03  0.17410587199E+04  0.19108699493E+04  0.46999998093E+01 0. -1.
</event>
<event>
 5   0  0.1456876E-05  0.2479534E+04  0.7818609E-02  0.8410313E-01
       -1   -1    0    0    0  501  0.00000000000E+00  0.00000000000E+00  0.87509506407E+03  0.87509506409E+03  0.50400001928E-02 0.  1.
        1   -1    0    0  501    0  0.00000000000E+00  0.00000000000E+00 -0.17564060951E+04  0.17564060951E+04  0.50400001928E-02 0. -1.
    10030    2    1    2    0    0  0.00000000000E+00  0.00000000000E+00 -0.88131103106E+03  0.26315011592E+04  0.24795340727E+04 0.  0.
        1    1    3    3  502    0 -0.70756133197E+03 -0.89463315457E+03 -0.95623948933E+03  0.14884238243E+04  0.50400001928E-02 0.  1.
       -1    1    3    3    0  502  0.70756133197E+03  0.89463315457E+03  0.74928458270E+02  0.11430773349E+04  0.50400001928E-02 0. -1.
</event>
<event>
 5   0  0.3578670E-05  0.2505590E+04  0.7818609E-02  0.8400997E-01
       -2   -1    0    0    0  501  0.00000000000E+00  0.00000000000E+00  0.12262424783E+04  0.12262424783E+04  0.25500000920E-02 0. -1.
        2   -1    0    0  501    0  0.00000000000E+00  0.00000000000E+00 -0.12799225840E+04  0.12799225840E+04  0.25500000920E-02 0.  1.
    10030    2    1    2    0    0  0.00000000000E+00  0.00000000000E+00 -0.53680105671E+02  0.25061650623E+04  0.25055901033E+04 0.  0.
        4    1    3    3  502    0  0.55456143860E+03  0.41327978304E+03  0.10179834220E+04  0.12307032252E+04  0.12699999809E+01 0. -1.
       -4    1    3    3    0  502 -0.55456143860E+03 -0.41327978304E+03 -0.10716635277E+04  0.12754618370E+04  0.12699999809E+01 0.  1.
</event>
<event>
 5   0  0.1421242E-05  0.2508655E+04  0.7818609E-02  0.8399909E-01
        1   -1    0    0  501    0  0.00000000000E+00  0.00000000000E+00  0.14629271754E+04  0.14629271755E+04  0.50400001928E-02 0.  1.
       -1   -1    0    0    0  501  0.00000000000E+00  0.00000000000E+00 -0.10754720346E+04  0.10754720346E+04  0.50400001928E-02 0. -1.
    10030    2    1    2    0    0  0.00000000000E+00  0.00000000000E+00  0.38745514081E+03  0.25383992101E+04  0.25086548315E+04 0.  0.
        3    1    3    3  502    0 -0.98887787552E+02 -0.19541090548E+03 -0.10559761035E+04  0.10784478466E+04  0.10100000352E+00 0. -1.
       -3    1    3    3    0  502  0.98887787552E+02  0.19541090548E+03  0.14434312443E+04  0.14599513635E+04  0.10100000352E+00 0.  1.
</event>
<event>
 5   0  0.1429483E-05  0.2477527E+04  0.7818609E-02  0.8411036E-01
        1   -1    0    0  501    0  0.00000000000E+00  0.00000000000E+00  0.18557655173E+04  0.18557655173E+04  0.50400001928E-02 0.  1.
       -1   -1    0    0    0  501  0.00000000000E+00  0.00000000000E+00 -0.82690157503E+03  0.82690157505E+03  0.50400001928E-02 0. -1.
    10030    2    1    2    0    0  0.00000000000E+00  0.00000000000E+00  0.10288639423E+04  0.26826670924E+04  0.24775273393E+04 0.  0.
        2    1    3    3  502    0 -0.65181852446E+03 -0.89248958386E+03 -0.91481950351E+02  0.11089517543E+04  0.25500000920E-02 0. -1.
       -2    1    3    3    0  502  0.65181852446E+03  0.89248958386E+03  0.11203458926E+04  0.15737153381E+04  0.25500000920E-02 0.  1.
</event>
<event>
 5   0  0.1429483E-05  0.2105372E+04  0.7818609E-02  0.8558881E-01
       -1   -1    0    0    0  501  0.00000000000E+00  0.00000000000E+00  0.47458997570E+03  0.47458997572E+03  0.50400001928E-02 0.  1.
        1   -1    0    0  501    0  0.00000000000E+00  0.00000000000E+00 -0.23349585449E+04  0.23349585449E+04  0.50400001928E-02 0. -1.
    10030    2    1    2    0    0  0.00000000000E+00  0.00000000000E+00 -0.18603685692E+04  0.28095485206E+04  0.21053720993E+04 0.  0.
        2    1    3    3  502    0  0.68624594226E+03  0.45555745400E+03 -0.55439888549E+02  0.82555415838E+03  0.25500000920E-02 0.  1.
       -2    1    3    3    0  502 -0.68624594226E+03 -0.45555745400E+03 -0.18049286806E+04  0.19839943622E+04  0.25500000920E-02 0. -1.
</event>
<event>
 5   0  0.1456876E-05  0.2485929E+04  0.7818609E-02  0.8408015E-01
        1   -1    0    0  501    0  0.00000000000E+00  0.00000000000E+00  0.23756381839E+04  0.23756381839E+04  0.50400001928E-02 0.  1.
       -1   -1    0    0    0  501  0.00000000000E+00  0.00000000000E+00 -0.65033526802E+03  0.65033526804E+03  0.50400001928E-02 0. -1.
    10030    2    1    2    0    0  0.00000000000E+00  0.00000000000E+00  0.17253029159E+04  0.30259734519E+04  0.24859294399E+04 0.  0.
        1    1    3    3  502    0 -0.34227932563E+02  0.98363210879E+03  0.17866784460E+04  0.20398341958E+04  0.50400001928E-02 0. -1.
       -1    1    3    3    0  502  0.34227932563E+02 -0.98363210879E+03 -0.61375530142E+02  0.98613925616E+03  0.50400001928E-02 0.  1.
</event>
<event>
 5   0  0.1492639E-05  0.2509366E+04  0.7818609E-02  0.8399657E-01
       -1   -1    0    0    0  501  0.00000000000E+00  0.00000000000E+00  0.11204938420E+04  0.11204938420E+04  0.50400001928E-02 0. -1.
        1   -1    0    0  501    0  0.00000000000E+00  0.00000000000E+00 -0.14049422420E+04  0.14049422420E+04  0.50400001928E-02 0.  1.
    10030    2    1    2    0    0  0.00000000000E+00  0.00000000000E+00 -0.28444840002E+03  0.25254360840E+04  0.25093657609E+04 0.  0.
        5    1    3    3  502    0 -0.26865170831E+03  0.20821383963E+03  0.10732688275E+04  0.11258129549E+04  0.46999998093E+01 0. -1.
       -5    1    3    3    0  502  0.26865170831E+03 -0.20821383963E+03 -0.13577172275E+04  0.13996231290E+04  0.46999998093E+01 0.  1.
</event>
<event>
 5   0  0.1429483E-05  0.2498718E+04  0.7818609E-02  0.8403442E-01
       -1   -1    0    0    0  501  0.00000000000E+00  0.00000000000E+00  0.12509187284E+04  0.12509187285E+04  0.50400001928E-02 0.  1.
        1   -1    0    0  501    0  0.00000000000E+00  0.00000000000E+00 -0.12478012922E+04  0.12478012922E+04  0.50400001928E-02 0. -1.
    10030    2    1    2    0    0  0.00000000000E+00  0.00000000000E+00  0.31174362689E+01  0.24987200206E+04  0.24987180760E+04 0.  0.
        2    1    3    3  502    0  0.66378531632E+02  0.92020376791E+03 -0.84088892209E+03  0.12483089615E+04  0.25500000920E-02 0. -1.
       -2    1    3    3    0  502 -0.66378531632E+02 -0.92020376791E+03  0.84400635836E+03  0.12504110592E+04  0.25500000920E-02 0.  1.
</event>
<event>
 5   0  0.3578670E-05  0.2543864E+04  0.7818609E-02  0.8387523E-01
        2   -1    0    0  501    0  0.00000000000E+00  0.00000000000E+00  0.13386192370E+04  0.13386192370E+04  0.25500000920E-02 0. -1.
       -2   -1    0    0    0  501  0.00000000000E+00  0.00000000000E+00 -0.12085668638E+04  0.12085668638E+04  0.25500000920E-02 0.  1.
    10030    2    1    2    0    0  0.00000000000E+00  0.00000000000E+00  0.13005237318E+03  0.25471861009E+04  0.25438638746E+04 0.  0.
        4    1    3    3  502    0 -0.40412800485E+03  0.31036512005E+03 -0.11018984310E+04  0.12140130630E+04  0.12699999809E+01 0.  1.
       -4    1    3    3    0  502  0.40412800485E+03 -0.31036512005E+03  0.12319508042E+04  0.13331730378E+04  0.12699999809E+01 0. -1.
</event>
<event>
 5   0  0.3578670E-05  0.2446040E+04  0.7818609E-02  0.8422465E-01
        2   -1    0    0  501    0  0.00000000000E+00  0.00000000000E+00  0.19905689732E+04  0.19905689732E+04  0.25500000920E-02 0.  1.
       -2   -1    0    0    0  501  0.00000000000E+00  0.00000000000E+00 -0.75143256552E+03  0.75143256552E+03  0.25500000920E-02 0. -1.
    10030    2    1    2    0    0  0.00000000000E+00  0.00000000000E+00  0.12391364077E+04  0.27420015388E+04  0.24460403516E+04 0.  0.
        4    1    3    3  502    0  0.14850377842E+03  0.12106593953E+04  0.51913300224E+03  0.13256131526E+04  0.12699999809E+01 0. -1.
       -4    1    3    3    0  502 -0.14850377842E+03 -0.12106593953E+04  0.72000340549E+03  0.14163883861E+04  0.12699999809E+01 0.  1.
</event>
<event>
 5   0  0.3581449E-05  0.2313166E+04  0.7818609E-02  0.8472748E-01
        2   -1    0    0  501    0  0.00000000000E+00  0.00000000000E+00  0.71909032866E+03  0.71909032866E+03  0.25500000920E-02 0.  1.
       -2   -1    0    0    0  501  0.00000000000E+00  0.00000000000E+00 -0.18602450507E+04  0.18602450507E+04  0.25500000920E-02 0. -1.
    10030    2    1    2    0    0  0.00000000000E+00  0.00000000000E+00 -0.11411547221E+04  0.25793353794E+04  0.23131659905E+04 0.  0.
        1    1    3    3  502    0 -0.51806485816E+03 -0.77910051662E+03  0.18758253613E+03  0.95424107024E+03  0.50400001928E-02 0. -1.
       -1    1    3    3    0  502  0.51806485816E+03  0.77910051662E+03 -0.13287372582E+04  0.16250943091E+04  0.50400001928E-02 0.  1.
</event>
<event>
 5   0  0.1502886E-05  0.2565199E+04  0.7818609E-02  0.8380119E-01
       -1   -1    0    0    0  501  0.00000000000E+00  0.00000000000E+00  0.15423954773E+04  0.15423954773E+04  0.50400001928E-02 0. -1.
        1   -1    0    0  501    0  0.00000000000E+00  0.00000000000E+00 -0.10665626585E+04  0.10665626585E+04  0.50400001928E-02 0.  1.
    10030    2    1    2    0    0  0.00000000000E+00  0.00000000000E+00  0.47583281880E+03  0.26089581357E+04  0.25651989558E+04 0.  0.
        4    1    3    3  502    0  0.31070945842E+03 -0.11405631557E+04 -0.26820205483E+03  0.12121710419E+04  0.12699999809E+01 0.  1.
       -4    1    3    3    0  502 -0.31070945842E+03  0.11405631557E+04  0.74403487363E+03  0.13967870939E+04  0.12699999809E+01 0. -1.
</event>
<event>
 5   0  0.1502886E-05  0.2508438E+04  0.7818609E-02  0.8399986E-01
        1   -1    0    0  501    0  0.00000000000E+00  0.00000000000E+00  0.16012600467E+04  0.16012600467E+04  0.50400001928E-02 0.  1.
       -1   -1    0    0    0  501  0.00000000000E+00  0.00000000000E+00 -0.98239196846E+03  0.98239196847E+03  0.50400001928E-02 0. -1.
    10030    2    1    2    0    0  0.00000000000E+00  0.00000000000E+00  0.61886807820E+03  0.25836520151E+04  0.25084377682E+04 0.  0.
        4    1    3    3  502    0 -0.15955543878E+02 -0.81679072411E+03 -0.67076370003E+03  0.10570370006E+04  0.12699999809E+01 0. -1.
       -4    1    3    3    0  502  0.15955543878E+02  0.81679072411E+03  0.12896317782E+04  0.15266150146E+04  0.12699999809E+01 0.  1.
</event>
<event>
 5   0  0.3579097E-05  0.2509207E+04  0.7818609E-02  0.8399713E-01
       -2   -1    0    0    0  501  0.00000000000E+00  0.00000000000E+00  0.84924248270E+03  0.84924248270E+03  0.25500000920E-02 0.  1.
        2   -1    0    0  501    0  0.00000000000E+00  0.00000000000E+00 -0.18534519533E+04  0.18534519533E+04  0.25500000920E-02 0. -1.
    10030    2    1    2    0    0  0.00000000000E+00  0.00000000000E+00 -0.10042094706E+04  0.27026944360E+04  0.25092071564E+04 0.  0.
        5    1    3    3  502    0  0.38375104587E+03 -0.83175390038E+03  0.42128068677E+03  0.10082553858E+04  0.46999998093E+01 0.  1.
       -5    1    3    3    0  502 -0.38375104587E+03  0.83175390038E+03 -0.14254901574E+04  0.16944390502E+04  0.46999998093E+01 0. -1.
</event>
<event>
 5   0  0.1492639E-05  0.2525419E+04  0.7818609E-02  0.8393986E-01
       -1   -1    0    0    0  501  0.00000000000E+00  0.00000000000E+00  0.82956401339E+03  0.82956401340E+03  0.50400001928E-02 0.  1.
        1   -1    0    0  501    0  0.00000000000E+00  0.00000000000E+00 -0.19220155273E+04  0.19220155273E+04  0.50400001928E-02 0. -1.
    10030    2    1    2    0    0  0.00000000000E+00  0.00000000000E+00 -0.10924515140E+04  0.27515795407E+04  0.25254187096E+04 0.  0.
        5    1    3    3  502    0  0.10539578320E+04  0.63563492049E+03 -0.23891371262E+03  0.12537785753E+04  0.46999998093E+01 0.  1.
       -5    1    3    3    0  502 -0.10539578320E+04 -0.63563492049E+03 -0.85353780133E+03  0.14978009655E+04  0.46999998093E+01 0. -1.
</event>
<event>
 5   0  0.1201438E-05  0.2493811E+04  0.7818609E-02  0.8405194E-01
       -3   -1    0    0    0  501  0.00000000000E+00  0.00000000000E+00  0.81671675610E+03  0.81671676234E+03  0.10100000352E+00 0.  1.
        3   -1    0    0  501    0  0.00000000000E+00  0.00000000000E+00 -0.19036871577E+04  0.19036871603E+04  0.10100000352E+00 0. -1.
    10030    2    1    2    0    0  0.00000000000E+00  0.00000000000E+00 -0.10869704016E+04  0.27204039227E+04  0.24938109088E+04 0.  0.
        1    1    3    3  502    0 -0.11824866672E+04 -0.10947200333E+03 -0.95817695116E+03  0.15258970828E+04  0.50400001928E-02 0. -1.
       -1    1    3    3    0  502  0.11824866672E+04  0.10947200333E+03 -0.12879345040E+03  0.11945068399E+04  0.50400001928E-02 0.  1.
</event>
<event>
 5   0  0.3704241E-05  0.2455087E+04  0.7818609E-02  0.8419163E-01
       -2   -1    0    0    0  501  0.00000000000E+00  0.00000000000E+00  0.97051287483E+03  0.97051287484E+03  0.25500000920E-02 0.  1.
        2   -1    0    0  501    0  0.00000000000E+00  0.00000000000E+00 -0.15526458840E+04  0.15526458840E+04  0.25500000920E-02 0. -1.
    10030    2    1    2    0    0  0.00000000000E+00  0.00000000000E+00 -0.58213300917E+03  0.25231587588E+04  0.24550868176E+04 0.  0.
        2    1    3    3  502    0  0.21962413433E+03 -0.54054364032E+03 -0.14010308872E+04  0.15176658836E+04  0.25500000920E-02 0. -1.
       -2    1    3    3    0  502 -0.21962413433E+03  0.54054364032E+03  0.81889787802E+03  0.10054928752E+04  0.25500000920E-02 0.  1.
</event>
<event>
 5   0  0.1421242E-05  0.2476670E+04  0.7818609E-02  0.8411345E-01
       -1   -1    0    0    0  501  0.00000000000E+00  0.00000000000E+00  0.51548343758E+03  0.51548343761E+03  0.50400001928E-02 0.  1.
        1   -1    0    0  501    0  0.00000000000E+00  0.00000000000E+00 -0.29748250506E+04  0.29748250506E+04  0.50400001928E-02 0. -1.
    10030    2    1    2    0    0  0.00000000000E+00  0.00000000000E+00 -0.24593416130E+04  0.34903084882E+04  0.24766695729E+04 0.  0.
        3    1    3    3  502    0  0.39037651922E+03 -0.25331178120E+03  0.38756809593E+03  0.60561516199E+03  0.10100000352E+00 0.  1.
       -3    1    3    3    0  502 -0.39037651922E+03  0.25331178120E+03 -0.28469097089E+04  0.28846933262E+04  0.10100000352E+00 0. -1.
</event>
<event>
 5   0  0.3650620E-05  0.2525124E+04  0.7818609E-02  0.8394089E-01
        2   -1    0    0  501    0  0.00000000000E+00  0.00000000000E+00  0.10327965527E+04  0.10327965527E+04  0.25500000920E-02 0. -1.
       -2   -1    0    0    0  501  0.00000000000E+00  0.00000000000E+00 -0.15434436615E+04  0.15434436615E+04  0.25500000920E-02 0.  1.
    10030    2    1    2    0    0  0.00000000000E+00  0.00000000000E+00 -0.51064710877E+03  0.25762402142E+04  0.25251243874E+04 0.  0.
        3    1    3    3  502    0 -0.11807904738E+02  0.10903837273E+04  0.39394477431E+03  0.11594259764E+04  0.10100000352E+00 0. -1.
       -3    1    3    3    0  502  0.11807904738E+02 -0.10903837273E+04 -0.90459188308E+03  0.14168142378E+04  0.10100000352E+00 0.  1.
</event>
<event>
 5   0  0.3578670E-05  0.2461365E+04  0.7818609E-02  0.8416880E-01
        2   -1    0    0  501    0  0.00000000000E+00  0.00000000000E+00  0.21937107003E+04  0.21937107003E+04  0.25500000920E-02 0.  1.
       -2   -1    0    0    0  501  0.00000000000E+00  0.00000000000E+00 -0.69041874247E+03  0.69041874248E+03  0.25500000920E-02 0. -1.
    10030    2    1    2    0    0  0.00000000000E+00  0.00000000000E+00  0.15032919578E+04  0.28841294428E+04  0.24613646484E+04 0.  0.
        4    1    3    3  502    0 -0.50904510450E+03 -0.22430071371E+02  0.20643038323E+04  0.21262600855E+04  0.12699999809E+01 0.  1.
       -4    1    3    3    0  502  0.50904510450E+03  0.22430071371E+02 -0.56101187443E+03  0.75786935726E+03  0.12699999809E+01 0. -1.
</event>
<event>
 5   0  0.3578670E-05  0.2412570E+04  0.7818609E-02  0.8434813E-01
        2   -1    0    0  501    0  0.00000000000E+00  0.00000000000E+00  0.89334317189E+03  0.89334317189E+03  0.25500000920E-02 0.  1.
       -2   -1    0    0    0  501  0.00000000000E+00  0.00000000000E+00 -0.16288509949E+04  0.16288509949E+04  0.25500000920E-02 0. -1.
    10030    2    1    2    0    0  0.00000000000E+00  0.00000000000E+00 -0.73550782298E+03  0.25221941668E+04  0.24125695134E+04 0.  0.
        4    1    3    3  502    0 -0.42046540251E+03 -0.16247454482E+03 -0.15374932105E+04  0.16022097608E+04  0.12699999809E+01 0. -1.
       -4    1    3    3    0  502  0.42046540251E+03  0.16247454482E+03  0.80198538754E+03  0.91998440593E+03  0.12699999809E+01 0.  1.
</event>
<event>
 5   0  0.1502886E-05  0.2367899E+04  0.7818609E-02  0.8451620E-01
        1   -1    0    0  501    0  0.00000000000E+00  0.00000000000E+00  0.15015389925E+04  0.15015389925E+04  0.50400001928E-02 0.  1.
       -1   -1    0    0    0  501  0.00000000000E+00  0.00000000000E+00 -0.93353324498E+03  0.93353324499E+03  0.50400001928E-02 0. -1.
    10030    2    1    2    0    0  0.00000000000E+00  0.00000000000E+00  0.56800574755E+03  0.24350722375E+04  0.23678991264E+04 0.  0.
        4    1    3    3  502    0 -0.10550226396E+04 -0.26352919050E+03 -0.19748276840E+03  0.11052246202E+04  0.12699999809E+01 0. -1.
       -4    1    3    3    0  502  0.10550226396E+04  0.26352919050E+03  0.76548851595E+03  0.13298476173E+04  0.12699999809E+01 0.  1.
</event>
<event>
 5   0  0.3581449E-05  0.2480852E+04  0.7818609E-02  0.8409839E-01
        2   -1    0    0  501    0  0.00000000000E+00  0.00000000000E+00  0.23542535394E+04  0.23542535394E+04  0.25500000920E-02 0. -1.
       -2   -1    0    0    0  501  0.00000000000E+00  0.00000000000E+00 -0.65356468589E+03  0.65356468590E+03  0.25500000920E-02 0.  1.
    10030    2    1    2    0    0  0.00000000000E+00  0.00000000000E+00  0.17006888535E+04  0.30078182253E+04  0.24808522527E+04 0.  0.
        1    1    3    3  502    0  0.64657989988E+03 -0.27236783820E+02  0.21333558669E+04  0.22293529699E+04  0.50400001928E-02 0. -1.
       -1    1    3    3    0  502 -0.64657989988E+03  0.27236783820E+02 -0.43266701344E+03  0.77846525540E+03  0.50400001928E-02 0.  1.
</event>
<event>
 5   0  0.1456876E-05  0.2508847E+04  0.7818609E-02  0.8399841E-01
       -1   -1    0    0    0  501  0.00000000000E+00  0.00000000000E+00  0.61912744165E+03  0.61912744167E+03  0.50400001928E-02 0.  1.
        1   -1    0    0  501    0  0.00000000000E+00  0.00000000000E+00 -0.25416062319E+04  0.25416062319E+04  0.50400001928E-02 0. -1.
    10030    2    1    2    0    0  0.00000000000E+00  0.00000000000E+00 -0.19224787902E+04  0.31607336735E+04  0.25088468778E+04 0.  0.
        1    1    3    3  502    0 -0.96140788014E+03  0.42375574599E+03 -0.18246670053E+04  0.21055364458E+04  0.50400001928E-02 0. -1.
       -1    1    3    3    0  502  0.96140788014E+03 -0.42375574599E+03 -0.97811784958E+02  0.10551972278E+04  0.50400001928E-02 0.  1.
</event>
<event>
 5   0  0.1492639E-05  0.2519738E+04  0.7818609E-02  0.8395987E-01
       -1   -1    0    0    0  501  0.00000000000E+00  0.00000000000E+00  0.11451556516E+04  0.11451556516E+04  0.50400001928E-02 0.  1.
        1   -1    0    0  501    0  0.00000000000E+00  0.00000000000E+00 -0.13860735163E+04  0.13860735163E+04  0.50400001928E-02 0. -1.
    10030    2    1    2    0    0  0.00000000000E+00  0.00000000000E+00 -0.24091786467E+03  0.25312291679E+04  0.25197380187E+04 0.  0.
        5    1    3    3  502    0  0.99168415684E+03  0.93165705032E+02  0.65450624314E+03  0.11918547847E+04  0.46999998093E+01 0.  1.
       -5    1    3    3    0  502 -0.99168415684E+03 -0.93165705032E+02 -0.89542410781E+03  0.13393743832E+04  0.46999998093E+01 0. -1.
</event>
<event>
 5   0  0.3581449E-05  0.2479781E+04  0.7818609E-02  0.8410224E-01
        2   -1    0    0  501    0  0.00000000000E+00  0.00000000000E+00  0.13931404052E+04  0.13931404052E+04  0.25500000920E-02 0. -1.
       -2   -1    0    0    0  501  0.00000000000E+00  0.00000000000E+00 -0.11034983789E+04  0.11034983789E+04  0.25500000920E-02 0.  1.
    10030    2    1    2    0    0  0.00000000000E+00  0.00000000000E+00  0.28964202635E+03  0.24966387841E+04  0.24797807796E+04 0.  0.
        1    1    3    3  502    0 -0.26445059651E+03  0.56681955045E+03 -0.93302199624E+03  0.11232758193E+04  0.50400001928E-02 0.  1.
       -1    1    3    3    0  502  0.26445059651E+03 -0.56681955045E+03  0.12226640226E+04  0.13733629647E+04  0.50400001928E-02 0. -1.
</event>
<event>
 5   0  0.1492639E-05  0.2475285E+04  0.7818609E-02  0.8411844E-01
       -1   -1    0    0    0  501  0.00000000000E+00  0.00000000000E+00  0.83272959737E+03  0.83272959739E+03  0.50400001928E-02 0. -1.
        1   -1    0    0  501    0  0.00000000000E+00  0.00000000000E+00 -0.18394428873E+04  0.18394428873E+04  0.50400001928E-02 0.  1.
    10030    2    1    2    0    0  0.00000000000E+00  0.00000000000E+00 -0.10067132899E+04  0.26721724847E+04  0.24752846583E+04 0.  0.
        5    1    3    3  502    0 -0.10146575150E+04 -0.41802562670E+03 -0.11211158528E+04  0.15688206216E+04  0.46999998093E+01 0.  1.
       -5    1    3    3    0  502  0.10146575150E+04  0.41802562670E+03  0.11440256295E+03  0.11033518631E+04  0.46999998093E+01 0. -1.
</event>
<event>
 5   0  0.1492639E-05  0.2555482E+04  0.7818609E-02  0.8383482E-01
       -1   -1    0    0    0  501  0.00000000000E+00  0.00000000000E+00  0.84176816420E+03  0.84176816422E+03  0.50400001928E-02 0. -1.
        1   -1    0    0  501    0  0.00000000000E+00  0.00000000000E+00 -0.19395154969E+04  0.19395154969E+04  0.50400001928E-02 0.  1.
    10030    2    1    2    0    0  0.00000000000E+00  0.00000000000E+00 -0.10977473327E+04  0.27812836612E+04  0.25554822632E+04 0.  0.
        5    1    3    3  502    0 -0.34059555854E+03 -0.52748323574E+03  0.66226882739E+03  0.91261491781E+03  0.46999998093E+01 0. -1.
       -5    1    3    3    0  502  0.34059555854E+03  0.52748323574E+03 -0.17600161601E+04  0.18686687433E+04  0.46999998093E+01 0.  1.
</event>
<event>
 5   0  0.1456876E-05  0.2472591E+04  0.7818609E-02  0.8412816E-01
       -1   -1    0    0    0  501  0.00000000000E+00  0.00000000000E+00  0.12636653024E+04  0.12636653024E+04  0.50400001928E-02 0. -1.
        1   -1    0    0  501    0  0.00000000000E+00  0.00000000000E+00 -0.12095189500E+04  0.12095189500E+04  0.50400001928E-02 0.  1.
    10030    2    1    2    0    0  0.00000000000E+00  0.00000000000E+00  0.54146352460E+02  0.24731842524E+04  0.24725914581E+04 0.  0.
        1    1    3    3  502    0  0.16090105217E+03 -0.91869299322E+03  0.83877322461E+03  0.12543629805E+04  0.50400001928E-02 0. -1.
       -1    1    3    3    0  502 -0.16090105217E+03  0.91869299322E+03 -0.78462687215E+03  0.12188212719E+04  0.50400001928E-02 0.  1.
</event>
<event>
 5   0  0.3579097E-05  0.2410976E+04  0.7818609E-02  0.8435406E-01
        2   -1    0    0  501    0  0.00000000000E+00  0.00000000000E+00  0.29396667438E+04  0.29396667438E+04  0.25500000920E-02 0.  1.
       -2   -1    0    0    0  501  0.00000000000E+00  0.00000000000E+00 -0.49434206571E+03  0.49434206572E+03  0.25500000920E-02 0. -1.
    10030    2    1    2    0    0  0.00000000000E+00  0.00000000000E+00  0.24453246781E+04  0.34340088096E+04  0.24109756786E+04 0.  0.
        5    1    3    3  502    0  0.33767152543E+03 -0.10599277247E+04  0.18841834603E+04  0.21880672391E+04  0.46999998093E+01 0.  1.
       -5    1    3    3    0  502 -0.33767152543E+03  0.10599277247E+04  0.56114121781E+03  0.12459415705E+04  0.46999998093E+01 0. -1.
</event>
<event>
 5   0  0.3581449E-05  0.1966870E+04  0.7818609E-02  0.8622269E-01
        2   -1    0    0  501    0  0.00000000000E+00  0.00000000000E+00  0.11238540678E+04  0.11238540678E+04  0.25500000920E-02 0. -1.
       -2   -1    0    0    0  501  0.00000000000E+00  0.00000000000E+00 -0.86056007195E+03  0.86056007195E+03  0.25500000920E-02 0.  1.
    10030    2    1    2    0    0  0.00000000000E+00  0.00000000000E+00  0.26329399589E+03  0.19844141398E+04  0.19668695305E+04 0.  0.
        1    1    3    3  502    0 -0.63262857634E+03  0.75288470739E+03  0.12209474476E+03  0.99093966766E+03  0.50400001928E-02 0. -1.
       -1    1    3    3    0  502  0.63262857634E+03 -0.75288470739E+03  0.14119925113E+03  0.99347447213E+03  0.50400001928E-02 0.  1.
</event>
<event>
 5   0  0.1429483E-05  0.2465111E+04  0.7818609E-02  0.8415521E-01
       -1   -1    0    0    0  501  0.00000000000E+00  0.00000000000E+00  0.10111004869E+04  0.10111004869E+04  0.50400001928E-02 0. -1.
        1   -1    0    0  501    0  0.00000000000E+00  0.00000000000E+00 -0.15025146666E+04  0.15025146666E+04  0.50400001928E-02 0.  1.
    10030    2    1    2    0    0  0.00000000000E+00  0.00000000000E+00 -0.49141417962E+03  0.25136151535E+04  0.24651112032E+04 0.  0.
        2    1    3    3  502    0  0.68848662538E+03 -0.48561964329E+03  0.67163489673E+03  0.10774663363E+04  0.25500000920E-02 0. -1.
       -2    1    3    3    0  502 -0.68848662538E+03  0.48561964329E+03 -0.11630490763E+04  0.14361488172E+04  0.25500000920E-02 0.  1.
</event>
<event>
 5   0  0.1492639E-05  0.2495828E+04  0.7818609E-02  0.8404473E-01
       -1   -1    0    0    0  501  0.00000000000E+00  0.00000000000E+00  0.15710120341E+04  0.15710120341E+04  0.50400001928E-02 0.  1.
        1   -1    0    0  501    0  0.00000000000E+00  0.00000000000E+00 -0.99126476761E+03  0.99126476762E+03  0.50400001928E-02 0. -1.
    10030    2    1    2    0    0  0.00000000000E+00  0.00000000000E+00  0.57974726646E+03  0.25622768017E+04  0.24958276214E+04 0.  0.
        5    1    3    3  502    0  0.39367963400E+03 -0.20066125322E+03  0.14880007918E+04  0.15522296993E+04  0.46999998093E+01 0.  1.
       -5    1    3    3    0  502 -0.39367963400E+03  0.20066125322E+03 -0.90825352538E+03  0.10100471024E+04  0.46999998093E+01 0. -1.
</event>
<event>
 5   0  0.3650620E-05  0.2477817E+04  0.7818609E-02  0.8410931E-01
       -2   -1    0    0    0  501  0.00000000000E+00  0.00000000000E+00  0.70460061075E+03  0.70460061075E+03  0.25500000920E-02 0. -1.
        2   -1    0    0  501    0  0.00000000000E+00  0.00000000000E+00 -0.21783897187E+04  0.21783897187E+04  0.25500000920E-02 0.  1.
    10030    2    1    2    0    0  0.00000000000E+00  0.00000000000E+00 -0.14737891079E+04  0.28829903294E+04  0.24778173671E+04 0.  0.
        3    1    3    3  502    0 -0.21277609452E+03  0.72944366791E+03  0.40165192543E+03  0.85946844646E+03  0.10100000352E+00 0. -1.
       -3    1    3    3    0  502  0.21277609452E+03 -0.72944366791E+03 -0.18754410333E+04  0.20235218829E+04  0.10100000352E+00 0.  1.
</event>
<event>
 5   0  0.3581449E-05  0.2515061E+04  0.7818609E-02  0.8397640E-01
       -2   -1    0    0    0  501  0.00000000000E+00  0.00000000000E+00  0.92909691088E+03  0.92909691089E+03  0.25500000920E-02 0. -1.
        2   -1    0    0  501    0  0.00000000000E+00  0.00000000000E+00 -0.17020645320E+04  0.17020645320E+04  0.25500000920E-02 0.  1.
    10030    2    1    2    0    0  0.00000000000E+00  0.00000000000E+00 -0.77296762115E+03  0.26311614429E+04  0.25150609526E+04 0.  0.
        1    1    3    3  502    0 -0.30603684178E+03 -0.11882726408E+04 -0.98584864610E+02  0.12310034090E+04  0.50400001928E-02 0. -1.
       -1    1    3    3    0  502  0.30603684178E+03  0.11882726408E+04 -0.67438275654E+03  0.14001580339E+04  0.50400001928E-02 0.  1.
</event>
<event>
 5   0  0.1201438E-05  0.2443304E+04  0.7818609E-02  0.8423467E-01
        3   -1    0    0  501    0  0.00000000000E+00  0.00000000000E+00  0.11114777345E+04  0.11114777391E+04  0.10100000352E+00 0. -1.
       -3   -1    0    0    0  501  0.00000000000E+00  0.00000000000E+00 -0.13427472363E+04  0.13427472401E+04  0.10100000352E+00 0.  1.
    10030    2    1    2    0    0  0.00000000000E+00  0.00000000000E+00 -0.23126950182E+03  0.24542249792E+04  0.24433040470E+04 0.  0.
        5    1    3    3  502    0 -0.10235363770E+03 -0.72700925246E+03 -0.10964174683E+04  0.13195347950E+04  0.46999998093E+01 0.  1.
       -5    1    3    3    0  502  0.10235363770E+03  0.72700925246E+03  0.86514796648E+03  0.11346901842E+04  0.46999998093E+01 0. -1.
</event>
<event>
 5   0  0.1429483E-05  0.2508369E+04  0.7818609E-02  0.8400010E-01
       -1   -1    0    0    0  501  0.00000000000E+00  0.00000000000E+00  0.73691781673E+03  0.73691781675E+03  0.50400001928E-02 0.  1.
        1   -1    0    0  501    0  0.00000000000E+00  0.00000000000E+00 -0.21345380439E+04  0.21345380439E+04  0.50400001928E-02 0. -1.
    10030    2    1    2    0    0  0.00000000000E+00  0.00000000000E+00 -0.13976202271E+04  0.28714558606E+04  0.25083692831E+04 0.  0.
        2    1    3    3  502    0 -0.48830295302E+03 -0.11085988464E+04 -0.10707181382E+04  0.16167462719E+04  0.25500000920E-02 0. -1.
       -2    1    3    3    0  502  0.48830295302E+03  0.11085988464E+04 -0.32690208894E+03  0.12547095887E+04  0.25500000920E-02 0.  1.
</event>
<event>
 5   0  0.1492639E-05  0.2501688E+04  0.7818609E-02  0.8402384E-01
        1   -1    0    0  501    0  0.00000000000E+00  0.00000000000E+00  0.14898363007E+04  0.14898363007E+04  0.50400001928E-02 0.  1.
       -1   -1    0    0    0  501  0.00000000000E+00  0.00000000000E+00 -0.10501897877E+04  0.10501897878E+04  0.50400001928E-02 0. -1.
    10030    2    1    2    0    0  0.00000000000E+00  0.00000000000E+00  0.43964651295E+03  0.25400260885E+04  0.25016881248E+04 0.  0.
        5    1    3    3  502    0 -0.16347943207E+03  0.11749705222E+04 -0.18287501020E+03  0.12003110480E+04  0.46999998093E+01 0. -1.
       -5    1    3    3    0  502  0.16347943207E+03 -0.11749705222E+04  0.62252152315E+03  0.13397150404E+04  0.46999998093E+01 0.  1.
</event>
<event>
 5   0  0.1429483E-05  0.2471697E+04  0.7818609E-02  0.8413138E-01
        1   -1    0    0  501    0  0.00000000000E+00  0.00000000000E+00  0.15430810046E+04  0.15430810046E+04  0.50400001928E-02 0.  1.
       -1   -1    0    0    0  501  0.00000000000E+00  0.00000000000E+00 -0.98978739801E+03  0.98978739803E+03  0.50400001928E-02 0. -1.
    10030    2    1    2    0    0  0.00000000000E+00  0.00000000000E+00  0.55329360657E+03  0.25328684026E+04  0.24716974997E+04 0.  0.
        2    1    3    3  502    0 -0.54539069424E+03  0.24194058004E+03  0.13857144364E+04  0.15087049920E+04  0.25500000920E-02 0.  1.
       -2    1    3    3    0  502  0.54539069424E+03 -0.24194058004E+03 -0.83242082985E+03  0.10241634106E+04  0.25500000920E-02 0. -1.
</event>
<event>
 5   0  0.1492639E-05  0.2507782E+04  0.7818609E-02  0.8400218E-01
        1   -1    0    0  501    0  0.00000000000E+00  0.00000000000E+00  0.22612262579E+04  0.22612262579E+04  0.50400001928E-02 0.  1.
       -1   -1    0    0    0  501  0.00000000000E+00  0.00000000000E+00 -0.69530558670E+03  0.69530558671E+03  0.50400001928E-02 0. -1.
    10030    2    1    2    0    0  0.00000000000E+00  0.00000000000E+00  0.15659206712E+04  0.29565318446E+04  0.25077824865E+04 0.  0.
        5    1    3    3  502    0 -0.12492031801E+04  0.18586670779E+02  0.90865525814E+03  0.15448399651E+04  0.46999998093E+01 0. -1.
       -5    1    3    3    0  502  0.12492031801E+04 -0.18586670779E+02  0.65726541303E+03  0.14116918795E+04  0.46999998093E+01 0.  1.
</event>
<event>
 5   0  0.1429483E-05  0.2485612E+04  0.7818609E-02  0.8408129E-01
       -1   -1    0    0    0  501  0.00000000000E+00  0.00000000000E+00  0.11483203931E+04  0.11483203931E+04  0.50400001928E-02 0.  1.
        1   -1    0    0  501    0  0.00000000000E+00  0.00000000000E+00 -0.13450664552E+04  0.13450664552E+04  0.50400001928E-02 0. -1.
    10030    2    1    2    0    0  0.00000000000E+00  0.00000000000E+00 -0.19674606211E+03  0.24933868483E+04  0.24856123918E+04 0.  0.
        2    1    3    3  502    0  0.79134684483E+03  0.94144500159E+03  0.81124403949E+02  0.12325297922E+04  0.25500000920E-02 0. -1.
       -2    1    3    3    0  502 -0.79134684483E+03 -0.94144500159E+03 -0.27787046606E+03  0.12608570560E+04  0.25500000920E-02 0.  1.
</event>
<event>
 5   0  0.3650620E-05  0.2553848E+04  0.7818609E-02  0.8384049E-01
        2   -1    0    0  501    0  0.00000000000E+00  0.00000000000E+00  0.19794370124E+04  0.19794370124E+04  0.25500000920E-02 0. -1.
       -2   -1    0    0    0  501  0.00000000000E+00  0.00000000000E+00 -0.82373649965E+03  0.82373649966E+03  0.25500000920E-02 0.  1.
    10030    2    1    2    0    0  0.00000000000E+00  0.00000000000E+00  0.11557005127E+04  0.28031735120E+04  0.25538476978E+04 0.  0.
        3    1    3    3  502    0 -0.24762880491E+03  0.35765754157E+03  0.18955956650E+04  0.19448706583E+04  0.10100000352E+00 0. -1.
       -3    1    3    3    0  502  0.24762880491E+03 -0.35765754157E+03 -0.73989515232E+03  0.85830285371E+03  0.10100000352E+00 0.  1.
</event>
<event>
 5   0  0.3704241E-05  0.2478150E+04  0.7818609E-02  0.8410811E-01
       -2   -1    0    0    0  501  0.00000000000E+00  0.00000000000E+00  0.71424979242E+03  0.71424979242E+03  0.25500000920E-02 0. -1.
        2   -1    0    0  501    0  0.00000000000E+00  0.00000000000E+00 -0.21495376308E+04  0.21495376308E+04  0.25500000920E-02 0.  1.
    10030    2    1    2    0    0  0.00000000000E+00  0.00000000000E+00 -0.14352878384E+04  0.28637874232E+04  0.24781499604E+04 0.  0.
        2    1    3    3  502    0 -0.84352876063E+02  0.60931746258E+03  0.52534008472E+03  0.80892853981E+03  0.25500000920E-02 0. -1.
       -2    1    3    3    0  502  0.84352876063E+02 -0.60931746258E+03 -0.19606279231E+04  0.20548588834E+04  0.25500000920E-02 0.  1.
</event>
<event>
 5   0  0.3581449E-05  0.2522895E+04  0.7818609E-02  0.8394874E-01
        2   -1    0    0  501    0  0.00000000000E+00  0.00000000000E+00  0.86210317159E+03  0.86210317159E+03  0.25500000920E-02 0.  1.
       -2   -1    0    0    0  501  0.00000000000E+00  0.00000000000E+00 -0.18457763294E+04  0.18457763294E+04  0.25500000920E-02 0. -1.
    10030    2    1    2    0    0  0.00000000000E+00  0.00000000000E+00 -0.98367315778E+03  0.27078795010E+04  0.25228948671E+04 0.  0.
        1    1    3    3  502    0 -0.78812944641E+03 -0.12545497361E+02  0.56523296385E+03  0.96994521353E+03  0.50400001928E-02 0.  1.
       -1    1    3    3    0  502  0.78812944641E+03  0.12545497361E+02 -0.15489061216E+04  0.17379342874E+04  0.50400001928E-02 0. -1.
</event>
<event>
 5   0  0.1429483E-05  0.2599769E+04  0.7818609E-02  0.8368280E-01
        1   -1    0    0  501    0  0.00000000000E+00  0.00000000000E+00  0.13988108456E+04  0.13988108456E+04  0.50400001928E-02 0.  1.
       -1   -1    0    0    0  501  0.00000000000E+00  0.00000000000E+00 -0.12079542007E+04  0.12079542007E+04  0.50400001928E-02 0. -1.
    10030    2    1    2    0    0  0.00000000000E+00  0.00000000000E+00  0.19085664493E+03  0.26067650463E+04  0.25997687873E+04 0.  0.
        2    1    3    3  502    0 -0.46281675545E+03 -0.98433001107E+03 -0.61824162022E+03  0.12511305371E+04  0.25500000920E-02 0. -1.
       -2    1    3    3    0  502  0.46281675545E+03  0.98433001107E+03  0.80909826515E+03  0.13556345092E+04  0.25500000920E-02 0.  1.
</event>
<event>
 5   0  0.3578670E-05  0.2129225E+04  0.7818609E-02  0.8548478E-01
       -2   -1    0    0    0  501  0.00000000000E+00  0.00000000000E+00  0.93161033699E+03  0.93161033700E+03  0.25500000920E-02 0. -1.
        2   -1    0    0  501    0  0.00000000000E+00  0.00000000000E+00 -0.12166024700E+04  0.12166024700E+04  0.25500000920E-02 0.  1.
    10030    2    1    2    0    0  0.00000000000E+00  0.00000000000E+00 -0.28499213300E+03  0.21482128070E+04  0.21292246824E+04 0.  0.
        4    1    3    3  502    0 -0.10431286954E+04  0.10426712619E+03 -0.32964615571E+03  0.10989346249E+04  0.12699999809E+01 0. -1.
       -4    1    3    3    0  502  0.10431286954E+04 -0.10426712619E+03  0.44654022712E+02  0.10492781821E+04  0.12699999809E+01 0.  1.
</event>
<event>
 5   0  0.1456876E-05  0.2490669E+04  0.7818609E-02  0.8406317E-01
        1   -1    0    0  501    0  0.00000000000E+00  0.00000000000E+00  0.14127247698E+04  0.14127247698E+04  0.50400001928E-02 0.  1.
       -1   -1    0    0    0  501  0.00000000000E+00  0.00000000000E+00 -0.10977780174E+04  0.10977780175E+04  0.50400001928E-02 0. -1.
    10030    2    1    2    0    0  0.00000000000E+00  0.00000000000E+00  0.31494675232E+03  0.25105027872E+04  0.24906691446E+04 0.  0.
        1    1    3    3  502    0 -0.11472955954E+04 -0.40571946955E+03 -0.10913760181E+03  0.12218046028E+04  0.50400001928E-02 0.  1.
       -1    1    3    3    0  502  0.11472955954E+04  0.40571946955E+03  0.42408435413E+03  0.12886981845E+04  0.50400001928E-02 0. -1.
</event>
<event>
 5   0  0.1502886E-05  0.2444150E+04  0.7818609E-02  0.8423157E-01
        1   -1    0    0  501    0  0.00000000000E+00  0.00000000000E+00  0.67788437898E+03  0.67788437900E+03  0.50400001928E-02 0. -1.
       -1   -1    0    0    0  501  0.00000000000E+00  0.00000000000E+00 -0.22031304265E+04  0.22031304265E+04  0.50400001928E-02 0.  1.
    10030    2    1    2    0    0  0.00000000000E+00  0.00000000000E+00 -0.15252460475E+04  0.28810148055E+04  0.24441503235E+04 0.  0.
        4    1    3    3  502    0 -0.21627851024E+03 -0.10723891699E+04 -0.14046529086E+04  0.17804062267E+04  0.12699999809E+01 0.  1.
       -4    1    3    3    0  502  0.21627851024E+03  0.10723891699E+04 -0.12059313891E+03  0.11006085788E+04  0.12699999809E+01 0. -1.
</event>
<event>
 5   0  0.3650620E-05  0.2532843E+04  0.7818609E-02  0.8391378E-01
       -2   -1    0    0    0  501  0.00000000000E+00  0.00000000000E+00  0.99326574496E+03  0.99326574497E+03  0.25500000920E-02 0.  1.
        2   -1    0    0  501    0  0.00000000000E+00  0.00000000000E+00 -0.16146970054E+04  0.16146970054E+04  0.25500000920E-02 0. -1.
    10030    2    1    2    0    0  0.00000000000E+00  0.00000000000E+00 -0.62143126043E+03  0.26079627504E+04  0.25328428486E+04 0.  0.
        3    1    3    3  502    0  0.45258394540E+02 -0.27105334631E+03  0.96219570197E+03  0.10006691851E+04  0.10100000352E+00 0.  1.
       -3    1    3    3    0  502 -0.45258394540E+02  0.27105334631E+03 -0.15836269624E+04  0.16072935653E+04  0.10100000352E+00 0. -1.
</event>
<event>
 5   0  0.1492639E-05  0.2525670E+04  0.7818609E-02  0.8393897E-01
        1   -1    0    0  501    0  0.00000000000E+00  0.00000000000E+00  0.11484012144E+04  0.11484012144E+04  0.50400001928E-02 0. -1.
       -1   -1    0    0    0  501  0.00000000000E+00  0.00000000000E+00 -0.13886714172E+04  0.13886714173E+04  0.50400001928E-02 0.  1.
    10030    2    1    2    0    0  0.00000000000E+00  0.00000000000E+00 -0.24027020282E+03  0.25370726317E+04  0.25256697662E+04 0.  0.
        5    1    3    3  502    0  0.48643783747E+03  0.32568835401E+03 -0.12441306742E+04  0.13749828720E+04  0.46999998093E+01 0.  1.
       -5    1    3    3    0  502 -0.48643783747E+03 -0.32568835401E+03  0.10038604714E+04  0.11620897597E+04  0.46999998093E+01 0. -1.
</event>
<event>
 5   0  0.3650620E-05  0.2505746E+04  0.7818609E-02  0.8400941E-01
       -2   -1    0    0    0  501  0.00000000000E+00  0.00000000000E+00  0.11579795784E+04  0.11579795784E+04  0.25500000920E-02 0.  1.
        2   -1    0    0  501    0  0.00000000000E+00  0.00000000000E+00 -0.13555426025E+04  0.13555426025E+04  0.25500000920E-02 0. -1.
    10030    2    1    2    0    0  0.00000000000E+00  0.00000000000E+00 -0.19756302405E+03  0.25135221809E+04  0.25057459180E+04 0.  0.
        3    1    3    3  502    0 -0.65768773982E+03  0.32336041002E+03 -0.11180922600E+04  0.13368789885E+04  0.10100000352E+00 0. -1.
       -3    1    3    3    0  502  0.65768773982E+03 -0.32336041002E+03  0.92052923594E+03  0.11766431924E+04  0.10100000352E+00 0.  1.
</event>
<event>
 5   0  0.1456876E-05  0.2486227E+04  0.7818609E-02  0.8407909E-01
       -1   -1    0    0    0  501  0.00000000000E+00  0.00000000000E+00  0.11799544154E+04  0.11799544154E+04  0.50400001928E-02 0. -1.
        1   -1    0    0  501    0  0.00000000000E+00  0.00000000000E+00 -0.13096530068E+04  0.13096530069E+04  0.50400001928E-02 0.  1.
    10030    2    1    2    0    0  0.00000000000E+00  0.00000000000E+00 -0.12969859149E+03  0.24896074222E+04  0.24862267379E+04 0.  0.
        1    1    3    3  502    0 -0.91362677710E+03 -0.55565046313E+03 -0.69964309089E+03  0.12778739295E+04  0.50400001928E-02 0.  1.
       -1    1    3    3    0  502  0.91362677710E+03  0.55565046313E+03  0.56994449939E+03  0.12117334927E+04  0.50400001928E-02 0. -1.
</event>
<event>
 5   0  0.1492639E-05  0.2492634E+04  0.7818609E-02  0.8405614E-01
        1   -1    0    0  501    0  0.00000000000E+00  0.00000000000E+00  0.14529895628E+04  0.14529895628E+04  0.50400001928E-02 0. -1.
       -1   -1    0    0    0  501  0.00000000000E+00  0.00000000000E+00 -0.10690417383E+04  0.10690417383E+04  0.50400001928E-02 0.  1.
    10030    2    1    2    0    0  0.00000000000E+00  0.00000000000E+00  0.38394782448E+03  0.25220313011E+04  0.24926343398E+04 0.  0.
        5    1    3    3  502    0  0.31394571983E+03 -0.38325701608E+03  0.13490678880E+04  0.14371687834E+04  0.46999998093E+01 0. -1.
       -5    1    3    3    0  502 -0.31394571983E+03  0.38325701608E+03 -0.96512006356E+03  0.10848625178E+04  0.46999998093E+01 0.  1.
</event>
<event>
 5   0  0.3579097E-05  0.2485624E+04  0.7818609E-02  0.8408125E-01
       -2   -1    0    0    0  501  0.00000000000E+00  0.00000000000E+00  0.12029416383E+04  0.12029416383E+04  0.25500000920E-02 0. -1.
        2   -1    0    0  501    0  0.00000000000E+00  0.00000000000E+00 -0.12840035514E+04  0.12840035514E+04  0.25500000920E-02 0.  1.
    10030    2    1    2    0    0  0.00000000000E+00  0.00000000000E+00 -0.81061913117E+02  0.24869451897E+04  0.24856237332E+04 0.  0.
        5    1    3    3  502    0  0.30409750617E+03  0.41056458632E+03  0.10929970656E+04  0.12065252788E+04  0.46999998093E+01 0. -1.
       -5    1    3    3    0  502 -0.30409750617E+03 -0.41056458632E+03 -0.11740589788E+04  0.12804199110E+04  0.46999998093E+01 0.  1.
</event>
<event>
 5   0  0.1456876E-05  0.2459608E+04  0.7818609E-02  0.8417518E-01
       -1   -1    0    0    0  501  0.00000000000E+00  0.00000000000E+00  0.48064184814E+03  0.48064184817E+03  0.50400001928E-02 0.  1.
        1   -1    0    0  501    0  0.00000000000E+00  0.00000000000E+00 -0.31466622202E+04  0.31466622202E+04  0.50400001928E-02 0. -1.
    10030    2    1    2    0    0  0.00000000000E+00  0.00000000000E+00 -0.26660203721E+04  0.36273040684E+04  0.24596077289E+04 0.  0.
        1    1    3    3  502    0  0.15644065127E+03  0.57921867841E+03  0.25016539557E+03  0.65003898341E+03  0.50400001928E-02 0.  1.
       -1    1    3    3    0  502 -0.15644065127E+03 -0.57921867841E+03 -0.29161857676E+04  0.29772650850E+04  0.50400001928E-02 0. -1.
</event>
<event>
 5   0  0.3579097E-05  0.2502301E+04  0.7818609E-02  0.8402166E-01
        2   -1    0    0  501    0  0.00000000000E+00  0.00000000000E+00  0.17068999061E+04  0.17068999061E+04  0.25500000920E-02 0. -1.
       -2   -1    0    0    0  501  0.00000000000E+00  0.00000000000E+00 -0.91708808463E+03  0.91708808464E+03  0.25500000920E-02 0.  1.
    10030    2    1    2    0    0  0.00000000000E+00  0.00000000000E+00  0.78981182150E+03  0.26239879908E+04  0.25023009936E+04 0.  0.
        5    1    3    3  502    0  0.31735708873E+03  0.30318444197E+02 -0.87377208915E+03  0.93012605791E+03  0.46999998093E+01 0.  1.
       -5    1    3    3    0  502 -0.31735708873E+03 -0.30318444197E+02  0.16635839106E+04  0.16938619329E+04  0.46999998093E+01 0. -1.
</event>
<event>
 5   0  0.1429483E-05  0.2606101E+04  0.7818609E-02  0.8366132E-01
        1   -1    0    0  501    0  0.00000000000E+00  0.00000000000E+00  0.19646596591E+04  0.19646596591E+04  0.50400001928E-02 0. -1.
       -1   -1    0    0    0  501  0.00000000000E+00  0.00000000000E+00 -0.86424167527E+03  0.86424167528E+03  0.50400001928E-02 0.  1.
    10030    2    1    2    0    0  0.00000000000E+00  0.00000000000E+00  0.11004179839E+04  0.28289013344E+04  0.26061011148E+04 0.  0.
        2    1    3    3  502    0  0.13006085632E+04 -0.77559891541E+02  0.57030038022E+03  0.14222660423E+04  0.25500000920E-02 0.  1.
       -2    1    3    3    0  502 -0.13006085632E+04  0.77559891541E+02  0.53011760364E+03  0.14066352921E+04  0.25500000920E-02 0. -1.
</event>
<event>
 5   0  0.1421242E-05  0.2484317E+04  0.7818609E-02  0.8408594E-01
        1   -1    0    0  501    0  0.00000000000E+00  0.00000000000E+00  0.89408371497E+03  0.89408371498E+03  0.50400001928E-02 0. -1.
       -1   -1    0    0    0  501  0.00000000000E+00  0.00000000000E+00 -0.17257416104E+04  0.17257416104E+04  0.50400001928E-02 0.  1.
    10030    2    1    2    0    0  0.00000000000E+00  0.00000000000E+00 -0.83165789545E+03  0.26198253254E+04  0.24843167835E+04 0.  0.
        3    1    3    3  502    0  0.10347689398E+04 -0.18937372746E+03  0.28076869926E+03  0.10887792431E+04  0.10100000352E+00 0. -1.
       -3    1    3    3    0  502 -0.10347689398E+04  0.18937372746E+03 -0.11124265947E+04  0.15310460823E+04  0.10100000352E+00 0.  1.
</event>
<event>
 5   0  0.1492639E-05  0.2513487E+04  0.7818609E-02  0.8398196E-01
       -1   -1    0    0    0  501  0.00000000000E+00  0.00000000000E+00  0.63551082572E+03  0.63551082574E+03  0.50400001928E-02 0. -1.
        1   -1    0    0  501    0  0.00000000000E+00  0.00000000000E+00 -0.24852514350E+04  0.24852514350E+04  0.50400001928E-02 0.  1.
    10030    2    1    2    0    0  0.00000000000E+00  0.00000000000E+00 -0.18497406093E+04  0.31207622607E+04  0.25134869736E+04 0.  0.
        5    1    3    3  502    0 -0.66597849717E+03 -0.48170068033E+03 -0.21052584181E+04  0.22600216815E+04  0.46999998093E+01 0.  1.
       -5    1    3    3    0  502  0.66597849717E+03  0.48170068033E+03  0.25551780879E+03  0.86074057923E+03  0.46999998093E+01 0. -1.
</event>
<event>
 5   0  0.3704241E-05  0.2459208E+04  0.7818609E-02  0.8417664E-01
       -2   -1    0    0    0  501  0.00000000000E+00  0.00000000000E+00  0.89191086205E+03  0.89191086205E+03  0.25500000920E-02 0. -1.
        2   -1    0    0  501    0  0.00000000000E+00  0.00000000000E+00 -0.16951542274E+04  0.16951542274E+04  0.25500000920E-02 0.  1.
    10030    2    1    2    0    0  0.00000000000E+00  0.00000000000E+00 -0.80324336531E+03  0.25870650894E+04  0.24592083834E+04 0.  0.
        2    1    3    3  502    0  0.74940989174E+03  0.40478266494E+03  0.53131242912E+03  0.10038710520E+04  0.25500000920E-02 0. -1.
       -2    1    3    3    0  502 -0.74940989174E+03 -0.40478266494E+03 -0.13345557944E+04  0.15831940374E+04  0.25500000920E-02 0.  1.
</event>
<event>
 5   0  0.3581449E-05  0.2508076E+04  0.7818609E-02  0.8400114E-01
       -2   -1    0    0    0  501  0.00000000000E+00  0.00000000000E+00  0.85883904028E+03  0.85883904028E+03  0.25500000920E-02 0.  1.
        2   -1    0    0  501    0  0.00000000000E+00  0.00000000000E+00 -0.18310903793E+04  0.18310903793E+04  0.25500000920E-02 0. -1.
    10030    2    1    2    0    0  0.00000000000E+00  0.00000000000E+00 -0.97225133905E+03  0.26899294196E+04  0.25080764773E+04 0.  0.
        1    1    3    3  502    0  0.74001210095E+03  0.26299117495E+03 -0.15346785939E+04  0.17239549455E+04  0.50400001928E-02 0. -1.
       -1    1    3    3    0  502 -0.74001210095E+03 -0.26299117495E+03  0.56242725481E+03  0.96597447411E+03  0.50400001928E-02 0.  1.
</event>
<event>
 5   0  0.1456876E-05  0.2519941E+04  0.7818609E-02  0.8395916E-01
        1   -1    0    0  501    0  0.00000000000E+00  0.00000000000E+00  0.13705456193E+04  0.13705456193E+04  0.50400001928E-02 0. -1.
       -1   -1    0    0    0  501  0.00000000000E+00  0.00000000000E+00 -0.11583165480E+04  0.11583165480E+04  0.50400001928E-02 0.  1.
    10030    2    1    2    0    0  0.00000000000E+00  0.00000000000E+00  0.21222907132E+03  0.25288621673E+04  0.25199410077E+04 0.  0.
        1    1    3    3  502    0  0.99725146088E+03  0.94598933808E+02  0.87306238835E+03  0.13287954577E+04  0.50400001928E-02 0. -1.
       -1    1    3    3    0  502 -0.99725146088E+03 -0.94598933808E+02 -0.66083331703E+03  0.12000667096E+04  0.50400001928E-02 0.  1.
</event>
<event>
 5   0  0.1421242E-05  0.2494380E+04  0.7818609E-02  0.8404990E-01
        1   -1    0    0  501    0  0.00000000000E+00  0.00000000000E+00  0.14051600821E+04  0.14051600821E+04  0.50400001928E-02 0.  1.
       -1   -1    0    0    0  501  0.00000000000E+00  0.00000000000E+00 -0.11069793841E+04  0.11069793842E+04  0.50400001928E-02 0. -1.
    10030    2    1    2    0    0  0.00000000000E+00  0.00000000000E+00  0.29818069798E+03  0.25121394663E+04  0.24943802776E+04 0.  0.
        3    1    3    3  502    0 -0.57631403331E+03 -0.80195719917E+03 -0.61804800073E+03  0.11650135431E+04  0.10100000352E+00 0. -1.
       -3    1    3    3    0  502  0.57631403331E+03  0.80195719917E+03  0.91622869870E+03  0.13471259232E+04  0.10100000352E+00 0.  1.
</event>
<event>
 5   0  0.1421242E-05  0.2462587E+04  0.7818609E-02  0.8416437E-01
        1   -1    0    0  501    0  0.00000000000E+00  0.00000000000E+00  0.10197239032E+04  0.10197239032E+04  0.50400001928E-02 0. -1.
       -1   -1    0    0    0  501  0.00000000000E+00  0.00000000000E+00 -0.14867588497E+04  0.14867588497E+04  0.50400001928E-02 0.  1.
    10030    2    1    2    0    0  0.00000000000E+00  0.00000000000E+00 -0.46703494651E+03  0.25064827529E+04  0.24625868816E+04 0.  0.
        3    1    3    3  502    0 -0.30924074578E+03 -0.11758774916E+04 -0.35719162131E+02  0.12163854581E+04  0.10100000352E+00 0.  1.
       -3    1    3    3    0  502  0.30924074578E+03  0.11758774916E+04 -0.43131578438E+03  0.12900972948E+04  0.10100000352E+00 0. -1.
</event>
<event>
 5   0  0.1502886E-05  0.2499356E+04  0.7818609E-02  0.8403215E-01
       -1   -1    0    0    0  501  0.00000000000E+00  0.00000000000E+00  0.65590972973E+03  0.65590972975E+03  0.50400001928E-02 0. -1.
        1   -1    0    0  501    0  0.00000000000E+00  0.00000000000E+00 -0.23809599957E+04  0.23809599957E+04  0.50400001928E-02 0.  1.
    10030    2    1    2    0    0  0.00000000000E+00  0.00000000000E+00 -0.17250502660E+04  0.30368697255E+04  0.24993557789E+04 0.  0.
        4    1    3    3  502    0  0.25419415263E+03 -0.11019545013E+04 -0.15086529686E+04  0.18854585073E+04  0.12699999809E+01 0.  1.
       -4    1    3    3    0  502 -0.25419415263E+03  0.11019545013E+04 -0.21639729743E+03  0.11514112182E+04  0.12699999809E+01 0. -1.
</event>
<event>
 5   0  0.3581449E-05  0.2229381E+04  0.7818609E-02  0.8506297E-01
       -2   -1    0    0    0  501  0.00000000000E+00  0.00000000000E+00  0.10697052173E+04  0.10697052173E+04  0.25500000920E-02 0.  1.
        2   -1    0    0  501    0  0.00000000000E+00  0.00000000000E+00 -0.11615681063E+04  0.11615681063E+04  0.25500000920E-02 0. -1.
    10030    2    1    2    0    0  0.00000000000E+00  0.00000000000E+00 -0.91862889043E+02  0.22312733236E+04  0.22293814959E+04 0.  0.
        1    1    3    3  502    0 -0.86372642167E+03 -0.69796841118E+03 -0.14272043219E+03  0.11196215237E+04  0.50400001928E-02 0. -1.
       -1    1    3    3    0  502  0.86372642167E+03  0.69796841118E+03  0.50857543152E+02  0.11116517999E+04  0.50400001928E-02 0.  1.
</event>
<event>
 5   0  0.3650620E-05  0.2499935E+04  0.7818609E-02  0.8403009E-01
        2   -1    0    0  501    0  0.00000000000E+00  0.00000000000E+00  0.18178221894E+04  0.18178221894E+04  0.25500000920E-02 0.  1.
       -2   -1    0    0    0  501  0.00000000000E+00  0.00000000000E+00 -0.85950043164E+03  0.85950043164E+03  0.25500000920E-02 0. -1.
    10030    2    1    2    0    0  0.00000000000E+00  0.00000000000E+00  0.95832175772E+03  0.26773226210E+04  0.24999351643E+04 0.  0.
        3    1    3    3  502    0  0.27786754046E+03 -0.12027594936E+04  0.26881073607E+03  0.12633685098E+04  0.10100000352E+00 0.  1.
       -3    1    3    3    0  502 -0.27786754046E+03  0.12027594936E+04  0.68951102165E+03  0.14139541112E+04  0.10100000352E+00 0. -1.
</event>
<event>
 5   0  0.1421242E-05  0.2473931E+04  0.7818609E-02  0.8412332E-01
        1   -1    0    0  501    0  0.00000000000E+00  0.00000000000E+00  0.14669622174E+04  0.14669622174E+04  0.50400001928E-02 0. -1.
       -1   -1    0    0    0  501  0.00000000000E+00  0.00000000000E+00 -0.10430287521E+04  0.10430287521E+04  0.50400001928E-02 0.  1.
    10030    2    1    2    0    0  0.00000000000E+00  0.00000000000E+00  0.42393346526E+03  0.25099909695E+04  0.24739310993E+04 0.  0.
        3    1    3    3  502    0 -0.54760654471E+03 -0.22358797649E+03  0.13141806891E+04  0.14411576613E+04  0.10100000352E+00 0. -1.
       -3    1    3    3    0  502  0.54760654471E+03  0.22358797649E+03 -0.89024722380E+03  0.10688333082E+04  0.10100000352E+00 0.  1.
</event>
<event>
 5   0  0.3578670E-05  0.2515146E+04  0.7818609E-02  0.8397610E-01
        2   -1    0    0  501    0  0.00000000000E+00  0.00000000000E+00  0.18487188560E+04  0.18487188560E+04  0.25500000920E-02 0. -1.
       -2   -1    0    0    0  501  0.00000000000E+00  0.00000000000E+00 -0.85545163955E+03  0.85545163956E+03  0.25500000920E-02 0.  1.
    10030    2    1    2    0    0  0.00000000000E+00  0.00000000000E+00  0.99326721645E+03  0.27041704956E+04  0.25151457822E+04 0.  0.
        4    1    3    3  502    0 -0.90371100000E+03 -0.56627403406E+03 -0.21988098229E+03  0.10889027103E+04  0.12699999809E+01 0.  1.
       -4    1    3    3    0  502  0.90371100000E+03  0.56627403406E+03  0.12131481987E+04  0.16152677853E+04  0.12699999809E+01 0. -1.
</event>
<event>
 5   0  0.1421242E-05  0.2492840E+04  0.7818609E-02  0.8405541E-01
       -1   -1    0    0    0  501  0.00000000000E+00  0.00000000000E+00  0.12126486033E+04  0.12126486033E+04  0.50400001928E-02 0.  1.
        1   -1    0    0  501    0  0.00000000000E+00  0.00000000000E+00 -0.12811316573E+04  0.12811316573E+04  0.50400001928E-02 0. -1.
    10030    2    1    2    0    0  0.00000000000E+00  0.00000000000E+00 -0.68483054037E+02  0.24937802607E+04  0.24928397581E+04 0.  0.
        3    1    3    3  502    0 -0.99342514946E+02  0.49008500760E+03 -0.11763860105E+04  0.12782551803E+04  0.10100000352E+00 0. -1.
       -3    1    3    3    0  502  0.99342514946E+02 -0.49008500760E+03  0.11079029565E+04  0.12155250804E+04  0.10100000352E+00 0.  1.
</event>
<event>
 5   0  0.1421242E-05  0.2485626E+04  0.7818609E-02  0.8408124E-01
       -1   -1    0    0    0  501  0.00000000000E+00  0.00000000000E+00  0.11556585388E+04  0.11556585388E+04  0.50400001928E-02 0. -1.
        1   -1    0    0  501    0  0.00000000000E+00  0.00000000000E+00 -0.13365399775E+04  0.13365399775E+04  0.50400001928E-02 0.  1.
    10030    2    1    2    0    0  0.00000000000E+00  0.00000000000E+00 -0.18088143872E+03  0.24921985164E+04  0.24856257462E+04 0.  0.
        3    1    3    3  502    0 -0.11148944862E+04  0.33255293045E+03 -0.52863489681E+03  0.12779029820E+04  0.10100000352E+00 0.  1.
       -3    1    3    3    0  502  0.11148944862E+04 -0.33255293045E+03  0.34775345808E+03  0.12142955344E+04  0.10100000352E+00 0. -1.
</event>
<event>
 5   0  0.3579097E-05  0.2519652E+04  0.7818609E-02  0.8396018E-01
        2   -1    0    0  501    0  0.00000000000E+00  0.00000000000E+00  0.16323479671E+04  0.16323479671E+04  0.25500000920E-02 0. -1.
       -2   -1    0    0    0  501  0.00000000000E+00  0.00000000000E+00 -0.97231843481E+03  0.97231843482E+03  0.25500000920E-02 0.  1.
    10030    2    1    2    0    0  0.00000000000E+00  0.00000000000E+00  0.66002953229E+03  0.26046664019E+04  0.25196523732E+04 0.  0.
        5    1    3    3  502    0  0.43121433561E+03 -0.11828645893E+04  0.28349081516E+03  0.12905439056E+04  0.46999998093E+01 0. -1.
       -5    1    3    3    0  502 -0.43121433561E+03  0.11828645893E+04  0.37653871712E+03  0.13141224963E+04  0.46999998093E+01 0.  1.
</event>
<event>
 5   0  0.1502886E-05  0.2486799E+04  0.7818609E-02  0.8407704E-01
        1   -1    0    0  501    0  0.00000000000E+00  0.00000000000E+00  0.20447131925E+04  0.20447131925E+04  0.50400001928E-02 0.  1.
       -1   -1    0    0    0  501  0.00000000000E+00  0.00000000000E+00 -0.75611691918E+03  0.75611691920E+03  0.50400001928E-02 0. -1.
    10030    2    1    2    0    0  0.00000000000E+00  0.00000000000E+00  0.12885962733E+04  0.28008301117E+04  0.24867989382E+04 0.  0.
        4    1    3    3  502    0  0.11112624796E+04 -0.54147718061E+03  0.49344905188E+03  0.13310129284E+04  0.12699999809E+01 0. -1.
       -4    1    3    3    0  502 -0.11112624796E+04  0.54147718061E+03  0.79514722147E+03  0.14698171834E+04  0.12699999809E+01 0.  1.
</event>
<event>
 5   0  0.1421242E-05  0.2296163E+04  0.7818609E-02  0.8479435E-01
        1   -1    0    0  501    0  0.00000000000E+00  0.00000000000E+00  0.11033814975E+04  0.11033814975E+04  0.50400001928E-02 0. -1.
       -1   -1    0    0    0  501  0.00000000000E+00  0.00000000000E+00 -0.11945925996E+04  0.11945925996E+04  0.50400001928E-02 0.  1.
    10030    2    1    2    0    0  0.00000000000E+00  0.00000000000E+00 -0.91211102049E+02  0.22979740971E+04  0.22961632097E+04 0.  0.
        3    1    3    3  502    0  0.50878807516E+03 -0.36738011457E+03  0.91653598160E+03  0.11107977628E+04  0.10100000352E+00 0. -1.
       -3    1    3    3    0  502 -0.50878807516E+03  0.36738011457E+03 -0.10077470836E+04  0.11871763343E+04  0.10100000352E+00 0.  1.
</event>
<event>
 5   0  0.3704241E-05  0.2371197E+04  0.7818609E-02  0.8450366E-01
       -2   -1    0    0    0  501  0.00000000000E+00  0.00000000000E+00  0.52355730894E+03  0.52355730894E+03  0.25500000920E-02 0. -1.
        2   -1    0    0  501    0  0.00000000000E+00  0.00000000000E+00 -0.26847936589E+04  0.26847936589E+04  0.25500000920E-02 0.  1.
    10030    2    1    2    0    0  0.00000000000E+00  0.00000000000E+00 -0.21612363499E+04  0.32083509678E+04  0.23711966119E+04 0.  0.
        2    1    3    3  502    0 -0.82158336797E+03 -0.62606375715E+03 -0.29318375969E+03  0.10737372935E+04  0.25500000920E-02 0. -1.
       -2    1    3    3    0  502  0.82158336797E+03  0.62606375715E+03 -0.18680525903E+04  0.21346136743E+04  0.25500000920E-02 0.  1.
</event>
<event>
 5   0  0.1456876E-05  0.2526152E+04  0.7818609E-02  0.8393728E-01
        1   -1    0    0  501    0  0.00000000000E+00  0.00000000000E+00  0.13677640892E+04  0.13677640892E+04  0.50400001928E-02 0. -1.
       -1   -1    0    0    0  501  0.00000000000E+00  0.00000000000E+00 -0.11664006615E+04  0.11664006615E+04  0.50400001928E-02 0.  1.
    10030    2    1    2    0    0  0.00000000000E+00  0.00000000000E+00  0.20136342770E+03  0.25341647507E+04  0.25261519657E+04 0.  0.
        1    1    3    3  502    0 -0.50243128348E+03 -0.83940148301E+03 -0.70080739373E+03  0.12033964631E+04  0.50400001928E-02 0.  1.
       -1    1    3    3    0  502  0.50243128348E+03  0.83940148301E+03  0.90217082144E+03  0.13307682876E+04  0.50400001928E-02 0. -1.
</event>
<event>
 5   0  0.3581449E-05  0.2553668E+04  0.7818609E-02  0.8384112E-01
       -2   -1    0    0    0  501  0.00000000000E+00  0.00000000000E+00  0.93929717971E+03  0.93929717972E+03  0.25500000920E-02 0.  1.
        2   -1    0    0  501    0  0.00000000000E+00  0.00000000000E+00 -0.17356649581E+04  0.17356649581E+04  0.25500000920E-02 0. -1.
    10030    2    1    2    0    0  0.00000000000E+00  0.00000000000E+00 -0.79636777843E+03  0.26749621379E+04  0.25536681070E+04 0.  0.
        1    1    3    3  502    0 -0.70910845012E+03 -0.10094334161E+04 -0.53121803961E+02  0.12347520163E+04  0.50400001928E-02 0.  1.
       -1    1    3    3    0  502  0.70910845012E+03  0.10094334161E+04 -0.74324597447E+03  0.14402101216E+04  0.50400001928E-02 0. -1.
</event>
<event>
 5   0  0.1429483E-05  0.2492385E+04  0.7818609E-02  0.8405704E-01
        1   -1    0    0  501    0  0.00000000000E+00  0.00000000000E+00  0.18534570373E+04  0.18534570373E+04  0.50400001928E-02 0. -1.
       -1   -1    0    0    0  501  0.00000000000E+00  0.00000000000E+00 -0.83789110383E+03  0.83789110385E+03  0.50400001928E-02 0.  1.
    10030    2    1    2    0    0  0.00000000000E+00  0.00000000000E+00  0.10155659335E+04  0.26913481412E+04  0.24923845313E+04 0.  0.
        2    1    3    3  502    0 -0.24758608729E+03  0.54320707500E+03  0.16890100356E+04  0.17914038342E+04  0.25500000920E-02 0. -1.
       -2    1    3    3    0  502  0.24758608729E+03 -0.54320707500E+03 -0.67344410210E+03  0.89994430695E+03  0.25500000920E-02 0.  1.
</event>
<event>
 5   0  0.1502886E-05  0.2488873E+04  0.7818609E-02  0.8406960E-01
       -1   -1    0    0    0  501  0.00000000000E+00  0.00000000000E+00  0.78845528029E+03  0.78845528030E+03  0.50400001928E-02 0. -1.
        1   -1    0    0  501    0  0.00000000000E+00  0.00000000000E+00 -0.19641216152E+04  0.19641216152E+04  0.50400001928E-02 0.  1.
    10030    2    1    2    0    0  0.00000000000E+00  0.00000000000E+00 -0.11756663349E+04  0.27525768955E+04  0.24888728844E+04 0.  0.
        4    1    3    3  502    0 -0.59235236327E+03 -0.62835078659E+03 -0.15788279564E+04  0.17995569905E+04  0.12699999809E+01 0.  1.
       -4    1    3    3    0  502  0.59235236327E+03  0.62835078659E+03  0.40316162153E+03  0.95301990496E+03  0.12699999809E+01 0. -1.
</event>
<event>
 5   0  0.3650620E-05  0.2461603E+04  0.7818609E-02  0.8416794E-01
       -2   -1    0    0    0  501  0.00000000000E+00  0.00000000000E+00  0.16601578264E+04  0.16601578264E+04  0.25500000920E-02 0. -1.
        2   -1    0    0  501    0  0.00000000000E+00  0.00000000000E+00 -0.91248702381E+03  0.91248702382E+03  0.25500000920E-02 0.  1.
    10030    2    1    2    0    0  0.00000000000E+00  0.00000000000E+00  0.74767080255E+03  0.25726448502E+04  0.24616031151E+04 0.  0.
        3    1    3    3  502    0 -0.17790024234E+03 -0.12088609908E+04  0.52842357223E+03  0.13312493655E+04  0.10100000352E+00 0.  1.
       -3    1    3    3    0  502  0.17790024234E+03  0.12088609908E+04  0.21924723032E+03  0.12413954847E+04  0.10100000352E+00 0. -1.
</event>
<event>
 5   0  0.1421242E-05  0.2497743E+04  0.7818609E-02  0.8403790E-01
        1   -1    0    0  501    0  0.00000000000E+00  0.00000000000E+00  0.18672470632E+04  0.18672470632E+04  0.50400001928E-02 0. -1.
       -1   -1    0    0    0  501  0.00000000000E+00  0.00000000000E+00 -0.83528342208E+03  0.83528342210E+03  0.50400001928E-02 0.  1.
    10030    2    1    2    0    0  0.00000000000E+00  0.00000000000E+00  0.10319636412E+04  0.27025304853E+04  0.24977433951E+04 0.  0.
        3    1    3    3  502    0 -0.36043095690E+03  0.59447654753E+03 -0.60656148450E+03  0.92262109499E+03  0.10100000352E+00 0.  1.
       -3    1    3    3    0  502  0.36043095690E+03 -0.59447654753E+03  0.16385251257E+04  0.17799093903E+04  0.10100000352E+00 0. -1.
</event>
<event>
 5   0  0.3704241E-05  0.2501452E+04  0.7818609E-02  0.8402468E-01
       -2   -1    0    0    0  501  0.00000000000E+00  0.00000000000E+00  0.15676863194E+04  0.15676863194E+04  0.25500000920E-02 0.  1.
        2   -1    0    0  501    0  0.00000000000E+00  0.00000000000E+00 -0.99785006560E+03  0.99785006561E+03  0.25500000920E-02 0. -1.
    10030    2    1    2    0    0  0.00000000000E+00  0.00000000000E+00  0.56983625376E+03  0.25655363850E+04  0.25014522955E+04 0.  0.
        2    1    3    3  502    0 -0.30230032600E+03 -0.11665821152E+04  0.62818121383E+03  0.13590110213E+04  0.25500000920E-02 0.  1.
       -2    1    3    3    0  502  0.30230032600E+03  0.11665821152E+04 -0.58344960070E+02  0.12065253636E+04  0.25500000920E-02 0. -1.
</event>
<event>
 5   0  0.3650620E-05  0.2497161E+04  0.7818609E-02  0.8403998E-01
        2   -1    0    0  501    0  0.00000000000E+00  0.00000000000E+00  0.16621476946E+04  0.16621476946E+04  0.25500000920E-02 0. -1.
       -2   -1    0    0    0  501  0.00000000000E+00  0.00000000000E+00 -0.93791504092E+03  0.93791504092E+03  0.25500000920E-02 0.  1.
    10030    2    1    2    0    0  0.00000000000E+00  0.00000000000E+00  0.72423265368E+03  0.26000627355E+04  0.24971610465E+04 0.  0.
        3    1    3    3  502    0  0.10605499467E+04  0.56171920865E+03  0.72077966316E+03  0.13999349956E+04  0.10100000352E+00 0. -1.
       -3    1    3    3    0  502 -0.10605499467E+04 -0.56171920865E+03  0.34529905192E+01  0.12001277399E+04  0.10100000352E+00 0.  1.
</event>
<event>
 5   0  0.3704241E-05  0.1953664E+04  0.7818609E-02  0.8628596E-01
        2   -1    0    0  501    0  0.00000000000E+00  0.00000000000E+00  0.14096709875E+04  0.14096709876E+04  0.25500000920E-02 0.  1.
       -2   -1    0    0    0  501  0.00000000000E+00  0.00000000000E+00 -0.67689575468E+03  0.67689575469E+03  0.25500000920E-02 0. -1.
    10030    2    1    2    0    0  0.00000000000E+00  0.00000000000E+00  0.73277523287E+03  0.20865667422E+04  0.19536635401E+04 0.  0.
        2    1    3    3  502    0  0.50501794862E+03 -0.70054045086E+03 -0.12117638489E+03  0.87205720453E+03  0.25500000920E-02 0. -1.
       -2    1    3    3    0  502 -0.50501794862E+03  0.70054045086E+03  0.85395161775E+03  0.12145095377E+04  0.25500000920E-02 0.  1.
</event>
<event>
 5   0  0.3578670E-05  0.2446519E+04  0.7818609E-02  0.8422290E-01
        2   -1    0    0  501    0  0.00000000000E+00  0.00000000000E+00  0.14683213890E+04  0.14683213890E+04  0.25500000920E-02 0.  1.
       -2   -1    0    0    0  501  0.00000000000E+00  0.00000000000E+00 -0.10190984939E+04  0.10190984939E+04  0.25500000920E-02 0. -1.
    10030    2    1    2    0    0  0.00000000000E+00  0.00000000000E+00  0.44922289509E+03  0.24874198830E+04  0.24465192549E+04 0.  0.
        4    1    3    3  502    0 -0.66854830266E+03  0.54924314095E+03  0.11037859524E+04  0.14024870418E+04  0.12699999809E+01 0.  1.
       -4    1    3    3    0  502  0.66854830266E+03 -0.54924314095E+03 -0.65456305732E+03  0.10849328411E+04  0.12699999809E+01 0. -1.
</event>
<event>
 5   0  0.1492639E-05  0.2563184E+04  0.7818609E-02  0.8380815E-01
       -1   -1    0    0    0  501  0.00000000000E+00  0.00000000000E+00  0.17359277429E+04  0.17359277429E+04  0.50400001928E-02 0. -1.
        1   -1    0    0  501    0  0.00000000000E+00  0.00000000000E+00 -0.94616713630E+03  0.94616713631E+03  0.50400001928E-02 0.  1.
    10030    2    1    2    0    0  0.00000000000E+00  0.00000000000E+00  0.78976060658E+03  0.26820948792E+04  0.25631837869E+04 0.  0.
        5    1    3    3  502    0 -0.31172680202E+03  0.83449743460E+03 -0.56921876892E+03  0.10571620804E+04  0.46999998093E+01 0.  1.
       -5    1    3    3    0  502  0.31172680202E+03 -0.83449743460E+03  0.13589793755E+04  0.16249327988E+04  0.46999998093E+01 0. -1.
</event>
<event>
 5   0  0.1456876E-05  0.2496716E+04  0.7818609E-02  0.8404156E-01
       -1   -1    0    0    0  501  0.00000000000E+00  0.00000000000E+00  0.73383396116E+03  0.73383396118E+03  0.50400001928E-02 0. -1.
        1   -1    0    0  501    0  0.00000000000E+00  0.00000000000E+00 -0.21236376359E+04  0.21236376359E+04  0.50400001928E-02 0.  1.
    10030    2    1    2    0    0  0.00000000000E+00  0.00000000000E+00 -0.13898036748E+04  0.28574715971E+04  0.24967157776E+04 0.  0.
        1    1    3    3  502    0  0.22951424309E+03 -0.12147830939E+04 -0.49659511348E+03  0.13322843014E+04  0.50400001928E-02 0. -1.
       -1    1    3    3    0  502 -0.22951424309E+03  0.12147830939E+04 -0.89320856129E+03  0.15251872957E+04  0.50400001928E-02 0.  1.
</event>
<event>
 5   0  0.3704241E-05  0.2397705E+04  0.7818609E-02  0.8440363E-01
        2   -1    0    0  501    0  0.00000000000E+00  0.00000000000E+00  0.12913237207E+04  0.12913237207E+04  0.25500000920E-02 0.  1.
       -2   -1    0    0    0  501  0.00000000000E+00  0.00000000000E+00 -0.11130032957E+04  0.11130032957E+04  0.25500000920E-02 0. -1.
    10030    2    1    2    0    0  0.00000000000E+00  0.00000000000E+00  0.17832042505E+03  0.24043270164E+04  0.23977052003E+04 0.  0.
        2    1    3    3  502    0  0.25023084029E+02 -0.11551790316E+04 -0.23138305966E+03  0.11783899482E+04  0.25500000920E-02 0. -1.
       -2    1    3    3    0  502 -0.25023084029E+02  0.11551790316E+04  0.40970348471E+03  0.12259370682E+04  0.25500000920E-02 0.  1.
</event>
<event>
 5   0  0.3704241E-05  0.2519782E+04  0.7818609E-02  0.8395972E-01
        2   -1    0    0  501    0  0.00000000000E+00  0.00000000000E+00  0.22774747209E+04  0.22774747209E+04  0.25500000920E-02 0.  1.
       -2   -1    0    0    0  501  0.00000000000E+00  0.00000000000E+00 -0.69696750363E+03  0.69696750363E+03  0.25500000920E-02 0. -1.
    10030    2    1    2    0    0  0.00000000000E+00  0.00000000000E+00  0.15805072172E+04  0.29744422245E+04  0.25197824277E+04 0.  0.
        2    1    3    3  502    0 -0.26714445228E+03 -0.90595347333E+03 -0.19398382901E+03  0.96423419362E+03  0.25500000920E-02 0. -1.
       -2    1    3    3    0  502  0.26714445228E+03  0.90595347333E+03  0.17744910462E+04  0.20102080309E+04  0.25500000920E-02 0.  1.
</event>
<event>
 5   0  0.3650620E-05  0.2534141E+04  0.7818609E-02  0.8390923E-01
       -2   -1    0    0    0  501  0.00000000000E+00  0.00000000000E+00  0.89378471457E+03  0.89378471457E+03  0.25500000920E-02 0.  1.
        2   -1    0    0  501    0  0.00000000000E+00  0.00000000000E+00 -0.17962574350E+04  0.17962574350E+04  0.25500000920E-02 0. -1.
    10030    2    1    2    0    0  0.00000000000E+00  0.00000000000E+00 -0.90247272040E+03  0.26900421496E+04  0.25341408318E+04 0.  0.
        3    1    3    3  502    0  0.74945745359E+03 -0.78932776848E+03  0.23731540470E+03  0.11140212800E+04  0.10100000352E+00 0.  1.
       -3    1    3    3    0  502 -0.74945745359E+03  0.78932776848E+03 -0.11397881251E+04  0.15760208695E+04  0.10100000352E+00 0. -1.
</event>
<event>
 5   0  0.1429483E-05  0.2461239E+04  0.7818609E-02  0.8416926E-01
        1   -1    0    0  501    0  0.00000000000E+00  0.00000000000E+00  0.24744238415E+04  0.24744238415E+04  0.50400001928E-02 0.  1.
       -1   -1    0    0    0  501  0.00000000000E+00  0.00000000000E+00 -0.61203091714E+03  0.61203091716E+03  0.50400001928E-02 0. -1.
    10030    2    1    2    0    0  0.00000000000E+00  0.00000000000E+00  0.18623929243E+04  0.30864547587E+04  0.24612386257E+04 0.  0.
        2    1    3    3  502    0 -0.25787644394E+03 -0.10608306564E+04  0.21897876295E+03  0.11134691916E+04  0.25500000920E-02 0. -1.
       -2    1    3    3    0  502  0.25787644394E+03  0.10608306564E+04  0.16434141614E+04  0.19729855671E+04  0.25500000920E-02 0.  1.
</event>
<event>
 5   0  0.1456876E-05  0.2424641E+04  0.7818609E-02  0.8430336E-01
        1   -1    0    0  501    0  0.00000000000E+00  0.00000000000E+00  0.17643301210E+04  0.17643301210E+04  0.50400001928E-02 0. -1.
       -1   -1    0    0    0  501  0.00000000000E+00  0.00000000000E+00 -0.83301905892E+03  0.83301905893E+03  0.50400001928E-02 0.  1.
    10030    2    1    2    0    0  0.00000000000E+00  0.00000000000E+00  0.93131106208E+03  0.25973491799E+04  0.24246406885E+04 0.  0.
        1    1    3    3  502    0  0.68889286930E+03  0.80791203272E+03 -0.16119777763E+03  0.10739087305E+04  0.50400001928E-02 0.  1.
       -1    1    3    3    0  502 -0.68889286930E+03 -0.80791203272E+03  0.10925088397E+04  0.15234404494E+04  0.50400001928E-02 0. -1.
</event>
<event>
 5   0  0.3704241E-05  0.2479074E+04  0.7818609E-02  0.8410479E-01
       -2   -1    0    0    0  501  0.00000000000E+00  0.00000000000E+00  0.10714468222E+04  0.10714468222E+04  0.25500000920E-02 0. -1.
        2   -1    0    0  501    0  0.00000000000E+00  0.00000000000E+00 -0.14339969914E+04  0.14339969914E+04  0.25500000920E-02 0.  1.
    10030    2    1    2    0    0  0.00000000000E+00  0.00000000000E+00 -0.36255016913E+03  0.25054438136E+04  0.24790736330E+04 0.  0.
        2    1    3    3  502    0 -0.15804479214E+02 -0.18103315796E+03  0.10579113903E+04  0.10734054665E+04  0.25500000920E-02 0. -1.
       -2    1    3    3    0  502  0.15804479214E+02  0.18103315796E+03 -0.14204615594E+04  0.14320383471E+04  0.25500000920E-02 0.  1.
</event>
<event>
 5   0  0.3579097E-05  0.2502167E+04  0.7818609E-02  0.8402214E-01
       -2   -1    0    0    0  501  0.00000000000E+00  0.00000000000E+00  0.11837748235E+04  0.11837748235E+04  0.25500000920E-02 0.  1.
        2   -1    0    0  501    0  0.00000000000E+00  0.00000000000E+00 -0.13222194849E+04  0.13222194849E+04  0.25500000920E-02 0. -1.
    10030    2    1    2    0    0  0.00000000000E+00  0.00000000000E+00 -0.13844466141E+03  0.25059943084E+04  0.25021671706E+04 0.  0.
        5    1    3    3  502    0  0.10708511617E+04  0.48834118855E+03  0.35567734874E+03  0.12295234009E+04  0.46999998093E+01 0.  1.
       -5    1    3    3    0  502 -0.10708511617E+04 -0.48834118855E+03 -0.49412201015E+03  0.12764709076E+04  0.46999998093E+01 0. -1.
</event>
<event>
 5   0  0.1429483E-05  0.2511969E+04  0.7818609E-02  0.8398734E-01
       -1   -1    0    0    0  501  0.00000000000E+00  0.00000000000E+00  0.85473521053E+03  0.85473521054E+03  0.50400001928E-02 0.  1.
        1   -1    0    0  501    0  0.00000000000E+00  0.00000000000E+00 -0.18455966956E+04  0.18455966956E+04  0.50400001928E-02 0. -1.
    10030    2    1    2    0    0  0.00000000000E+00  0.00000000000E+00 -0.99086148508E+03  0.27003319062E+04  0.25119685350E+04 0.  0.
        2    1    3    3  502    0  0.11973363076E+04  0.23903545562E+03 -0.81203986238E+03  0.14663427023E+04  0.25500000920E-02 0. -1.
       -2    1    3    3    0  502 -0.11973363076E+04 -0.23903545562E+03 -0.17882162270E+03  0.12339892039E+04  0.25500000920E-02 0.  1.
</event>
<event>
 5   0  0.1492639E-05  0.2418914E+04  0.7818609E-02  0.8432456E-01
       -1   -1    0    0    0  501  0.00000000000E+00  0.00000000000E+00  0.15350219628E+04  0.15350219628E+04  0.50400001928E-02 0. -1.
        1   -1    0    0  501    0  0.00000000000E+00  0.00000000000E+00 -0.95294154747E+03  0.95294154748E+03  0.50400001928E-02 0.  1.
    10030    2    1    2    0    0  0.00000000000E+00  0.00000000000E+00  0.58208041535E+03  0.24879635103E+04  0.24189139751E+04 0.  0.
        5    1    3    3  502    0  0.35283775442E+03 -0.64323478430E+03 -0.69792592682E+03  0.10126046405E+04  0.46999998093E+01 0.  1.
       -5    1    3    3    0  502 -0.35283775442E+03  0.64323478430E+03  0.12800063422E+04  0.14753588698E+04  0.46999998093E+01 0. -1.
</event>
<event>
 5   0  0.3578670E-05  0.2614310E+04  0.7818609E-02  0.8363357E-01
       -2   -1    0    0    0  501  0.00000000000E+00  0.00000000000E+00  0.11188120997E+04  0.11188120997E+04  0.25500000920E-02 0. -1.
        2   -1    0    0  501    0  0.00000000000E+00  0.00000000000E+00 -0.15272038717E+04  0.15272038717E+04  0.25500000920E-02 0.  1.
    10030    2    1    2    0    0  0.00000000000E+00  0.00000000000E+00 -0.40839177200E+03  0.26460159714E+04  0.26143099819E+04 0.  0.
        4    1    3    3  502    0 -0.11193492473E+04 -0.37837605535E+03 -0.77003002082E+03  0.14103400379E+04  0.12699999809E+01 0.  1.
       -4    1    3    3    0  502  0.11193492473E+04  0.37837605535E+03  0.36163824882E+03  0.12356759335E+04  0.12699999809E+01 0. -1.
</event>
<event>
 5   0  0.1421242E-05  0.2526214E+04  0.7818609E-02  0.8393706E-01
        1   -1    0    0  501    0  0.00000000000E+00  0.00000000000E+00  0.10071400729E+04  0.10071400730E+04  0.50400001928E-02 0.  1.
       -1   -1    0    0    0  501  0.00000000000E+00  0.00000000000E+00 -0.15841288606E+04  0.15841288606E+04  0.50400001928E-02 0. -1.
    10030    2    1    2    0    0  0.00000000000E+00  0.00000000000E+00 -0.57698878762E+03  0.25912689335E+04  0.25262142872E+04 0.  0.
        3    1    3    3  502    0  0.10758847556E+04  0.57089216263E+03  0.54778291788E+02  0.12191991388E+04  0.10100000352E+00 0.  1.
       -3    1    3    3    0  502 -0.10758847556E+04 -0.57089216263E+03 -0.63176707941E+03  0.13720697947E+04  0.10100000352E+00 0. -1.
</event>
<event>
 5   0  0.1429483E-05  0.2511409E+04  0.7818609E-02  0.8398932E-01
        1   -1    0    0  501    0  0.00000000000E+00  0.00000000000E+00  0.27411409413E+04  0.27411409413E+04  0.50400001928E-02 0.  1.
       -1   -1    0    0    0  501  0.00000000000E+00  0.00000000000E+00 -0.57523264162E+03  0.57523264164E+03  0.50400001928E-02 0. -1.
    10030    2    1    2    0    0  0.00000000000E+00  0.00000000000E+00  0.21659082997E+04  0.33163735830E+04  0.25114089629E+04 0.  0.
        2    1    3    3  502    0 -0.89167566315E+03  0.27556749068E+03 -0.26419522012E+02  0.93365996022E+03  0.25500000920E-02 0. -1.
       -2    1    3    3    0  502  0.89167566315E+03 -0.27556749068E+03  0.21923278217E+04  0.23827136227E+04  0.25500000920E-02 0.  1.
</event>
<event>
 5   0  0.3704241E-05  0.2479887E+04  0.7818609E-02  0.8410186E-01
        2   -1    0    0  501    0  0.00000000000E+00  0.00000000000E+00  0.16978196118E+04  0.16978196118E+04  0.25500000920E-02 0. -1.
       -2   -1    0    0    0  501  0.00000000000E+00  0.00000000000E+00 -0.90554959704E+03  0.90554959704E+03  0.25500000920E-02 0.  1.
    10030    2    1    2    0    0  0.00000000000E+00  0.00000000000E+00  0.79227001477E+03  0.26033692088E+04  0.24798869856E+04 0.  0.
        2    1    3    3  502    0  0.65606497928E+03  0.51637752403E+03 -0.56624158615E+03  0.10088094658E+04  0.25500000920E-02 0.  1.
       -2    1    3    3    0  502 -0.65606497928E+03 -0.51637752403E+03  0.13585116009E+04  0.15945597431E+04  0.25500000920E-02 0. -1.
</event>
<event>
 5   0  0.3579097E-05  0.2505945E+04  0.7818609E-02  0.8400871E-01
       -2   -1    0    0    0  501  0.00000000000E+00  0.00000000000E+00  0.54226424630E+03  0.54226424630E+03  0.25500000920E-02 0. -1.
        2   -1    0    0  501    0  0.00000000000E+00  0.00000000000E+00 -0.28951574744E+04  0.28951574744E+04  0.25500000920E-02 0.  1.
    10030    2    1    2    0    0  0.00000000000E+00  0.00000000000E+00 -0.23528932281E+04  0.34374217207E+04  0.25059452395E+04 0.  0.
        5    1    3    3  502    0 -0.44467824920E+03  0.89992523869E+03 -0.14783663544E+03  0.10146338952E+04  0.46999998093E+01 0. -1.
       -5    1    3    3    0  502  0.44467824920E+03 -0.89992523869E+03 -0.22050565927E+04  0.24227878255E+04  0.46999998093E+01 0.  1.
</event>
<event>
 5   0  0.1502886E-05  0.2454328E+04  0.7818609E-02  0.8419439E-01
       -1   -1    0    0    0  501  0.00000000000E+00  0.00000000000E+00  0.11000287033E+04  0.11000287034E+04  0.50400001928E-02 0.  1.
        1   -1    0    0  501    0  0.00000000000E+00  0.00000000000E+00 -0.13689933563E+04  0.13689933563E+04  0.50400001928E-02 0. -1.
    10030    2    1    2    0    0  0.00000000000E+00  0.00000000000E+00 -0.26896465298E+03  0.24690220597E+04  0.24543284105E+04 0.  0.
        4    1    3    3  502    0  0.93191296846E+03  0.33303907616E+03 -0.86446671939E+03  0.13140323926E+04  0.12699999809E+01 0. -1.
       -4    1    3    3    0  502 -0.93191296846E+03 -0.33303907616E+03  0.59550206642E+03  0.11549896671E+04  0.12699999809E+01 0.  1.
</event>
<event>
 5   0  0.3579097E-05  0.2822443E+04  0.7818609E-02  0.8296334E-01
       -2   -1    0    0    0  501  0.00000000000E+00  0.00000000000E+00  0.18450292675E+04  0.18450292675E+04  0.25500000920E-02 0. -1.
        2   -1    0    0  501    0  0.00000000000E+00  0.00000000000E+00 -0.10794117694E+04  0.10794117694E+04  0.25500000920E-02 0.  1.
    10030    2    1    2    0    0  0.00000000000E+00  0.00000000000E+00  0.76561749811E+03  0.29244410369E+04  0.28224431305E+04 0.  0.
        5    1    3    3  502    0  0.12912430161E+04 -0.19308068968E+03  0.93783028988E+03  0.16075249367E+04  0.46999998093E+01 0. -1.
       -5    1    3    3    0  502 -0.12912430161E+04  0.19308068968E+03 -0.17221279176E+03  0.13169161003E+04  0.46999998093E+01 0.  1.
</event>
<event>
 5   0  0.1421242E-05  0.2521058E+04  0.7818609E-02  0.8395522E-01
       -1   -1    0    0    0  501  0.00000000000E+00  0.00000000000E+00  0.72150957092E+03  0.72150957094E+03  0.50400001928E-02 0. -1.
        1   -1    0    0  501    0  0.00000000000E+00  0.00000000000E+00 -0.22022344223E+04  0.22022344223E+04  0.50400001928E-02 0.  1.
    10030    2    1    2    0    0  0.00000000000E+00  0.00000000000E+00 -0.14807248514E+04  0.29237439933E+04  0.25210578836E+04 0.  0.
        3    1    3    3  502    0 -0.36451070511E+03 -0.13605288993E+03  0.65013030848E+03  0.75765946916E+03  0.10100000352E+00 0. -1.
       -3    1    3    3    0  502  0.36451070511E+03  0.13605288993E+03 -0.21308551599E+04  0.21660845241E+04  0.10100000352E+00 0.  1.
</event>
<event>
 5   0  0.3704241E-05  0.2303593E+04  0.7818609E-02  0.8476506E-01
       -2   -1    0    0    0  501  0.00000000000E+00  0.00000000000E+00  0.77223974488E+03  0.77223974488E+03  0.25500000920E-02 0.  1.
        2   -1    0    0  501    0  0.00000000000E+00  0.00000000000E+00 -0.17179059976E+04  0.17179059976E+04  0.25500000920E-02 0. -1.
    10030    2    1    2    0    0  0.00000000000E+00  0.00000000000E+00 -0.94566625274E+03  0.24901457425E+04  0.23035930972E+04 0.  0.
        2    1    3    3  502    0  0.71779301896E+03  0.16649607783E+03  0.48411955807E+03  0.88165725115E+03  0.25500000920E-02 0. -1.
       -2    1    3    3    0  502 -0.71779301896E+03 -0.16649607783E+03 -0.14297858108E+04  0.16084884913E+04  0.25500000920E-02 0.  1.
</event>
<event>
 5   0  0.3650620E-05  0.2487380E+04  0.7818609E-02  0.8407495E-01
       -2   -1    0    0    0  501  0.00000000000E+00  0.00000000000E+00  0.91386440984E+03  0.91386440984E+03  0.25500000920E-02 0.  1.
        2   -1    0    0  501    0  0.00000000000E+00  0.00000000000E+00 -0.16925541585E+04  0.16925541585E+04  0.25500000920E-02 0. -1.
    10030    2    1    2    0    0  0.00000000000E+00  0.00000000000E+00 -0.77868974869E+03  0.26064185684E+04  0.24873801537E+04 0.  0.
        3    1    3    3  502    0 -0.38887670055E+03 -0.92696885863E+03  0.37800459682E+03  0.10739570934E+04  0.10100000352E+00 0.  1.
       -3    1    3    3    0  502  0.38887670055E+03  0.92696885863E+03 -0.11566943455E+04  0.15324614750E+04  0.10100000352E+00 0. -1.
</event>
<event>
 5   0  0.3581449E-05  0.2306209E+04  0.7818609E-02  0.8475477E-01
       -2   -1    0    0    0  501  0.00000000000E+00  0.00000000000E+00  0.77704812371E+03  0.77704812371E+03  0.25500000920E-02 0.  1.
        2   -1    0    0  501    0  0.00000000000E+00  0.00000000000E+00 -0.17111552110E+04  0.17111552110E+04  0.25500000920E-02 0. -1.
    10030    2    1    2    0    0  0.00000000000E+00  0.00000000000E+00 -0.93410708730E+03  0.24882033347E+04  0.23062089637E+04 0.  0.
        1    1    3    3  502    0  0.90639983932E+02  0.96263643872E+03  0.21083261584E+03  0.98961351636E+03  0.50400001928E-02 0.  1.
       -1    1    3    3    0  502 -0.90639983932E+02 -0.96263643872E+03 -0.11449397031E+04  0.14985898184E+04  0.50400001928E-02 0. -1.
</event>
<event>
 5   0  0.1456876E-05  0.2471582E+04  0.7818609E-02  0.8413180E-01
        1   -1    0    0  501    0  0.00000000000E+00  0.00000000000E+00  0.11744504007E+04  0.11744504007E+04  0.50400001928E-02 0.  1.
       -1   -1    0    0    0  501  0.00000000000E+00  0.00000000000E+00 -0.13003358931E+04  0.13003358931E+04  0.50400001928E-02 0. -1.
    10030    2    1    2    0    0  0.00000000000E+00  0.00000000000E+00 -0.12588549242E+03  0.24747862938E+04  0.24715824977E+04 0.  0.
        1    1    3    3  502    0 -0.11632564010E+04 -0.38022750096E+03  0.10886523008E+03  0.12286537532E+04  0.50400001928E-02 0. -1.
       -1    1    3    3    0  502  0.11632564010E+04  0.38022750096E+03 -0.23475072249E+03  0.12461325406E+04  0.50400001928E-02 0.  1.
</event>
<event>
 5   0  0.3650620E-05  0.2580209E+04  0.7818609E-02  0.8374955E-01
       -2   -1    0    0    0  501  0.00000000000E+00  0.00000000000E+00  0.14320194842E+04  0.14320194842E+04  0.25500000920E-02 0.  1.
        2   -1    0    0  501    0  0.00000000000E+00  0.00000000000E+00 -0.11622532492E+04  0.11622532492E+04  0.25500000920E-02 0. -1.
    10030    2    1    2    0    0  0.00000000000E+00  0.00000000000E+00  0.26976623503E+03  0.25942727334E+04  0.25802087500E+04 0.  0.
        3    1    3    3  502    0 -0.11422873551E+03  0.12844759323E+04  0.96693674279E+02  0.12931652259E+04  0.10100000352E+00 0. -1.
       -3    1    3    3    0  502  0.11422873551E+03 -0.12844759323E+04  0.17307256075E+03  0.13011075075E+04  0.10100000352E+00 0.  1.
</event>
<event>
 5   0  0.1502886E-05  0.2506819E+04  0.7818609E-02  0.8400560E-01
        1   -1    0    0  501    0  0.00000000000E+00  0.00000000000E+00  0.15170312505E+04  0.15170312505E+04  0.50400001928E-02 0. -1.
       -1   -1    0    0    0  501  0.00000000000E+00  0.00000000000E+00 -0.10355988467E+04  0.10355988467E+04  0.50400001928E-02 0.  1.
    10030    2    1    2    0    0  0.00000000000E+00  0.00000000000E+00  0.48143240383E+03  0.25526300972E+04  0.25068193500E+04 0.  0.
        4    1    3    3  502    0  0.11211902768E+04  0.35805961035E+03 -0.19815876242E+03  0.11935421356E+04  0.12699999809E+01 0.  1.
       -4    1    3    3    0  502 -0.11211902768E+04 -0.35805961035E+03  0.67959116625E+03  0.13590879616E+04  0.12699999809E+01 0. -1.
</event>
<event>
 5   0  0.3579097E-05  0.2496832E+04  0.7818609E-02  0.8404115E-01
        2   -1    0    0  501    0  0.00000000000E+00  0.00000000000E+00  0.20656997437E+04  0.20656997437E+04  0.25500000920E-02 0.  1.
       -2   -1    0    0    0  501  0.00000000000E+00  0.00000000000E+00 -0.75448628998E+03  0.75448628999E+03  0.25500000920E-02 0. -1.
    10030    2    1    2    0    0  0.00000000000E+00  0.00000000000E+00  0.13112134537E+04  0.28201860337E+04  0.24968317011E+04 0.  0.
        5    1    3    3  502    0  0.12008105852E+04 -0.13634767057E+03  0.30204559782E+03  0.12457087870E+04  0.46999998093E+01 0. -1.
       -5    1    3    3    0  502 -0.12008105852E+04  0.13634767057E+03  0.10091678559E+04  0.15744772467E+04  0.46999998093E+01 0.  1.
</event>
<event>
 5   0  0.1502886E-05  0.2481790E+04  0.7818609E-02  0.8409502E-01
        1   -1    0    0  501    0  0.00000000000E+00  0.00000000000E+00  0.12509955176E+04  0.12509955176E+04  0.50400001928E-02 0. -1.
       -1   -1    0    0    0  501  0.00000000000E+00  0.00000000000E+00 -0.12308763639E+04  0.12308763639E+04  0.50400001928E-02 0.  1.
    10030    2    1    2    0    0  0.00000000000E+00  0.00000000000E+00  0.20119153727E+02  0.24818718815E+04  0.24817903328E+04 0.  0.
        4    1    3    3  502    0 -0.82529366613E+03 -0.91960878149E+03 -0.10408993471E+03  0.12400105942E+04  0.12699999809E+01 0.  1.
       -4    1    3    3    0  502  0.82529366613E+03  0.91960878149E+03  0.12420908843E+03  0.12418612873E+04  0.12699999809E+01 0. -1.
</event>
<event>
 5   0  0.1492639E-05  0.2504861E+04  0.7818609E-02  0.8401256E-01
       -1   -1    0    0    0  501  0.00000000000E+00  0.00000000000E+00  0.22152149954E+04  0.22152149954E+04  0.50400001928E-02 0.  1.
        1   -1    0    0  501    0  0.00000000000E+00  0.00000000000E+00 -0.70809495063E+03  0.70809495064E+03  0.50400001928E-02 0. -1.
    10030    2    1    2    0    0  0.00000000000E+00  0.00000000000E+00  0.15071200448E+04  0.29233099460E+04  0.25048613158E+04 0.  0.
        5    1    3    3  502    0 -0.83763113287E+03  0.12271349819E+03 -0.32359784067E+03  0.90632343557E+03  0.46999998093E+01 0. -1.
       -5    1    3    3    0  502  0.83763113287E+03 -0.12271349819E+03  0.18307178854E+04  0.20169865105E+04  0.46999998093E+01 0.  1.
</event>
<event>
 5   0  0.3581449E-05  0.2511039E+04  0.7818609E-02  0.8399063E-01
        2   -1    0    0  501    0  0.00000000000E+00  0.00000000000E+00  0.16278575287E+04  0.16278575287E+04  0.25500000920E-02 0.  1.
       -2   -1    0    0    0  501  0.00000000000E+00  0.00000000000E+00 -0.96834617220E+03  0.96834617220E+03  0.25500000920E-02 0. -1.
    10030    2    1    2    0    0  0.00000000000E+00  0.00000000000E+00  0.65951135647E+03  0.25962037009E+04  0.25110393121E+04 0.  0.
        1    1    3    3  502    0  0.10951606282E+04 -0.45153520395E+03 -0.10036923666E+03  0.11888375943E+04  0.50400001928E-02 0. -1.
       -1    1    3    3    0  502 -0.10951606282E+04  0.45153520395E+03  0.75988059313E+03  0.14073661065E+04  0.50400001928E-02 0.  1.
</event>
<event>
 5   0  0.3578670E-05  0.2509025E+04  0.7818609E-02  0.8399777E-01
       -2   -1    0    0    0  501  0.00000000000E+00  0.00000000000E+00  0.84401334794E+03  0.84401334794E+03  0.25500000920E-02 0.  1.
        2   -1    0    0  501    0  0.00000000000E+00  0.00000000000E+00 -0.18646639953E+04  0.18646639953E+04  0.25500000920E-02 0. -1.
    10030    2    1    2    0    0  0.00000000000E+00  0.00000000000E+00 -0.10206506474E+04  0.27086773432E+04  0.25090247519E+04 0.  0.
        4    1    3    3  502    0  0.10818864641E+04 -0.58438221022E+03 -0.24190671931E+03  0.12531964581E+04  0.12699999809E+01 0.  1.
       -4    1    3    3    0  502 -0.10818864641E+04  0.58438221022E+03 -0.77874392804E+03  0.14554808852E+04  0.12699999809E+01 0. -1.
</event>
<event>
 5   0  0.3650620E-05  0.2519233E+04  0.7818609E-02  0.8396166E-01
        2   -1    0    0  501    0  0.00000000000E+00  0.00000000000E+00  0.20645328893E+04  0.20645328893E+04  0.25500000920E-02 0. -1.
       -2   -1    0    0    0  501  0.00000000000E+00  0.00000000000E+00 -0.76851921063E+03  0.76851921064E+03  0.25500000920E-02 0.  1.
    10030    2    1    2    0    0  0.00000000000E+00  0.00000000000E+00  0.12960136787E+04  0.28330520999E+04  0.25192325708E+04 0.  0.
        3    1    3    3  502    0 -0.91196464690E+03  0.25059283628E+03  0.15836033032E+04  0.18445258792E+04  0.10100000352E+00 0. -1.
       -3    1    3    3    0  502  0.91196464690E+03 -0.25059283628E+03 -0.28758962454E+03  0.98852622076E+03  0.10100000352E+00 0.  1.
</event>
<event>
 5   0  0.1502886E-05  0.2497932E+04  0.7818609E-02  0.8403723E-01
        1   -1    0    0  501    0  0.00000000000E+00  0.00000000000E+00  0.13593763109E+04  0.13593763109E+04  0.50400001928E-02 0.  1.
       -1   -1    0    0    0  501  0.00000000000E+00  0.00000000000E+00 -0.11475234304E+04  0.11475234304E+04  0.50400001928E-02 0. -1.
    10030    2    1    2    0    0  0.00000000000E+00  0.00000000000E+00  0.21185288052E+03  0.25068997413E+04  0.24979320787E+04 0.  0.
        4    1    3    3  502    0  0.51527170018E+03  0.10168482375E+04 -0.40622836863E+03  0.12101687335E+04  0.12699999809E+01 0.  1.
       -4    1    3    3    0  502 -0.51527170018E+03 -0.10168482375E+04  0.61808124915E+03  0.12967310078E+04  0.12699999809E+01 0. -1.
</event>
<event>
 5   0  0.1429483E-05  0.2494352E+04  0.7818609E-02  0.8405000E-01
       -1   -1    0    0    0  501  0.00000000000E+00  0.00000000000E+00  0.13130181743E+04  0.13130181743E+04  0.50400001928E-02 0. -1.
        1   -1    0    0  501    0  0.00000000000E+00  0.00000000000E+00 -0.11846357334E+04  0.11846357334E+04  0.50400001928E-02 0.  1.
    10030    2    1    2    0    0  0.00000000000E+00  0.00000000000E+00  0.12838244086E+03  0.24976539077E+04  0.24943522188E+04 0.  0.
        2    1    3    3  502    0 -0.12403006140E+04  0.96422152164E+02  0.15265635731E+03  0.12533741692E+04  0.25500000920E-02 0. -1.
       -2    1    3    3    0  502  0.12403006140E+04 -0.96422152164E+02 -0.24273916448E+02  0.12442797385E+04  0.25500000920E-02 0.  1.
</event>
<event>
 5   0  0.3579097E-05  0.2797529E+04  0.7818609E-02  0.8304036E-01
       -2   -1    0    0    0  501  0.00000000000E+00  0.00000000000E+00  0.10174565940E+04  0.10174565940E+04  0.25500000920E-02 0.  1.
        2   -1    0    0  501    0  0.00000000000E+00  0.00000000000E+00 -0.19229739429E+04  0.19229739429E+04  0.25500000920E-02 0. -1.
    10030    2    1    2    0    0  0.00000000000E+00  0.00000000000E+00 -0.90551734896E+03  0.29404305369E+04  0.27975292801E+04 0.  0.
        5    1    3    3  502    0  0.29063121830E+03  0.14615085465E+03 -0.18826517881E+04  0.19105565740E+04  0.46999998093E+01 0. -1.
       -5    1    3    3    0  502 -0.29063121830E+03 -0.14615085465E+03  0.97713443911E+03  0.10298739629E+04  0.46999998093E+01 0.  1.
</event>
<event>
 5   0  0.1456876E-05  0.2498280E+04  0.7818609E-02  0.8403598E-01
        1   -1    0    0  501    0  0.00000000000E+00  0.00000000000E+00  0.17548355586E+04  0.17548355586E+04  0.50400001928E-02 0.  1.
       -1   -1    0    0    0  501  0.00000000000E+00  0.00000000000E+00 -0.88917221491E+03  0.88917221492E+03  0.50400001928E-02 0. -1.
    10030    2    1    2    0    0  0.00000000000E+00  0.00000000000E+00  0.86566334366E+03  0.26440077735E+04  0.24982802248E+04 0.  0.
        1    1    3    3  502    0  0.27030325543E+03 -0.15745203887E+02 -0.85774198053E+03  0.89946265433E+03  0.50400001928E-02 0. -1.
       -1    1    3    3    0  502 -0.27030325543E+03  0.15745203887E+02  0.17234053242E+04  0.17445451192E+04  0.50400001928E-02 0.  1.
</event>
<event>
 5   0  0.3650620E-05  0.2538648E+04  0.7818609E-02  0.8389345E-01
       -2   -1    0    0    0  501  0.00000000000E+00  0.00000000000E+00  0.14362454318E+04  0.14362454318E+04  0.25500000920E-02 0. -1.
        2   -1    0    0  501    0  0.00000000000E+00  0.00000000000E+00 -0.11218024901E+04  0.11218024901E+04  0.25500000920E-02 0.  1.
    10030    2    1    2    0    0  0.00000000000E+00  0.00000000000E+00  0.31444294173E+03  0.25580479220E+04  0.25386482244E+04 0.  0.
        3    1    3    3  502    0 -0.86358024685E+03 -0.87627735764E+03 -0.15749658538E+03  0.12403378713E+04  0.10100000352E+00 0.  1.
       -3    1    3    3    0  502  0.86358024685E+03  0.87627735764E+03  0.47193952710E+03  0.13177100507E+04  0.10100000352E+00 0. -1.
</event>
<event>
 5   0  0.1429483E-05  0.2504036E+04  0.7818609E-02  0.8401549E-01
        1   -1    0    0  501    0  0.00000000000E+00  0.00000000000E+00  0.20110155381E+04  0.20110155381E+04  0.50400001928E-02 0. -1.
       -1   -1    0    0    0  501  0.00000000000E+00  0.00000000000E+00 -0.77948132137E+03  0.77948132139E+03  0.50400001928E-02 0.  1.
    10030    2    1    2    0    0  0.00000000000E+00  0.00000000000E+00  0.12315342167E+04  0.27904968595E+04  0.25040359813E+04 0.  0.
        2    1    3    3  502    0 -0.29278999723E+02 -0.97242496127E+03  0.14940112549E+04  0.17828452526E+04  0.25500000920E-02 0. -1.
       -2    1    3    3    0  502  0.29278999723E+02  0.97242496127E+03 -0.26247703820E+03  0.10076516068E+04  0.25500000920E-02 0.  1.
</event>
<event>
 5   0  0.1502886E-05  0.2488870E+04  0.7818609E-02  0.8406961E-01
       -1   -1    0    0    0  501  0.00000000000E+00  0.00000000000E+00  0.97756085555E+03  0.97756085556E+03  0.50400001928E-02 0.  1.
        1   -1    0    0  501    0  0.00000000000E+00  0.00000000000E+00 -0.15841658579E+04  0.15841658579E+04  0.50400001928E-02 0. -1.
    10030    2    1    2    0    0  0.00000000000E+00  0.00000000000E+00 -0.60660500237E+03  0.25617267135E+04  0.24888700500E+04 0.  0.
        4    1    3    3  502    0 -0.10116243911E+04 -0.28260373649E+03 -0.99019717282E+03  0.14435168286E+04  0.12699999809E+01 0. -1.
       -4    1    3    3    0  502  0.10116243911E+04  0.28260373649E+03  0.38359217046E+03  0.11182098849E+04  0.12699999809E+01 0.  1.
</event>
<event>
 5   0  0.1201438E-05  0.2512781E+04  0.7818609E-02  0.8398446E-01
        3   -1    0    0  501    0  0.00000000000E+00  0.00000000000E+00  0.14283133405E+04  0.14283133441E+04  0.10100000352E+00 0.  1.
       -3   -1    0    0    0  501  0.00000000000E+00  0.00000000000E+00 -0.11051614107E+04  0.11051614153E+04  0.10100000352E+00 0. -1.
    10030    2    1    2    0    0  0.00000000000E+00  0.00000000000E+00  0.32315192977E+03  0.25334747594E+04  0.25127807678E+04 0.  0.
        5    1    3    3  502    0  0.11637539853E+04 -0.36587379271E+03 -0.14141135967E+03  0.12280904825E+04  0.46999998093E+01 0.  1.
       -5    1    3    3    0  502 -0.11637539853E+04  0.36587379271E+03  0.46456328943E+03  0.13053842769E+04  0.46999998093E+01 0. -1.
</event>
<event>
 5   0  0.3578670E-05  0.2570230E+04  0.7818609E-02  0.8378384E-01
        2   -1    0    0  501    0  0.00000000000E+00  0.00000000000E+00  0.16632369756E+04  0.16632369756E+04  0.25500000920E-02 0. -1.
       -2   -1    0    0    0  501  0.00000000000E+00  0.00000000000E+00 -0.99295581509E+03  0.99295581509E+03  0.25500000920E-02 0.  1.
    10030    2    1    2    0    0  0.00000000000E+00  0.00000000000E+00  0.67028116049E+03  0.26561927907E+04  0.25702302051E+04 0.  0.
        4    1    3    3  502    0 -0.52708237220E+03  0.46985398431E+03  0.14448034151E+04  0.16081160141E+04  0.12699999809E+01 0. -1.
       -4    1    3    3    0  502  0.52708237220E+03 -0.46985398431E+03 -0.77452225465E+03  0.10480767765E+04  0.12699999809E+01 0.  1.
</event>
<event>
 5   0  0.1492639E-05  0.2513218E+04  0.7818609E-02  0.8398292E-01
       -1   -1    0    0    0  501  0.00000000000E+00  0.00000000000E+00  0.72210830714E+03  0.72210830716E+03  0.50400001928E-02 0. -1.
        1   -1    0    0  501    0  0.00000000000E+00  0.00000000000E+00 -0.21867434605E+04  0.21867434605E+04  0.50400001928E-02 0.  1.
    10030    2    1    2    0    0  0.00000000000E+00  0.00000000000E+00 -0.14646351533E+04  0.29088517676E+04  0.25132175540E+04 0.  0.
        5    1    3    3  502    0  0.47812158899E+03  0.77425057352E+03  0.27069296198E+03  0.94940032342E+03  0.46999998093E+01 0. -1.
       -5    1    3    3    0  502 -0.47812158899E+03 -0.77425057352E+03 -0.17353281153E+04  0.19594514442E+04  0.46999998093E+01 0.  1.
</event>
<event>
 5   0  0.3704241E-05  0.2473818E+04  0.7818609E-02  0.8412373E-01
       -2   -1    0    0    0  501  0.00000000000E+00  0.00000000000E+00  0.12417472910E+04  0.12417472910E+04  0.25500000920E-02 0.  1.
        2   -1    0    0  501    0  0.00000000000E+00  0.00000000000E+00 -0.12320892760E+04  0.12320892760E+04  0.25500000920E-02 0. -1.
    10030    2    1    2    0    0  0.00000000000E+00  0.00000000000E+00  0.96580150581E+01  0.24738365670E+04  0.24738177142E+04 0.  0.
        2    1    3    3  502    0  0.58796387047E+03  0.35876132931E+03  0.10322278613E+04  0.12409293139E+04  0.25500000920E-02 0.  1.
       -2    1    3    3    0  502 -0.58796387047E+03 -0.35876132931E+03 -0.10225698462E+04  0.12329072531E+04  0.25500000920E-02 0. -1.
</event>
<event>
 5   0  0.1502886E-05  0.2533931E+04  0.7818609E-02  0.8390996E-01
        1   -1    0    0  501    0  0.00000000000E+00  0.00000000000E+00  0.14011985853E+04  0.14011985853E+04  0.50400001928E-02 0. -1.
       -1   -1    0    0    0  501  0.00000000000E+00  0.00000000000E+00 -0.11455918740E+04  0.11455918740E+04  0.50400001928E-02 0.  1.
    10030    2    1    2    0    0  0.00000000000E+00  0.00000000000E+00  0.25560671133E+03  0.25467904593E+04  0.25339311066E+04 0.  0.
        4    1    3    3  502    0 -0.52074625830E+03 -0.17785620405E+03  0.12748182008E+04  0.13885145130E+04  0.12699999809E+01 0. -1.
       -4    1    3    3    0  502  0.52074625830E+03  0.17785620405E+03 -0.10192114894E+04  0.11582759464E+04  0.12699999809E+01 0.  1.
</event>
<event>
 5   0  0.1456876E-05  0.2483045E+04  0.7818609E-02  0.8409051E-01
        1   -1    0    0  501    0  0.00000000000E+00  0.00000000000E+00  0.15410955933E+04  0.15410955933E+04  0.50400001928E-02 0.  1.
       -1   -1    0    0    0  501  0.00000000000E+00  0.00000000000E+00 -0.10001834512E+04  0.10001834512E+04  0.50400001928E-02 0. -1.
    10030    2    1    2    0    0  0.00000000000E+00  0.00000000000E+00  0.54091214203E+03  0.25412790445E+04  0.24830451540E+04 0.  0.
        1    1    3    3  502    0 -0.22235366600E+02  0.49680465571E+02  0.15398739086E+04  0.15408355572E+04  0.50400001928E-02 0.  1.
       -1    1    3    3    0  502  0.22235366600E+02 -0.49680465571E+02 -0.99896176653E+03  0.10004434873E+04  0.50400001928E-02 0. -1.
</event>
<event>
 5   0  0.3704241E-05  0.2519992E+04  0.7818609E-02  0.8395898E-01
       -2   -1    0    0    0  501  0.00000000000E+00  0.00000000000E+00  0.11939093292E+04  0.11939093292E+04  0.25500000920E-02 0.  1.
        2   -1    0    0  501    0  0.00000000000E+00  0.00000000000E+00 -0.13297404691E+04  0.13297404691E+04  0.25500000920E-02 0. -1.
    10030    2    1    2    0    0  0.00000000000E+00  0.00000000000E+00 -0.13583113988E+03  0.25236497983E+04  0.25199917075E+04 0.  0.
        2    1    3    3  502    0  0.77237575729E+03  0.89126315204E+03 -0.51204015589E+03  0.12857291464E+04  0.25500000920E-02 0. -1.
       -2    1    3    3    0  502 -0.77237575729E+03 -0.89126315204E+03  0.37620901601E+03  0.12379206519E+04  0.25500000920E-02 0.  1.
</event>
<event>
 5   0  0.3581449E-05  0.2482642E+04  0.7818609E-02  0.8409196E-01
       -2   -1    0    0    0  501  0.00000000000E+00  0.00000000000E+00  0.16738915397E+04  0.16738915397E+04  0.25500000920E-02 0. -1.
        2   -1    0    0  501    0  0.00000000000E+00  0.00000000000E+00 -0.92053591770E+03  0.92053591770E+03  0.25500000920E-02 0.  1.
    10030    2    1    2    0    0  0.00000000000E+00  0.00000000000E+00  0.75335562200E+03  0.25944274574E+04  0.24826415647E+04 0.  0.
        1    1    3    3  502    0  0.30168935722E+03 -0.18212089033E+03  0.16205201992E+04  0.16583938624E+04  0.50400001928E-02 0. -1.
       -1    1    3    3    0  502 -0.30168935722E+03  0.18212089033E+03 -0.86716457719E+03  0.93603359497E+03  0.50400001928E-02 0.  1.
</event>
<event>
 5   0  0.1429483E-05  0.2033905E+04  0.7818609E-02  0.8590931E-01
       -1   -1    0    0    0  501  0.00000000000E+00  0.00000000000E+00  0.60393762814E+03  0.60393762816E+03  0.50400001928E-02 0.  1.
        1   -1    0    0  501    0  0.00000000000E+00  0.00000000000E+00 -0.17124157950E+04  0.17124157950E+04  0.50400001928E-02 0. -1.
    10030    2    1    2    0    0  0.00000000000E+00  0.00000000000E+00 -0.11084781668E+04  0.23163534231E+04  0.20339049473E+04 0.  0.
        2    1    3    3  502    0 -0.39252197699E+03  0.75553341212E+03  0.79128413163E+02  0.85508218613E+03  0.25500000920E-02 0. -1.
       -2    1    3    3    0  502  0.39252197699E+03 -0.75553341212E+03 -0.11876065800E+04  0.14612712370E+04  0.25500000920E-02 0.  1.
</event>
<event>
 5   0  0.1421242E-05  0.2515226E+04  0.7818609E-02  0.8397581E-01
        1   -1    0    0  501    0  0.00000000000E+00  0.00000000000E+00  0.16508194311E+04  0.16508194311E+04  0.50400001928E-02 0.  1.
       -1   -1    0    0    0  501  0.00000000000E+00  0.00000000000E+00 -0.95806373826E+03  0.95806373828E+03  0.50400001928E-02 0. -1.
    10030    2    1    2    0    0  0.00000000000E+00  0.00000000000E+00  0.69275569283E+03  0.26088831694E+04  0.25152258232E+04 0.  0.
        3    1    3    3  502    0 -0.59068696518E+03  0.85062154438E+03  0.10864748266E+04  0.15009649102E+04  0.10100000352E+00 0.  1.
       -3    1    3    3    0  502  0.59068696518E+03 -0.85062154438E+03 -0.39371913375E+03  0.11079182592E+04  0.10100000352E+00 0. -1.
</event>
<event>
 5   0  0.1456876E-05  0.2460119E+04  0.7818609E-02  0.8417333E-01
       -1   -1    0    0    0  501  0.00000000000E+00  0.00000000000E+00  0.26435411750E+04  0.26435411750E+04  0.50400001928E-02 0.  1.
        1   -1    0    0  501    0  0.00000000000E+00  0.00000000000E+00 -0.57235610007E+03  0.57235610009E+03  0.50400001928E-02 0. -1.
    10030    2    1    2    0    0  0.00000000000E+00  0.00000000000E+00  0.20711850749E+04  0.32158972751E+04  0.24601194421E+04 0.  0.
        1    1    3    3  502    0 -0.89718509864E+03  0.79474391030E+03  0.13971209525E+04  0.18407894883E+04  0.50400001928E-02 0.  1.
       -1    1    3    3    0  502  0.89718509864E+03 -0.79474391030E+03  0.67406412241E+03  0.13751077868E+04  0.50400001928E-02 0. -1.
</event>
<event>
 5   0  0.3578670E-05  0.2511295E+04  0.7818609E-02  0.8398973E-01
       -2   -1    0    0    0  501  0.00000000000E+00  0.00000000000E+00  0.11492107268E+04  0.11492107268E+04  0.25500000920E-02 0. -1.
        2   -1    0    0  501    0  0.00000000000E+00  0.00000000000E+00 -0.13719421418E+04  0.13719421418E+04  0.25500000920E-02 0.  1.
    10030    2    1    2    0    0  0.00000000000E+00  0.00000000000E+00 -0.22273141506E+03  0.25211528686E+04  0.25112949854E+04 0.  0.
        4    1    3    3  502    0 -0.11635735768E+04  0.14264088138E+02 -0.58496115816E+03  0.13024162554E+04  0.12699999809E+01 0.  1.
       -4    1    3    3    0  502  0.11635735768E+04 -0.14264088138E+02  0.36222974311E+03  0.12187366133E+04  0.12699999809E+01 0. -1.
</event>
<event>
 5   0  0.1421242E-05  0.2509231E+04  0.7818609E-02  0.8399704E-01
       -1   -1    0    0    0  501  0.00000000000E+00  0.00000000000E+00  0.80673524197E+03  0.80673524198E+03  0.50400001928E-02 0. -1.
        1   -1    0    0  501    0  0.00000000000E+00  0.00000000000E+00 -0.19511478882E+04  0.19511478882E+04  0.50400001928E-02 0.  1.
    10030    2    1    2    0    0  0.00000000000E+00  0.00000000000E+00 -0.11444126463E+04  0.27578831302E+04  0.25092307696E+04 0.  0.
        3    1    3    3  502    0  0.38601145727E+03 -0.88118008227E+03  0.31294165564E+03  0.10116400904E+04  0.10100000352E+00 0.  1.
       -3    1    3    3    0  502 -0.38601145727E+03  0.88118008227E+03 -0.14573543019E+04  0.17462430398E+04  0.10100000352E+00 0. -1.
</event>
<event>
 5   0  0.1456876E-05  0.2477062E+04  0.7818609E-02  0.8411203E-01
       -1   -1    0    0    0  501  0.00000000000E+00  0.00000000000E+00  0.91158943191E+03  0.91158943192E+03  0.50400001928E-02 0.  1.
        1   -1    0    0  501    0  0.00000000000E+00  0.00000000000E+00 -0.16827297887E+04  0.16827297887E+04  0.50400001928E-02 0. -1.
    10030    2    1    2    0    0  0.00000000000E+00  0.00000000000E+00 -0.77114035679E+03  0.25943192206E+04  0.24770617208E+04 0.  0.
        1    1    3    3  502    0  0.30623671957E+03  0.34639055108E+03 -0.15889563778E+04  0.16548564025E+04  0.50400001928E-02 0. -1.
       -1    1    3    3    0  502 -0.30623671957E+03 -0.34639055108E+03  0.81781602104E+03  0.93946281810E+03  0.50400001928E-02 0.  1.
</event>
<event>
 5   0  0.1456876E-05  0.2641108E+04  0.7818609E-02  0.8354370E-01
       -1   -1    0    0    0  501  0.00000000000E+00  0.00000000000E+00  0.10768187888E+04  0.10768187889E+04  0.50400001928E-02 0.  1.
        1   -1    0    0  501    0  0.00000000000E+00  0.00000000000E+00 -0.16194583450E+04  0.16194583450E+04  0.50400001928E-02 0. -1.
    10030    2    1    2    0    0  0.00000000000E+00  0.00000000000E+00 -0.54263955617E+03  0.26962771339E+04  0.26411082323E+04 0.  0.
        1    1    3    3  502    0  0.73369282578E+03  0.10401805763E+04 -0.63020585232E+03  0.14203662240E+04  0.50400001928E-02 0. -1.
       -1    1    3    3    0  502 -0.73369282578E+03 -0.10401805763E+04  0.87566296148E+02  0.12759109099E+04  0.50400001928E-02 0.  1.
</event>
<event>
 5   0  0.3578670E-05  0.2497899E+04  0.7818609E-02  0.8403734E-01
        2   -1    0    0  501    0  0.00000000000E+00  0.00000000000E+00  0.16085963861E+04  0.16085963861E+04  0.25500000920E-02 0. -1.
       -2   -1    0    0    0  501  0.00000000000E+00  0.00000000000E+00 -0.96971156672E+03  0.96971156672E+03  0.25500000920E-02 0.  1.
    10030    2    1    2    0    0  0.00000000000E+00  0.00000000000E+00  0.63888481942E+03  0.25783079529E+04  0.24978987344E+04 0.  0.
        4    1    3    3  502    0  0.10749797676E+04  0.17663451362E+03 -0.31103238504E+03  0.11329271863E+04  0.12699999809E+01 0.  1.
       -4    1    3    3    0  502 -0.10749797676E+04 -0.17663451362E+03  0.94991720445E+03  0.14453807665E+04  0.12699999809E+01 0. -1.
</event>
<event>
 5   0  0.3650620E-05  0.2522908E+04  0.7818609E-02  0.8394869E-01
       -2   -1    0    0    0  501  0.00000000000E+00  0.00000000000E+00  0.87921637900E+03  0.87921637900E+03  0.25500000920E-02 0.  1.
        2   -1    0    0  501    0  0.00000000000E+00  0.00000000000E+00 -0.18098693744E+04  0.18098693744E+04  0.25500000920E-02 0. -1.
    10030    2    1    2    0    0  0.00000000000E+00  0.00000000000E+00 -0.93065299545E+03  0.26890857534E+04  0.25229084786E+04 0.  0.
        3    1    3    3  502    0  0.41384527644E+03 -0.56285287615E+03 -0.15848401634E+04  0.17319900770E+04  0.10100000352E+00 0. -1.
       -3    1    3    3    0  502 -0.41384527644E+03  0.56285287615E+03  0.65418716794E+03  0.95709567648E+03  0.10100000352E+00 0.  1.
</event>
<event>
 5   0  0.3579097E-05  0.2545429E+04  0.7818609E-02  0.8386978E-01
        2   -1    0    0  501    0  0.00000000000E+00  0.00000000000E+00  0.16293697626E+04  0.16293697626E+04  0.25500000920E-02 0.  1.
       -2   -1    0    0    0  501  0.00000000000E+00  0.00000000000E+00 -0.99412789242E+03  0.99412789243E+03  0.25500000920E-02 0. -1.
    10030    2    1    2    0    0  0.00000000000E+00  0.00000000000E+00  0.63524187022E+03  0.26234976551E+04  0.25454287875E+04 0.  0.
        5    1    3    3  502    0  0.48705301026E+03 -0.11444457510E+03  0.15237524498E+04  0.16037960636E+04  0.46999998093E+01 0.  1.
       -5    1    3    3    0  502 -0.48705301026E+03  0.11444457510E+03 -0.88851057955E+03  0.10197015914E+04  0.46999998093E+01 0. -1.
</event>
<event>
 5   0  0.3650620E-05  0.2480415E+04  0.7818609E-02  0.8409996E-01
        2   -1    0    0  501    0  0.00000000000E+00  0.00000000000E+00  0.91724893537E+03  0.91724893538E+03  0.25500000920E-02 0. -1.
       -2   -1    0    0    0  501  0.00000000000E+00  0.00000000000E+00 -0.16768777624E+04  0.16768777624E+04  0.25500000920E-02 0.  1.
    10030    2    1    2    0    0  0.00000000000E+00  0.00000000000E+00 -0.75962882701E+03  0.25941266978E+04  0.24804147575E+04 0.  0.
        3    1    3    3  502    0 -0.74997395140E+03 -0.31379338442E+03  0.59970488953E+03  0.10102342207E+04  0.10100000352E+00 0.  1.
       -3    1    3    3    0  502  0.74997395140E+03  0.31379338442E+03 -0.13593337165E+04  0.15838924771E+04  0.10100000352E+00 0. -1.
</event>
<event>
 5   0  0.1492639E-05  0.2433714E+04  0.7818609E-02  0.8426988E-01
        1   -1    0    0  501    0  0.00000000000E+00  0.00000000000E+00  0.11759501421E+04  0.11759501421E+04  0.50400001928E-02 0.  1.
       -1   -1    0    0    0  501  0.00000000000E+00  0.00000000000E+00 -0.12591866921E+04  0.12591866921E+04  0.50400001928E-02 0. -1.
    10030    2    1    2    0    0  0.00000000000E+00  0.00000000000E+00 -0.83236550007E+02  0.24351368343E+04  0.24337138448E+04 0.  0.
        5    1    3    3  502    0  0.32346120238E+03  0.69294323099E+01 -0.12153529663E+04  0.12576883911E+04  0.46999998093E+01 0. -1.
       -5    1    3    3    0  502 -0.32346120238E+03 -0.69294323099E+01  0.11321164162E+04  0.11774484432E+04  0.46999998093E+01 0.  1.
</event>
<event>
 5   0  0.3579097E-05  0.2530337E+04  0.7818609E-02  0.8392257E-01
        2   -1    0    0  501    0  0.00000000000E+00  0.00000000000E+00  0.13936472597E+04  0.13936472597E+04  0.25500000920E-02 0. -1.
       -2   -1    0    0    0  501  0.00000000000E+00  0.00000000000E+00 -0.11485339765E+04  0.11485339765E+04  0.25500000920E-02 0.  1.
    10030    2    1    2    0    0  0.00000000000E+00  0.00000000000E+00  0.24511328319E+03  0.25421812362E+04  0.25303369175E+04 0.  0.
        5    1    3    3  502    0  0.55562395450E+03  0.28997878260E+03  0.12267112476E+04  0.13775515410E+04  0.46999998093E+01 0. -1.
       -5    1    3    3    0  502 -0.55562395450E+03 -0.28997878260E+03 -0.98159796440E+03  0.11646296952E+04  0.46999998093E+01 0.  1.
</event>
<event>
 5   0  0.3704241E-05  0.2485313E+04  0.7818609E-02  0.8408237E-01
       -2   -1    0    0    0  501  0.00000000000E+00  0.00000000000E+00  0.63590553131E+03  0.63590553131E+03  0.25500000920E-02 0. -1.
        2   -1    0    0  501    0  0.00000000000E+00  0.00000000000E+00 -0.24283403534E+04  0.24283403534E+04  0.25500000920E-02 0.  1.
    10030    2    1    2    0    0  0.00000000000E+00  0.00000000000E+00 -0.17924348221E+04  0.30642458847E+04  0.24853129080E+04 0.  0.
        2    1    3    3  502    0 -0.82715247334E+03  0.15858436631E+03 -0.20227678046E+04  0.21911001362E+04  0.25500000920E-02 0.  1.
       -2    1    3    3    0  502  0.82715247334E+03 -0.15858436631E+03  0.23033298249E+03  0.87314574856E+03  0.25500000920E-02 0. -1.
</event>
<event>
 5   0  0.3579097E-05  0.2522246E+04  0.7818609E-02  0.8395103E-01
       -2   -1    0    0    0  501  0.00000000000E+00  0.00000000000E+00  0.10293086523E+04  0.10293086523E+04  0.25500000920E-02 0.  1.
        2   -1    0    0  501    0  0.00000000000E+00  0.00000000000E+00 -0.15451452813E+04  0.15451452813E+04  0.25500000920E-02 0. -1.
    10030    2    1    2    0    0  0.00000000000E+00  0.00000000000E+00 -0.51583662899E+03  0.25744539336E+04  0.25222461475E+04 0.  0.
        5    1    3    3  502    0 -0.83400382905E+03  0.34595668312E+03 -0.11565745414E+04  0.14672883743E+04  0.46999998093E+01 0.  1.
       -5    1    3    3    0  502  0.83400382905E+03 -0.34595668312E+03  0.64073791238E+03  0.11071655594E+04  0.46999998093E+01 0. -1.
</event>
<event>
 5   0  0.1456876E-05  0.2356026E+04  0.7818609E-02  0.8456153E-01
        1   -1    0    0  501    0  0.00000000000E+00  0.00000000000E+00  0.12426675821E+04  0.12426675821E+04  0.50400001928E-02 0. -1.
       -1   -1    0    0    0  501  0.00000000000E+00  0.00000000000E+00 -0.11167221156E+04  0.11167221156E+04  0.50400001928E-02 0.  1.
    10030    2    1    2    0    0  0.00000000000E+00  0.00000000000E+00  0.12594546646E+03  0.23593896977E+04  0.23560257820E+04 0.  0.
        1    1    3    3  502    0  0.64019399658E+03 -0.49324920211E+03 -0.79532230384E+03  0.11338786071E+04  0.50400001928E-02 0.  1.
       -1    1    3    3    0  502 -0.64019399658E+03  0.49324920211E+03  0.92126777030E+03  0.12255110906E+04  0.50400001928E-02 0. -1.
</event>
<event>
 5   0  0.3704241E-05  0.2505820E+04  0.7818609E-02  0.8400915E-01
        2   -1    0    0  501    0  0.00000000000E+00  0.00000000000E+00  0.21332194487E+04  0.21332194487E+04  0.25500000920E-02 0.  1.
       -2   -1    0    0    0  501  0.00000000000E+00  0.00000000000E+00 -0.73587538910E+03  0.73587538911E+03  0.25500000920E-02 0. -1.
    10030    2    1    2    0    0  0.00000000000E+00  0.00000000000E+00  0.13973440596E+04  0.28690948378E+04  0.25058201786E+04 0.  0.
        2    1    3    3  502    0  0.30304312978E+03 -0.99007443080E+03 -0.10908237480E+03  0.10411443135E+04  0.25500000920E-02 0. -1.
       -2    1    3    3    0  502 -0.30304312978E+03  0.99007443080E+03  0.15064264344E+04  0.18279505243E+04  0.25500000920E-02 0.  1.
</event>
<event>
 5   0  0.1492639E-05  0.2474674E+04  0.7818609E-02  0.8412064E-01
        1   -1    0    0  501    0  0.00000000000E+00  0.00000000000E+00  0.15814422570E+04  0.15814422570E+04  0.50400001928E-02 0.  1.
       -1   -1    0    0    0  501  0.00000000000E+00  0.00000000000E+00 -0.96810528284E+03  0.96810528286E+03  0.50400001928E-02 0. -1.
    10030    2    1    2    0    0  0.00000000000E+00  0.00000000000E+00  0.61333697416E+03  0.25495475399E+04  0.24746737995E+04 0.  0.
        5    1    3    3  502    0 -0.89907374679E+03  0.70474233133E+03 -0.18309354301E+03  0.11569531932E+04  0.46999998093E+01 0. -1.
       -5    1    3    3    0  502  0.89907374679E+03 -0.70474233133E+03  0.79643051717E+03  0.13925943467E+04  0.46999998093E+01 0.  1.
</event>
<event>
 5   0  0.1421242E-05  0.2469784E+04  0.7818609E-02  0.8413830E-01
       -1   -1    0    0    0  501  0.00000000000E+00  0.00000000000E+00  0.15969531129E+04  0.15969531129E+04  0.50400001928E-02 0. -1.
        1   -1    0    0  501    0  0.00000000000E+00  0.00000000000E+00 -0.95491761186E+03  0.95491761187E+03  0.50400001928E-02 0.  1.
    10030    2    1    2    0    0  0.00000000000E+00  0.00000000000E+00  0.64203550106E+03  0.25518707248E+04  0.24697843249E+04 0.  0.
        3    1    3    3  502    0 -0.36528813113E+03  0.11509919847E+04  0.58794624512E+03  0.13430929845E+04  0.10100000352E+00 0.  1.
       -3    1    3    3    0  502  0.36528813113E+03 -0.11509919847E+04  0.54089255938E+02  0.12087777403E+04  0.10100000352E+00 0. -1.
</event>
<event>
 5   0  0.3578670E-05  0.2543070E+04  0.7818609E-02  0.8387800E-01
        2   -1    0    0  501    0  0.00000000000E+00  0.00000000000E+00  0.17314341621E+04  0.17314341621E+04  0.25500000920E-02 0.  1.
       -2   -1    0    0    0  501  0.00000000000E+00  0.00000000000E+00 -0.93379321303E+03  0.93379321303E+03  0.25500000920E-02 0. -1.
    10030    2    1    2    0    0  0.00000000000E+00  0.00000000000E+00  0.79764094903E+03  0.26652273751E+04  0.25430701676E+04 0.  0.
        4    1    3    3  502    0 -0.34727449343E+02  0.45055092449E+03  0.16444393289E+04  0.17053986193E+04  0.12699999809E+01 0.  1.
       -4    1    3    3    0  502  0.34727449343E+02 -0.45055092449E+03 -0.84679837992E+03  0.95982875578E+03  0.12699999809E+01 0. -1.
</event>
<event>
 5   0  0.1492639E-05  0.2481110E+04  0.7818609E-02  0.8409746E-01
        1   -1    0    0  501    0  0.00000000000E+00  0.00000000000E+00  0.11102476504E+04  0.11102476504E+04  0.50400001928E-02 0.  1.
       -1   -1    0    0    0  501  0.00000000000E+00  0.00000000000E+00 -0.13861563445E+04  0.13861563445E+04  0.50400001928E-02 0. -1.
    10030    2    1    2    0    0  0.00000000000E+00  0.00000000000E+00 -0.27590869409E+03  0.24964039949E+04  0.24811100940E+04 0.  0.
        5    1    3    3  502    0 -0.40509483228E+03  0.12872696616E+03 -0.13105920422E+04  0.13778047924E+04  0.46999998093E+01 0. -1.
       -5    1    3    3    0  502  0.40509483228E+03 -0.12872696616E+03  0.10346833481E+04  0.11185992025E+04  0.46999998093E+01 0.  1.
</event>
<event>
 5   0  0.1456876E-05  0.2550054E+04  0.7818609E-02  0.8385367E-01
        1   -1    0    0  501    0  0.00000000000E+00  0.00000000000E+00  0.17920724739E+04  0.17920724739E+04  0.50400001928E-02 0.  1.
       -1   -1    0    0    0  501  0.00000000000E+00  0.00000000000E+00 -0.90715855805E+03  0.90715855806E+03  0.50400001928E-02 0. -1.
    10030    2    1    2    0    0  0.00000000000E+00  0.00000000000E+00  0.88491391584E+03  0.26992310320E+04  0.25500540240E+04 0.  0.
        1    1    3    3  502    0 -0.87531187869E+03  0.22676917980E+03 -0.50907392978E+03  0.10376663297E+04  0.50400001928E-02 0. -1.
       -1    1    3    3    0  502  0.87531187869E+03 -0.22676917980E+03  0.13939878456E+04  0.16615647022E+04  0.50400001928E-02 0.  1.
</event>
<event>
 5   0  0.1492639E-05  0.2498657E+04  0.7818609E-02  0.8403464E-01
        1   -1    0    0  501    0  0.00000000000E+00  0.00000000000E+00  0.13032916129E+04  0.13032916129E+04  0.50400001928E-02 0.  1.
       -1   -1    0    0    0  501  0.00000000000E+00  0.00000000000E+00 -0.11975999094E+04  0.11975999095E+04  0.50400001928E-02 0. -1.
    10030    2    1    2    0    0  0.00000000000E+00  0.00000000000E+00  0.10569170347E+03  0.25008915224E+04  0.24986571735E+04 0.  0.
        5    1    3    3  502    0 -0.55506020013E+03  0.82779507316E+03  0.80682108106E+03  0.12823099687E+04  0.46999998093E+01 0.  1.
       -5    1    3    3    0  502  0.55506020013E+03 -0.82779507316E+03 -0.70112937759E+03  0.12185815537E+04  0.46999998093E+01 0. -1.
</event>
<event>
 5   0  0.3579097E-05  0.2535870E+04  0.7818609E-02  0.8390317E-01
        2   -1    0    0  501    0  0.00000000000E+00  0.00000000000E+00  0.12933604261E+04  0.12933604261E+04  0.25500000920E-02 0. -1.
       -2   -1    0    0    0  501  0.00000000000E+00  0.00000000000E+00 -0.12430090221E+04  0.12430090221E+04  0.25500000920E-02 0.  1.
    10030    2    1    2    0    0  0.00000000000E+00  0.00000000000E+00  0.50351404047E+02  0.25363694482E+04  0.25358696169E+04 0.  0.
        5    1    3    3  502    0  0.30103953415E+03 -0.28594948270E+03  0.12234288150E+04  0.12919721604E+04  0.46999998093E+01 0. -1.
       -5    1    3    3    0  502 -0.30103953415E+03  0.28594948270E+03 -0.11730774110E+04  0.12443972878E+04  0.46999998093E+01 0.  1.
</event>
<event>
 5   0  0.1456876E-05  0.2689977E+04  0.7818609E-02  0.8338264E-01
       -1   -1    0    0    0  501  0.00000000000E+00  0.00000000000E+00  0.12924801351E+04  0.12924801351E+04  0.50400001928E-02 0.  1.
        1   -1    0    0  501    0  0.00000000000E+00  0.00000000000E+00 -0.13996300522E+04  0.13996300522E+04  0.50400001928E-02 0. -1.
    10030    2    1    2    0    0  0.00000000000E+00  0.00000000000E+00 -0.10714991704E+03  0.26921101873E+04  0.26899769805E+04 0.  0.
        1    1    3    3  502    0  0.52441084643E+03 -0.58344814164E+03  0.10398002650E+04  0.13025371630E+04  0.50400001928E-02 0.  1.
       -1    1    3    3    0  502 -0.52441084643E+03  0.58344814164E+03 -0.11469501820E+04  0.13895730243E+04  0.50400001928E-02 0. -1.
</event>
<event>
 5   0  0.1201438E-05  0.2482273E+04  0.7818609E-02  0.8409328E-01
        3   -1    0    0  501    0  0.00000000000E+00  0.00000000000E+00  0.77363609302E+03  0.77363609962E+03  0.10100000352E+00 0. -1.
       -3   -1    0    0    0  501  0.00000000000E+00  0.00000000000E+00 -0.19911427935E+04  0.19911427960E+04  0.10100000352E+00 0.  1.
    10030    2    1    2    0    0  0.00000000000E+00  0.00000000000E+00 -0.12175067004E+04  0.27647788956E+04  0.24822731067E+04 0.  0.
        3    1    3    3  502    0 -0.19593994951E+03 -0.65353084000E+03 -0.17635350889E+04  0.18909127538E+04  0.10100000352E+00 0.  1.
       -3    1    3    3    0  502  0.19593994951E+03  0.65353084000E+03  0.54602838843E+03  0.87386614182E+03  0.10100000352E+00 0. -1.
</event>
<event>
 5   0  0.3579097E-05  0.2503886E+04  0.7818609E-02  0.8401603E-01
       -2   -1    0    0    0  501  0.00000000000E+00  0.00000000000E+00  0.11725800752E+04  0.11725800752E+04  0.25500000920E-02 0.  1.
        2   -1    0    0  501    0  0.00000000000E+00  0.00000000000E+00 -0.13366769970E+04  0.13366769970E+04  0.25500000920E-02 0. -1.
    10030    2    1    2    0    0  0.00000000000E+00  0.00000000000E+00 -0.16409692177E+03  0.25092570722E+04  0.25038856313E+04 0.  0.
        5    1    3    3  502    0  0.34657353772E+03  0.27051795151E+03  0.10926630734E+04  0.11778063767E+04  0.46999998093E+01 0.  1.
       -5    1    3    3    0  502 -0.34657353772E+03 -0.27051795151E+03 -0.12567599951E+04  0.13314506955E+04  0.46999998093E+01 0. -1.
</event>
<event>
 5   0  0.1492639E-05  0.2511067E+04  0.7818609E-02  0.8399054E-01
        1   -1    0    0  501    0  0.00000000000E+00  0.00000000000E+00  0.13948285893E+04  0.13948285893E+04  0.50400001928E-02 0.  1.
       -1   -1    0    0    0  501  0.00000000000E+00  0.00000000000E+00 -0.11301488866E+04  0.11301488866E+04  0.50400001928E-02 0. -1.
    10030    2    1    2    0    0  0.00000000000E+00  0.00000000000E+00  0.26467970275E+03  0.25249774759E+04  0.25110666874E+04 0.  0.
        5    1    3    3  502    0 -0.33355915734E+03 -0.50860246141E+03  0.12367886679E+04  0.13782621210E+04  0.46999998093E+01 0.  1.
       -5    1    3    3    0  502  0.33355915734E+03  0.50860246141E+03 -0.97210896510E+03  0.11467153549E+04  0.46999998093E+01 0. -1.
</event>
<event>
 5   0  0.3578670E-05  0.2466022E+04  0.7818609E-02  0.8415191E-01
       -2   -1    0    0    0  501  0.00000000000E+00  0.00000000000E+00  0.12266208620E+04  0.12266208620E+04  0.25500000920E-02 0. -1.
        2   -1    0    0  501    0  0.00000000000E+00  0.00000000000E+00 -0.12394345558E+04  0.12394345558E+04  0.25500000920E-02 0.  1.
    10030    2    1    2    0    0  0.00000000000E+00  0.00000000000E+00 -0.12813693773E+02  0.24660554178E+04  0.24660221274E+04 0.  0.
        4    1    3    3  502    0 -0.52026685319E+03 -0.91037228014E+03  0.64233867051E+03  0.12296568088E+04  0.12699999809E+01 0. -1.
       -4    1    3    3    0  502  0.52026685319E+03  0.91037228014E+03 -0.65515236428E+03  0.12363986090E+04  0.12699999809E+01 0.  1.
</event>
<event>
 5   0  0.1502886E-05  0.2447031E+04  0.7818609E-02  0.8422103E-01
       -1   -1    0    0    0  501  0.00000000000E+00  0.00000000000E+00  0.69912989859E+03  0.69912989861E+03  0.50400001928E-02 0. -1.
        1   -1    0    0  501    0  0.00000000000E+00  0.00000000000E+00 -0.21412194533E+04  0.21412194533E+04  0.50400001928E-02 0.  1.
    10030    2    1    2    0    0  0.00000000000E+00  0.00000000000E+00 -0.14420895547E+04  0.28403493519E+04  0.24470312947E+04 0.  0.
        4    1    3    3  502    0  0.10812943267E+04 -0.57252618331E+03 -0.72371060997E+03  0.14215281606E+04  0.12699999809E+01 0.  1.
       -4    1    3    3    0  502 -0.10812943267E+04  0.57252618331E+03 -0.71837894472E+03  0.14188211912E+04  0.12699999809E+01 0. -1.
</event>
<event>
 5   0  0.1429483E-05  0.2321965E+04  0.7818609E-02  0.8469311E-01
       -1   -1    0    0    0  501  0.00000000000E+00  0.00000000000E+00  0.10133966597E+04  0.10133966597E+04  0.50400001928E-02 0.  1.
        1   -1    0    0  501    0  0.00000000000E+00  0.00000000000E+00 -0.13300623368E+04  0.13300623368E+04  0.50400001928E-02 0. -1.
    10030    2    1    2    0    0  0.00000000000E+00  0.00000000000E+00 -0.31666567710E+03  0.23434589965E+04  0.23219653135E+04 0.  0.
        2    1    3    3  502    0  0.92982930841E+03  0.12734967459E+03  0.53142617094E+03  0.10785241108E+04  0.25500000920E-02 0.  1.
       -2    1    3    3    0  502 -0.92982930841E+03 -0.12734967459E+03 -0.84809184804E+03  0.12649348857E+04  0.25500000920E-02 0. -1.
</event>
<event>
 5   0  0.1421242E-05  0.2264034E+04  0.7818609E-02  0.8492239E-01
       -1   -1    0    0    0  501  0.00000000000E+00  0.00000000000E+00  0.88799509712E+03  0.88799509714E+03  0.50400001928E-02 0. -1.
        1   -1    0    0  501    0  0.00000000000E+00  0.00000000000E+00 -0.14430959497E+04  0.14430959497E+04  0.50400001928E-02 0.  1.
    10030    2    1    2    0    0  0.00000000000E+00  0.00000000000E+00 -0.55510085260E+03  0.23310910469E+04  0.22640336818E+04 0.  0.
        3    1    3    3  502    0  0.60116041511E+03 -0.18534530001E+03 -0.12465496944E+04  0.13962925466E+04  0.10100000352E+00 0.  1.
       -3    1    3    3    0  502 -0.60116041511E+03  0.18534530001E+03  0.69144884184E+03  0.93479850022E+03  0.10100000352E+00 0. -1.
</event>
<event>
 5   0  0.3650620E-05  0.2498875E+04  0.7818609E-02  0.8403387E-01
       -2   -1    0    0    0  501  0.00000000000E+00  0.00000000000E+00  0.75956714659E+03  0.75956714659E+03  0.25500000920E-02 0.  1.
        2   -1    0    0  501    0  0.00000000000E+00  0.00000000000E+00 -0.20552409649E+04  0.20552409649E+04  0.25500000920E-02 0. -1.
    10030    2    1    2    0    0  0.00000000000E+00  0.00000000000E+00 -0.12956738183E+04  0.28148081115E+04  0.24988745589E+04 0.  0.
        3    1    3    3  502    0  0.57400793047E+03  0.64929449862E+03 -0.16616398915E+04  0.18740639235E+04  0.10100000352E+00 0. -1.
       -3    1    3    3    0  502 -0.57400793047E+03 -0.64929449862E+03  0.36596607323E+03  0.94074418794E+03  0.10100000352E+00 0.  1.
</event>
<event>
 5   0  0.1429483E-05  0.2015027E+04  0.7818609E-02  0.8599627E-01
        1   -1    0    0  501    0  0.00000000000E+00  0.00000000000E+00  0.17875582004E+04  0.17875582004E+04  0.50400001928E-02 0.  1.
       -1   -1    0    0    0  501  0.00000000000E+00  0.00000000000E+00 -0.56786042780E+03  0.56786042783E+03  0.50400001928E-02 0. -1.
    10030    2    1    2    0    0  0.00000000000E+00  0.00000000000E+00  0.12196977726E+04  0.23554186282E+04  0.20150271109E+04 0.  0.
        2    1    3    3  502    0 -0.96946380591E+01  0.36344265762E+03  0.17082038763E+04  0.17464664424E+04  0.25500000920E-02 0.  1.
       -2    1    3    3    0  502  0.96946380591E+01 -0.36344265762E+03 -0.48850610365E+03  0.60895218589E+03  0.25500000920E-02 0. -1.
</event>
<event>
 5   0  0.1502886E-05  0.2494791E+04  0.7818609E-02  0.8404844E-01
        1   -1    0    0  501    0  0.00000000000E+00  0.00000000000E+00  0.11372947504E+04  0.11372947504E+04  0.50400001928E-02 0. -1.
       -1   -1    0    0    0  501  0.00000000000E+00  0.00000000000E+00 -0.13681547537E+04  0.13681547537E+04  0.50400001928E-02 0.  1.
    10030    2    1    2    0    0  0.00000000000E+00  0.00000000000E+00 -0.23086000331E+03  0.25054495041E+04  0.24947907480E+04 0.  0.
        4    1    3    3  502    0  0.10481609812E+04 -0.19946553690E+03 -0.76438400963E+03  0.13125214170E+04  0.12699999809E+01 0. -1.
       -4    1    3    3    0  502 -0.10481609812E+04  0.19946553690E+03  0.53352400632E+03  0.11929280872E+04  0.12699999809E+01 0.  1.
</event>
<event>
 5   0  0.3579097E-05  0.2452049E+04  0.7818609E-02  0.8420270E-01
        2   -1    0    0  501    0  0.00000000000E+00  0.00000000000E+00  0.10625283667E+04  0.10625283667E+04  0.25500000920E-02 0.  1.
       -2   -1    0    0    0  501  0.00000000000E+00  0.00000000000E+00 -0.14146779860E+04  0.14146779860E+04  0.25500000920E-02 0. -1.
    10030    2    1    2    0    0  0.00000000000E+00  0.00000000000E+00 -0.35214961930E+03  0.24772063527E+04  0.24520485231E+04 0.  0.
        5    1    3    3  502    0 -0.10446150116E+04 -0.29026776979E+03 -0.75434382959E+03  0.13208075575E+04  0.46999998093E+01 0. -1.
       -5    1    3    3    0  502  0.10446150116E+04  0.29026776979E+03  0.40219421029E+03  0.11563987952E+04  0.46999998093E+01 0.  1.
</event>
<event>
 5   0  0.3578670E-05  0.2491837E+04  0.7818609E-02  0.8405900E-01
       -2   -1    0    0    0  501  0.00000000000E+00  0.00000000000E+00  0.13219784837E+04  0.13219784837E+04  0.25500000920E-02 0. -1.
        2   -1    0    0  501    0  0.00000000000E+00  0.00000000000E+00 -0.11742342566E+04  0.11742342566E+04  0.25500000920E-02 0.  1.
    10030    2    1    2    0    0  0.00000000000E+00  0.00000000000E+00  0.14774422705E+03  0.24962127403E+04  0.24918366095E+04 0.  0.
        4    1    3    3  502    0  0.53100401292E+03 -0.11268713769E+04  0.51328208060E+02  0.12467720560E+04  0.12699999809E+01 0. -1.
       -4    1    3    3    0  502 -0.53100401292E+03  0.11268713769E+04  0.96416018993E+02  0.12494406843E+04  0.12699999809E+01 0.  1.
</event>
<event>
 5   0  0.1429483E-05  0.2462853E+04  0.7818609E-02  0.8416340E-01
       -1   -1    0    0    0  501  0.00000000000E+00  0.00000000000E+00  0.18219626778E+04  0.18219626778E+04  0.50400001928E-02 0.  1.
        1   -1    0    0  501    0  0.00000000000E+00  0.00000000000E+00 -0.83229538961E+03  0.83229538963E+03  0.50400001928E-02 0. -1.
    10030    2    1    2    0    0  0.00000000000E+00  0.00000000000E+00  0.98966728822E+03  0.26542580675E+04  0.24628529285E+04 0.  0.
        2    1    3    3  502    0 -0.12088915605E+04 -0.16763587631E+03  0.67156127981E+03  0.13930237416E+04  0.25500000920E-02 0.  1.
       -2    1    3    3    0  502  0.12088915605E+04  0.16763587631E+03  0.31810600841E+03  0.12612343259E+04  0.25500000920E-02 0. -1.
</event>
<event>
 5   0  0.1421242E-05  0.2573496E+04  0.7818609E-02  0.8377260E-01
        1   -1    0    0  501    0  0.00000000000E+00  0.00000000000E+00  0.29155921160E+04  0.29155921160E+04  0.50400001928E-02 0.  1.
       -1   -1    0    0    0  501  0.00000000000E+00  0.00000000000E+00 -0.56788488080E+03  0.56788488082E+03  0.50400001928E-02 0. -1.
    10030    2    1    2    0    0  0.00000000000E+00  0.00000000000E+00  0.23477072352E+04  0.34834769968E+04  0.25734962066E+04 0.  0.
        3    1    3    3  502    0 -0.12970396567E+03  0.12711463810E+04  0.96819401249E+03  0.16031331500E+04  0.10100000352E+00 0.  1.
       -3    1    3    3    0  502  0.12970396567E+03 -0.12711463810E+04  0.13795132227E+04  0.18803438468E+04  0.10100000352E+00 0. -1.
</event>
<event>
 5   0  0.1492639E-05  0.2499866E+04  0.7818609E-02  0.8403033E-01
       -1   -1    0    0    0  501  0.00000000000E+00  0.00000000000E+00  0.13255382935E+04  0.13255382935E+04  0.50400001928E-02 0.  1.
        1   -1    0    0  501    0  0.00000000000E+00  0.00000000000E+00 -0.11786403342E+04  0.11786403342E+04  0.50400001928E-02 0. -1.
    10030    2    1    2    0    0  0.00000000000E+00  0.00000000000E+00  0.14689795930E+03  0.25041786277E+04  0.24998663142E+04 0.  0.
        5    1    3    3  502    0 -0.16770989672E+03  0.32200743428E+03 -0.11246473964E+04  0.11818076212E+04  0.46999998093E+01 0. -1.
       -5    1    3    3    0  502  0.16770989672E+03 -0.32200743428E+03  0.12715453557E+04  0.13223710065E+04  0.46999998093E+01 0.  1.
</event>
<event>
 5   0  0.3704241E-05  0.2513034E+04  0.7818609E-02  0.8398357E-01
       -2   -1    0    0    0  501  0.00000000000E+00  0.00000000000E+00  0.21760379891E+04  0.21760379891E+04  0.25500000920E-02 0.  1.
        2   -1    0    0  501    0  0.00000000000E+00  0.00000000000E+00 -0.72555462025E+03  0.72555462025E+03  0.25500000920E-02 0. -1.
    10030    2    1    2    0    0  0.00000000000E+00  0.00000000000E+00  0.14504833688E+04  0.29015926093E+04  0.25130335587E+04 0.  0.
        2    1    3    3  502    0  0.14835312704E+03  0.39156289456E+03  0.20931122892E+04  0.21345840827E+04  0.25500000920E-02 0.  1.
       -2    1    3    3    0  502 -0.14835312704E+03 -0.39156289456E+03 -0.64262892037E+03  0.76700852668E+03  0.25500000920E-02 0. -1.
</event>
<event>
 5   0  0.1456876E-05  0.2528216E+04  0.7818609E-02  0.8393002E-01
        1   -1    0    0  501    0  0.00000000000E+00  0.00000000000E+00  0.14106674841E+04  0.14106674841E+04  0.50400001928E-02 0.  1.
       -1   -1    0    0    0  501  0.00000000000E+00  0.00000000000E+00 -0.11327755537E+04  0.11327755537E+04  0.50400001928E-02 0. -1.
    10030    2    1    2    0    0  0.00000000000E+00  0.00000000000E+00  0.27789193039E+03  0.25434430379E+04  0.25282164785E+04 0.  0.
        1    1    3    3  502    0  0.22625353657E+03  0.57936415796E+03 -0.96818922711E+03  0.11507579545E+04  0.50400001928E-02 0. -1.
       -1    1    3    3    0  502 -0.22625353657E+03 -0.57936415796E+03  0.12460811575E+04  0.13926850834E+04  0.50400001928E-02 0.  1.
</event>
<event>
 5   0  0.3579097E-05  0.2495626E+04  0.7818609E-02  0.8404546E-01
       -2   -1    0    0    0  501  0.00000000000E+00  0.00000000000E+00  0.92512096228E+03  0.92512096228E+03  0.25500000920E-02 0. -1.
        2   -1    0    0  501    0  0.00000000000E+00  0.00000000000E+00 -0.16830628581E+04  0.16830628581E+04  0.25500000920E-02 0.  1.
    10030    2    1    2    0    0  0.00000000000E+00  0.00000000000E+00 -0.75794189581E+03  0.26081838204E+04  0.24956255575E+04 0.  0.
        5    1    3    3  502    0  0.38504807276E+03 -0.71303165086E+03 -0.13706283997E+04  0.15922689639E+04  0.46999998093E+01 0.  1.
       -5    1    3    3    0  502 -0.38504807276E+03  0.71303165086E+03  0.61268650389E+03  0.10159148564E+04  0.46999998093E+01 0. -1.
</event>
<event>
 5   0  0.1421242E-05  0.2398314E+04  0.7818609E-02  0.8440135E-01
        1   -1    0    0  501    0  0.00000000000E+00  0.00000000000E+00  0.16122410201E+04  0.16122410201E+04  0.50400001928E-02 0. -1.
       -1   -1    0    0    0  501  0.00000000000E+00  0.00000000000E+00 -0.89191194597E+03  0.89191194598E+03  0.50400001928E-02 0.  1.
    10030    2    1    2    0    0  0.00000000000E+00  0.00000000000E+00  0.72032907410E+03  0.25041529661E+04  0.23983135955E+04 0.  0.
        3    1    3    3  502    0  0.10344807195E+04  0.39644769027E+03 -0.11906290944E+03  0.11142248951E+04  0.10100000352E+00 0.  1.
       -3    1    3    3    0  502 -0.10344807195E+04 -0.39644769027E+03  0.83939198353E+03  0.13899280710E+04  0.10100000352E+00 0. -1.
</event>
<event>
 5   0  0.3704241E-05  0.2441436E+04  0.7818609E-02  0.8424151E-01
        2   -1    0    0  501    0  0.00000000000E+00  0.00000000000E+00  0.11984128782E+04  0.11984128782E+04  0.25500000920E-02 0. -1.
       -2   -1    0    0    0  501  0.00000000000E+00  0.00000000000E+00 -0.12434386278E+04  0.12434386278E+04  0.25500000920E-02 0.  1.
    10030    2    1    2    0    0  0.00000000000E+00  0.00000000000E+00 -0.45025749527E+02  0.24418515060E+04  0.24414363517E+04 0.  0.
        2    1    3    3  502    0  0.14410192250E+03  0.49458296851E+03  0.10843709301E+04  0.12005157187E+04  0.25500000920E-02 0. -1.
       -2    1    3    3    0  502 -0.14410192250E+03 -0.49458296851E+03 -0.11293966796E+04  0.12413357873E+04  0.25500000920E-02 0.  1.
</event>
<event>
 5   0  0.3579097E-05  0.2507840E+04  0.7818609E-02  0.8400198E-01
       -2   -1    0    0    0  501  0.00000000000E+00  0.00000000000E+00  0.67473390269E+03  0.67473390270E+03  0.25500000920E-02 0.  1.
        2   -1    0    0  501    0  0.00000000000E+00  0.00000000000E+00 -0.23302743174E+04  0.23302743174E+04  0.25500000920E-02 0. -1.
    10030    2    1    2    0    0  0.00000000000E+00  0.00000000000E+00 -0.16555404147E+04  0.30050082201E+04  0.25078397752E+04 0.  0.
        5    1    3    3  502    0  0.11386677236E+04 -0.52435435719E+03 -0.79427676913E+03  0.14840516678E+04  0.46999998093E+01 0. -1.
       -5    1    3    3    0  502 -0.11386677236E+04  0.52435435719E+03 -0.86126364562E+03  0.15209565523E+04  0.46999998093E+01 0.  1.
</event>
<event>
 5   0  0.1456876E-05  0.2464216E+04  0.7818609E-02  0.8415846E-01
        1   -1    0    0  501    0  0.00000000000E+00  0.00000000000E+00  0.13778619194E+04  0.13778619194E+04  0.50400001928E-02 0.  1.
       -1   -1    0    0    0  501  0.00000000000E+00  0.00000000000E+00 -0.11017726729E+04  0.11017726729E+04  0.50400001928E-02 0. -1.
    10030    2    1    2    0    0  0.00000000000E+00  0.00000000000E+00  0.27608924649E+03  0.24796345923E+04  0.24642163946E+04 0.  0.
        1    1    3    3  502    0  0.17904764209E+03  0.27652607135E+03 -0.10566352126E+04  0.11067984003E+04  0.50400001928E-02 0. -1.
       -1    1    3    3    0  502 -0.17904764209E+03 -0.27652607135E+03  0.13327244591E+04  0.13728361920E+04  0.50400001928E-02 0.  1.
</event>
<event>
 5   0  0.1502886E-05  0.2517755E+04  0.7818609E-02  0.8396688E-01
       -1   -1    0    0    0  501  0.00000000000E+00  0.00000000000E+00  0.11093042747E+04  0.11093042747E+04  0.50400001928E-02 0.  1.
        1   -1    0    0  501    0  0.00000000000E+00  0.00000000000E+00 -0.14286179324E+04  0.14286179324E+04  0.50400001928E-02 0. -1.
    10030    2    1    2    0    0  0.00000000000E+00  0.00000000000E+00 -0.31931365775E+03  0.25379222071E+04  0.25177545387E+04 0.  0.
        4    1    3    3  502    0  0.21359748917E+03  0.54876332809E+03  0.96191261373E+03  0.11278486454E+04  0.12699999809E+01 0.  1.
       -4    1    3    3    0  502 -0.21359748917E+03 -0.54876332809E+03 -0.12812262715E+04  0.14100735616E+04  0.12699999809E+01 0. -1.
</event>
<event>
 5   0  0.3650620E-05  0.2835859E+04  0.7818609E-02  0.8292221E-01
        2   -1    0    0  501    0  0.00000000000E+00  0.00000000000E+00  0.25003918476E+04  0.25003918476E+04  0.25500000920E-02 0. -1.
       -2   -1    0    0    0  501  0.00000000000E+00  0.00000000000E+00 -0.80408334936E+03  0.80408334937E+03  0.25500000920E-02 0.  1.
    10030    2    1    2    0    0  0.00000000000E+00  0.00000000000E+00  0.16963084983E+04  0.33044751970E+04  0.28358585660E+04 0.  0.
        3    1    3    3  502    0 -0.11691828407E+04 -0.80170938718E+03  0.81525825981E+03  0.16353508788E+04  0.10100000352E+00 0.  1.
       -3    1    3    3    0  502  0.11691828407E+04  0.80170938718E+03  0.88105023846E+03  0.16691243182E+04  0.10100000352E+00 0. -1.
</event>
<event>
 5   0  0.1492639E-05  0.2499909E+04  0.7818609E-02  0.8403018E-01
        1   -1    0    0  501    0  0.00000000000E+00  0.00000000000E+00  0.98440942367E+03  0.98440942368E+03  0.50400001928E-02 0. -1.
       -1   -1    0    0    0  501  0.00000000000E+00  0.00000000000E+00 -0.15871306009E+04  0.15871306009E+04  0.50400001928E-02 0.  1.
    10030    2    1    2    0    0  0.00000000000E+00  0.00000000000E+00 -0.60272117722E+03  0.25715400246E+04  0.24999090545E+04 0.  0.
        5    1    3    3  502    0  0.78998705168E+02 -0.41909791769E+03 -0.15099650596E+04  0.15690444325E+04  0.46999998093E+01 0.  1.
       -5    1    3    3    0  502 -0.78998705168E+02  0.41909791769E+03  0.90724388236E+03  0.10024955921E+04  0.46999998093E+01 0. -1.
</event>
<event>
 5   0  0.3581449E-05  0.2652986E+04  0.7818609E-02  0.8350422E-01
        2   -1    0    0  501    0  0.00000000000E+00  0.00000000000E+00  0.20074971163E+04  0.20074971163E+04  0.25500000920E-02 0.  1.
       -2   -1    0    0    0  501  0.00000000000E+00  0.00000000000E+00 -0.87650639635E+03  0.87650639635E+03  0.25500000920E-02 0. -1.
    10030    2    1    2    0    0  0.00000000000E+00  0.00000000000E+00  0.11309907200E+04  0.28840035127E+04  0.26529862895E+04 0.  0.
        1    1    3    3  502    0  0.84090347168E+03  0.10218498709E+04  0.46652791607E+03  0.14031906869E+04  0.50400001928E-02 0. -1.
       -1    1    3    3    0  502 -0.84090347168E+03 -0.10218498709E+04  0.66446280390E+03  0.14808128258E+04  0.50400001928E-02 0.  1.
</event>
<event>
 5   0  0.1456876E-05  0.2517198E+04  0.7818609E-02  0.8396884E-01
        1   -1    0    0  501    0  0.00000000000E+00  0.00000000000E+00  0.27300934475E+04  0.27300934475E+04  0.50400001928E-02 0. -1.
       -1   -1    0    0    0  501  0.00000000000E+00  0.00000000000E+00 -0.58022624149E+03  0.58022624152E+03  0.50400001928E-02 0.  1.
    10030    2    1    2    0    0  0.00000000000E+00  0.00000000000E+00  0.21498672060E+04  0.33103196891E+04  0.25171983315E+04 0.  0.
        1    1    3    3  502    0  0.31768448205E+03  0.11340179824E+04  0.16588527351E+04  0.20343826118E+04  0.50400001928E-02 0.  1.
       -1    1    3    3    0  502 -0.31768448205E+03 -0.11340179824E+04  0.49101447096E+03  0.12759370773E+04  0.50400001928E-02 0. -1.
</event>
<event>
 5   0  0.3704241E-05  0.2487968E+04  0.7818609E-02  0.8407284E-01
       -2   -1    0    0    0  501  0.00000000000E+00  0.00000000000E+00  0.10576036244E+04  0.10576036244E+04  0.25500000920E-02 0.  1.
        2   -1    0    0  501    0  0.00000000000E+00  0.00000000000E+00 -0.14632101880E+04  0.14632101880E+04  0.25500000920E-02 0. -1.
    10030    2    1    2    0    0  0.00000000000E+00  0.00000000000E+00 -0.40560656359E+03  0.25208138124E+04  0.24879681655E+04 0.  0.
        2    1    3    3  502    0 -0.49950072239E+03  0.11140945464E+04  0.38646698558E+02  0.12215568744E+04  0.25500000920E-02 0.  1.
       -2    1    3    3    0  502  0.49950072239E+03 -0.11140945464E+04 -0.44425326215E+03  0.12992569380E+04  0.25500000920E-02 0. -1.
</event>
<event>
 5   0  0.1421242E-05  0.2303714E+04  0.7818609E-02  0.8476458E-01
        1   -1    0    0  501    0  0.00000000000E+00  0.00000000000E+00  0.10405342572E+04  0.10405342572E+04  0.50400001928E-02 0.  1.
       -1   -1    0    0    0  501  0.00000000000E+00  0.00000000000E+00 -0.12750899185E+04  0.12750899185E+04  0.50400001928E-02 0. -1.
    10030    2    1    2    0    0  0.00000000000E+00  0.00000000000E+00 -0.23455566131E+03  0.23156241757E+04  0.23037141673E+04 0.  0.
        3    1    3    3  502    0  0.26033694587E+03 -0.11189396459E+04 -0.33338772809E+02  0.11493096800E+04  0.10100000352E+00 0.  1.
       -3    1    3    3    0  502 -0.26033694587E+03  0.11189396459E+04 -0.20121688850E+03  0.11663144957E+04  0.10100000352E+00 0. -1.
</event>
<event>
 5   0  0.3578670E-05  0.2142643E+04  0.7818609E-02  0.8542688E-01
        2   -1    0    0  501    0  0.00000000000E+00  0.00000000000E+00  0.18606542390E+04  0.18606542390E+04  0.25500000920E-02 0.  1.
       -2   -1    0    0    0  501  0.00000000000E+00  0.00000000000E+00 -0.61684224931E+03  0.61684224931E+03  0.25500000920E-02 0. -1.
    10030    2    1    2    0    0  0.00000000000E+00  0.00000000000E+00  0.12438119897E+04  0.24774964883E+04  0.21426433637E+04 0.  0.
        4    1    3    3  502    0  0.72984671574E+03 -0.44941869743E+03 -0.12124606573E+03  0.86565328823E+03  0.12699999809E+01 0. -1.
       -4    1    3    3    0  502 -0.72984671574E+03  0.44941869743E+03  0.13650580554E+04  0.16118432000E+04  0.12699999809E+01 0.  1.
</event>
<event>
 5   0  0.3581449E-05  0.2567454E+04  0.7818609E-02  0.8379341E-01
        2   -1    0    0  501    0  0.00000000000E+00  0.00000000000E+00  0.19720619624E+04  0.19720619624E+04  0.25500000920E-02 0.  1.
       -2   -1    0    0    0  501  0.00000000000E+00  0.00000000000E+00 -0.83565080109E+03  0.83565080109E+03  0.25500000920E-02 0. -1.
    10030    2    1    2    0    0  0.00000000000E+00  0.00000000000E+00  0.11364111614E+04  0.28077127635E+04  0.25674541154E+04 0.  0.
        1    1    3    3  502    0  0.43438344705E+03  0.11923308402E+03 -0.74638758527E+03  0.87177975135E+03  0.50400001928E-02 0. -1.
       -1    1    3    3    0  502 -0.43438344705E+03 -0.11923308402E+03  0.18827987466E+04  0.19359330122E+04  0.50400001928E-02 0.  1.
</event>
<event>
 5   0  0.1421242E-05  0.2510665E+04  0.7818609E-02  0.8399196E-01
        1   -1    0    0  501    0  0.00000000000E+00  0.00000000000E+00  0.16042712047E+04  0.16042712048E+04  0.50400001928E-02 0. -1.
       -1   -1    0    0    0  501  0.00000000000E+00  0.00000000000E+00 -0.98229042342E+03  0.98229042343E+03  0.50400001928E-02 0.  1.
    10030    2    1    2    0    0  0.00000000000E+00  0.00000000000E+00  0.62198078133E+03  0.25865616282E+04  0.25106654425E+04 0.  0.
        3    1    3    3  502    0 -0.85012828011E+03  0.31332411220E+03 -0.58416591002E+03  0.10780259332E+04  0.10100000352E+00 0.  1.
       -3    1    3    3    0  502  0.85012828011E+03 -0.31332411220E+03  0.12061466913E+04  0.15085356950E+04  0.10100000352E+00 0. -1.
</event>
<event>
 5   0  0.1492639E-05  0.2509393E+04  0.7818609E-02  0.8399647E-01
        1   -1    0    0  501    0  0.00000000000E+00  0.00000000000E+00  0.14175647700E+04  0.14175647701E+04  0.50400001928E-02 0.  1.
       -1   -1    0    0    0  501  0.00000000000E+00  0.00000000000E+00 -0.11105410610E+04  0.11105410610E+04  0.50400001928E-02 0. -1.
    10030    2    1    2    0    0  0.00000000000E+00  0.00000000000E+00  0.30702370903E+03  0.25281058311E+04  0.25093934596E+04 0.  0.
        5    1    3    3  502    0 -0.63106035230E+02 -0.67333115655E+03 -0.91119643478E+03  0.11347503033E+04  0.46999998093E+01 0. -1.
       -5    1    3    3    0  502  0.63106035230E+02  0.67333115655E+03  0.12182201438E+04  0.13933555278E+04  0.46999998093E+01 0.  1.
</event>
<event>
 5   0  0.1421242E-05  0.2538831E+04  0.7818609E-02  0.8389281E-01
        1   -1    0    0  501    0  0.00000000000E+00  0.00000000000E+00  0.95434121258E+03  0.95434121259E+03  0.50400001928E-02 0.  1.
       -1   -1    0    0    0  501  0.00000000000E+00  0.00000000000E+00 -0.16885104473E+04  0.16885104473E+04  0.50400001928E-02 0. -1.
    10030    2    1    2    0    0  0.00000000000E+00  0.00000000000E+00 -0.73416923470E+03  0.26428516599E+04  0.25388305243E+04 0.  0.
        3    1    3    3  502    0 -0.10474141196E+03 -0.66331408439E+03  0.75429828913E+03  0.10099120046E+04  0.10100000352E+00 0.  1.
       -3    1    3    3    0  502  0.10474141196E+03  0.66331408439E+03 -0.14884675238E+04  0.16329396552E+04  0.10100000352E+00 0. -1.
</event>
<event>
 5   0  0.1201438E-05  0.2511319E+04  0.7818609E-02  0.8398964E-01
       -3   -1    0    0    0  501  0.00000000000E+00  0.00000000000E+00  0.15153378672E+04  0.15153378706E+04  0.10100000352E+00 0. -1.
        3   -1    0    0  501    0  0.00000000000E+00  0.00000000000E+00 -0.10404814227E+04  0.10404814276E+04  0.10100000352E+00 0.  1.
    10030    2    1    2    0    0  0.00000000000E+00  0.00000000000E+00  0.47485644453E+03  0.25558192981E+04  0.25113191039E+04 0.  0.
        1    1    3    3  502    0  0.25760262249E+03  0.84962913182E+03  0.11411108054E+04  0.14458086468E+04  0.50400001928E-02 0. -1.
       -1    1    3    3    0  502 -0.25760262249E+03 -0.84962913182E+03 -0.66625436090E+03  0.11100106514E+04  0.50400001928E-02 0.  1.
</event>
<event>
 5   0  0.3704241E-05  0.2492497E+04  0.7818609E-02  0.8405663E-01
        2   -1    0    0  501    0  0.00000000000E+00  0.00000000000E+00  0.17711187850E+04  0.17711187850E+04  0.25500000920E-02 0. -1.
       -2   -1    0    0    0  501  0.00000000000E+00  0.00000000000E+00 -0.87692358322E+03  0.87692358322E+03  0.25500000920E-02 0.  1.
    10030    2    1    2    0    0  0.00000000000E+00  0.00000000000E+00  0.89419520180E+03  0.26480423682E+04  0.24924974072E+04 0.  0.
        2    1    3    3  502    0  0.41903404572E+03 -0.57127260086E+03  0.15363577959E+04  0.16918443170E+04  0.25500000920E-02 0. -1.
       -2    1    3    3    0  502 -0.41903404572E+03  0.57127260086E+03 -0.64216259408E+03  0.95619805125E+03  0.25500000920E-02 0.  1.
</event>
<event>
 5   0  0.1421242E-05  0.2492106E+04  0.7818609E-02  0.8405803E-01
       -1   -1    0    0    0  501  0.00000000000E+00  0.00000000000E+00  0.17954763209E+04  0.17954763209E+04  0.50400001928E-02 0. -1.
        1   -1    0    0  501    0  0.00000000000E+00  0.00000000000E+00 -0.86475560082E+03  0.86475560083E+03  0.50400001928E-02 0.  1.
    10030    2    1    2    0    0  0.00000000000E+00  0.00000000000E+00  0.93072072007E+03  0.26602319217E+04  0.24921061010E+04 0.  0.
        3    1    3    3  502    0  0.41280852884E+03  0.10597468148E+04 -0.78075995662E+02  0.11399868702E+04  0.10100000352E+00 0.  1.
       -3    1    3    3    0  502 -0.41280852884E+03 -0.10597468148E+04  0.10087967157E+04  0.15202450515E+04  0.10100000352E+00 0. -1.
</event>
<event>
 5   0  0.3581449E-05  0.2534251E+04  0.7818609E-02  0.8390884E-01
       -2   -1    0    0    0  501  0.00000000000E+00  0.00000000000E+00  0.10562579595E+04  0.10562579595E+04  0.25500000920E-02 0. -1.
        2   -1    0    0  501    0  0.00000000000E+00  0.00000000000E+00 -0.15200894353E+04  0.15200894353E+04  0.25500000920E-02 0.  1.
    10030    2    1    2    0    0  0.00000000000E+00  0.00000000000E+00 -0.46383147586E+03  0.25763473948E+04  0.25342506310E+04 0.  0.
        1    1    3    3  502    0 -0.17129546257E+03  0.14112098460E+03 -0.15001760336E+04  0.15165043355E+04  0.50400001928E-02 0.  1.
       -1    1    3    3    0  502  0.17129546257E+03 -0.14112098460E+03  0.10363445578E+04  0.10598430593E+04  0.50400001928E-02 0. -1.
</event>
<event>
 5   0  0.3578670E-05  0.1946578E+04  0.7818609E-02  0.8632012E-01
       -2   -1    0    0    0  501  0.00000000000E+00  0.00000000000E+00  0.77446360732E+03  0.77446360733E+03  0.25500000920E-02 0. -1.
        2   -1    0    0  501    0  0.00000000000E+00  0.00000000000E+00 -0.12231587738E+04  0.12231587738E+04  0.25500000920E-02 0.  1.
    10030    2    1    2    0    0  0.00000000000E+00  0.00000000000E+00 -0.44869516647E+03  0.19976223811E+04  0.19465784919E+04 0.  0.
        4    1    3    3  502    0 -0.32861859805E+03 -0.88204202117E+03 -0.47843251736E+03  0.10558823782E+04  0.12699999809E+01 0.  1.
       -4    1    3    3    0  502  0.32861859805E+03  0.88204202117E+03  0.29737350888E+02  0.94174000289E+03  0.12699999809E+01 0. -1.
</event>
<event>
 5   0  0.1492639E-05  0.2520935E+04  0.7818609E-02  0.8395565E-01
        1   -1    0    0  501    0  0.00000000000E+00  0.00000000000E+00  0.15951814387E+04  0.15951814387E+04  0.50400001928E-02 0. -1.
       -1   -1    0    0    0  501  0.00000000000E+00  0.00000000000E+00 -0.99598597765E+03  0.99598597766E+03  0.50400001928E-02 0.  1.
    10030    2    1    2    0    0  0.00000000000E+00  0.00000000000E+00  0.59919546104E+03  0.25911674164E+04  0.25209350208E+04 0.  0.
        5    1    3    3  502    0 -0.11263798852E+04 -0.55737337407E+03  0.39903767281E+03  0.13185787342E+04  0.46999998093E+01 0. -1.
       -5    1    3    3    0  502  0.11263798852E+04  0.55737337407E+03  0.20015778823E+03  0.12725886822E+04  0.46999998093E+01 0.  1.
</event>
<event>
 5   0  0.3650620E-05  0.2502436E+04  0.7818609E-02  0.8402118E-01
        2   -1    0    0  501    0  0.00000000000E+00  0.00000000000E+00  0.22305968644E+04  0.22305968644E+04  0.25500000920E-02 0.  1.
       -2   -1    0    0    0  501  0.00000000000E+00  0.00000000000E+00 -0.70185066083E+03  0.70185066084E+03  0.25500000920E-02 0. -1.
    10030    2    1    2    0    0  0.00000000000E+00  0.00000000000E+00  0.15287462035E+04  0.29324475252E+04  0.25024355203E+04 0.  0.
        3    1    3    3  502    0  0.43015355887E+03 -0.11699881192E+04  0.63793630067E+03  0.14003096148E+04  0.10100000352E+00 0.  1.
       -3    1    3    3    0  502 -0.43015355887E+03  0.11699881192E+04  0.89080990287E+03  0.15321379104E+04  0.10100000352E+00 0. -1.
</event>
<event>
 5   0  0.3650620E-05  0.2500151E+04  0.7818609E-02  0.8402932E-01
       -2   -1    0    0    0  501  0.00000000000E+00  0.00000000000E+00  0.10958979173E+04  0.10958979173E+04  0.25500000920E-02 0.  1.
        2   -1    0    0  501    0  0.00000000000E+00  0.00000000000E+00 -0.14259436133E+04  0.14259436133E+04  0.25500000920E-02 0. -1.
    10030    2    1    2    0    0  0.00000000000E+00  0.00000000000E+00 -0.33004569602E+03  0.25218415306E+04  0.25001509042E+04 0.  0.
        3    1    3    3  502    0 -0.63572161061E+03 -0.36143777312E+02 -0.12501068040E+04  0.14029309928E+04  0.10100000352E+00 0. -1.
       -3    1    3    3    0  502  0.63572161061E+03  0.36143777312E+02  0.92006110802E+03  0.11189105378E+04  0.10100000352E+00 0.  1.
</event>
<event>
 5   0  0.1429483E-05  0.2599013E+04  0.7818609E-02  0.8368536E-01
       -1   -1    0    0    0  501  0.00000000000E+00  0.00000000000E+00  0.10707236315E+04  0.10707236315E+04  0.50400001928E-02 0.  1.
        1   -1    0    0  501    0  0.00000000000E+00  0.00000000000E+00 -0.15771742745E+04  0.15771742745E+04  0.50400001928E-02 0. -1.
    10030    2    1    2    0    0  0.00000000000E+00  0.00000000000E+00 -0.50645064302E+03  0.26478979061E+04  0.25990134796E+04 0.  0.
        2    1    3    3  502    0 -0.93029868709E+03  0.86719688492E+03  0.18687261220E+02  0.12719415467E+04  0.25500000920E-02 0. -1.
       -2    1    3    3    0  502  0.93029868709E+03 -0.86719688492E+03 -0.52513790424E+03  0.13759563594E+04  0.25500000920E-02 0.  1.
</event>
<event>
 5   0  0.1492639E-05  0.2562293E+04  0.7818609E-02  0.8381123E-01
        1   -1    0    0  501    0  0.00000000000E+00  0.00000000000E+00  0.18127703059E+04  0.18127703059E+04  0.50400001928E-02 0. -1.
       -1   -1    0    0    0  501  0.00000000000E+00  0.00000000000E+00 -0.90542981232E+03  0.90542981234E+03  0.50400001928E-02 0.  1.
    10030    2    1    2    0    0  0.00000000000E+00  0.00000000000E+00  0.90734049359E+03  0.27182001183E+04  0.25622929402E+04 0.  0.
        5    1    3    3  502    0 -0.28852501432E+02 -0.66067090995E+03 -0.71036226247E+03  0.97054374040E+03  0.46999998093E+01 0.  1.
       -5    1    3    3    0  502  0.28852501432E+02  0.66067090995E+03  0.16177027561E+04  0.17476563778E+04  0.46999998093E+01 0. -1.
</event>
<event>
 5   0  0.1456876E-05  0.2494893E+04  0.7818609E-02  0.8404807E-01
        1   -1    0    0  501    0  0.00000000000E+00  0.00000000000E+00  0.24063326787E+04  0.24063326787E+04  0.50400001928E-02 0.  1.
       -1   -1    0    0    0  501  0.00000000000E+00  0.00000000000E+00 -0.64667825037E+03  0.64667825039E+03  0.50400001928E-02 0. -1.
    10030    2    1    2    0    0  0.00000000000E+00  0.00000000000E+00  0.17596544283E+04  0.30530109291E+04  0.24948931893E+04 0.  0.
        1    1    3    3  502    0 -0.43441813448E+03 -0.10610319027E+04  0.14813312156E+04  0.18731924580E+04  0.50400001928E-02 0.  1.
       -1    1    3    3    0  502  0.43441813448E+03  0.10610319027E+04  0.27832321271E+03  0.11798184711E+04  0.50400001928E-02 0. -1.
</event>
<event>
 5   0  0.3579097E-05  0.2511830E+04  0.7818609E-02  0.8398783E-01
       -2   -1    0    0    0  501  0.00000000000E+00  0.00000000000E+00  0.12194097734E+04  0.12194097734E+04  0.25500000920E-02 0. -1.
        2   -1    0    0  501    0  0.00000000000E+00  0.00000000000E+00 -0.12935134146E+04  0.12935134146E+04  0.25500000920E-02 0.  1.
    10030    2    1    2    0    0  0.00000000000E+00  0.00000000000E+00 -0.74103641218E+02  0.25129231881E+04  0.25118303286E+04 0.  0.
        5    1    3    3  502    0  0.11846380013E+04 -0.18409498092E+03 -0.41143737199E+03  0.12675018569E+04  0.46999998093E+01 0. -1.
       -5    1    3    3    0  502 -0.11846380013E+04  0.18409498092E+03  0.33733373077E+03  0.12454213312E+04  0.46999998093E+01 0.  1.
</event>
<event>
 5   0  0.3650620E-05  0.2475506E+04  0.7818609E-02  0.8411764E-01
       -2   -1    0    0    0  501  0.00000000000E+00  0.00000000000E+00  0.10070231953E+04  0.10070231953E+04  0.25500000920E-02 0.  1.
        2   -1    0    0  501    0  0.00000000000E+00  0.00000000000E+00 -0.15213482616E+04  0.15213482616E+04  0.25500000920E-02 0. -1.
    10030    2    1    2    0    0  0.00000000000E+00  0.00000000000E+00 -0.51432506625E+03  0.25283714570E+04  0.24755064028E+04 0.  0.
        3    1    3    3  502    0  0.11277931122E+04 -0.23693611198E+03  0.20412038691E+03  0.11703508737E+04  0.10100000352E+00 0.  1.
       -3    1    3    3    0  502 -0.11277931122E+04  0.23693611198E+03 -0.71844545316E+03  0.13580205832E+04  0.10100000352E+00 0. -1.
</event>
<event>
 5   0  0.3578670E-05  0.2494751E+04  0.7818609E-02  0.8404858E-01
        2   -1    0    0  501    0  0.00000000000E+00  0.00000000000E+00  0.20515498835E+04  0.20515498835E+04  0.25500000920E-02 0.  1.
       -2   -1    0    0    0  501  0.00000000000E+00  0.00000000000E+00 -0.75842440846E+03  0.75842440846E+03  0.25500000920E-02 0. -1.
    10030    2    1    2    0    0  0.00000000000E+00  0.00000000000E+00  0.12931254751E+04  0.28099742920E+04  0.24947508949E+04 0.  0.
        4    1    3    3  502    0 -0.54681366688E+03  0.10302461917E+04  0.14850061308E+03  0.11757833333E+04  0.12699999809E+01 0. -1.
       -4    1    3    3    0  502  0.54681366688E+03 -0.10302461917E+04  0.11446248620E+04  0.16341909587E+04  0.12699999809E+01 0.  1.
</event>
<event>
 5   0  0.3650620E-05  0.2513218E+04  0.7818609E-02  0.8398292E-01
       -2   -1    0    0    0  501  0.00000000000E+00  0.00000000000E+00  0.10115122334E+04  0.10115122334E+04  0.25500000920E-02 0.  1.
        2   -1    0    0  501    0  0.00000000000E+00  0.00000000000E+00 -0.15610945909E+04  0.15610945909E+04  0.25500000920E-02 0. -1.
    10030    2    1    2    0    0  0.00000000000E+00  0.00000000000E+00 -0.54958235750E+03  0.25726068243E+04  0.25132180774E+04 0.  0.
        3    1    3    3  502    0  0.12197361304E+04  0.12078316118E+03  0.87405654391E+01  0.12257329266E+04  0.10100000352E+00 0.  1.
       -3    1    3    3    0  502 -0.12197361304E+04 -0.12078316118E+03 -0.55832292294E+03  0.13468738977E+04  0.10100000352E+00 0. -1.
</event>
<event>
 5   0  0.1492639E-05  0.2473520E+04  0.7818609E-02  0.8412480E-01
       -1   -1    0    0    0  501  0.00000000000E+00  0.00000000000E+00  0.85426609431E+03  0.85426609433E+03  0.50400001928E-02 0.  1.
        1   -1    0    0  501    0  0.00000000000E+00  0.00000000000E+00 -0.17905138110E+04  0.17905138110E+04  0.50400001928E-02 0. -1.
    10030    2    1    2    0    0  0.00000000000E+00  0.00000000000E+00 -0.93624771669E+03  0.26447799053E+04  0.24735199536E+04 0.  0.
        5    1    3    3  502    0 -0.10024088095E+04 -0.65343231539E+03 -0.80243102920E+03  0.14407341388E+04  0.46999998093E+01 0. -1.
       -5    1    3    3    0  502  0.10024088095E+04  0.65343231539E+03 -0.13381668749E+03  0.12040457665E+04  0.46999998093E+01 0.  1.
</event>
<event>
 5   0  0.1502886E-05  0.2450778E+04  0.7818609E-02  0.8420734E-01
        1   -1    0    0  501    0  0.00000000000E+00  0.00000000000E+00  0.14362975561E+04  0.14362975561E+04  0.50400001928E-02 0.  1.
       -1   -1    0    0    0  501  0.00000000000E+00  0.00000000000E+00 -0.10454510510E+04  0.10454510510E+04  0.50400001928E-02 0. -1.
    10030    2    1    2    0    0  0.00000000000E+00  0.00000000000E+00  0.39084650508E+03  0.24817486071E+04  0.24507784801E+04 0.  0.
        4    1    3    3  502    0 -0.84188825933E+03 -0.87524634956E+03  0.36102936173E+03  0.12669553372E+04  0.12699999809E+01 0.  1.
       -4    1    3    3    0  502  0.84188825933E+03  0.87524634956E+03  0.29817143351E+02  0.12147932699E+04  0.12699999809E+01 0. -1.
</event>
<event>
 5   0  0.1492639E-05  0.2460500E+04  0.7818609E-02  0.8417194E-01
        1   -1    0    0  501    0  0.00000000000E+00  0.00000000000E+00  0.17857688401E+04  0.17857688401E+04  0.50400001928E-02 0.  1.
       -1   -1    0    0    0  501  0.00000000000E+00  0.00000000000E+00 -0.84754233752E+03  0.84754233754E+03  0.50400001928E-02 0. -1.
    10030    2    1    2    0    0  0.00000000000E+00  0.00000000000E+00  0.93822650260E+03  0.26333111777E+04  0.24604997030E+04 0.  0.
        5    1    3    3  502    0  0.75249846861E+03  0.15097898623E+03 -0.55989574447E+03  0.95002838600E+03  0.46999998093E+01 0. -1.
       -5    1    3    3    0  502 -0.75249846861E+03 -0.15097898623E+03  0.14981222471E+04  0.16832827917E+04  0.46999998093E+01 0.  1.
</event>
<event>
 5   0  0.1502886E-05  0.2511477E+04  0.7818609E-02  0.8398908E-01
       -1   -1    0    0    0  501  0.00000000000E+00  0.00000000000E+00  0.13006646282E+04  0.13006646282E+04  0.50400001928E-02 0. -1.
        1   -1    0    0  501    0  0.00000000000E+00  0.00000000000E+00 -0.12123644504E+04  0.12123644504E+04  0.50400001928E-02 0.  1.
    10030    2    1    2    0    0  0.00000000000E+00  0.00000000000E+00  0.88300177807E+02  0.25130290786E+04  0.25114773000E+04 0.  0.
        4    1    3    3  502    0  0.11301117569E+04 -0.41021289073E+03  0.40693547416E+03  0.12692617113E+04  0.12699999809E+01 0. -1.
       -4    1    3    3    0  502 -0.11301117569E+04  0.41021289073E+03 -0.31863529635E+03  0.12437673672E+04  0.12699999809E+01 0.  1.
</event>
<event>
 5   0  0.3650620E-05  0.2475931E+04  0.7818609E-02  0.8411611E-01
        2   -1    0    0  501    0  0.00000000000E+00  0.00000000000E+00  0.14141530015E+04  0.14141530015E+04  0.25500000920E-02 0.  1.
       -2   -1    0    0    0  501  0.00000000000E+00  0.00000000000E+00 -0.10837287189E+04  0.10837287189E+04  0.25500000920E-02 0. -1.
    10030    2    1    2    0    0  0.00000000000E+00  0.00000000000E+00  0.33042428255E+03  0.24978817204E+04  0.24759307104E+04 0.  0.
        3    1    3    3  502    0 -0.12183683750E+04  0.10387827185E+03  0.36017663870E+03  0.12747311143E+04  0.10100000352E+00 0.  1.
       -3    1    3    3    0  502  0.12183683750E+04 -0.10387827185E+03 -0.29752356149E+02  0.12231506062E+04  0.10100000352E+00 0. -1.
</event>
<event>
 5   0  0.1421242E-05  0.2555993E+04  0.7818609E-02  0.8383305E-01
        1   -1    0    0  501    0  0.00000000000E+00  0.00000000000E+00  0.10849896777E+04  0.10849896778E+04  0.50400001928E-02 0. -1.
       -1   -1    0    0    0  501  0.00000000000E+00  0.00000000000E+00 -0.15053365961E+04  0.15053365962E+04  0.50400001928E-02 0.  1.
    10030    2    1    2    0    0  0.00000000000E+00  0.00000000000E+00 -0.42034691841E+03  0.25903262739E+04  0.25559926982E+04 0.  0.
        3    1    3    3  502    0  0.12296912110E+04 -0.11391389304E+03 -0.54346462437E+03  0.13492481824E+04  0.10100000352E+00 0.  1.
       -3    1    3    3    0  502 -0.12296912110E+04  0.11391389304E+03  0.12311770596E+03  0.12410780915E+04  0.10100000352E+00 0. -1.
</event>
<event>
 5   0  0.1429483E-05  0.2516147E+04  0.7818609E-02  0.8397256E-01
       -1   -1    0    0    0  501  0.00000000000E+00  0.00000000000E+00  0.13742299481E+04  0.13742299481E+04  0.50400001928E-02 0.  1.
        1   -1    0    0  501    0  0.00000000000E+00  0.00000000000E+00 -0.11517347753E+04  0.11517347753E+04  0.50400001928E-02 0. -1.
    10030    2    1    2    0    0  0.00000000000E+00  0.00000000000E+00  0.22249517284E+03  0.25259647235E+04  0.25161465939E+04 0.  0.
        2    1    3    3  502    0 -0.44362087835E+03  0.11718609194E+04  0.22434116233E+03  0.12729440110E+04  0.25500000920E-02 0.  1.
       -2    1    3    3    0  502  0.44362087835E+03 -0.11718609194E+04 -0.18459894900E+01  0.12530207124E+04  0.25500000920E-02 0. -1.
</event>
<event>
 5   0  0.3650620E-05  0.2532459E+04  0.7818609E-02  0.8391512E-01
       -2   -1    0    0    0  501  0.00000000000E+00  0.00000000000E+00  0.84845546133E+03  0.84845546133E+03  0.25500000920E-02 0.  1.
        2   -1    0    0  501    0  0.00000000000E+00  0.00000000000E+00 -0.18897129127E+04  0.18897129127E+04  0.25500000920E-02 0. -1.
    10030    2    1    2    0    0  0.00000000000E+00  0.00000000000E+00 -0.10412574513E+04  0.27381683740E+04  0.25324590746E+04 0.  0.
        3    1    3    3  502    0 -0.10248461320E+04 -0.63112343929E+03 -0.94591178925E+03  0.15308087775E+04  0.10100000352E+00 0. -1.
       -3    1    3    3    0  502  0.10248461320E+04  0.63112343929E+03 -0.95345662094E+02  0.12073595965E+04  0.10100000352E+00 0.  1.
</event>
<event>
 5   0  0.1421242E-05  0.2540482E+04  0.7818609E-02  0.8388704E-01
       -1   -1    0    0    0  501  0.00000000000E+00  0.00000000000E+00  0.78104382195E+03  0.78104382197E+03  0.50400001928E-02 0. -1.
        1   -1    0    0  501    0  0.00000000000E+00  0.00000000000E+00 -0.20658408307E+04  0.20658408307E+04  0.50400001928E-02 0.  1.
    10030    2    1    2    0    0  0.00000000000E+00  0.00000000000E+00 -0.12847970087E+04  0.28468846527E+04  0.25404820157E+04 0.  0.
        3    1    3    3  502    0  0.55680446844E+03 -0.50160241797E+03  0.50690841316E+03  0.90476093600E+03  0.10100000352E+00 0. -1.
       -3    1    3    3    0  502 -0.55680446844E+03  0.50160241797E+03 -0.17917054219E+04  0.19421237167E+04  0.10100000352E+00 0.  1.
</event>
<event>
 5   0  0.3578670E-05  0.2498976E+04  0.7818609E-02  0.8403350E-01
       -2   -1    0    0    0  501  0.00000000000E+00  0.00000000000E+00  0.11608613625E+04  0.11608613625E+04  0.25500000920E-02 0. -1.
        2   -1    0    0  501    0  0.00000000000E+00  0.00000000000E+00 -0.13448813681E+04  0.13448813681E+04  0.25500000920E-02 0.  1.
    10030    2    1    2    0    0  0.00000000000E+00  0.00000000000E+00 -0.18402000565E+03  0.25057427306E+04  0.24989764443E+04 0.  0.
        4    1    3    3  502    0 -0.98904457397E+03  0.19620151446E+03  0.64790058336E+03  0.11985328458E+04  0.12699999809E+01 0. -1.
       -4    1    3    3    0  502  0.98904457397E+03 -0.19620151446E+03 -0.83192058900E+03  0.13072098848E+04  0.12699999809E+01 0.  1.
</event>
<event>
 5   0  0.1429483E-05  0.2538331E+04  0.7818609E-02  0.8389456E-01
        1   -1    0    0  501    0  0.00000000000E+00  0.00000000000E+00  0.17847525786E+04  0.17847525786E+04  0.50400001928E-02 0.  1.
       -1   -1    0    0    0  501  0.00000000000E+00  0.00000000000E+00 -0.90252356448E+03  0.90252356449E+03  0.50400001928E-02 0. -1.
    10030    2    1    2    0    0  0.00000000000E+00  0.00000000000E+00  0.88222901410E+03  0.26872761431E+04  0.25383311517E+04 0.  0.
        2    1    3    3  502    0 -0.12246716763E+04  0.63378157152E+02  0.78732619741E+03  0.14572988872E+04  0.25500000920E-02 0.  1.
       -2    1    3    3    0  502  0.12246716763E+04 -0.63378157152E+02  0.94902816698E+02  0.12299772559E+04  0.25500000920E-02 0. -1.
</event>
<event>
 5   0  0.1429483E-05  0.2540486E+04  0.7818609E-02  0.8388703E-01
        1   -1    0    0  501    0  0.00000000000E+00  0.00000000000E+00  0.15612970583E+04  0.15612970583E+04  0.50400001928E-02 0. -1.
       -1   -1    0    0    0  501  0.00000000000E+00  0.00000000000E+00 -0.10334463747E+04  0.10334463747E+04  0.50400001928E-02 0.  1.
    10030    2    1    2    0    0  0.00000000000E+00  0.00000000000E+00  0.52785068359E+03  0.25947434329E+04  0.25404856108E+04 0.  0.
        2    1    3    3  502    0 -0.12978483820E+03 -0.15339408486E+03 -0.10171119549E+04  0.10367692985E+04  0.25500000920E-02 0.  1.
       -2    1    3    3    0  502  0.12978483820E+03  0.15339408486E+03  0.15449626385E+04  0.15579741345E+04  0.25500000920E-02 0. -1.
</event>
<event>
 5   0  0.1502886E-05  0.2502344E+04  0.7818609E-02  0.8402151E-01
       -1   -1    0    0    0  501  0.00000000000E+00  0.00000000000E+00  0.18225319717E+04  0.18225319717E+04  0.50400001928E-02 0.  1.
        1   -1    0    0  501    0  0.00000000000E+00  0.00000000000E+00 -0.85893241226E+03  0.85893241228E+03  0.50400001928E-02 0. -1.
    10030    2    1    2    0    0  0.00000000000E+00  0.00000000000E+00  0.96359955946E+03  0.26814643840E+04  0.25023443272E+04 0.  0.
        4    1    3    3  502    0 -0.12210611444E+03  0.39329734117E+03 -0.78422553493E+03  0.88577875583E+03  0.12699999809E+01 0. -1.
       -4    1    3    3    0  502  0.12210611444E+03 -0.39329734117E+03  0.17478250944E+04  0.17956856282E+04  0.12699999809E+01 0.  1.
</event>
<event>
 5   0  0.1421242E-05  0.2485081E+04  0.7818609E-02  0.8408320E-01
        1   -1    0    0  501    0  0.00000000000E+00  0.00000000000E+00  0.12448697239E+04  0.12448697239E+04  0.50400001928E-02 0. -1.
       -1   -1    0    0    0  501  0.00000000000E+00  0.00000000000E+00 -0.12402156954E+04  0.12402156954E+04  0.50400001928E-02 0.  1.
    10030    2    1    2    0    0  0.00000000000E+00  0.00000000000E+00  0.46540284983E+01  0.24850854194E+04  0.24850810614E+04 0.  0.
        3    1    3    3  502    0  0.44051414792E+03 -0.11047403896E+04  0.36205381489E+03  0.12432164003E+04  0.10100000352E+00 0.  1.
       -3    1    3    3    0  502 -0.44051414792E+03  0.11047403896E+04 -0.35739978639E+03  0.12418690190E+04  0.10100000352E+00 0. -1.
</event>
<event>
 5   0  0.1492639E-05  0.2554028E+04  0.7818609E-02  0.8383987E-01
        1   -1    0    0  501    0  0.00000000000E+00  0.00000000000E+00  0.12677243128E+04  0.12677243128E+04  0.50400001928E-02 0.  1.
       -1   -1    0    0    0  501  0.00000000000E+00  0.00000000000E+00 -0.12863720469E+04  0.12863720469E+04  0.50400001928E-02 0. -1.
    10030    2    1    2    0    0  0.00000000000E+00  0.00000000000E+00 -0.18647734090E+02  0.25540963598E+04  0.25540282843E+04 0.  0.
        5    1    3    3  502    0 -0.11764790439E+04 -0.41945316020E+03  0.25657630944E+03  0.12751068139E+04  0.46999998093E+01 0.  1.
       -5    1    3    3    0  502  0.11764790439E+04  0.41945316020E+03 -0.27522404353E+03  0.12789895459E+04  0.46999998093E+01 0. -1.
</event>
<event>
 5   0  0.3650620E-05  0.2556166E+04  0.7818609E-02  0.8383245E-01
        2   -1    0    0  501    0  0.00000000000E+00  0.00000000000E+00  0.15724955500E+04  0.15724955500E+04  0.25500000920E-02 0.  1.
       -2   -1    0    0    0  501  0.00000000000E+00  0.00000000000E+00 -0.10387919013E+04  0.10387919013E+04  0.25500000920E-02 0. -1.
    10030    2    1    2    0    0  0.00000000000E+00  0.00000000000E+00  0.53370364869E+03  0.26112874513E+04  0.25561655988E+04 0.  0.
        3    1    3    3  502    0 -0.77691850184E+03 -0.84736150390E+03  0.83734928829E+03  0.14222439023E+04  0.10100000352E+00 0.  1.
       -3    1    3    3    0  502  0.77691850184E+03  0.84736150390E+03 -0.30364563960E+03  0.11890435490E+04  0.10100000352E+00 0. -1.
</event>
<event>
 5   0  0.1456876E-05  0.2575777E+04  0.7818609E-02  0.8376476E-01
       -1   -1    0    0    0  501  0.00000000000E+00  0.00000000000E+00  0.12363190801E+04  0.12363190801E+04  0.50400001928E-02 0.  1.
        1   -1    0    0  501    0  0.00000000000E+00  0.00000000000E+00 -0.13416088761E+04  0.13416088761E+04  0.50400001928E-02 0. -1.
    10030    2    1    2    0    0  0.00000000000E+00  0.00000000000E+00 -0.10528979600E+03  0.25779279562E+04  0.25757768938E+04 0.  0.
        1    1    3    3  502    0  0.25201384836E+03  0.60877511845E+03 -0.11601577128E+04  0.13341979025E+04  0.50400001928E-02 0. -1.
       -1    1    3    3    0  502 -0.25201384836E+03 -0.60877511845E+03  0.10548679168E+04  0.12437300537E+04  0.50400001928E-02 0.  1.
</event>
<event>
 5   0  0.3581449E-05  0.2518913E+04  0.7818609E-02  0.8396278E-01
       -2   -1    0    0    0  501  0.00000000000E+00  0.00000000000E+00  0.89318408339E+03  0.89318408339E+03  0.25500000920E-02 0.  1.
        2   -1    0    0  501    0  0.00000000000E+00  0.00000000000E+00 -0.17759282365E+04  0.17759282365E+04  0.25500000920E-02 0. -1.
    10030    2    1    2    0    0  0.00000000000E+00  0.00000000000E+00 -0.88274415309E+03  0.26691123199E+04  0.25189131260E+04 0.  0.
        1    1    3    3  502    0 -0.27555778995E+03 -0.29628426820E+03 -0.17051826708E+04  0.17525308568E+04  0.50400001928E-02 0. -1.
       -1    1    3    3    0  502  0.27555778995E+03  0.29628426820E+03  0.82243851766E+03  0.91658146313E+03  0.50400001928E-02 0.  1.
</event>
<event>
 5   0  0.1421242E-05  0.2432415E+04  0.7818609E-02  0.8427467E-01
       -1   -1    0    0    0  501  0.00000000000E+00  0.00000000000E+00  0.12150389746E+04  0.12150389746E+04  0.50400001928E-02 0. -1.
        1   -1    0    0  501    0  0.00000000000E+00  0.00000000000E+00 -0.12173771094E+04  0.12173771094E+04  0.50400001928E-02 0.  1.
    10030    2    1    2    0    0  0.00000000000E+00  0.00000000000E+00 -0.23381347405E+01  0.24324160840E+04  0.24324149603E+04 0.  0.
        3    1    3    3  502    0 -0.12476310489E+03 -0.11877684396E+04 -0.23095369454E+03  0.12164289201E+04  0.10100000352E+00 0.  1.
       -3    1    3    3    0  502  0.12476310489E+03  0.11877684396E+04  0.22861555980E+03  0.12159871639E+04  0.10100000352E+00 0. -1.
</event>
<event>
 5   0  0.1429483E-05  0.2493129E+04  0.7818609E-02  0.8405437E-01
        1   -1    0    0  501    0  0.00000000000E+00  0.00000000000E+00  0.10638004185E+04  0.10638004185E+04  0.50400001928E-02 0.  1.
       -1   -1    0    0    0  501  0.00000000000E+00  0.00000000000E+00 -0.14607279676E+04  0.14607279676E+04  0.50400001928E-02 0. -1.
    10030    2    1    2    0    0  0.00000000000E+00  0.00000000000E+00 -0.39692754908E+03  0.25245283861E+04  0.24931289764E+04 0.  0.
        2    1    3    3  502    0 -0.61506761986E+03 -0.92694148905E+03  0.37110982712E+03  0.11727110492E+04  0.25500000920E-02 0.  1.
       -2    1    3    3    0  502  0.61506761986E+03  0.92694148905E+03 -0.76803737619E+03  0.13518173369E+04  0.25500000920E-02 0. -1.
</event>
<event>
 5   0  0.1492639E-05  0.2465649E+04  0.7818609E-02  0.8415326E-01
        1   -1    0    0  501    0  0.00000000000E+00  0.00000000000E+00  0.10599082004E+04  0.10599082004E+04  0.50400001928E-02 0.  1.
       -1   -1    0    0    0  501  0.00000000000E+00  0.00000000000E+00 -0.14339507911E+04  0.14339507912E+04  0.50400001928E-02 0. -1.
    10030    2    1    2    0    0  0.00000000000E+00  0.00000000000E+00 -0.37404259076E+03  0.24938589915E+04  0.24656489633E+04 0.  0.
        5    1    3    3  502    0  0.40219157004E+03 -0.18268381334E+03 -0.13511469367E+04  0.14215314169E+04  0.46999998093E+01 0. -1.
       -5    1    3    3    0  502 -0.40219157004E+03  0.18268381334E+03  0.97710434590E+03  0.10723275747E+04  0.46999998093E+01 0.  1.
</event>
<event>
 5   0  0.3579097E-05  0.2516059E+04  0.7818609E-02  0.8397287E-01
        2   -1    0    0  501    0  0.00000000000E+00  0.00000000000E+00  0.10043028733E+04  0.10043028733E+04  0.25500000920E-02 0.  1.
       -2   -1    0    0    0  501  0.00000000000E+00  0.00000000000E+00 -0.15758578074E+04  0.15758578074E+04  0.25500000920E-02 0. -1.
    10030    2    1    2    0    0  0.00000000000E+00  0.00000000000E+00 -0.57155493409E+03  0.25801606807E+04  0.25160592393E+04 0.  0.
        5    1    3    3  502    0  0.20278313998E+03 -0.12411379823E+04 -0.31935210375E+03  0.12975177645E+04  0.46999998093E+01 0. -1.
       -5    1    3    3    0  502 -0.20278313998E+03  0.12411379823E+04 -0.25220283034E+03  0.12826429163E+04  0.46999998093E+01 0.  1.
</event>
<event>
 5   0  0.3579097E-05  0.2335074E+04  0.7818609E-02  0.8464219E-01
        2   -1    0    0  501    0  0.00000000000E+00  0.00000000000E+00  0.14908486333E+04  0.14908486333E+04  0.25500000920E-02 0. -1.
       -2   -1    0    0    0  501  0.00000000000E+00  0.00000000000E+00 -0.91433997033E+03  0.91433997033E+03  0.25500000920E-02 0.  1.
    10030    2    1    2    0    0  0.00000000000E+00  0.00000000000E+00  0.57650866301E+03  0.24051886037E+04  0.23350738705E+04 0.  0.
        5    1    3    3  502    0 -0.93134971076E+03 -0.60545516627E+03  0.65839408062E+03  0.12913144843E+04  0.46999998093E+01 0.  1.
       -5    1    3    3    0  502  0.93134971076E+03  0.60545516627E+03 -0.81885417604E+02  0.11138741193E+04  0.46999998093E+01 0. -1.
</event>
<event>
 5   0  0.3579097E-05  0.2488473E+04  0.7818609E-02  0.8407104E-01
        2   -1    0    0  501    0  0.00000000000E+00  0.00000000000E+00  0.10679833917E+04  0.10679833917E+04  0.25500000920E-02 0. -1.
       -2   -1    0    0    0  501  0.00000000000E+00  0.00000000000E+00 -0.14495774816E+04  0.14495774816E+04  0.25500000920E-02 0.  1.
    10030    2    1    2    0    0  0.00000000000E+00  0.00000000000E+00 -0.38159408992E+03  0.25175608733E+04  0.24884731667E+04 0.  0.
        5    1    3    3  502    0  0.66358400428E+03 -0.83592457461E+03 -0.83779485532E+03  0.13568477935E+04  0.46999998093E+01 0.  1.
       -5    1    3    3    0  502 -0.66358400428E+03  0.83592457461E+03  0.45620076540E+03  0.11607130798E+04  0.46999998093E+01 0. -1.
</event>
<event>
 5   0  0.1502886E-05  0.2533531E+04  0.7818609E-02  0.8391137E-01
       -1   -1    0    0    0  501  0.00000000000E+00  0.00000000000E+00  0.21147135024E+04  0.21147135024E+04  0.50400001928E-02 0.  1.
        1   -1    0    0  501    0  0.00000000000E+00  0.00000000000E+00 -0.75882350529E+03  0.75882350530E+03  0.50400001928E-02 0. -1.
    10030    2    1    2    0    0  0.00000000000E+00  0.00000000000E+00  0.13558899971E+04  0.28735370077E+04  0.25335305900E+04 0.  0.
        4    1    3    3  502    0  0.12141832365E+04 -0.33695332893E+03  0.53043663125E+03  0.13671660873E+04  0.12699999809E+01 0. -1.
       -4    1    3    3    0  502 -0.12141832365E+04  0.33695332893E+03  0.82545336585E+03  0.15063709204E+04  0.12699999809E+01 0.  1.
</event>
<event>
 5   0  0.3704241E-05  0.2504907E+04  0.7818609E-02  0.8401239E-01
       -2   -1    0    0    0  501  0.00000000000E+00  0.00000000000E+00  0.81465259265E+03  0.81465259265E+03  0.25500000920E-02 0.  1.
        2   -1    0    0  501    0  0.00000000000E+00  0.00000000000E+00 -0.19255328446E+04  0.19255328446E+04  0.25500000920E-02 0. -1.
    10030    2    1    2    0    0  0.00000000000E+00  0.00000000000E+00 -0.11108802520E+04  0.27401854373E+04  0.25049074427E+04 0.  0.
        2    1    3    3  502    0 -0.17883556723E+03 -0.26737309721E+03  0.76869482375E+03  0.83328402438E+03  0.25500000920E-02 0.  1.
       -2    1    3    3    0  502  0.17883556723E+03  0.26737309721E+03 -0.18795750757E+04  0.19069014129E+04  0.25500000920E-02 0. -1.
</event>
<event>
 5   0  0.3650620E-05  0.2490139E+04  0.7818609E-02  0.8406507E-01
       -2   -1    0    0    0  501  0.00000000000E+00  0.00000000000E+00  0.16245263000E+04  0.16245263000E+04  0.25500000920E-02 0.  1.
        2   -1    0    0  501    0  0.00000000000E+00  0.00000000000E+00 -0.95424624427E+03  0.95424624427E+03  0.25500000920E-02 0. -1.
    10030    2    1    2    0    0  0.00000000000E+00  0.00000000000E+00  0.67028005575E+03  0.25787725443E+04  0.24901390487E+04 0.  0.
        3    1    3    3  502    0 -0.49105867721E+03 -0.26590907930E+03  0.14875618335E+04  0.15889262040E+04  0.10100000352E+00 0.  1.
       -3    1    3    3    0  502  0.49105867721E+03  0.26590907930E+03 -0.81728177779E+03  0.98984634031E+03  0.10100000352E+00 0. -1.
</event>
<event>
 5   0  0.1421242E-05  0.2428564E+04  0.7818609E-02  0.8428887E-01
       -1   -1    0    0    0  501  0.00000000000E+00  0.00000000000E+00  0.78306011358E+03  0.78306011360E+03  0.50400001928E-02 0. -1.
        1   -1    0    0  501    0  0.00000000000E+00  0.00000000000E+00 -0.18829720478E+04  0.18829720478E+04  0.50400001928E-02 0.  1.
    10030    2    1    2    0    0  0.00000000000E+00  0.00000000000E+00 -0.10999119342E+04  0.26660321614E+04  0.24285636130E+04 0.  0.
        3    1    3    3  502    0  0.44592857030E+03  0.85941262913E+03 -0.13544417694E+04  0.16649188791E+04  0.10100000352E+00 0.  1.
       -3    1    3    3    0  502 -0.44592857030E+03 -0.85941262913E+03  0.25452983518E+03  0.10011132824E+04  0.10100000352E+00 0. -1.
</event>
<event>
 5   0  0.3650620E-05  0.2473809E+04  0.7818609E-02  0.8412376E-01
        2   -1    0    0  501    0  0.00000000000E+00  0.00000000000E+00  0.13655520660E+04  0.13655520660E+04  0.25500000920E-02 0. -1.
       -2   -1    0    0    0  501  0.00000000000E+00  0.00000000000E+00 -0.11203770498E+04  0.11203770498E+04  0.25500000920E-02 0.  1.
    10030    2    1    2    0    0  0.00000000000E+00  0.00000000000E+00  0.24517501617E+03  0.24859291158E+04  0.24738093662E+04 0.  0.
        3    1    3    3  502    0  0.92308161805E+03  0.36063195394E+02  0.94914565304E+03  0.13244839405E+04  0.10100000352E+00 0. -1.
       -3    1    3    3    0  502 -0.92308161805E+03 -0.36063195394E+02 -0.70397063687E+03  0.11614451754E+04  0.10100000352E+00 0.  1.
</event>
<event>
 5   0  0.1456876E-05  0.2503696E+04  0.7818609E-02  0.8401670E-01
        1   -1    0    0  501    0  0.00000000000E+00  0.00000000000E+00  0.10959024351E+04  0.10959024351E+04  0.50400001928E-02 0. -1.
       -1   -1    0    0    0  501  0.00000000000E+00  0.00000000000E+00 -0.14299842903E+04  0.14299842904E+04  0.50400001928E-02 0.  1.
    10030    2    1    2    0    0  0.00000000000E+00  0.00000000000E+00 -0.33408185523E+03  0.25258867255E+04  0.25036958809E+04 0.  0.
        1    1    3    3  502    0  0.42991597287E+03 -0.10756250620E+04 -0.64593359634E+03  0.13262832384E+04  0.50400001928E-02 0.  1.
       -1    1    3    3    0  502 -0.42991597287E+03  0.10756250620E+04  0.31185174111E+03  0.11996034870E+04  0.50400001928E-02 0. -1.
</event>
<event>
 5   0  0.3579097E-05  0.2195264E+04  0.7818609E-02  0.8520402E-01
       -2   -1    0    0    0  501  0.00000000000E+00  0.00000000000E+00  0.11599874847E+04  0.11599874847E+04  0.25500000920E-02 0.  1.
        2   -1    0    0  501    0  0.00000000000E+00  0.00000000000E+00 -0.10386286097E+04  0.10386286097E+04  0.25500000920E-02 0. -1.
    10030    2    1    2    0    0  0.00000000000E+00  0.00000000000E+00  0.12135887496E+03  0.21986160944E+04  0.21952641650E+04 0.  0.
        5    1    3    3  502    0  0.16873596563E+03  0.84142795755E+02 -0.10222774123E+04  0.10395311606E+04  0.46999998093E+01 0. -1.
       -5    1    3    3    0  502 -0.16873596563E+03 -0.84142795755E+02  0.11436362873E+04  0.11590849338E+04  0.46999998093E+01 0.  1.
</event>
<event>
 5   0  0.1421242E-05  0.2512830E+04  0.7818609E-02  0.8398429E-01
       -1   -1    0    0    0  501  0.00000000000E+00  0.00000000000E+00  0.72152299498E+03  0.72152299500E+03  0.50400001928E-02 0. -1.
        1   -1    0    0  501    0  0.00000000000E+00  0.00000000000E+00 -0.21878418608E+04  0.21878418608E+04  0.50400001928E-02 0.  1.
    10030    2    1    2    0    0  0.00000000000E+00  0.00000000000E+00 -0.14663188658E+04  0.29093648558E+04  0.25128296496E+04 0.  0.
        3    1    3    3  502    0  0.84758397292E+03  0.42280680526E+03  0.22258256779E+03  0.97298879512E+03  0.10100000352E+00 0. -1.
       -3    1    3    3    0  502 -0.84758397292E+03 -0.42280680526E+03 -0.16889014336E+04  0.19363760607E+04  0.10100000352E+00 0.  1.
</event>
<event>
 5   0  0.3704241E-05  0.2538491E+04  0.7818609E-02  0.8389400E-01
        2   -1    0    0  501    0  0.00000000000E+00  0.00000000000E+00  0.14540256244E+04  0.14540256244E+04  0.25500000920E-02 0.  1.
       -2   -1    0    0    0  501  0.00000000000E+00  0.00000000000E+00 -0.11079478017E+04  0.11079478017E+04  0.25500000920E-02 0. -1.
    10030    2    1    2    0    0  0.00000000000E+00  0.00000000000E+00  0.34607782271E+03  0.25619734261E+04  0.25384912796E+04 0.  0.
        2    1    3    3  502    0 -0.18094635350E+03  0.11993278669E+04  0.55047101947E+03  0.13319711928E+04  0.25500000920E-02 0.  1.
       -2    1    3    3    0  502  0.18094635350E+03 -0.11993278669E+04 -0.20439319676E+03  0.12300022333E+04  0.25500000920E-02 0. -1.
</event>
<event>
 5   0  0.1492639E-05  0.2516788E+04  0.7818609E-02  0.8397029E-01
       -1   -1    0    0    0  501  0.00000000000E+00  0.00000000000E+00  0.64463253643E+03  0.64463253645E+03  0.50400001928E-02 0. -1.
        1   -1    0    0  501    0  0.00000000000E+00  0.00000000000E+00 -0.24565249590E+04  0.24565249590E+04  0.50400001928E-02 0.  1.
    10030    2    1    2    0    0  0.00000000000E+00  0.00000000000E+00 -0.18118924226E+04  0.31011574955E+04  0.25167883623E+04 0.  0.
        5    1    3    3  502    0 -0.63019718068E+02  0.82320524177E+03  0.26424067974E+03  0.86688152695E+03  0.46999998093E+01 0. -1.
       -5    1    3    3    0  502  0.63019718068E+02 -0.82320524177E+03 -0.20761331023E+04  0.22342759685E+04  0.46999998093E+01 0.  1.
</event>
<event>
 5   0  0.1429483E-05  0.2462208E+04  0.7818609E-02  0.8416574E-01
       -1   -1    0    0    0  501  0.00000000000E+00  0.00000000000E+00  0.69483257681E+03  0.69483257682E+03  0.50400001928E-02 0.  1.
        1   -1    0    0  501    0  0.00000000000E+00  0.00000000000E+00 -0.21812692910E+04  0.21812692910E+04  0.50400001928E-02 0. -1.
    10030    2    1    2    0    0  0.00000000000E+00  0.00000000000E+00 -0.14864367142E+04  0.28761018678E+04  0.24622079215E+04 0.  0.
        2    1    3    3  502    0 -0.82945648850E+03  0.42997351367E+02  0.31825506129E+03  0.88945664458E+03  0.25500000920E-02 0.  1.
       -2    1    3    3    0  502  0.82945648850E+03 -0.42997351367E+02 -0.18046917755E+04  0.19866452232E+04  0.25500000920E-02 0. -1.
</event>
<event>
 5   0  0.1201438E-05  0.2490773E+04  0.7818609E-02  0.8406280E-01
        3   -1    0    0  501    0  0.00000000000E+00  0.00000000000E+00  0.13554761146E+04  0.13554761183E+04  0.10100000352E+00 0.  1.
       -3   -1    0    0    0  501  0.00000000000E+00  0.00000000000E+00 -0.11442385891E+04  0.11442385936E+04  0.10100000352E+00 0. -1.
    10030    2    1    2    0    0  0.00000000000E+00  0.00000000000E+00  0.21123752545E+03  0.24997147119E+04  0.24907734439E+04 0.  0.
        2    1    3    3  502    0  0.95807480801E+03 -0.51289980414E+03 -0.50485304833E+03  0.11982696471E+04  0.25500000920E-02 0. -1.
       -2    1    3    3    0  502 -0.95807480801E+03  0.51289980414E+03  0.71609057378E+03  0.13014450648E+04  0.25500000920E-02 0.  1.
</event>
<event>
 5   0  0.3579097E-05  0.2542397E+04  0.7818609E-02  0.8388035E-01
        2   -1    0    0  501    0  0.00000000000E+00  0.00000000000E+00  0.19159592097E+04  0.19159592097E+04  0.25500000920E-02 0.  1.
       -2   -1    0    0    0  501  0.00000000000E+00  0.00000000000E+00 -0.84341342753E+03  0.84341342753E+03  0.25500000920E-02 0. -1.
    10030    2    1    2    0    0  0.00000000000E+00  0.00000000000E+00  0.10725457822E+04  0.27593726373E+04  0.25423970769E+04 0.  0.
        5    1    3    3  502    0 -0.60986818541E+03 -0.38021150933E+03  0.16742918784E+04  0.18220250765E+04  0.46999998093E+01 0.  1.
       -5    1    3    3    0  502  0.60986818541E+03  0.38021150933E+03 -0.60174609618E+03  0.93734756076E+03  0.46999998093E+01 0. -1.
</event>
<event>
 5   0  0.1492639E-05  0.2507574E+04  0.7818609E-02  0.8400292E-01
       -1   -1    0    0    0  501  0.00000000000E+00  0.00000000000E+00  0.67941979773E+03  0.67941979775E+03  0.50400001928E-02 0. -1.
        1   -1    0    0  501    0  0.00000000000E+00  0.00000000000E+00 -0.23137127531E+04  0.23137127531E+04  0.50400001928E-02 0.  1.
    10030    2    1    2    0    0  0.00000000000E+00  0.00000000000E+00 -0.16342929554E+04  0.29931325509E+04  0.25075743265E+04 0.  0.
        5    1    3    3  502    0 -0.97787846192E+03 -0.24114041778E+03 -0.17084383676E+04  0.19832243275E+04  0.46999998093E+01 0.  1.
       -5    1    3    3    0  502  0.97787846192E+03  0.24114041778E+03  0.74145412241E+02  0.10099082233E+04  0.46999998093E+01 0. -1.
</event>
<event>
 5   0  0.3581449E-05  0.2494691E+04  0.7818609E-02  0.8404879E-01
        2   -1    0    0  501    0  0.00000000000E+00  0.00000000000E+00  0.13225093272E+04  0.13225093272E+04  0.25500000920E-02 0. -1.
       -2   -1    0    0    0  501  0.00000000000E+00  0.00000000000E+00 -0.11764536799E+04  0.11764536799E+04  0.25500000920E-02 0.  1.
    10030    2    1    2    0    0  0.00000000000E+00  0.00000000000E+00  0.14605564732E+03  0.24989630072E+04  0.24946911350E+04 0.  0.
        1    1    3    3  502    0 -0.47281845227E+03 -0.40289809021E+03  0.11565393241E+04  0.13128089611E+04  0.50400001928E-02 0. -1.
       -1    1    3    3    0  502  0.47281845227E+03  0.40289809021E+03 -0.10104836768E+04  0.11861540461E+04  0.50400001928E-02 0.  1.
</event>
<event>
 5   0  0.3579097E-05  0.2505990E+04  0.7818609E-02  0.8400855E-01
        2   -1    0    0  501    0  0.00000000000E+00  0.00000000000E+00  0.15440037724E+04  0.15440037724E+04  0.25500000920E-02 0.  1.
       -2   -1    0    0    0  501  0.00000000000E+00  0.00000000000E+00 -0.10168342680E+04  0.10168342680E+04  0.25500000920E-02 0. -1.
    10030    2    1    2    0    0  0.00000000000E+00  0.00000000000E+00  0.52716950436E+03  0.25608380405E+04  0.25059895816E+04 0.  0.
        5    1    3    3  502    0 -0.14784043606E+03 -0.10505882070E+04 -0.41762495375E+03  0.11401864177E+04  0.46999998093E+01 0. -1.
       -5    1    3    3    0  502  0.14784043606E+03  0.10505882070E+04  0.94479445811E+03  0.14206516227E+04  0.46999998093E+01 0.  1.
</event>
<event>
 5   0  0.3579097E-05  0.2527799E+04  0.7818609E-02  0.8393148E-01
        2   -1    0    0  501    0  0.00000000000E+00  0.00000000000E+00  0.10829495019E+04  0.10829495019E+04  0.25500000920E-02 0. -1.
       -2   -1    0    0    0  501  0.00000000000E+00  0.00000000000E+00 -0.14750848807E+04  0.14750848807E+04  0.25500000920E-02 0.  1.
    10030    2    1    2    0    0  0.00000000000E+00  0.00000000000E+00 -0.39213537877E+03  0.25580343826E+04  0.25277993883E+04 0.  0.
        5    1    3    3  502    0  0.10868434386E+04 -0.62292751609E+03 -0.36586315457E+03  0.13050460866E+04  0.46999998093E+01 0. -1.
       -5    1    3    3    0  502 -0.10868434386E+04  0.62292751609E+03 -0.26272224201E+02  0.12529882960E+04  0.46999998093E+01 0.  1.
</event>
<event>
 5   0  0.1492639E-05  0.2499228E+04  0.7818609E-02  0.8403261E-01
        1   -1    0    0  501    0  0.00000000000E+00  0.00000000000E+00  0.21989941704E+04  0.21989941704E+04  0.50400001928E-02 0.  1.
       -1   -1    0    0    0  501  0.00000000000E+00  0.00000000000E+00 -0.71011332509E+03  0.71011332511E+03  0.50400001928E-02 0. -1.
    10030    2    1    2    0    0  0.00000000000E+00  0.00000000000E+00  0.14888808453E+04  0.29091074956E+04  0.24992279306E+04 0.  0.
        5    1    3    3  502    0 -0.72842837200E+03  0.36018068717E+03 -0.36054986179E+03  0.88901986107E+03  0.46999998093E+01 0. -1.
       -5    1    3    3    0  502  0.72842837200E+03 -0.36018068717E+03  0.18494307071E+04  0.20200876345E+04  0.46999998093E+01 0.  1.
</event>
<event>
 5   0  0.1492639E-05  0.2479461E+04  0.7818609E-02  0.8410339E-01
        1   -1    0    0  501    0  0.00000000000E+00  0.00000000000E+00  0.19709772517E+04  0.19709772517E+04  0.50400001928E-02 0.  1.
       -1   -1    0    0    0  501  0.00000000000E+00  0.00000000000E+00 -0.77978175004E+03  0.77978175006E+03  0.50400001928E-02 0. -1.
    10030    2    1    2    0    0  0.00000000000E+00  0.00000000000E+00  0.11911955016E+04  0.27507590017E+04  0.24794613049E+04 0.  0.
        5    1    3    3  502    0  0.24145808509E+03 -0.30071902441E+03 -0.71152833992E+03  0.80933837609E+03  0.46999998093E+01 0. -1.
       -5    1    3    3    0  502 -0.24145808509E+03  0.30071902441E+03  0.19027238415E+04  0.19414206256E+04  0.46999998093E+01 0.  1.
</event>
<event>
 5   0  0.3579097E-05  0.2451190E+04  0.7818609E-02  0.8420583E-01
        2   -1    0    0  501    0  0.00000000000E+00  0.00000000000E+00  0.20851717942E+04  0.20851717942E+04  0.25500000920E-02 0. -1.
       -2   -1    0    0    0  501  0.00000000000E+00  0.00000000000E+00 -0.72036443730E+03  0.72036443730E+03  0.25500000920E-02 0.  1.
    10030    2    1    2    0    0  0.00000000000E+00  0.00000000000E+00  0.13648073569E+04  0.28055362315E+04  0.24511904098E+04 0.  0.
        5    1    3    3  502    0  0.69054100157E+03 -0.77579707455E+03 -0.62311886534E+02  0.10404868269E+04  0.46999998093E+01 0.  1.
       -5    1    3    3    0  502 -0.69054100157E+03  0.77579707455E+03  0.14271192434E+04  0.17650494046E+04  0.46999998093E+01 0. -1.
</event>
<event>
 5   0  0.1502886E-05  0.2314554E+04  0.7818609E-02  0.8472205E-01
        1   -1    0    0  501    0  0.00000000000E+00  0.00000000000E+00  0.12889945152E+04  0.12889945153E+04  0.50400001928E-02 0. -1.
       -1   -1    0    0    0  501  0.00000000000E+00  0.00000000000E+00 -0.10390191706E+04  0.10390191706E+04  0.50400001928E-02 0.  1.
    10030    2    1    2    0    0  0.00000000000E+00  0.00000000000E+00  0.24997534468E+03  0.23280136858E+04  0.23145539632E+04 0.  0.
        4    1    3    3  502    0  0.45245385892E+03  0.10639918954E+04  0.17522964140E+03  0.11694016796E+04  0.12699999809E+01 0. -1.
       -4    1    3    3    0  502 -0.45245385892E+03 -0.10639918954E+04  0.74745703290E+02  0.11586120063E+04  0.12699999809E+01 0.  1.
</event>
<event>
 5   0  0.3581449E-05  0.2517906E+04  0.7818609E-02  0.8396634E-01
       -2   -1    0    0    0  501  0.00000000000E+00  0.00000000000E+00  0.14655950359E+04  0.14655950359E+04  0.25500000920E-02 0.  1.
        2   -1    0    0  501    0  0.00000000000E+00  0.00000000000E+00 -0.10814468659E+04  0.10814468659E+04  0.25500000920E-02 0. -1.
    10030    2    1    2    0    0  0.00000000000E+00  0.00000000000E+00  0.38414817004E+03  0.25470419018E+04  0.25179063987E+04 0.  0.
        1    1    3    3  502    0 -0.39729050341E+03  0.84343765934E+03 -0.66372740612E+03  0.11444478577E+04  0.50400001928E-02 0. -1.
       -1    1    3    3    0  502  0.39729050341E+03 -0.84343765934E+03  0.10478755762E+04  0.14025940441E+04  0.50400001928E-02 0.  1.
</event>
<event>
 5   0  0.1492639E-05  0.2137829E+04  0.7818609E-02  0.8544760E-01
        1   -1    0    0  501    0  0.00000000000E+00  0.00000000000E+00  0.10014444316E+04  0.10014444316E+04  0.50400001928E-02 0. -1.
       -1   -1    0    0    0  501  0.00000000000E+00  0.00000000000E+00 -0.11409304576E+04  0.11409304576E+04  0.50400001928E-02 0.  1.
    10030    2    1    2    0    0  0.00000000000E+00  0.00000000000E+00 -0.13948602601E+03  0.21423748893E+04  0.21378292295E+04 0.  0.
        5    1    3    3  502    0  0.44062892892E+02 -0.67686271216E+03  0.75813201049E+03  0.10172860487E+04  0.46999998093E+01 0. -1.
       -5    1    3    3    0  502 -0.44062892892E+02  0.67686271216E+03 -0.89761803649E+03  0.11250888405E+04  0.46999998093E+01 0.  1.
</event>
<event>
 5   0  0.1456876E-05  0.2545435E+04  0.7818609E-02  0.8386976E-01
       -1   -1    0    0    0  501  0.00000000000E+00  0.00000000000E+00  0.13056029940E+04  0.13056029940E+04  0.50400001928E-02 0. -1.
        1   -1    0    0  501    0  0.00000000000E+00  0.00000000000E+00 -0.12406599820E+04  0.12406599820E+04  0.50400001928E-02 0.  1.
    10030    2    1    2    0    0  0.00000000000E+00  0.00000000000E+00  0.64943012024E+02  0.25462629760E+04  0.25454346482E+04 0.  0.
        1    1    3    3  502    0  0.21957805702E+02 -0.85163714290E+03 -0.91337382276E+03  0.12490074894E+04  0.50400001928E-02 0.  1.
       -1    1    3    3    0  502 -0.21957805702E+02  0.85163714290E+03  0.97831683479E+03  0.12972554867E+04  0.50400001928E-02 0. -1.
</event>
<event>
 5   0  0.1456876E-05  0.2453261E+04  0.7818609E-02  0.8419828E-01
       -1   -1    0    0    0  501  0.00000000000E+00  0.00000000000E+00  0.86818974600E+03  0.86818974602E+03  0.50400001928E-02 0. -1.
        1   -1    0    0  501    0  0.00000000000E+00  0.00000000000E+00 -0.17330570030E+04  0.17330570030E+04  0.50400001928E-02 0.  1.
    10030    2    1    2    0    0  0.00000000000E+00  0.00000000000E+00 -0.86486725699E+03  0.26012467490E+04  0.24532609476E+04 0.  0.
        1    1    3    3  502    0 -0.94176008277E+03  0.38075019458E+03  0.29660203835E+03  0.10582322681E+04  0.50400001928E-02 0. -1.
       -1    1    3    3    0  502  0.94176008277E+03 -0.38075019458E+03 -0.11614692953E+04  0.15430144809E+04  0.50400001928E-02 0.  1.
</event>
<event>
 5   0  0.1502886E-05  0.2226978E+04  0.7818609E-02  0.8507283E-01
        1   -1    0    0  501    0  0.00000000000E+00  0.00000000000E+00  0.27088398815E+04  0.27088398815E+04  0.50400001928E-02 0.  1.
       -1   -1    0    0    0  501  0.00000000000E+00  0.00000000000E+00 -0.45770794354E+03  0.45770794357E+03  0.50400001928E-02 0. -1.
    10030    2    1    2    0    0  0.00000000000E+00  0.00000000000E+00  0.22511319380E+04  0.31665478251E+04  0.22269778011E+04 0.  0.
        4    1    3    3  502    0  0.66176849944E+03 -0.75846020057E+03  0.44861962199E+03  0.11020256807E+04  0.12699999809E+01 0. -1.
       -4    1    3    3    0  502 -0.66176849944E+03  0.75846020057E+03  0.18025123160E+04  0.20645221444E+04  0.12699999809E+01 0.  1.
</event>
<event>
 5   0  0.3578670E-05  0.2506660E+04  0.7818609E-02  0.8400617E-01
       -2   -1    0    0    0  501  0.00000000000E+00  0.00000000000E+00  0.18093156705E+04  0.18093156705E+04  0.25500000920E-02 0.  1.
        2   -1    0    0  501    0  0.00000000000E+00  0.00000000000E+00 -0.86819336703E+03  0.86819336704E+03  0.25500000920E-02 0. -1.
    10030    2    1    2    0    0  0.00000000000E+00  0.00000000000E+00  0.94112230351E+03  0.26775090376E+04  0.25066598206E+04 0.  0.
        4    1    3    3  502    0  0.80256658381E+03  0.18952257648E+03 -0.53759131255E+03  0.98439725755E+03  0.12699999809E+01 0. -1.
       -4    1    3    3    0  502 -0.80256658381E+03 -0.18952257648E+03  0.14787136161E+04  0.16931117800E+04  0.12699999809E+01 0.  1.
</event>
<event>
 5   0  0.3650620E-05  0.2463114E+04  0.7818609E-02  0.8416245E-01
        2   -1    0    0  501    0  0.00000000000E+00  0.00000000000E+00  0.14365634951E+04  0.14365634951E+04  0.25500000920E-02 0. -1.
       -2   -1    0    0    0  501  0.00000000000E+00  0.00000000000E+00 -0.10558062692E+04  0.10558062692E+04  0.25500000920E-02 0.  1.
    10030    2    1    2    0    0  0.00000000000E+00  0.00000000000E+00  0.38075722593E+03  0.24923697643E+04  0.24631140812E+04 0.  0.
        3    1    3    3  502    0  0.95797175946E+03  0.21899158740E+03 -0.56077639802E+03  0.11314315649E+04  0.10100000352E+00 0.  1.
       -3    1    3    3    0  502 -0.95797175946E+03 -0.21899158740E+03  0.94153362395E+03  0.13609381994E+04  0.10100000352E+00 0. -1.
</event>
<event>
 5   0  0.1456876E-05  0.2464853E+04  0.7818609E-02  0.8415615E-01
       -1   -1    0    0    0  501  0.00000000000E+00  0.00000000000E+00  0.11866687407E+04  0.11866687407E+04  0.50400001928E-02 0.  1.
        1   -1    0    0  501    0  0.00000000000E+00  0.00000000000E+00 -0.12799486905E+04  0.12799486905E+04  0.50400001928E-02 0. -1.
    10030    2    1    2    0    0  0.00000000000E+00  0.00000000000E+00 -0.93279949783E+02  0.24666174313E+04  0.24648530186E+04 0.  0.
        1    1    3    3  502    0 -0.37380871844E+03  0.16347507661E+03 -0.12104075353E+04  0.12773188561E+04  0.50400001928E-02 0. -1.
       -1    1    3    3    0  502  0.37380871844E+03 -0.16347507661E+03  0.11171275855E+04  0.11892985752E+04  0.50400001928E-02 0.  1.
</event>
<event>
 5   0  0.3579097E-05  0.2503374E+04  0.7818609E-02  0.8401784E-01
       -2   -1    0    0    0  501  0.00000000000E+00  0.00000000000E+00  0.99382581040E+03  0.99382581041E+03  0.25500000920E-02 0.  1.
        2   -1    0    0  501    0  0.00000000000E+00  0.00000000000E+00 -0.15764538958E+04  0.15764538958E+04  0.25500000920E-02 0. -1.
    10030    2    1    2    0    0  0.00000000000E+00  0.00000000000E+00 -0.58262808538E+03  0.25702797062E+04  0.25033741794E+04 0.  0.
        5    1    3    3  502    0 -0.33487008236E+03 -0.97996800269E+03  0.43048481878E+03  0.11215233067E+04  0.46999998093E+01 0.  1.
       -5    1    3    3    0  502  0.33487008236E+03  0.97996800269E+03 -0.10131129042E+04  0.14487563995E+04  0.46999998093E+01 0. -1.
</event>
<event>
 5   0  0.3650620E-05  0.2499196E+04  0.7818609E-02  0.8403272E-01
       -2   -1    0    0    0  501  0.00000000000E+00  0.00000000000E+00  0.91096379113E+03  0.91096379113E+03  0.25500000920E-02 0.  1.
        2   -1    0    0  501    0  0.00000000000E+00  0.00000000000E+00 -0.17141130457E+04  0.17141130457E+04  0.25500000920E-02 0. -1.
    10030    2    1    2    0    0  0.00000000000E+00  0.00000000000E+00 -0.80314925459E+03  0.26250768369E+04  0.24991958055E+04 0.  0.
        3    1    3    3  502    0  0.34514950538E+03  0.10067195734E+04  0.28630249058E+03  0.11020805809E+04  0.10100000352E+00 0.  1.
       -3    1    3    3    0  502 -0.34514950538E+03 -0.10067195734E+04 -0.10894517452E+04  0.15229962560E+04  0.10100000352E+00 0. -1.
</event>
<event>
 5   0  0.3578670E-05  0.2521124E+04  0.7818609E-02  0.8395498E-01
        2   -1    0    0  501    0  0.00000000000E+00  0.00000000000E+00  0.11314991708E+04  0.11314991708E+04  0.25500000920E-02 0. -1.
       -2   -1    0    0    0  501  0.00000000000E+00  0.00000000000E+00 -0.14043464602E+04  0.14043464602E+04  0.25500000920E-02 0.  1.
    10030    2    1    2    0    0  0.00000000000E+00  0.00000000000E+00 -0.27284728942E+03  0.25358456311E+04  0.25211242376E+04 0.  0.
        4    1    3    3  502    0 -0.44707358843E+03  0.99194837153E+03  0.50382985800E+03  0.11990339878E+04  0.12699999809E+01 0. -1.
       -4    1    3    3    0  502  0.44707358843E+03 -0.99194837153E+03 -0.77667714741E+03  0.13368116432E+04  0.12699999809E+01 0.  1.
</event>
<event>
 5   0  0.3704241E-05  0.2491174E+04  0.7818609E-02  0.8406137E-01
       -2   -1    0    0    0  501  0.00000000000E+00  0.00000000000E+00  0.10903066574E+04  0.10903066574E+04  0.25500000920E-02 0.  1.
        2   -1    0    0  501    0  0.00000000000E+00  0.00000000000E+00 -0.14229822860E+04  0.14229822860E+04  0.25500000920E-02 0. -1.
    10030    2    1    2    0    0  0.00000000000E+00  0.00000000000E+00 -0.33267562856E+03  0.25132889434E+04  0.24911740684E+04 0.  0.
        2    1    3    3  502    0 -0.10578072893E+04  0.18684605186E+03 -0.80250622817E+03  0.13408519511E+04  0.25500000920E-02 0. -1.
       -2    1    3    3    0  502  0.10578072893E+04 -0.18684605186E+03  0.46983059961E+03  0.11724369923E+04  0.25500000920E-02 0.  1.
</event>
<event>
 5   0  0.3704241E-05  0.2548498E+04  0.7818609E-02  0.8385909E-01
       -2   -1    0    0    0  501  0.00000000000E+00  0.00000000000E+00  0.14558240586E+04  0.14558240586E+04  0.25500000920E-02 0. -1.
        2   -1    0    0  501    0  0.00000000000E+00  0.00000000000E+00 -0.11153203674E+04  0.11153203674E+04  0.25500000920E-02 0.  1.
    10030    2    1    2    0    0  0.00000000000E+00  0.00000000000E+00  0.34050369122E+03  0.25711444260E+04  0.25484977723E+04 0.  0.
        2    1    3    3  502    0  0.42439072955E+03 -0.50369572371E+03  0.12707675211E+04  0.14313165150E+04  0.25500000920E-02 0. -1.
       -2    1    3    3    0  502 -0.42439072955E+03  0.50369572371E+03 -0.93026382991E+03  0.11398279110E+04  0.25500000920E-02 0.  1.
</event>
<event>
 5   0  0.3704241E-05  0.2500790E+04  0.7818609E-02  0.8402704E-01
       -2   -1    0    0    0  501  0.00000000000E+00  0.00000000000E+00  0.13698581015E+04  0.13698581015E+04  0.25500000920E-02 0. -1.
        2   -1    0    0  501    0  0.00000000000E+00  0.00000000000E+00 -0.11413497968E+04  0.11413497968E+04  0.25500000920E-02 0.  1.
    10030    2    1    2    0    0  0.00000000000E+00  0.00000000000E+00  0.22850830470E+03  0.25112078983E+04  0.25007896879E+04 0.  0.
        2    1    3    3  502    0 -0.50323255150E+03 -0.54101894580E+03  0.11271897508E+04  0.13477764039E+04  0.25500000920E-02 0. -1.
       -2    1    3    3    0  502  0.50323255150E+03  0.54101894580E+03 -0.89868144607E+03  0.11634314944E+04  0.25500000920E-02 0.  1.
</event>
<event>
 5   0  0.3650620E-05  0.2508805E+04  0.7818609E-02  0.8399855E-01
        2   -1    0    0  501    0  0.00000000000E+00  0.00000000000E+00  0.12359002555E+04  0.12359002555E+04  0.25500000920E-02 0.  1.
       -2   -1    0    0    0  501  0.00000000000E+00  0.00000000000E+00 -0.12731816394E+04  0.12731816394E+04  0.25500000920E-02 0. -1.
    10030    2    1    2    0    0  0.00000000000E+00  0.00000000000E+00 -0.37281383953E+02  0.25090818949E+04  0.25088049054E+04 0.  0.
        3    1    3    3  502    0  0.74757616912E+03 -0.39312978259E+03  0.90887981024E+03  0.12407593136E+04  0.10100000352E+00 0.  1.
       -3    1    3    3    0  502 -0.74757616912E+03  0.39312978259E+03 -0.94616119419E+03  0.12683225813E+04  0.10100000352E+00 0. -1.
</event>
<event>
 5   0  0.3578670E-05  0.2463760E+04  0.7818609E-02  0.8416011E-01
       -2   -1    0    0    0  501  0.00000000000E+00  0.00000000000E+00  0.10043594287E+04  0.10043594287E+04  0.25500000920E-02 0.  1.
        2   -1    0    0  501    0  0.00000000000E+00  0.00000000000E+00 -0.15109416927E+04  0.15109416927E+04  0.25500000920E-02 0. -1.
    10030    2    1    2    0    0  0.00000000000E+00  0.00000000000E+00 -0.50658226408E+03  0.25153011214E+04  0.24637601631E+04 0.  0.
        4    1    3    3  502    0 -0.11772926340E+04 -0.18835422855E+03 -0.56966366784E+03  0.13213680672E+04  0.12699999809E+01 0. -1.
       -4    1    3    3    0  502  0.11772926340E+04  0.18835422855E+03  0.63081403762E+02  0.11939330542E+04  0.12699999809E+01 0.  1.
</event>
<event>
 5   0  0.3581449E-05  0.2294784E+04  0.7818609E-02  0.8479981E-01
       -2   -1    0    0    0  501  0.00000000000E+00  0.00000000000E+00  0.53379995661E+03  0.53379995661E+03  0.25500000920E-02 0. -1.
        2   -1    0    0  501    0  0.00000000000E+00  0.00000000000E+00 -0.24662949490E+04  0.24662949490E+04  0.25500000920E-02 0.  1.
    10030    2    1    2    0    0  0.00000000000E+00  0.00000000000E+00 -0.19324949924E+04  0.30000949056E+04  0.22947837691E+04 0.  0.
        1    1    3    3  502    0  0.82054883820E+03 -0.18224359491E+03  0.54824501870E+02  0.84232941881E+03  0.50400001928E-02 0. -1.
       -1    1    3    3    0  502 -0.82054883820E+03  0.18224359491E+03 -0.19873194942E+04  0.21577654868E+04  0.50400001928E-02 0.  1.
</event>
<event>
 5   0  0.1456876E-05  0.2511236E+04  0.7818609E-02  0.8398994E-01
       -1   -1    0    0    0  501  0.00000000000E+00  0.00000000000E+00  0.13700295263E+04  0.13700295263E+04  0.50400001928E-02 0.  1.
        1   -1    0    0  501    0  0.00000000000E+00  0.00000000000E+00 -0.11507610849E+04  0.11507610849E+04  0.50400001928E-02 0. -1.
    10030    2    1    2    0    0  0.00000000000E+00  0.00000000000E+00  0.21926844136E+03  0.25207906112E+04  0.25112360813E+04 0.  0.
        1    1    3    3  502    0  0.79761242488E+03  0.57802268012E+03 -0.67196867688E+03  0.11924083620E+04  0.50400001928E-02 0. -1.
       -1    1    3    3    0  502 -0.79761242488E+03 -0.57802268012E+03  0.89123711824E+03  0.13283822492E+04  0.50400001928E-02 0.  1.
</event>
<event>
 5   0  0.1421242E-05  0.2494863E+04  0.7818609E-02  0.8404818E-01
       -1   -1    0    0    0  501  0.00000000000E+00  0.00000000000E+00  0.96793149769E+03  0.96793149770E+03  0.50400001928E-02 0.  1.
        1   -1    0    0  501    0  0.00000000000E+00  0.00000000000E+00 -0.16076403034E+04  0.16076403035E+04  0.50400001928E-02 0. -1.
    10030    2    1    2    0    0  0.00000000000E+00  0.00000000000E+00 -0.63970880576E+03  0.25755718012E+04  0.24948632721E+04 0.  0.
        3    1    3    3  502    0 -0.55227705881E+03 -0.50133297347E+03 -0.13520705734E+04  0.15441630567E+04  0.10100000352E+00 0. -1.
       -3    1    3    3    0  502  0.55227705881E+03  0.50133297347E+03  0.71236176764E+03  0.10314087445E+04  0.10100000352E+00 0.  1.
</event>
<event>
 5   0  0.1456876E-05  0.2492065E+04  0.7818609E-02  0.8405818E-01
       -1   -1    0    0    0  501  0.00000000000E+00  0.00000000000E+00  0.85188583292E+03  0.85188583293E+03  0.50400001928E-02 0.  1.
        1   -1    0    0  501    0  0.00000000000E+00  0.00000000000E+00 -0.18225415259E+04  0.18225415259E+04  0.50400001928E-02 0. -1.
    10030    2    1    2    0    0  0.00000000000E+00  0.00000000000E+00 -0.97065569300E+03  0.26744273589E+04  0.24920652526E+04 0.  0.
        1    1    3    3  502    0  0.12090046910E+04 -0.21537877308E+03 -0.71175790759E+03  0.14193941235E+04  0.50400001928E-02 0. -1.
       -1    1    3    3    0  502 -0.12090046910E+04  0.21537877308E+03 -0.25889778541E+03  0.12550332354E+04  0.50400001928E-02 0.  1.
</event>
<event>
 5   0  0.3578670E-05  0.2485973E+04  0.7818609E-02  0.8408000E-01
       -2   -1    0    0    0  501  0.00000000000E+00  0.00000000000E+00  0.72503763418E+03  0.72503763418E+03  0.25500000920E-02 0.  1.
        2   -1    0    0  501    0  0.00000000000E+00  0.00000000000E+00 -0.21309444669E+04  0.21309444669E+04  0.25500000920E-02 0. -1.
    10030    2    1    2    0    0  0.00000000000E+00  0.00000000000E+00 -0.14059068327E+04  0.28559821010E+04  0.24859725942E+04 0.  0.
        4    1    3    3  502    0 -0.95409674899E+03 -0.63154150591E+03 -0.12609013782E+04  0.17026506331E+04  0.12699999809E+01 0. -1.
       -4    1    3    3    0  502  0.95409674899E+03  0.63154150591E+03 -0.14500545450E+03  0.11533314679E+04  0.12699999809E+01 0.  1.
</event>
<event>
 5   0  0.3704241E-05  0.2484021E+04  0.7818609E-02  0.8408700E-01
       -2   -1    0    0    0  501  0.00000000000E+00  0.00000000000E+00  0.14650359211E+04  0.14650359211E+04  0.25500000920E-02 0. -1.
        2   -1    0    0  501    0  0.00000000000E+00  0.00000000000E+00 -0.10529366825E+04  0.10529366825E+04  0.25500000920E-02 0.  1.
    10030    2    1    2    0    0  0.00000000000E+00  0.00000000000E+00  0.41209923856E+03  0.25179726036E+04  0.24840209843E+04 0.  0.
        2    1    3    3  502    0 -0.30008392833E+02 -0.23927533281E+03  0.14410770600E+04  0.14611147393E+04  0.25500000920E-02 0. -1.
       -2    1    3    3    0  502  0.30008392833E+02  0.23927533281E+03 -0.10289778214E+04  0.10568578644E+04  0.25500000920E-02 0.  1.
</event>
<event>
 5   0  0.3704241E-05  0.2021849E+04  0.7818609E-02  0.8596473E-01
        2   -1    0    0  501    0  0.00000000000E+00  0.00000000000E+00  0.20841830301E+04  0.20841830301E+04  0.25500000920E-02 0. -1.
       -2   -1    0    0    0  501  0.00000000000E+00  0.00000000000E+00 -0.49034487667E+03  0.49034487667E+03  0.25500000920E-02 0.  1.
    10030    2    1    2    0    0  0.00000000000E+00  0.00000000000E+00  0.15938381535E+04  0.25745279068E+04  0.20218491248E+04 0.  0.
        2    1    3    3  502    0  0.14496500323E+03  0.27787313351E+03 -0.42691845408E+03  0.52961089200E+03  0.25500000920E-02 0.  1.
       -2    1    3    3    0  502 -0.14496500323E+03 -0.27787313351E+03  0.20207566076E+04  0.20449170148E+04  0.25500000920E-02 0. -1.
</event>
<event>
 5   0  0.3581449E-05  0.1989720E+04  0.7818609E-02  0.8611442E-01
       -2   -1    0    0    0  501  0.00000000000E+00  0.00000000000E+00  0.88283877920E+03  0.88283877920E+03  0.25500000920E-02 0.  1.
        2   -1    0    0  501    0  0.00000000000E+00  0.00000000000E+00 -0.11210952083E+04  0.11210952083E+04  0.25500000920E-02 0. -1.
    10030    2    1    2    0    0  0.00000000000E+00  0.00000000000E+00 -0.23825642912E+03  0.20039339875E+04  0.19897199050E+04 0.  0.
        1    1    3    3  502    0 -0.54435691492E+03 -0.26662856720E+03  0.67538698948E+03  0.90750362492E+03  0.50400001928E-02 0.  1.
       -1    1    3    3    0  502  0.54435691492E+03  0.26662856720E+03 -0.91364341860E+03  0.10964303626E+04  0.50400001928E-02 0. -1.
</event>
<event>
 5   0  0.3579097E-05  0.2404829E+04  0.7818609E-02  0.8437698E-01
       -2   -1    0    0    0  501  0.00000000000E+00  0.00000000000E+00  0.12430683258E+04  0.12430683258E+04  0.25500000920E-02 0.  1.
        2   -1    0    0  501    0  0.00000000000E+00  0.00000000000E+00 -0.11630900153E+04  0.11630900153E+04  0.25500000920E-02 0. -1.
    10030    2    1    2    0    0  0.00000000000E+00  0.00000000000E+00  0.79978310521E+02  0.24061583411E+04  0.24048287740E+04 0.  0.
        5    1    3    3  502    0 -0.45307460526E+03 -0.97697358070E+03 -0.49511891876E+03  0.11852927103E+04  0.46999998093E+01 0. -1.
       -5    1    3    3    0  502  0.45307460526E+03  0.97697358070E+03  0.57509722928E+03  0.12208656308E+04  0.46999998093E+01 0.  1.
</event>
<event>
 5   0  0.1429483E-05  0.2484647E+04  0.7818609E-02  0.8408476E-01
        1   -1    0    0  501    0  0.00000000000E+00  0.00000000000E+00  0.10931610574E+04  0.10931610574E+04  0.50400001928E-02 0.  1.
       -1   -1    0    0    0  501  0.00000000000E+00  0.00000000000E+00 -0.14118387910E+04  0.14118387910E+04  0.50400001928E-02 0. -1.
    10030    2    1    2    0    0  0.00000000000E+00  0.00000000000E+00 -0.31867773360E+03  0.25049998484E+04  0.24846466031E+04 0.  0.
        2    1    3    3  502    0 -0.11680959171E+03  0.45910813071E+03  0.99852098913E+03  0.11052008515E+04  0.25500000920E-02 0.  1.
       -2    1    3    3    0  502  0.11680959171E+03 -0.45910813071E+03 -0.13171987227E+04  0.13997989969E+04  0.25500000920E-02 0. -1.
</event>
<event>
 5   0  0.1421242E-05  0.2466652E+04  0.7818609E-02  0.8414963E-01
        1   -1    0    0  501    0  0.00000000000E+00  0.00000000000E+00  0.16346410721E+04  0.16346410722E+04  0.50400001928E-02 0. -1.
       -1   -1    0    0    0  501  0.00000000000E+00  0.00000000000E+00 -0.93053649837E+03  0.93053649839E+03  0.50400001928E-02 0.  1.
    10030    2    1    2    0    0  0.00000000000E+00  0.00000000000E+00  0.70410457377E+03  0.25651775705E+04  0.24666521274E+04 0.  0.
        3    1    3    3  502    0 -0.48673967712E+03  0.18212485254E+03  0.15152126808E+04  0.16018596860E+04  0.10100000352E+00 0. -1.
       -3    1    3    3    0  502  0.48673967712E+03 -0.18212485254E+03 -0.81110810706E+03  0.96331788457E+03  0.10100000352E+00 0.  1.
</event>
<event>
 5   0  0.1456876E-05  0.2529026E+04  0.7818609E-02  0.8392717E-01
       -1   -1    0    0    0  501  0.00000000000E+00  0.00000000000E+00  0.95345796863E+03  0.95345796864E+03  0.50400001928E-02 0.  1.
        1   -1    0    0  501    0  0.00000000000E+00  0.00000000000E+00 -0.16770466077E+04  0.16770466077E+04  0.50400001928E-02 0. -1.
    10030    2    1    2    0    0  0.00000000000E+00  0.00000000000E+00 -0.72358863908E+03  0.26305045764E+04  0.25290262568E+04 0.  0.
        1    1    3    3  502    0  0.10922556166E+04 -0.39010660028E+03 -0.88578218671E+03  0.14593887672E+04  0.50400001928E-02 0. -1.
       -1    1    3    3    0  502 -0.10922556166E+04  0.39010660028E+03  0.16219354763E+03  0.11711158091E+04  0.50400001928E-02 0.  1.
</event>
<event>
 5   0  0.1429483E-05  0.2419474E+04  0.7818609E-02  0.8432249E-01
        1   -1    0    0  501    0  0.00000000000E+00  0.00000000000E+00  0.96584874751E+03  0.96584874752E+03  0.50400001928E-02 0.  1.
       -1   -1    0    0    0  501  0.00000000000E+00  0.00000000000E+00 -0.15152102181E+04  0.15152102181E+04  0.50400001928E-02 0. -1.
    10030    2    1    2    0    0  0.00000000000E+00  0.00000000000E+00 -0.54936147063E+03  0.24810589657E+04  0.24194742333E+04 0.  0.
        2    1    3    3  502    0 -0.42905375861E+03  0.35796995503E+03 -0.13749473621E+04  0.14841529116E+04  0.25500000920E-02 0. -1.
       -2    1    3    3    0  502  0.42905375861E+03 -0.35796995503E+03  0.82558589145E+03  0.99690605408E+03  0.25500000920E-02 0.  1.
</event>
<event>
 5   0  0.3650620E-05  0.2533199E+04  0.7818609E-02  0.8391253E-01
        2   -1    0    0  501    0  0.00000000000E+00  0.00000000000E+00  0.14423743748E+04  0.14423743748E+04  0.25500000920E-02 0.  1.
       -2   -1    0    0    0  501  0.00000000000E+00  0.00000000000E+00 -0.11122458175E+04  0.11122458175E+04  0.25500000920E-02 0. -1.
    10030    2    1    2    0    0  0.00000000000E+00  0.00000000000E+00  0.33012855736E+03  0.25546201923E+04  0.25331994518E+04 0.  0.
        3    1    3    3  502    0  0.53480247313E+03  0.10458687361E+04  0.64279976191E+03  0.13390469157E+04  0.10100000352E+00 0.  1.
       -3    1    3    3    0  502 -0.53480247313E+03 -0.10458687361E+04 -0.31267120456E+03  0.12155732766E+04  0.10100000352E+00 0. -1.
</event>
<event>
 5   0  0.1429483E-05  0.2577228E+04  0.7818609E-02  0.8375978E-01
        1   -1    0    0  501    0  0.00000000000E+00  0.00000000000E+00  0.10788371164E+04  0.10788371164E+04  0.50400001928E-02 0.  1.
       -1   -1    0    0    0  501  0.00000000000E+00  0.00000000000E+00 -0.15391810096E+04  0.15391810096E+04  0.50400001928E-02 0. -1.
    10030    2    1    2    0    0  0.00000000000E+00  0.00000000000E+00 -0.46034389322E+03  0.26180181260E+04  0.25772276594E+04 0.  0.
        2    1    3    3  502    0 -0.21093092502E+03 -0.14969086812E+03 -0.15125412750E+04  0.15344967643E+04  0.25500000920E-02 0. -1.
       -2    1    3    3    0  502  0.21093092502E+03  0.14969086812E+03  0.10521973818E+04  0.10835213617E+04  0.25500000920E-02 0.  1.
</event>
<event>
 5   0  0.3579097E-05  0.2543478E+04  0.7818609E-02  0.8387658E-01
       -2   -1    0    0    0  501  0.00000000000E+00  0.00000000000E+00  0.13449004660E+04  0.13449004660E+04  0.25500000920E-02 0. -1.
        2   -1    0    0  501    0  0.00000000000E+00  0.00000000000E+00 -0.12025573949E+04  0.12025573949E+04  0.25500000920E-02 0.  1.
    10030    2    1    2    0    0  0.00000000000E+00  0.00000000000E+00  0.14234307111E+03  0.25474578609E+04  0.25434779344E+04 0.  0.
        5    1    3    3  502    0  0.30296980020E+03 -0.13284671716E+03  0.13010420654E+04  0.13424498113E+04  0.46999998093E+01 0. -1.
       -5    1    3    3    0  502 -0.30296980020E+03  0.13284671716E+03 -0.11586989943E+04  0.12050080495E+04  0.46999998093E+01 0.  1.
</event>
<event>
 5   0  0.3581449E-05  0.2489561E+04  0.7818609E-02  0.8406714E-01
       -2   -1    0    0    0  501  0.00000000000E+00  0.00000000000E+00  0.92897247325E+03  0.92897247325E+03  0.25500000920E-02 0.  1.
        2   -1    0    0  501    0  0.00000000000E+00  0.00000000000E+00 -0.16679492610E+04  0.16679492610E+04  0.25500000920E-02 0. -1.
    10030    2    1    2    0    0  0.00000000000E+00  0.00000000000E+00 -0.73897678777E+03  0.25969217343E+04  0.24895613672E+04 0.  0.
        1    1    3    3  502    0 -0.50740543257E+03 -0.11127955293E+04 -0.12775172952E+03  0.12296725855E+04  0.50400001928E-02 0.  1.
       -1    1    3    3    0  502  0.50740543257E+03  0.11127955293E+04 -0.61122505825E+03  0.13672491488E+04  0.50400001928E-02 0. -1.
</event>
<event>
 5   0  0.1492639E-05  0.2440652E+04  0.7818609E-02  0.8424439E-01
        1   -1    0    0  501    0  0.00000000000E+00  0.00000000000E+00  0.16003523112E+04  0.16003523112E+04  0.50400001928E-02 0.  1.
       -1   -1    0    0    0  501  0.00000000000E+00  0.00000000000E+00 -0.93054234047E+03  0.93054234049E+03  0.50400001928E-02 0. -1.
    10030    2    1    2    0    0  0.00000000000E+00  0.00000000000E+00  0.66980997072E+03  0.25308946517E+04  0.24406520320E+04 0.  0.
        5    1    3    3  502    0  0.21140902003E+03  0.84755455230E+03 -0.54873567614E+03  0.10315887868E+04  0.46999998093E+01 0. -1.
       -5    1    3    3    0  502 -0.21140902003E+03 -0.84755455230E+03  0.12185456469E+04  0.14993058648E+04  0.46999998093E+01 0.  1.
</event>
<event>
 5   0  0.1421242E-05  0.2524217E+04  0.7818609E-02  0.8394409E-01
        1   -1    0    0  501    0  0.00000000000E+00  0.00000000000E+00  0.12774200797E+04  0.12774200797E+04  0.50400001928E-02 0. -1.
       -1   -1    0    0    0  501  0.00000000000E+00  0.00000000000E+00 -0.12469801545E+04  0.12469801545E+04  0.50400001928E-02 0.  1.
    10030    2    1    2    0    0  0.00000000000E+00  0.00000000000E+00  0.30439925173E+02  0.25244002342E+04  0.25242167010E+04 0.  0.
        3    1    3    3  502    0  0.99996993312E+03 -0.20215329038E+03 -0.72787622777E+03  0.12532396551E+04  0.10100000352E+00 0.  1.
       -3    1    3    3    0  502 -0.99996993312E+03  0.20215329038E+03  0.75831615294E+03  0.12711605791E+04  0.10100000352E+00 0. -1.
</event>
<event>
 5   0  0.1456876E-05  0.2477631E+04  0.7818609E-02  0.8410998E-01
       -1   -1    0    0    0  501  0.00000000000E+00  0.00000000000E+00  0.20553353136E+04  0.20553353136E+04  0.50400001928E-02 0.  1.
        1   -1    0    0  501    0  0.00000000000E+00  0.00000000000E+00 -0.74667317129E+03  0.74667317130E+03  0.50400001928E-02 0. -1.
    10030    2    1    2    0    0  0.00000000000E+00  0.00000000000E+00  0.13086621423E+04  0.28020084849E+04  0.24776309142E+04 0.  0.
        1    1    3    3  502    0 -0.54696006471E+03  0.10172278581E+04  0.11610372342E+04  0.16376584769E+04  0.50400001928E-02 0.  1.
       -1    1    3    3    0  502  0.54696006471E+03 -0.10172278581E+04  0.14762490815E+03  0.11643500080E+04  0.50400001928E-02 0. -1.
</event>
<event>
 5   0  0.1492639E-05  0.2485687E+04  0.7818609E-02  0.8408103E-01
       -1   -1    0    0    0  501  0.00000000000E+00  0.00000000000E+00  0.29291798750E+04  0.29291798750E+04  0.50400001928E-02 0. -1.
        1   -1    0    0  501    0  0.00000000000E+00  0.00000000000E+00 -0.52733511684E+03  0.52733511687E+03  0.50400001928E-02 0.  1.
    10030    2    1    2    0    0  0.00000000000E+00  0.00000000000E+00  0.24018447582E+04  0.34565149919E+04  0.24856865544E+04 0.  0.
        5    1    3    3  502    0  0.16163417015E+03  0.81890085908E+03 -0.79542745215E+02  0.83849469901E+03  0.46999998093E+01 0.  1.
       -5    1    3    3    0  502 -0.16163417015E+03 -0.81890085908E+03  0.24813875034E+04  0.26180202929E+04  0.46999998093E+01 0. -1.
</event>
<event>
 5   0  0.3704241E-05  0.2499446E+04  0.7818609E-02  0.8403183E-01
        2   -1    0    0  501    0  0.00000000000E+00  0.00000000000E+00  0.10268857496E+04  0.10268857496E+04  0.25500000920E-02 0.  1.
       -2   -1    0    0    0  501  0.00000000000E+00  0.00000000000E+00 -0.15209162624E+04  0.15209162624E+04  0.25500000920E-02 0. -1.
    10030    2    1    2    0    0  0.00000000000E+00  0.00000000000E+00 -0.49403051289E+03  0.25478020120E+04  0.24994457275E+04 0.  0.
        2    1    3    3  502    0  0.57684059659E+03 -0.11614670731E+02  0.88300194492E+03  0.10547854802E+04  0.25500000920E-02 0.  1.
       -2    1    3    3    0  502 -0.57684059659E+03  0.11614670731E+02 -0.13770324578E+04  0.14930165318E+04  0.25500000920E-02 0. -1.
</event>
<event>
 5   0  0.1429483E-05  0.2410777E+04  0.7818609E-02  0.8435480E-01
        1   -1    0    0  501    0  0.00000000000E+00  0.00000000000E+00  0.11293507527E+04  0.11293507527E+04  0.50400001928E-02 0.  1.
       -1   -1    0    0    0  501  0.00000000000E+00  0.00000000000E+00 -0.12865459093E+04  0.12865459093E+04  0.50400001928E-02 0. -1.
    10030    2    1    2    0    0  0.00000000000E+00  0.00000000000E+00 -0.15719515654E+03  0.24158966620E+04  0.24107771287E+04 0.  0.
        2    1    3    3  502    0 -0.66009327038E+03  0.58711979916E+03  0.74322247992E+03  0.11544749624E+04  0.25500000920E-02 0.  1.
       -2    1    3    3    0  502  0.66009327038E+03 -0.58711979916E+03 -0.90041763646E+03  0.12614216996E+04  0.25500000920E-02 0. -1.
</event>
<event>
 5   0  0.3579097E-05  0.2478013E+04  0.7818609E-02  0.8410860E-01
        2   -1    0    0  501    0  0.00000000000E+00  0.00000000000E+00  0.13969607785E+04  0.13969607785E+04  0.25500000920E-02 0. -1.
       -2   -1    0    0    0  501  0.00000000000E+00  0.00000000000E+00 -0.10989123947E+04  0.10989123947E+04  0.25500000920E-02 0.  1.
    10030    2    1    2    0    0  0.00000000000E+00  0.00000000000E+00  0.29804838379E+03  0.24958731731E+04  0.24780133287E+04 0.  0.
        5    1    3    3  502    0 -0.94625682837E+02  0.10242282160E+04  0.84473982160E+03  0.13310164967E+04  0.46999998093E+01 0. -1.
       -5    1    3    3    0  502  0.94625682837E+02 -0.10242282160E+04 -0.54669143781E+03  0.11648566764E+04  0.46999998093E+01 0.  1.
</event>
<event>
 5   0  0.1421242E-05  0.2502244E+04  0.7818609E-02  0.8402186E-01
       -1   -1    0    0    0  501  0.00000000000E+00  0.00000000000E+00  0.10183594738E+04  0.10183594738E+04  0.50400001928E-02 0.  1.
        1   -1    0    0  501    0  0.00000000000E+00  0.00000000000E+00 -0.15370865271E+04  0.15370865271E+04  0.50400001928E-02 0. -1.
    10030    2    1    2    0    0  0.00000000000E+00  0.00000000000E+00 -0.51872705332E+03  0.25554460009E+04  0.25022442941E+04 0.  0.
        3    1    3    3  502    0 -0.11215700945E+04  0.33414162492E+03 -0.71119130296E+03  0.13694390026E+04  0.10100000352E+00 0. -1.
       -3    1    3    3    0  502  0.11215700945E+04 -0.33414162492E+03  0.19246424963E+03  0.11860069983E+04  0.10100000352E+00 0.  1.
</event>
<event>
 5   0  0.3579097E-05  0.2548526E+04  0.7818609E-02  0.8385899E-01
        2   -1    0    0  501    0  0.00000000000E+00  0.00000000000E+00  0.12329800410E+04  0.12329800410E+04  0.25500000920E-02 0.  1.
       -2   -1    0    0    0  501  0.00000000000E+00  0.00000000000E+00 -0.13169285741E+04  0.13169285741E+04  0.25500000920E-02 0. -1.
    10030    2    1    2    0    0  0.00000000000E+00  0.00000000000E+00 -0.83948533170E+02  0.25499086151E+04  0.25485263564E+04 0.  0.
        5    1    3    3  502    0 -0.31989750500E+03  0.10774949516E+04 -0.64262875753E+03  0.12947291588E+04  0.46999998093E+01 0. -1.
       -5    1    3    3    0  502  0.31989750500E+03 -0.10774949516E+04  0.55868022436E+03  0.12551794563E+04  0.46999998093E+01 0.  1.
</event>
<event>
 5   0  0.3579097E-05  0.2518609E+04  0.7818609E-02  0.8396386E-01
       -2   -1    0    0    0  501  0.00000000000E+00  0.00000000000E+00  0.10074793043E+04  0.10074793043E+04  0.25500000920E-02 0.  1.
        2   -1    0    0  501    0  0.00000000000E+00  0.00000000000E+00 -0.15740750469E+04  0.15740750469E+04  0.25500000920E-02 0. -1.
    10030    2    1    2    0    0  0.00000000000E+00  0.00000000000E+00 -0.56659574258E+03  0.25815543512E+04  0.25186091663E+04 0.  0.
        5    1    3    3  502    0  0.19449650908E+03  0.12317652827E+04 -0.46304108873E+03  0.13302269519E+04  0.46999998093E+01 0. -1.
       -5    1    3    3    0  502 -0.19449650908E+03 -0.12317652827E+04 -0.10355465385E+03  0.12513273993E+04  0.46999998093E+01 0.  1.
</event>
<event>
 5   0  0.1201438E-05  0.2492876E+04  0.7818609E-02  0.8405528E-01
        4   -1    0    0  501    0  0.00000000000E+00  0.00000000000E+00  0.14241113257E+04  0.14241118920E+04  0.12699999809E+01 0.  1.
       -4   -1    0    0    0  501  0.00000000000E+00  0.00000000000E+00 -0.10909302381E+04  0.10909309773E+04  0.12699999809E+01 0. -1.
    10030    2    1    2    0    0  0.00000000000E+00  0.00000000000E+00  0.33318108763E+03  0.25150428693E+04  0.24928760493E+04 0.  0.
        4    1    3    3  502    0 -0.99280356411E+03 -0.20191002937E+03 -0.56593704923E+03  0.11604796136E+04  0.12699999809E+01 0. -1.
       -4    1    3    3    0  502  0.99280356411E+03  0.20191002937E+03  0.89911813685E+03  0.13545632557E+04  0.12699999809E+01 0.  1.
</event>
<event>
 5   0  0.3650620E-05  0.2412446E+04  0.7818609E-02  0.8434859E-01
       -2   -1    0    0    0  501  0.00000000000E+00  0.00000000000E+00  0.15617019410E+04  0.15617019410E+04  0.25500000920E-02 0. -1.
        2   -1    0    0  501    0  0.00000000000E+00  0.00000000000E+00 -0.93165916187E+03  0.93165916188E+03  0.25500000920E-02 0.  1.
    10030    2    1    2    0    0  0.00000000000E+00  0.00000000000E+00  0.63004277916E+03  0.24933611029E+04  0.24124459965E+04 0.  0.
        3    1    3    3  502    0 -0.27512978596E+03 -0.21768884701E+03 -0.87776207138E+03  0.94527831742E+03  0.10100000352E+00 0.  1.
       -3    1    3    3    0  502  0.27512978596E+03  0.21768884701E+03  0.15078048505E+04  0.15480827855E+04  0.10100000352E+00 0. -1.
</event>
<event>
 5   0  0.1456876E-05  0.2505379E+04  0.7818609E-02  0.8401072E-01
       -1   -1    0    0    0  501  0.00000000000E+00  0.00000000000E+00  0.88684356422E+03  0.88684356424E+03  0.50400001928E-02 0. -1.
        1   -1    0    0  501    0  0.00000000000E+00  0.00000000000E+00 -0.17694558262E+04  0.17694558262E+04  0.50400001928E-02 0.  1.
    10030    2    1    2    0    0  0.00000000000E+00  0.00000000000E+00 -0.88261226195E+03  0.26562993904E+04  0.25053786234E+04 0.  0.
        1    1    3    3  502    0 -0.93174311644E+03 -0.83530720487E+03 -0.50264577440E+03  0.13485311031E+04  0.50400001928E-02 0.  1.
       -1    1    3    3    0  502  0.93174311644E+03  0.83530720487E+03 -0.37996648755E+03  0.13077682873E+04  0.50400001928E-02 0. -1.
</event>
<event>
 5   0  0.1502886E-05  0.2692112E+04  0.7818609E-02  0.8337569E-01
        1   -1    0    0  501    0  0.00000000000E+00  0.00000000000E+00  0.77100377480E+03  0.77100377482E+03  0.50400001928E-02 0.  1.
       -1   -1    0    0    0  501  0.00000000000E+00  0.00000000000E+00 -0.23500105721E+04  0.23500105721E+04  0.50400001928E-02 0. -1.
    10030    2    1    2    0    0  0.00000000000E+00  0.00000000000E+00 -0.15790067973E+04  0.31210143469E+04  0.26921121982E+04 0.  0.
        4    1    3    3  502    0  0.96649876089E+03 -0.21612996981E+03 -0.18463497347E+04  0.20951947342E+04  0.12699999809E+01 0. -1.
       -4    1    3    3    0  502 -0.96649876089E+03  0.21612996981E+03  0.26734293741E+03  0.10258196127E+04  0.12699999809E+01 0.  1.
</event>
<event>
 5   0  0.1492639E-05  0.2506487E+04  0.7818609E-02  0.8400678E-01
       -1   -1    0    0    0  501  0.00000000000E+00  0.00000000000E+00  0.25647517961E+04  0.25647517961E+04  0.50400001928E-02 0. -1.
        1   -1    0    0  501    0  0.00000000000E+00  0.00000000000E+00 -0.61238668226E+03  0.61238668228E+03  0.50400001928E-02 0.  1.
    10030    2    1    2    0    0  0.00000000000E+00  0.00000000000E+00  0.19523651139E+04  0.31771384784E+04  0.25064874572E+04 0.  0.
        5    1    3    3  502    0  0.24638693305E+03  0.12221634064E+04  0.11375564172E+04  0.16877341630E+04  0.46999998093E+01 0. -1.
       -5    1    3    3    0  502 -0.24638693305E+03 -0.12221634064E+04  0.81480869665E+03  0.14894043154E+04  0.46999998093E+01 0.  1.
</event>
<event>
 5   0  0.3704241E-05  0.2690595E+04  0.7818609E-02  0.8338063E-01
       -2   -1    0    0    0  501  0.00000000000E+00  0.00000000000E+00  0.11204076473E+04  0.11204076473E+04  0.25500000920E-02 0. -1.
        2   -1    0    0  501    0  0.00000000000E+00  0.00000000000E+00 -0.16153272842E+04  0.16153272842E+04  0.25500000920E-02 0.  1.
    10030    2    1    2    0    0  0.00000000000E+00  0.00000000000E+00 -0.49491963691E+03  0.27357349315E+04  0.26905947610E+04 0.  0.
        2    1    3    3  502    0 -0.26599955630E+03  0.12906872268E+04  0.27626307820E+02  0.13181018528E+04  0.25500000920E-02 0. -1.
       -2    1    3    3    0  502  0.26599955630E+03 -0.12906872268E+04 -0.52254594474E+03  0.14176330787E+04  0.25500000920E-02 0.  1.
</event>
<event>
 5   0  0.1421242E-05  0.2408979E+04  0.7818609E-02  0.8436150E-01
       -1   -1    0    0    0  501  0.00000000000E+00  0.00000000000E+00  0.16024138258E+04  0.16024138258E+04  0.50400001928E-02 0. -1.
        1   -1    0    0  501    0  0.00000000000E+00  0.00000000000E+00 -0.90538088911E+03  0.90538088913E+03  0.50400001928E-02 0.  1.
    10030    2    1    2    0    0  0.00000000000E+00  0.00000000000E+00  0.69703293666E+03  0.25077947149E+04  0.24089789159E+04 0.  0.
        3    1    3    3  502    0 -0.10603632975E+04  0.49801330544E+03  0.57017415738E+02  0.11728761959E+04  0.10100000352E+00 0.  1.
       -3    1    3    3    0  502  0.10603632975E+04 -0.49801330544E+03  0.64001552093E+03  0.13349185190E+04  0.10100000352E+00 0. -1.
</event>
<event>
 5   0  0.1502886E-05  0.2499671E+04  0.7818609E-02  0.8403103E-01
        1   -1    0    0  501    0  0.00000000000E+00  0.00000000000E+00  0.12911796694E+04  0.12911796695E+04  0.50400001928E-02 0.  1.
       -1   -1    0    0    0  501  0.00000000000E+00  0.00000000000E+00 -0.12098156520E+04  0.12098156520E+04  0.50400001928E-02 0. -1.
    10030    2    1    2    0    0  0.00000000000E+00  0.00000000000E+00  0.81364017474E+02  0.25009953214E+04  0.24996714773E+04 0.  0.
        4    1    3    3  502    0 -0.18779892800E+03 -0.15342355395E+03 -0.11860507473E+04  0.12105887874E+04  0.12699999809E+01 0. -1.
       -4    1    3    3    0  502  0.18779892800E+03  0.15342355395E+03  0.12674147647E+04  0.12904065340E+04  0.12699999809E+01 0.  1.
</event>
<event>
 5   0  0.3578670E-05  0.2399564E+04  0.7818609E-02  0.8439667E-01
       -2   -1    0    0    0  501  0.00000000000E+00  0.00000000000E+00  0.10463464663E+04  0.10463464663E+04  0.25500000920E-02 0. -1.
        2   -1    0    0  501    0  0.00000000000E+00  0.00000000000E+00 -0.13757170737E+04  0.13757170737E+04  0.25500000920E-02 0.  1.
    10030    2    1    2    0    0  0.00000000000E+00  0.00000000000E+00 -0.32937060736E+03  0.24220635400E+04  0.23995638759E+04 0.  0.
        4    1    3    3  502    0  0.36025091027E+02  0.23716720511E+03 -0.13512627287E+04  0.13723915860E+04  0.12699999809E+01 0.  1.
       -4    1    3    3    0  502 -0.36025091027E+02 -0.23716720511E+03  0.10218921214E+04  0.10496719540E+04  0.12699999809E+01 0. -1.
</event>
<event>
 5   0  0.1502886E-05  0.2509717E+04  0.7818609E-02  0.8399532E-01
        1   -1    0    0  501    0  0.00000000000E+00  0.00000000000E+00  0.12327143686E+04  0.12327143686E+04  0.50400001928E-02 0.  1.
       -1   -1    0    0    0  501  0.00000000000E+00  0.00000000000E+00 -0.12774002137E+04  0.12774002137E+04  0.50400001928E-02 0. -1.
    10030    2    1    2    0    0  0.00000000000E+00  0.00000000000E+00 -0.44685845072E+02  0.25101145823E+04  0.25097167951E+04 0.  0.
        4    1    3    3  502    0 -0.16680001716E+03  0.11358282026E+04  0.48443259574E+03  0.12460355148E+04  0.12699999809E+01 0.  1.
       -4    1    3    3    0  502  0.16680001716E+03 -0.11358282026E+04 -0.52911844081E+03  0.12640790675E+04  0.12699999809E+01 0. -1.
</event>
<event>
 5   0  0.1502886E-05  0.2517990E+04  0.7818609E-02  0.8396604E-01
        1   -1    0    0  501    0  0.00000000000E+00  0.00000000000E+00  0.21978305496E+04  0.21978305496E+04  0.50400001928E-02 0.  1.
       -1   -1    0    0    0  501  0.00000000000E+00  0.00000000000E+00 -0.72119691745E+03  0.72119691747E+03  0.50400001928E-02 0. -1.
    10030    2    1    2    0    0  0.00000000000E+00  0.00000000000E+00  0.14766336321E+04  0.29190274671E+04  0.25179901648E+04 0.  0.
        4    1    3    3  502    0 -0.10836645389E+04  0.22139784914E+03  0.14355388640E+04  0.18122139176E+04  0.12699999809E+01 0.  1.
       -4    1    3    3    0  502  0.10836645389E+04 -0.22139784914E+03  0.41094768195E+02  0.11068135495E+04  0.12699999809E+01 0. -1.
</event>
<event>
 5   0  0.1456876E-05  0.2258403E+04  0.7818609E-02  0.8494505E-01
        1   -1    0    0  501    0  0.00000000000E+00  0.00000000000E+00  0.15106898979E+04  0.15106898979E+04  0.50400001928E-02 0.  1.
       -1   -1    0    0    0  501  0.00000000000E+00  0.00000000000E+00 -0.84404912516E+03  0.84404912517E+03  0.50400001928E-02 0. -1.
    10030    2    1    2    0    0  0.00000000000E+00  0.00000000000E+00  0.66664077274E+03  0.23547390231E+04  0.22584034066E+04 0.  0.
        1    1    3    3  502    0  0.61872946657E+03 -0.36572502466E+03  0.12413991143E+04  0.14344520582E+04  0.50400001928E-02 0.  1.
       -1    1    3    3    0  502 -0.61872946657E+03  0.36572502466E+03 -0.57475834153E+03  0.92028696483E+03  0.50400001928E-02 0. -1.
</event>
<event>
 5   0  0.3581449E-05  0.2498839E+04  0.7818609E-02  0.8403399E-01
       -2   -1    0    0    0  501  0.00000000000E+00  0.00000000000E+00  0.15586540959E+04  0.15586540959E+04  0.25500000920E-02 0. -1.
        2   -1    0    0  501    0  0.00000000000E+00  0.00000000000E+00 -0.10015364118E+04  0.10015364118E+04  0.25500000920E-02 0.  1.
    10030    2    1    2    0    0  0.00000000000E+00  0.00000000000E+00  0.55711768409E+03  0.25601905077E+04  0.24988387947E+04 0.  0.
        1    1    3    3  502    0 -0.62674243023E+03  0.40666846935E+03 -0.74745910747E+03  0.10568256409E+04  0.50400001928E-02 0.  1.
       -1    1    3    3    0  502  0.62674243023E+03 -0.40666846935E+03  0.13045767916E+04  0.15033648669E+04  0.50400001928E-02 0. -1.
</event>
<event>
 5   0  0.1421242E-05  0.2500890E+04  0.7818609E-02  0.8402669E-01
        1   -1    0    0  501    0  0.00000000000E+00  0.00000000000E+00  0.12759181500E+04  0.12759181500E+04  0.50400001928E-02 0. -1.
       -1   -1    0    0    0  501  0.00000000000E+00  0.00000000000E+00 -0.12254805069E+04  0.12254805069E+04  0.50400001928E-02 0.  1.
    10030    2    1    2    0    0  0.00000000000E+00  0.00000000000E+00  0.50437643145E+02  0.25013986569E+04  0.25008900986E+04 0.  0.
        3    1    3    3  502    0 -0.18641821391E+03  0.56153547699E+03 -0.10766126390E+04  0.12284822453E+04  0.10100000352E+00 0.  1.
       -3    1    3    3    0  502  0.18641821391E+03 -0.56153547699E+03  0.11270502821E+04  0.12729164116E+04  0.10100000352E+00 0. -1.
</event>
<event>
 5   0  0.3704241E-05  0.2440364E+04  0.7818609E-02  0.8424545E-01
       -2   -1    0    0    0  501  0.00000000000E+00  0.00000000000E+00  0.78696473148E+03  0.78696473148E+03  0.25500000920E-02 0. -1.
        2   -1    0    0  501    0  0.00000000000E+00  0.00000000000E+00 -0.18918820688E+04  0.18918820688E+04  0.25500000920E-02 0.  1.
    10030    2    1    2    0    0  0.00000000000E+00  0.00000000000E+00 -0.11049173373E+04  0.26788468003E+04  0.24403642878E+04 0.  0.
        2    1    3    3  502    0  0.50928520581E+03  0.10638141018E+04 -0.20921558149E+03  0.11978493326E+04  0.25500000920E-02 0.  1.
       -2    1    3    3    0  502 -0.50928520581E+03 -0.10638141018E+04 -0.89570175582E+03  0.14809974677E+04  0.25500000920E-02 0. -1.
</event>
<event>
 5   0  0.3579097E-05  0.2275393E+04  0.7818609E-02  0.8487687E-01
       -2   -1    0    0    0  501  0.00000000000E+00  0.00000000000E+00  0.63789659853E+03  0.63789659854E+03  0.25500000920E-02 0. -1.
        2   -1    0    0  501    0  0.00000000000E+00  0.00000000000E+00 -0.20290957341E+04  0.20290957341E+04  0.25500000920E-02 0.  1.
    10030    2    1    2    0    0  0.00000000000E+00  0.00000000000E+00 -0.13911991356E+04  0.26669923327E+04  0.22753929480E+04 0.  0.
        5    1    3    3  502    0  0.43014758964E+03  0.57233836921E+03  0.34072212116E+03  0.79291349565E+03  0.46999998093E+01 0. -1.
       -5    1    3    3    0  502 -0.43014758964E+03 -0.57233836921E+03 -0.17319212567E+04  0.18740788370E+04  0.46999998093E+01 0.  1.
</event>
<event>
 5   0  0.1492639E-05  0.2464689E+04  0.7818609E-02  0.8415674E-01
       -1   -1    0    0    0  501  0.00000000000E+00  0.00000000000E+00  0.12301009619E+04  0.12301009619E+04  0.50400001928E-02 0.  1.
        1   -1    0    0  501    0  0.00000000000E+00  0.00000000000E+00 -0.12345925043E+04  0.12345925044E+04  0.50400001928E-02 0. -1.
    10030    2    1    2    0    0  0.00000000000E+00  0.00000000000E+00 -0.44915424901E+01  0.24646934662E+04  0.24646893736E+04 0.  0.
        5    1    3    3  502    0 -0.24406527687E+03 -0.67368974484E+03  0.10003652918E+04  0.12305196214E+04  0.46999998093E+01 0.  1.
       -5    1    3    3    0  502  0.24406527687E+03  0.67368974484E+03 -0.10048568343E+04  0.12341738448E+04  0.46999998093E+01 0. -1.
</event>
<event>
 5   0  0.3578670E-05  0.2509209E+04  0.7818609E-02  0.8399712E-01
        2   -1    0    0  501    0  0.00000000000E+00  0.00000000000E+00  0.20534942341E+04  0.20534942341E+04  0.25500000920E-02 0.  1.
       -2   -1    0    0    0  501  0.00000000000E+00  0.00000000000E+00 -0.76651388621E+03  0.76651388622E+03  0.25500000920E-02 0. -1.
    10030    2    1    2    0    0  0.00000000000E+00  0.00000000000E+00  0.12869803479E+04  0.28200081203E+04  0.25092085172E+04 0.  0.
        4    1    3    3  502    0  0.51803866619E+03 -0.16964835971E+02 -0.64055946049E+03  0.82399629893E+03  0.12699999809E+01 0. -1.
       -4    1    3    3    0  502 -0.51803866619E+03  0.16964835971E+02  0.19275398084E+04  0.19960118214E+04  0.12699999809E+01 0.  1.
</event>
<event>
 5   0  0.3578670E-05  0.2496119E+04  0.7818609E-02  0.8404370E-01
       -2   -1    0    0    0  501  0.00000000000E+00  0.00000000000E+00  0.74567136055E+03  0.74567136056E+03  0.25500000920E-02 0. -1.
        2   -1    0    0  501    0  0.00000000000E+00  0.00000000000E+00 -0.20889260201E+04  0.20889260201E+04  0.25500000920E-02 0.  1.
    10030    2    1    2    0    0  0.00000000000E+00  0.00000000000E+00 -0.13432546596E+04  0.28345973807E+04  0.24961188333E+04 0.  0.
        4    1    3    3  502    0 -0.85965453801E+03  0.28822684923E+03 -0.16455806542E+04  0.18788341980E+04  0.12699999809E+01 0.  1.
       -4    1    3    3    0  502  0.85965453801E+03 -0.28822684923E+03  0.30232599464E+03  0.95576318263E+03  0.12699999809E+01 0. -1.
</event>
<event>
 5   0  0.3704241E-05  0.2918644E+04  0.7818609E-02  0.8267352E-01
        2   -1    0    0  501    0  0.00000000000E+00  0.00000000000E+00  0.11976340289E+04  0.11976340289E+04  0.25500000920E-02 0. -1.
       -2   -1    0    0    0  501  0.00000000000E+00  0.00000000000E+00 -0.17781900279E+04  0.17781900279E+04  0.25500000920E-02 0.  1.
    10030    2    1    2    0    0  0.00000000000E+00  0.00000000000E+00 -0.58055599897E+03  0.29758240568E+04  0.29186441286E+04 0.  0.
        2    1    3    3  502    0  0.13397489897E+04 -0.57805796557E+03 -0.26652961222E+03  0.14832789357E+04  0.25500000920E-02 0.  1.
       -2    1    3    3    0  502 -0.13397489897E+04  0.57805796557E+03 -0.31402638674E+03  0.14925451211E+04  0.25500000920E-02 0. -1.
</event>
<event>
 5   0  0.1492639E-05  0.2499684E+04  0.7818609E-02  0.8403098E-01
       -1   -1    0    0    0  501  0.00000000000E+00  0.00000000000E+00  0.60912807096E+03  0.60912807098E+03  0.50400001928E-02 0. -1.
        1   -1    0    0  501    0  0.00000000000E+00  0.00000000000E+00 -0.25644937630E+04  0.25644937630E+04  0.50400001928E-02 0.  1.
    10030    2    1    2    0    0  0.00000000000E+00  0.00000000000E+00 -0.19553656920E+04  0.31736218340E+04  0.24996840912E+04 0.  0.
        5    1    3    3  502    0 -0.75026256296E+03 -0.94267274514E+03 -0.13998297667E+04  0.18469085748E+04  0.46999998093E+01 0.  1.
       -5    1    3    3    0  502  0.75026256296E+03  0.94267274514E+03 -0.55553592531E+03  0.13267132592E+04  0.46999998093E+01 0. -1.
</event>
<event>
 5   0  0.3650620E-05  0.2612486E+04  0.7818609E-02  0.8363972E-01
       -2   -1    0    0    0  501  0.00000000000E+00  0.00000000000E+00  0.10058222926E+04  0.10058222926E+04  0.25500000920E-02 0.  1.
        2   -1    0    0  501    0  0.00000000000E+00  0.00000000000E+00 -0.16963936692E+04  0.16963936692E+04  0.25500000920E-02 0. -1.
    10030    2    1    2    0    0  0.00000000000E+00  0.00000000000E+00 -0.69057137656E+03  0.27022159618E+04  0.26124858426E+04 0.  0.
        3    1    3    3  502    0  0.11776406755E+03  0.12761373996E+04 -0.60670239356E+03  0.14179149632E+04  0.10100000352E+00 0. -1.
       -3    1    3    3    0  502 -0.11776406755E+03 -0.12761373996E+04 -0.83868983005E+02  0.12843009986E+04  0.10100000352E+00 0.  1.
</event>
<event>
 5   0  0.1421242E-05  0.2529662E+04  0.7818609E-02  0.8392494E-01
        1   -1    0    0  501    0  0.00000000000E+00  0.00000000000E+00  0.12117089969E+04  0.12117089969E+04  0.50400001928E-02 0. -1.
       -1   -1    0    0    0  501  0.00000000000E+00  0.00000000000E+00 -0.13202814084E+04  0.13202814085E+04  0.50400001928E-02 0.  1.
    10030    2    1    2    0    0  0.00000000000E+00  0.00000000000E+00 -0.10857241152E+03  0.25319904054E+04  0.25296615276E+04 0.  0.
        3    1    3    3  502    0  0.58704946721E+02  0.29089105432E+03 -0.12849436496E+04  0.13187661161E+04  0.10100000352E+00 0.  1.
       -3    1    3    3    0  502 -0.58704946721E+02 -0.29089105432E+03  0.11763712380E+04  0.12132242893E+04  0.10100000352E+00 0. -1.
</event>
<event>
 5   0  0.3578670E-05  0.2530458E+04  0.7818609E-02  0.8392214E-01
        2   -1    0    0  501    0  0.00000000000E+00  0.00000000000E+00  0.15958005804E+04  0.15958005804E+04  0.25500000920E-02 0. -1.
       -2   -1    0    0    0  501  0.00000000000E+00  0.00000000000E+00 -0.10031355522E+04  0.10031355522E+04  0.25500000920E-02 0.  1.
    10030    2    1    2    0    0  0.00000000000E+00  0.00000000000E+00  0.59266502818E+03  0.25989361326E+04  0.25304579004E+04 0.  0.
        4    1    3    3  502    0  0.53980799924E+03 -0.95699064670E+03 -0.34800349062E+03  0.11525327832E+04  0.12699999809E+01 0.  1.
       -4    1    3    3    0  502 -0.53980799924E+03  0.95699064670E+03  0.94066851880E+03  0.14464033494E+04  0.12699999809E+01 0. -1.
</event>
<event>
 5   0  0.1502886E-05  0.2448749E+04  0.7818609E-02  0.8421475E-01
       -1   -1    0    0    0  501  0.00000000000E+00  0.00000000000E+00  0.10957134334E+04  0.10957134334E+04  0.50400001928E-02 0. -1.
        1   -1    0    0  501    0  0.00000000000E+00  0.00000000000E+00 -0.13681426798E+04  0.13681426798E+04  0.50400001928E-02 0.  1.
    10030    2    1    2    0    0  0.00000000000E+00  0.00000000000E+00 -0.27242924645E+03  0.24638561132E+04  0.24487485073E+04 0.  0.
        4    1    3    3  502    0 -0.48787656493E+03 -0.84102779041E+03  0.61251303379E+03  0.11491410341E+04  0.12699999809E+01 0. -1.
       -4    1    3    3    0  502  0.48787656493E+03  0.84102779041E+03 -0.88494228024E+03  0.13147150791E+04  0.12699999809E+01 0.  1.
</event>
<event>
 5   0  0.1421242E-05  0.2504661E+04  0.7818609E-02  0.8401327E-01
        1   -1    0    0  501    0  0.00000000000E+00  0.00000000000E+00  0.60204284599E+03  0.60204284601E+03  0.50400001928E-02 0.  1.
       -1   -1    0    0    0  501  0.00000000000E+00  0.00000000000E+00 -0.26050168870E+04  0.26050168870E+04  0.50400001928E-02 0. -1.
    10030    2    1    2    0    0  0.00000000000E+00  0.00000000000E+00 -0.20029740410E+04  0.32070597330E+04  0.25046610793E+04 0.  0.
        3    1    3    3  502    0  0.28521217933E+03 -0.40178189943E+03 -0.24756900521E+04  0.25242456153E+04  0.10100000352E+00 0. -1.
       -3    1    3    3    0  502 -0.28521217933E+03  0.40178189943E+03  0.47271601113E+03  0.68281411770E+03  0.10100000352E+00 0.  1.
</event>
<event>
 5   0  0.3704241E-05  0.2547037E+04  0.7818609E-02  0.8386417E-01
        2   -1    0    0  501    0  0.00000000000E+00  0.00000000000E+00  0.17808828888E+04  0.17808828888E+04  0.25500000920E-02 0.  1.
       -2   -1    0    0    0  501  0.00000000000E+00  0.00000000000E+00 -0.91069973160E+03  0.91069973160E+03  0.25500000920E-02 0. -1.
    10030    2    1    2    0    0  0.00000000000E+00  0.00000000000E+00  0.87018315718E+03  0.26915826204E+04  0.25470371562E+04 0.  0.
        2    1    3    3  502    0 -0.54404827729E+00 -0.60987661270E+03 -0.74634396483E+03  0.96383561490E+03  0.25500000920E-02 0. -1.
       -2    1    3    3    0  502  0.54404827729E+00  0.60987661270E+03  0.16165271220E+04  0.17277470055E+04  0.25500000920E-02 0.  1.
</event>
<event>
 5   0  0.1421242E-05  0.2494144E+04  0.7818609E-02  0.8405075E-01
       -1   -1    0    0    0  501  0.00000000000E+00  0.00000000000E+00  0.16271530099E+04  0.16271530099E+04  0.50400001928E-02 0. -1.
        1   -1    0    0  501    0  0.00000000000E+00  0.00000000000E+00 -0.95577258422E+03  0.95577258424E+03  0.50400001928E-02 0.  1.
    10030    2    1    2    0    0  0.00000000000E+00  0.00000000000E+00  0.67138042572E+03  0.25829255942E+04  0.24941437306E+04 0.  0.
        3    1    3    3  502    0  0.73435209297E+03  0.81537835606E+02  0.13760736147E+04  0.15618898867E+04  0.10100000352E+00 0. -1.
       -3    1    3    3    0  502 -0.73435209297E+03 -0.81537835606E+02 -0.70469318896E+03  0.10210357074E+04  0.10100000352E+00 0.  1.
</event>
<event>
 5   0  0.3581449E-05  0.2524387E+04  0.7818609E-02  0.8394349E-01
       -2   -1    0    0    0  501  0.00000000000E+00  0.00000000000E+00  0.55335202308E+03  0.55335202308E+03  0.25500000920E-02 0. -1.
        2   -1    0    0  501    0  0.00000000000E+00  0.00000000000E+00 -0.28790574315E+04  0.28790574315E+04  0.25500000920E-02 0.  1.
    10030    2    1    2    0    0  0.00000000000E+00  0.00000000000E+00 -0.23257054084E+04  0.34324094546E+04  0.25243868596E+04 0.  0.
        1    1    3    3  502    0  0.11447488423E+04  0.40386502522E+03 -0.69267279230E+03  0.13976238649E+04  0.50400001928E-02 0.  1.
       -1    1    3    3    0  502 -0.11447488423E+04 -0.40386502522E+03 -0.16330326161E+04  0.20347855897E+04  0.50400001928E-02 0. -1.
</event>
<event>
 5   0  0.3581449E-05  0.2479450E+04  0.7818609E-02  0.8410343E-01
       -2   -1    0    0    0  501  0.00000000000E+00  0.00000000000E+00  0.72460101085E+03  0.72460101085E+03  0.25500000920E-02 0.  1.
        2   -1    0    0  501    0  0.00000000000E+00  0.00000000000E+00 -0.21210546421E+04  0.21210546421E+04  0.25500000920E-02 0. -1.
    10030    2    1    2    0    0  0.00000000000E+00  0.00000000000E+00 -0.13964536313E+04  0.28456556530E+04  0.24794502115E+04 0.  0.
        1    1    3    3  502    0  0.54911498274E+03  0.80250131963E+03 -0.15808214113E+04  0.18559450334E+04  0.50400001928E-02 0. -1.
       -1    1    3    3    0  502 -0.54911498274E+03 -0.80250131963E+03  0.18436778005E+03  0.98971061964E+03  0.50400001928E-02 0.  1.
</event>
<event>
 5   0  0.3650620E-05  0.2490002E+04  0.7818609E-02  0.8406556E-01
       -2   -1    0    0    0  501  0.00000000000E+00  0.00000000000E+00  0.73697574383E+03  0.73697574384E+03  0.25500000920E-02 0.  1.
        2   -1    0    0  501    0  0.00000000000E+00  0.00000000000E+00 -0.21032267276E+04  0.21032267277E+04  0.25500000920E-02 0. -1.
    10030    2    1    2    0    0  0.00000000000E+00  0.00000000000E+00 -0.13662509838E+04  0.28402024715E+04  0.24900016723E+04 0.  0.
        3    1    3    3  502    0  0.87053790312E+03 -0.11918754630E+03 -0.16892119853E+04  0.19040690779E+04  0.10100000352E+00 0. -1.
       -3    1    3    3    0  502 -0.87053790312E+03  0.11918754630E+03  0.32296100145E+03  0.93613339361E+03  0.10100000352E+00 0.  1.
</event>
<event>
 5   0  0.3650620E-05  0.2515068E+04  0.7818609E-02  0.8397637E-01
       -2   -1    0    0    0  501  0.00000000000E+00  0.00000000000E+00  0.73940045236E+03  0.73940045236E+03  0.25500000920E-02 0. -1.
        2   -1    0    0  501    0  0.00000000000E+00  0.00000000000E+00 -0.21387492797E+04  0.21387492797E+04  0.25500000920E-02 0.  1.
    10030    2    1    2    0    0  0.00000000000E+00  0.00000000000E+00 -0.13993488274E+04  0.28781497321E+04  0.25150683370E+04 0.  0.
        3    1    3    3  502    0 -0.16613160357E+03 -0.12133242140E+04 -0.37270537911E+03  0.12801033817E+04  0.10100000352E+00 0.  1.
       -3    1    3    3    0  502  0.16613160357E+03  0.12133242140E+04 -0.10266434482E+04  0.15980463504E+04  0.10100000352E+00 0. -1.
</event>
<event>
 5   0  0.3579097E-05  0.2478593E+04  0.7818609E-02  0.8410652E-01
        2   -1    0    0  501    0  0.00000000000E+00  0.00000000000E+00  0.20727183262E+04  0.20727183262E+04  0.25500000920E-02 0. -1.
       -2   -1    0    0    0  501  0.00000000000E+00  0.00000000000E+00 -0.74098645843E+03  0.74098645844E+03  0.25500000920E-02 0.  1.
    10030    2    1    2    0    0  0.00000000000E+00  0.00000000000E+00  0.13317318678E+04  0.28137047846E+04  0.24785933203E+04 0.  0.
        5    1    3    3  502    0  0.53467211780E+03 -0.40901917287E+02  0.19341906547E+04  0.20071529138E+04  0.46999998093E+01 0. -1.
       -5    1    3    3    0  502 -0.53467211780E+03  0.40901917287E+02 -0.60245878698E+03  0.80655187086E+03  0.46999998093E+01 0.  1.
</event>
<event>
 5   0  0.1421242E-05  0.2486081E+04  0.7818609E-02  0.8407961E-01
        1   -1    0    0  501    0  0.00000000000E+00  0.00000000000E+00  0.66962647086E+03  0.66962647088E+03  0.50400001928E-02 0.  1.
       -1   -1    0    0    0  501  0.00000000000E+00  0.00000000000E+00 -0.23074803048E+04  0.23074803048E+04  0.50400001928E-02 0. -1.
    10030    2    1    2    0    0  0.00000000000E+00  0.00000000000E+00 -0.16378538339E+04  0.29771067756E+04  0.24860811677E+04 0.  0.
        3    1    3    3  502    0 -0.22471505768E+03  0.82549686035E+03 -0.18988179071E+04  0.20826548869E+04  0.10100000352E+00 0. -1.
       -3    1    3    3    0  502  0.22471505768E+03 -0.82549686035E+03  0.26096407316E+03  0.89445188874E+03  0.10100000352E+00 0.  1.
</event>
<event>
 5   0  0.1502886E-05  0.2464529E+04  0.7818609E-02  0.8415732E-01
       -1   -1    0    0    0  501  0.00000000000E+00  0.00000000000E+00  0.94958931523E+03  0.94958931524E+03  0.50400001928E-02 0.  1.
        1   -1    0    0  501    0  0.00000000000E+00  0.00000000000E+00 -0.15990865165E+04  0.15990865165E+04  0.50400001928E-02 0. -1.
    10030    2    1    2    0    0  0.00000000000E+00  0.00000000000E+00 -0.64949720125E+03  0.25486758317E+04  0.24645287340E+04 0.  0.
        4    1    3    3  502    0  0.11118744892E+04  0.47865278623E+03 -0.56305185345E+03  0.13350664298E+04  0.12699999809E+01 0. -1.
       -4    1    3    3    0  502 -0.11118744892E+04 -0.47865278623E+03 -0.86445347801E+02  0.12136094019E+04  0.12699999809E+01 0.  1.
</event>
<event>
 5   0  0.3578670E-05  0.2480271E+04  0.7818609E-02  0.8410048E-01
        2   -1    0    0  501    0  0.00000000000E+00  0.00000000000E+00  0.16487247780E+04  0.16487247780E+04  0.25500000920E-02 0.  1.
       -2   -1    0    0    0  501  0.00000000000E+00  0.00000000000E+00 -0.93280313716E+03  0.93280313716E+03  0.25500000920E-02 0. -1.
    10030    2    1    2    0    0  0.00000000000E+00  0.00000000000E+00  0.71592164088E+03  0.25815279152E+04  0.24802706669E+04 0.  0.
        4    1    3    3  502    0  0.91990009187E+03  0.78890833234E+03  0.83882708619E+02  0.12147553077E+04  0.12699999809E+01 0. -1.
       -4    1    3    3    0  502 -0.91990009187E+03 -0.78890833234E+03  0.63203893226E+03  0.13667726075E+04  0.12699999809E+01 0.  1.
</event>
<event>
 5   0  0.1421242E-05  0.2496658E+04  0.7818609E-02  0.8404177E-01
        1   -1    0    0  501    0  0.00000000000E+00  0.00000000000E+00  0.15232623476E+04  0.15232623476E+04  0.50400001928E-02 0.  1.
       -1   -1    0    0    0  501  0.00000000000E+00  0.00000000000E+00 -0.10230181101E+04  0.10230181101E+04  0.50400001928E-02 0. -1.
    10030    2    1    2    0    0  0.00000000000E+00  0.00000000000E+00  0.50024423744E+03  0.25462804577E+04  0.24966577403E+04 0.  0.
        3    1    3    3  502    0  0.87167954961E+03 -0.28033049003E+03 -0.61521971245E+03  0.11031345002E+04  0.10100000352E+00 0. -1.
       -3    1    3    3    0  502 -0.87167954961E+03  0.28033049003E+03  0.11154639499E+04  0.14431459575E+04  0.10100000352E+00 0.  1.
</event>
<event>
 5   0  0.1502886E-05  0.2477384E+04  0.7818609E-02  0.8411087E-01
        1   -1    0    0  501    0  0.00000000000E+00  0.00000000000E+00  0.19790802994E+04  0.19790802994E+04  0.50400001928E-02 0.  1.
       -1   -1    0    0    0  501  0.00000000000E+00  0.00000000000E+00 -0.77528808317E+03  0.77528808319E+03  0.50400001928E-02 0. -1.
    10030    2    1    2    0    0  0.00000000000E+00  0.00000000000E+00  0.12037922162E+04  0.27543683826E+04  0.24773835971E+04 0.  0.
        4    1    3    3  502    0  0.59815562943E+03  0.10437984456E+04  0.92992656546E+03  0.15205493685E+04  0.12699999809E+01 0.  1.
       -4    1    3    3    0  502 -0.59815562943E+03 -0.10437984456E+04  0.27386565078E+03  0.12338190141E+04  0.12699999809E+01 0. -1.
</event>
<event>
 5   0  0.1492639E-05  0.2440303E+04  0.7818609E-02  0.8424567E-01
        1   -1    0    0  501    0  0.00000000000E+00  0.00000000000E+00  0.22145637445E+04  0.22145637445E+04  0.50400001928E-02 0.  1.
       -1   -1    0    0    0  501  0.00000000000E+00  0.00000000000E+00 -0.67226300669E+03  0.67226300671E+03  0.50400001928E-02 0. -1.
    10030    2    1    2    0    0  0.00000000000E+00  0.00000000000E+00  0.15423007378E+04  0.28868267512E+04  0.24403026709E+04 0.  0.
        5    1    3    3  502    0  0.61434219994E+03 -0.10142635770E+04  0.43115914699E+03  0.12617714699E+04  0.46999998093E+01 0. -1.
       -5    1    3    3    0  502 -0.61434219994E+03  0.10142635770E+04  0.11111415908E+04  0.16250552812E+04  0.46999998093E+01 0.  1.
</event>
<event>
 5   0  0.1421242E-05  0.2471342E+04  0.7818609E-02  0.8413267E-01
       -1   -1    0    0    0  501  0.00000000000E+00  0.00000000000E+00  0.14270427011E+04  0.14270427011E+04  0.50400001928E-02 0. -1.
        1   -1    0    0  501    0  0.00000000000E+00  0.00000000000E+00 -0.10699627877E+04  0.10699627877E+04  0.50400001928E-02 0.  1.
    10030    2    1    2    0    0  0.00000000000E+00  0.00000000000E+00  0.35707991346E+03  0.24970054888E+04  0.24713418109E+04 0.  0.
        3    1    3    3  502    0  0.11630481012E+04  0.35055243394E+03 -0.50339861805E+02  0.12157721853E+04  0.10100000352E+00 0.  1.
       -3    1    3    3    0  502 -0.11630481012E+04 -0.35055243394E+03  0.40741977527E+03  0.12812333035E+04  0.10100000352E+00 0. -1.
</event>
<event>
 5   0  0.1492639E-05  0.2507860E+04  0.7818609E-02  0.8400191E-01
       -1   -1    0    0    0  501  0.00000000000E+00  0.00000000000E+00  0.86288365710E+03  0.86288365712E+03  0.50400001928E-02 0.  1.
        1   -1    0    0  501    0  0.00000000000E+00  0.00000000000E+00 -0.18221934445E+04  0.18221934445E+04  0.50400001928E-02 0. -1.
    10030    2    1    2    0    0  0.00000000000E+00  0.00000000000E+00 -0.95930978737E+03  0.26850771016E+04  0.25078603975E+04 0.  0.
        5    1    3    3  502    0 -0.24784215072E+03  0.84918342299E+03 -0.14311501866E+04  0.16824836297E+04  0.46999998093E+01 0. -1.
       -5    1    3    3    0  502  0.24784215072E+03 -0.84918342299E+03  0.47184039924E+03  0.10025934719E+04  0.46999998093E+01 0.  1.
</event>
<event>
 5   0  0.1429483E-05  0.2513934E+04  0.7818609E-02  0.8398038E-01
        1   -1    0    0  501    0  0.00000000000E+00  0.00000000000E+00  0.13204169917E+04  0.13204169917E+04  0.50400001928E-02 0.  1.
       -1   -1    0    0    0  501  0.00000000000E+00  0.00000000000E+00 -0.11965658038E+04  0.11965658038E+04  0.50400001928E-02 0. -1.
    10030    2    1    2    0    0  0.00000000000E+00  0.00000000000E+00  0.12385118787E+03  0.25169827955E+04  0.25139338249E+04 0.  0.
        2    1    3    3  502    0 -0.93308451636E+02 -0.79297781745E+03  0.10338993429E+04  0.13063185436E+04  0.25500000920E-02 0.  1.
       -2    1    3    3    0  502  0.93308451636E+02  0.79297781745E+03 -0.91004815507E+03  0.12106642518E+04  0.25500000920E-02 0. -1.
</event>
<event>
 5   0  0.1429483E-05  0.2497822E+04  0.7818609E-02  0.8403762E-01
        1   -1    0    0  501    0  0.00000000000E+00  0.00000000000E+00  0.13819656791E+04  0.13819656792E+04  0.50400001928E-02 0. -1.
       -1   -1    0    0    0  501  0.00000000000E+00  0.00000000000E+00 -0.11286666467E+04  0.11286666467E+04  0.50400001928E-02 0.  1.
    10030    2    1    2    0    0  0.00000000000E+00  0.00000000000E+00  0.25329903242E+03  0.25106323259E+04  0.24978219064E+04 0.  0.
        2    1    3    3  502    0 -0.47322363194E+03  0.13205007991E+03 -0.10274555971E+04  0.11388778834E+04  0.25500000920E-02 0.  1.
       -2    1    3    3    0  502  0.47322363194E+03 -0.13205007991E+03  0.12807546295E+04  0.13717544425E+04  0.25500000920E-02 0. -1.
</event>
<event>
 5   0  0.3579097E-05  0.2498956E+04  0.7818609E-02  0.8403357E-01
       -2   -1    0    0    0  501  0.00000000000E+00  0.00000000000E+00  0.80726971050E+03  0.80726971050E+03  0.25500000920E-02 0.  1.
        2   -1    0    0  501    0  0.00000000000E+00  0.00000000000E+00 -0.19339209978E+04  0.19339209978E+04  0.25500000920E-02 0. -1.
    10030    2    1    2    0    0  0.00000000000E+00  0.00000000000E+00 -0.11266512873E+04  0.27411907083E+04  0.24989564574E+04 0.  0.
        5    1    3    3  502    0  0.66997399214E+02  0.10930357674E+04  0.96622178991E+02  0.10993515251E+04  0.46999998093E+01 0.  1.
       -5    1    3    3    0  502 -0.66997399214E+02 -0.10930357674E+04 -0.12232734663E+04  0.16418391832E+04  0.46999998093E+01 0. -1.
</event>
<event>
 5   0  0.1421242E-05  0.2295652E+04  0.7818609E-02  0.8479638E-01
        1   -1    0    0  501    0  0.00000000000E+00  0.00000000000E+00  0.13737880234E+04  0.13737880234E+04  0.50400001928E-02 0.  1.
       -1   -1    0    0    0  501  0.00000000000E+00  0.00000000000E+00 -0.95903005099E+03  0.95903005100E+03  0.50400001928E-02 0. -1.
    10030    2    1    2    0    0  0.00000000000E+00  0.00000000000E+00  0.41475797239E+03  0.23328180744E+04  0.22956515399E+04 0.  0.
        3    1    3    3  502    0 -0.57884952540E+03  0.43746985495E+03  0.11111926184E+04  0.13271004831E+04  0.10100000352E+00 0.  1.
       -3    1    3    3    0  502  0.57884952540E+03 -0.43746985495E+03 -0.69643464597E+03  0.10057175913E+04  0.10100000352E+00 0. -1.
</event>
<event>
 5   0  0.3579097E-05  0.2504198E+04  0.7818609E-02  0.8401492E-01
        2   -1    0    0  501    0  0.00000000000E+00  0.00000000000E+00  0.83886404003E+03  0.83886404003E+03  0.25500000920E-02 0.  1.
       -2   -1    0    0    0  501  0.00000000000E+00  0.00000000000E+00 -0.18688986914E+04  0.18688986914E+04  0.25500000920E-02 0. -1.
    10030    2    1    2    0    0  0.00000000000E+00  0.00000000000E+00 -0.10300346514E+04  0.27077627314E+04  0.25041980007E+04 0.  0.
        5    1    3    3  502    0  0.99399777052E+03 -0.68650250714E+03 -0.87104334215E+03  0.14893138870E+04  0.46999998093E+01 0. -1.
       -5    1    3    3    0  502 -0.99399777052E+03  0.68650250714E+03 -0.15899130922E+03  0.12184488444E+04  0.46999998093E+01 0.  1.
</event>
<event>
 5   0  0.1421242E-05  0.2498942E+04  0.7818609E-02  0.8403362E-01
        1   -1    0    0  501    0  0.00000000000E+00  0.00000000000E+00  0.55524492744E+03  0.55524492746E+03  0.50400001928E-02 0. -1.
       -1   -1    0    0    0  501  0.00000000000E+00  0.00000000000E+00 -0.28116926785E+04  0.28116926785E+04  0.50400001928E-02 0.  1.
    10030    2    1    2    0    0  0.00000000000E+00  0.00000000000E+00 -0.22564477510E+04  0.33669376060E+04  0.24989422541E+04 0.  0.
        3    1    3    3  502    0 -0.10065571096E+04 -0.45748332514E+03 -0.19123855303E+04  0.22089967484E+04  0.10100000352E+00 0.  1.
       -3    1    3    3    0  502  0.10065571096E+04  0.45748332514E+03 -0.34406222079E+03  0.11579408576E+04  0.10100000352E+00 0. -1.
</event>
<event>
 5   0  0.3578670E-05  0.2508901E+04  0.7818609E-02  0.8399821E-01
        2   -1    0    0  501    0  0.00000000000E+00  0.00000000000E+00  0.12727018630E+04  0.12727018630E+04  0.25500000920E-02 0.  1.
       -2   -1    0    0    0  501  0.00000000000E+00  0.00000000000E+00 -0.12364607019E+04  0.12364607019E+04  0.25500000920E-02 0. -1.
    10030    2    1    2    0    0  0.00000000000E+00  0.00000000000E+00  0.36241161032E+02  0.25091625649E+04  0.25089008261E+04 0.  0.
        4    1    3    3  502    0 -0.31968132295E+03 -0.66668059900E+03  0.10316290148E+04  0.12692199204E+04  0.12699999809E+01 0.  1.
       -4    1    3    3    0  502  0.31968132295E+03  0.66668059900E+03 -0.99538785374E+03  0.12399426445E+04  0.12699999809E+01 0. -1.
</event>
<event>
 5   0  0.1502886E-05  0.2492111E+04  0.7818609E-02  0.8405801E-01
       -1   -1    0    0    0  501  0.00000000000E+00  0.00000000000E+00  0.15841685075E+04  0.15841685075E+04  0.50400001928E-02 0. -1.
        1   -1    0    0  501    0  0.00000000000E+00  0.00000000000E+00 -0.98010684129E+03  0.98010684130E+03  0.50400001928E-02 0.  1.
    10030    2    1    2    0    0  0.00000000000E+00  0.00000000000E+00  0.60406166621E+03  0.25642753488E+04  0.24921110665E+04 0.  0.
        4    1    3    3  502    0 -0.59274158898E+03  0.19203663099E+03  0.14123666566E+04  0.15436974589E+04  0.12699999809E+01 0. -1.
       -4    1    3    3    0  502  0.59274158898E+03 -0.19203663099E+03 -0.80830499042E+03  0.10205778899E+04  0.12699999809E+01 0.  1.
</event>
<event>
 5   0  0.3578670E-05  0.2536759E+04  0.7818609E-02  0.8390006E-01
        2   -1    0    0  501    0  0.00000000000E+00  0.00000000000E+00  0.19912932032E+04  0.19912932032E+04  0.25500000920E-02 0. -1.
       -2   -1    0    0    0  501  0.00000000000E+00  0.00000000000E+00 -0.80791027851E+03  0.80791027851E+03  0.25500000920E-02 0.  1.
    10030    2    1    2    0    0  0.00000000000E+00  0.00000000000E+00  0.11833829247E+04  0.27992034818E+04  0.25367587559E+04 0.  0.
        4    1    3    3  502    0  0.98991708745E+03  0.70189895035E+03  0.99890535049E+03  0.15717542711E+04  0.12699999809E+01 0. -1.
       -4    1    3    3    0  502 -0.98991708745E+03 -0.70189895035E+03  0.18447757425E+03  0.12274492107E+04  0.12699999809E+01 0.  1.
</event>
<event>
 5   0  0.3704241E-05  0.2466494E+04  0.7818609E-02  0.8415021E-01
        2   -1    0    0  501    0  0.00000000000E+00  0.00000000000E+00  0.12089738758E+04  0.12089738758E+04  0.25500000920E-02 0.  1.
       -2   -1    0    0    0  501  0.00000000000E+00  0.00000000000E+00 -0.12580069624E+04  0.12580069624E+04  0.25500000920E-02 0. -1.
    10030    2    1    2    0    0  0.00000000000E+00  0.00000000000E+00 -0.49033086558E+02  0.24669808382E+04  0.24664935055E+04 0.  0.
        2    1    3    3  502    0  0.51968447630E+03  0.17920866474E+03 -0.11286865884E+04  0.12554366234E+04  0.25500000920E-02 0. -1.
       -2    1    3    3    0  502 -0.51968447630E+03 -0.17920866474E+03  0.10796535018E+04  0.12115442148E+04  0.25500000920E-02 0.  1.
</event>
<event>
 5   0  0.1456876E-05  0.2479685E+04  0.7818609E-02  0.8410259E-01
       -1   -1    0    0    0  501  0.00000000000E+00  0.00000000000E+00  0.62342251723E+03  0.62342251725E+03  0.50400001928E-02 0. -1.
        1   -1    0    0  501    0  0.00000000000E+00  0.00000000000E+00 -0.24657577416E+04  0.24657577416E+04  0.50400001928E-02 0.  1.
    10030    2    1    2    0    0  0.00000000000E+00  0.00000000000E+00 -0.18423352244E+04  0.30891802589E+04  0.24796845753E+04 0.  0.
        1    1    3    3  502    0 -0.30690398700E+03  0.47887002022E+03 -0.22936377561E+04  0.23631082730E+04  0.50400001928E-02 0.  1.
       -1    1    3    3    0  502  0.30690398700E+03 -0.47887002022E+03  0.45130253174E+03  0.72607198588E+03  0.50400001928E-02 0. -1.
</event>
<event>
 5   0  0.1456876E-05  0.2510562E+04  0.7818609E-02  0.8399232E-01
       -1   -1    0    0    0  501  0.00000000000E+00  0.00000000000E+00  0.11578594145E+04  0.11578594145E+04  0.50400001928E-02 0. -1.
        1   -1    0    0  501    0  0.00000000000E+00  0.00000000000E+00 -0.13608996935E+04  0.13608996935E+04  0.50400001928E-02 0.  1.
    10030    2    1    2    0    0  0.00000000000E+00  0.00000000000E+00 -0.20304027903E+03  0.25187591080E+04  0.25105621062E+04 0.  0.
        1    1    3    3  502    0  0.89021174367E+03 -0.17674717670E+03 -0.97153892507E+03  0.13295128416E+04  0.50400001928E-02 0.  1.
       -1    1    3    3    0  502 -0.89021174367E+03  0.17674717670E+03  0.76849864604E+03  0.11892462664E+04  0.50400001928E-02 0. -1.
</event>
<event>
 5   0  0.3579097E-05  0.2501607E+04  0.7818609E-02  0.8402413E-01
       -2   -1    0    0    0  501  0.00000000000E+00  0.00000000000E+00  0.71696865275E+03  0.71696865276E+03  0.25500000920E-02 0. -1.
        2   -1    0    0  501    0  0.00000000000E+00  0.00000000000E+00 -0.21821168397E+04  0.21821168397E+04  0.25500000920E-02 0.  1.
    10030    2    1    2    0    0  0.00000000000E+00  0.00000000000E+00 -0.14651481869E+04  0.28990854924E+04  0.25016069801E+04 0.  0.
        5    1    3    3  502    0  0.73681483038E+03 -0.18390714053E+02 -0.19037135381E+04  0.20414165762E+04  0.46999998093E+01 0.  1.
       -5    1    3    3    0  502 -0.73681483038E+03  0.18390714053E+02  0.43856535114E+03  0.85766891622E+03  0.46999998093E+01 0. -1.
</event>
<event>
 5   0  0.3650620E-05  0.2521212E+04  0.7818609E-02  0.8395467E-01
        2   -1    0    0  501    0  0.00000000000E+00  0.00000000000E+00  0.12394186699E+04  0.12394186699E+04  0.25500000920E-02 0.  1.
       -2   -1    0    0    0  501  0.00000000000E+00  0.00000000000E+00 -0.12821559637E+04  0.12821559637E+04  0.25500000920E-02 0. -1.
    10030    2    1    2    0    0  0.00000000000E+00  0.00000000000E+00 -0.42737293873E+02  0.25215746336E+04  0.25212124378E+04 0.  0.
        3    1    3    3  502    0  0.14584246461E+03 -0.65712186044E+03 -0.10873776978E+04  0.12788547345E+04  0.10100000352E+00 0. -1.
       -3    1    3    3    0  502 -0.14584246461E+03  0.65712186044E+03  0.10446404039E+04  0.12427198991E+04  0.10100000352E+00 0.  1.
</event>
<event>
 5   0  0.3579097E-05  0.2481362E+04  0.7818609E-02  0.8409656E-01
       -2   -1    0    0    0  501  0.00000000000E+00  0.00000000000E+00  0.69104913199E+03  0.69104913200E+03  0.25500000920E-02 0. -1.
        2   -1    0    0  501    0  0.00000000000E+00  0.00000000000E+00 -0.22274664489E+04  0.22274664489E+04  0.25500000920E-02 0.  1.
    10030    2    1    2    0    0  0.00000000000E+00  0.00000000000E+00 -0.15364173169E+04  0.29185155809E+04  0.24813615263E+04 0.  0.
        5    1    3    3  502    0  0.16221488991E+02 -0.81119369843E+03  0.33574823560E+03  0.87809300235E+03  0.46999998093E+01 0. -1.
       -5    1    3    3    0  502 -0.16221488991E+02  0.81119369843E+03 -0.18721655525E+04  0.20404225786E+04  0.46999998093E+01 0.  1.
</event>
<event>
 5   0  0.1429483E-05  0.2501626E+04  0.7818609E-02  0.8402407E-01
       -1   -1    0    0    0  501  0.00000000000E+00  0.00000000000E+00  0.12192209895E+04  0.12192209895E+04  0.50400001928E-02 0. -1.
        1   -1    0    0  501    0  0.00000000000E+00  0.00000000000E+00 -0.12832231965E+04  0.12832231965E+04  0.50400001928E-02 0.  1.
    10030    2    1    2    0    0  0.00000000000E+00  0.00000000000E+00 -0.64002206961E+02  0.25024441860E+04  0.25016255958E+04 0.  0.
        2    1    3    3  502    0  0.93646383019E+03 -0.80862819587E+03 -0.21560568396E+03  0.12559179413E+04  0.25500000920E-02 0.  1.
       -2    1    3    3    0  502 -0.93646383019E+03  0.80862819587E+03  0.15160347700E+03  0.12465262447E+04  0.25500000920E-02 0. -1.
</event>
<event>
 5   0  0.3578670E-05  0.2641156E+04  0.7818609E-02  0.8354354E-01
        2   -1    0    0  501    0  0.00000000000E+00  0.00000000000E+00  0.10487757201E+04  0.10487757201E+04  0.25500000920E-02 0. -1.
       -2   -1    0    0    0  501  0.00000000000E+00  0.00000000000E+00 -0.16628203908E+04  0.16628203908E+04  0.25500000920E-02 0.  1.
    10030    2    1    2    0    0  0.00000000000E+00  0.00000000000E+00 -0.61404467063E+03  0.27115961109E+04  0.26411555447E+04 0.  0.
        4    1    3    3  502    0  0.22666353721E+03 -0.31615115419E+03 -0.16026608557E+04  0.16491971813E+04  0.12699999809E+01 0.  1.
       -4    1    3    3    0  502 -0.22666353721E+03  0.31615115419E+03  0.98861618507E+03  0.10623989296E+04  0.12699999809E+01 0. -1.
</event>
<event>
 5   0  0.1421242E-05  0.2520867E+04  0.7818609E-02  0.8395589E-01
       -1   -1    0    0    0  501  0.00000000000E+00  0.00000000000E+00  0.10571257899E+04  0.10571257899E+04  0.50400001928E-02 0.  1.
        1   -1    0    0  501    0  0.00000000000E+00  0.00000000000E+00 -0.15028413103E+04  0.15028413103E+04  0.50400001928E-02 0. -1.
    10030    2    1    2    0    0  0.00000000000E+00  0.00000000000E+00 -0.44571552039E+03  0.25599671002E+04  0.25208667614E+04 0.  0.
        3    1    3    3  502    0 -0.13263571570E+03 -0.17292027288E+02 -0.14956135560E+04  0.15015828870E+04  0.10100000352E+00 0. -1.
       -3    1    3    3    0  502  0.13263571570E+03  0.17292027288E+02  0.10498980356E+04  0.10583842132E+04  0.10100000352E+00 0.  1.
</event>
<event>
 5   0  0.3650620E-05  0.2252107E+04  0.7818609E-02  0.8497048E-01
       -2   -1    0    0    0  501  0.00000000000E+00  0.00000000000E+00  0.97739782006E+03  0.97739782007E+03  0.25500000920E-02 0. -1.
        2   -1    0    0  501    0  0.00000000000E+00  0.00000000000E+00 -0.12973191588E+04  0.12973191588E+04  0.25500000920E-02 0.  1.
    10030    2    1    2    0    0  0.00000000000E+00  0.00000000000E+00 -0.31992133872E+03  0.22747169788E+04  0.22521073844E+04 0.  0.
        3    1    3    3  502    0  0.25660962993E+03  0.52376063154E+03 -0.11328666879E+04  0.12741901915E+04  0.10100000352E+00 0.  1.
       -3    1    3    3    0  502 -0.25660962993E+03 -0.52376063154E+03  0.81294534917E+03  0.10005267874E+04  0.10100000352E+00 0. -1.
</event>
<event>
 5   0  0.1456876E-05  0.2423223E+04  0.7818609E-02  0.8430860E-01
        1   -1    0    0  501    0  0.00000000000E+00  0.00000000000E+00  0.12200236345E+04  0.12200236345E+04  0.50400001928E-02 0.  1.
       -1   -1    0    0    0  501  0.00000000000E+00  0.00000000000E+00 -0.12032573142E+04  0.12032573142E+04  0.50400001928E-02 0. -1.
    10030    2    1    2    0    0  0.00000000000E+00  0.00000000000E+00  0.16766320299E+02  0.24232809487E+04  0.24232229462E+04 0.  0.
        1    1    3    3  502    0  0.47505750155E+03 -0.86515343557E+03 -0.69436566127E+03  0.12067782598E+04  0.50400001928E-02 0. -1.
       -1    1    3    3    0  502 -0.47505750155E+03  0.86515343557E+03  0.71113198157E+03  0.12165026889E+04  0.50400001928E-02 0.  1.
</event>
<event>
 5   0  0.3579097E-05  0.2384342E+04  0.7818609E-02  0.8445389E-01
       -2   -1    0    0    0  501  0.00000000000E+00  0.00000000000E+00  0.10473427573E+04  0.10473427573E+04  0.25500000920E-02 0. -1.
        2   -1    0    0  501    0  0.00000000000E+00  0.00000000000E+00 -0.13570264476E+04  0.13570264476E+04  0.25500000920E-02 0.  1.
    10030    2    1    2    0    0  0.00000000000E+00  0.00000000000E+00 -0.30968369031E+03  0.24043692049E+04  0.23843421075E+04 0.  0.
        5    1    3    3  502    0  0.11731969543E+04  0.21172104675E+03 -0.16062025669E+03  0.12029288641E+04  0.46999998093E+01 0.  1.
       -5    1    3    3    0  502 -0.11731969543E+04 -0.21172104675E+03 -0.14906343362E+03  0.12014403408E+04  0.46999998093E+01 0. -1.
</event>
<event>
 5   0  0.1502886E-05  0.2589774E+04  0.7818609E-02  0.8371683E-01
        1   -1    0    0  501    0  0.00000000000E+00  0.00000000000E+00  0.21940505554E+04  0.21940505554E+04  0.50400001928E-02 0. -1.
       -1   -1    0    0    0  501  0.00000000000E+00  0.00000000000E+00 -0.76421749128E+03  0.76421749130E+03  0.50400001928E-02 0.  1.
    10030    2    1    2    0    0  0.00000000000E+00  0.00000000000E+00  0.14298330641E+04  0.29582680467E+04  0.25897735895E+04 0.  0.
        4    1    3    3  502    0 -0.87719689050E+03 -0.64252709713E+03 -0.88279272420E+02  0.10909217653E+04  0.12699999809E+01 0.  1.
       -4    1    3    3    0  502  0.87719689050E+03  0.64252709713E+03  0.15181123365E+04  0.18673462813E+04  0.12699999809E+01 0. -1.
</event>
<event>
 5   0  0.3704241E-05  0.2482631E+04  0.7818609E-02  0.8409200E-01
        2   -1    0    0  501    0  0.00000000000E+00  0.00000000000E+00  0.19438965377E+04  0.19438965377E+04  0.25500000920E-02 0. -1.
       -2   -1    0    0    0  501  0.00000000000E+00  0.00000000000E+00 -0.79266772514E+03  0.79266772515E+03  0.25500000920E-02 0.  1.
    10030    2    1    2    0    0  0.00000000000E+00  0.00000000000E+00  0.11512288126E+04  0.27365642629E+04  0.24826309001E+04 0.  0.
        2    1    3    3  502    0 -0.79210338481E+03 -0.46994791291E+03 -0.34172512361E+03  0.98237206454E+03  0.25500000920E-02 0.  1.
       -2    1    3    3    0  502  0.79210338481E+03  0.46994791291E+03  0.14929539362E+04  0.17541921983E+04  0.25500000920E-02 0. -1.
</event>
<event>
 5   0  0.3650620E-05  0.2509587E+04  0.7818609E-02  0.8399578E-01
       -2   -1    0    0    0  501  0.00000000000E+00  0.00000000000E+00  0.15568898963E+04  0.15568898963E+04  0.25500000920E-02 0. -1.
        2   -1    0    0  501    0  0.00000000000E+00  0.00000000000E+00 -0.10113156128E+04  0.10113156128E+04  0.25500000920E-02 0.  1.
    10030    2    1    2    0    0  0.00000000000E+00  0.00000000000E+00  0.54557428349E+03  0.25682055091E+04  0.25095872645E+04 0.  0.
        3    1    3    3  502    0  0.47138874928E+03 -0.56745626133E+03 -0.76595527095E+03  0.10634385026E+04  0.10100000352E+00 0.  1.
       -3    1    3    3    0  502 -0.47138874928E+03  0.56745626133E+03  0.13115295544E+04  0.15047670065E+04  0.10100000352E+00 0. -1.
</event>
<event>
 5   0  0.1492639E-05  0.2510527E+04  0.7818609E-02  0.8399245E-01
        1   -1    0    0  501    0  0.00000000000E+00  0.00000000000E+00  0.13268143413E+04  0.13268143413E+04  0.50400001928E-02 0. -1.
       -1   -1    0    0    0  501  0.00000000000E+00  0.00000000000E+00 -0.11875710575E+04  0.11875710575E+04  0.50400001928E-02 0.  1.
    10030    2    1    2    0    0  0.00000000000E+00  0.00000000000E+00  0.13924328376E+03  0.25143853988E+04  0.25105268852E+04 0.  0.
        5    1    3    3  502    0 -0.12059097793E+04  0.34206903738E+03  0.13631677019E+03  0.12608861859E+04  0.46999998093E+01 0.  1.
       -5    1    3    3    0  502  0.12059097793E+04 -0.34206903738E+03  0.29265135698E+01  0.12534992128E+04  0.46999998093E+01 0. -1.
</event>
<event>
 5   0  0.1429483E-05  0.2472194E+04  0.7818609E-02  0.8412959E-01
       -1   -1    0    0    0  501  0.00000000000E+00  0.00000000000E+00  0.60975233827E+03  0.60975233829E+03  0.50400001928E-02 0.  1.
        1   -1    0    0  501    0  0.00000000000E+00  0.00000000000E+00 -0.25058308388E+04  0.25058308388E+04  0.50400001928E-02 0. -1.
    10030    2    1    2    0    0  0.00000000000E+00  0.00000000000E+00 -0.18960785005E+04  0.31155831771E+04  0.24721943397E+04 0.  0.
        2    1    3    3  502    0 -0.11147644742E+04 -0.40988945617E+03 -0.13795291101E+04  0.18203872568E+04  0.25500000920E-02 0.  1.
       -2    1    3    3    0  502  0.11147644742E+04  0.40988945617E+03 -0.51654939040E+03  0.12951959203E+04  0.25500000920E-02 0. -1.
</event>
<event>
 5   0  0.3581449E-05  0.2493332E+04  0.7818609E-02  0.8405365E-01
       -2   -1    0    0    0  501  0.00000000000E+00  0.00000000000E+00  0.11690633365E+04  0.11690633365E+04  0.25500000920E-02 0.  1.
        2   -1    0    0  501    0  0.00000000000E+00  0.00000000000E+00 -0.13294196250E+04  0.13294196250E+04  0.25500000920E-02 0. -1.
    10030    2    1    2    0    0  0.00000000000E+00  0.00000000000E+00 -0.16035628854E+03  0.24984829615E+04  0.24933317007E+04 0.  0.
        1    1    3    3  502    0  0.77966780119E+03 -0.77276340145E+03  0.51191534147E+03  0.12112400554E+04  0.50400001928E-02 0.  1.
       -1    1    3    3    0  502 -0.77966780119E+03  0.77276340145E+03 -0.67227163001E+03  0.12872429061E+04  0.50400001928E-02 0. -1.
</event>
<event>
 5   0  0.3704241E-05  0.2097006E+04  0.7818609E-02  0.8562564E-01
        2   -1    0    0  501    0  0.00000000000E+00  0.00000000000E+00  0.10741162181E+04  0.10741162181E+04  0.25500000920E-02 0. -1.
       -2   -1    0    0    0  501  0.00000000000E+00  0.00000000000E+00 -0.10235000827E+04  0.10235000827E+04  0.25500000920E-02 0.  1.
    10030    2    1    2    0    0  0.00000000000E+00  0.00000000000E+00  0.50616135452E+02  0.20976163008E+04  0.20970055203E+04 0.  0.
        2    1    3    3  502    0  0.42956373650E+03  0.17553607003E+03  0.96580536302E+03  0.10715026434E+04  0.25500000920E-02 0. -1.
       -2    1    3    3    0  502 -0.42956373650E+03 -0.17553607003E+03 -0.91518922757E+03  0.10261136574E+04  0.25500000920E-02 0.  1.
</event>
<event>
 5   0  0.1429483E-05  0.2500488E+04  0.7818609E-02  0.8402812E-01
       -1   -1    0    0    0  501  0.00000000000E+00  0.00000000000E+00  0.78893471126E+03  0.78893471127E+03  0.50400001928E-02 0.  1.
        1   -1    0    0  501    0  0.00000000000E+00  0.00000000000E+00 -0.19812925531E+04  0.19812925531E+04  0.50400001928E-02 0. -1.
    10030    2    1    2    0    0  0.00000000000E+00  0.00000000000E+00 -0.11923578419E+04  0.27702272644E+04  0.25004883270E+04 0.  0.
        2    1    3    3  502    0 -0.75982832731E+03  0.30799484160E+03  0.44952231388E+03  0.93502418157E+03  0.25500000920E-02 0.  1.
       -2    1    3    3    0  502  0.75982832731E+03 -0.30799484160E+03 -0.16418801557E+04  0.18352030828E+04  0.25500000920E-02 0. -1.
</event>
<event>
 5   0  0.3578670E-05  0.2495734E+04  0.7818609E-02  0.8404507E-01
        2   -1    0    0  501    0  0.00000000000E+00  0.00000000000E+00  0.10493214572E+04  0.10493214572E+04  0.25500000920E-02 0. -1.
       -2   -1    0    0    0  501  0.00000000000E+00  0.00000000000E+00 -0.14839802553E+04  0.14839802553E+04  0.25500000920E-02 0.  1.
    10030    2    1    2    0    0  0.00000000000E+00  0.00000000000E+00 -0.43465879811E+03  0.25333017125E+04  0.24957342198E+04 0.  0.
        4    1    3    3  502    0  0.55274837822E+03 -0.86050763316E+03  0.50839178113E+03  0.11421330800E+04  0.12699999809E+01 0. -1.
       -4    1    3    3    0  502 -0.55274837822E+03  0.86050763316E+03 -0.94305057924E+03  0.13911686326E+04  0.12699999809E+01 0.  1.
</event>
<event>
 5   0  0.3579097E-05  0.2541822E+04  0.7818609E-02  0.8388236E-01
       -2   -1    0    0    0  501  0.00000000000E+00  0.00000000000E+00  0.66813424043E+03  0.66813424043E+03  0.25500000920E-02 0. -1.
        2   -1    0    0  501    0  0.00000000000E+00  0.00000000000E+00 -0.24174995687E+04  0.24174995687E+04  0.25500000920E-02 0.  1.
    10030    2    1    2    0    0  0.00000000000E+00  0.00000000000E+00 -0.17493653282E+04  0.30856338091E+04  0.25418215815E+04 0.  0.
        5    1    3    3  502    0 -0.12248617847E+04 -0.15528821547E+03 -0.50890136135E+03  0.13354413155E+04  0.46999998093E+01 0. -1.
       -5    1    3    3    0  502  0.12248617847E+04  0.15528821547E+03 -0.12404639669E+04  0.17501924936E+04  0.46999998093E+01 0.  1.
</event>
<event>
 5   0  0.3578670E-05  0.2473919E+04  0.7818609E-02  0.8412336E-01
       -2   -1    0    0    0  501  0.00000000000E+00  0.00000000000E+00  0.96540394067E+03  0.96540394067E+03  0.25500000920E-02 0. -1.
        2   -1    0    0  501    0  0.00000000000E+00  0.00000000000E+00 -0.15848999213E+04  0.15848999213E+04  0.25500000920E-02 0.  1.
    10030    2    1    2    0    0  0.00000000000E+00  0.00000000000E+00 -0.61949598063E+03  0.25503038620E+04  0.24739188585E+04 0.  0.
        4    1    3    3  502    0  0.56841664937E+03  0.89330783235E+03  0.34950566451E+03  0.11150121941E+04  0.12699999809E+01 0. -1.
       -4    1    3    3    0  502 -0.56841664937E+03 -0.89330783235E+03 -0.96900164513E+03  0.14352916678E+04  0.12699999809E+01 0.  1.
</event>
<event>
 5   0  0.3704241E-05  0.2315400E+04  0.7818609E-02  0.8471874E-01
        2   -1    0    0  501    0  0.00000000000E+00  0.00000000000E+00  0.16884741446E+04  0.16884741446E+04  0.25500000920E-02 0.  1.
       -2   -1    0    0    0  501  0.00000000000E+00  0.00000000000E+00 -0.79377519869E+03  0.79377519869E+03  0.25500000920E-02 0. -1.
    10030    2    1    2    0    0  0.00000000000E+00  0.00000000000E+00  0.89469894587E+03  0.24822493432E+04  0.23153996628E+04 0.  0.
        2    1    3    3  502    0 -0.63684688549E+03 -0.88626096899E+03  0.33200224691E+02  0.10918492184E+04  0.25500000920E-02 0. -1.
       -2    1    3    3    0  502  0.63684688549E+03  0.88626096899E+03  0.86149872117E+03  0.13904001249E+04  0.25500000920E-02 0.  1.
</event>
<event>
 5   0  0.1429483E-05  0.2411380E+04  0.7818609E-02  0.8435255E-01
        1   -1    0    0  501    0  0.00000000000E+00  0.00000000000E+00  0.20087884057E+04  0.20087884057E+04  0.50400001928E-02 0. -1.
       -1   -1    0    0    0  501  0.00000000000E+00  0.00000000000E+00 -0.72366424031E+03  0.72366424033E+03  0.50400001928E-02 0.  1.
    10030    2    1    2    0    0  0.00000000000E+00  0.00000000000E+00  0.12851241654E+04  0.27324526461E+04  0.24113799664E+04 0.  0.
        2    1    3    3  502    0 -0.74418577360E+03  0.87142544259E+03  0.21782985375E+03  0.11664667217E+04  0.25500000920E-02 0. -1.
       -2    1    3    3    0  502  0.74418577360E+03 -0.87142544259E+03  0.10672943117E+04  0.15659859244E+04  0.25500000920E-02 0.  1.
</event>
<event>
 5   0  0.1456876E-05  0.2536747E+04  0.7818609E-02  0.8390010E-01
        1   -1    0    0  501    0  0.00000000000E+00  0.00000000000E+00  0.15632077101E+04  0.15632077101E+04  0.50400001928E-02 0.  1.
       -1   -1    0    0    0  501  0.00000000000E+00  0.00000000000E+00 -0.10291473013E+04  0.10291473013E+04  0.50400001928E-02 0. -1.
    10030    2    1    2    0    0  0.00000000000E+00  0.00000000000E+00  0.53406040881E+03  0.25923550114E+04  0.25367467325E+04 0.  0.
        1    1    3    3  502    0  0.10736150996E+04 -0.61162948977E+03 -0.25658740948E+02  0.12358796001E+04  0.50400001928E-02 0. -1.
       -1    1    3    3    0  502 -0.10736150996E+04  0.61162948977E+03  0.55971914976E+03  0.13564754113E+04  0.50400001928E-02 0.  1.
</event>
<event>
 5   0  0.3650620E-05  0.2473889E+04  0.7818609E-02  0.8412347E-01
       -2   -1    0    0    0  501  0.00000000000E+00  0.00000000000E+00  0.82702649627E+03  0.82702649627E+03  0.25500000920E-02 0.  1.
        2   -1    0    0  501    0  0.00000000000E+00  0.00000000000E+00 -0.18500392552E+04  0.18500392552E+04  0.25500000920E-02 0. -1.
    10030    2    1    2    0    0  0.00000000000E+00  0.00000000000E+00 -0.10230127589E+04  0.26770657515E+04  0.24738888279E+04 0.  0.
        3    1    3    3  502    0  0.32713366231E+03  0.79321111675E+03 -0.14756526617E+04  0.17069713228E+04  0.10100000352E+00 0. -1.
       -3    1    3    3    0  502 -0.32713366231E+03 -0.79321111675E+03  0.45263990275E+03  0.97009442866E+03  0.10100000352E+00 0.  1.
</event>
<event>
 5   0  0.1456876E-05  0.1981165E+04  0.7818609E-02  0.8615477E-01
       -1   -1    0    0    0  501  0.00000000000E+00  0.00000000000E+00  0.58609187464E+03  0.58609187466E+03  0.50400001928E-02 0.  1.
        1   -1    0    0  501    0  0.00000000000E+00  0.00000000000E+00 -0.16742324024E+04  0.16742324024E+04  0.50400001928E-02 0. -1.
    10030    2    1    2    0    0  0.00000000000E+00  0.00000000000E+00 -0.10881405277E+04  0.22603242770E+04  0.19811653210E+04 0.  0.
        1    1    3    3  502    0  0.18898261851E+03 -0.37616936642E+03  0.47895846397E+03  0.63766686644E+03  0.50400001928E-02 0.  1.
       -1    1    3    3    0  502 -0.18898261851E+03  0.37616936642E+03 -0.15670989917E+04  0.16226574106E+04  0.50400001928E-02 0. -1.
</event>
<event>
 5   0  0.3704241E-05  0.2585004E+04  0.7818609E-02  0.8373313E-01
        2   -1    0    0  501    0  0.00000000000E+00  0.00000000000E+00  0.11868396816E+04  0.11868396816E+04  0.25500000920E-02 0. -1.
       -2   -1    0    0    0  501  0.00000000000E+00  0.00000000000E+00 -0.14075708495E+04  0.14075708495E+04  0.25500000920E-02 0.  1.
    10030    2    1    2    0    0  0.00000000000E+00  0.00000000000E+00 -0.22073116790E+03  0.25944105311E+04  0.25850036277E+04 0.  0.
        2    1    3    3  502    0  0.53403937931E+03  0.54038440340E+03 -0.11598032918E+04  0.13864909079E+04  0.25500000920E-02 0.  1.
       -2    1    3    3    0  502 -0.53403937931E+03 -0.54038440340E+03  0.93907212391E+03  0.12079196232E+04  0.25500000920E-02 0. -1.
</event>
<event>
 5   0  0.3579097E-05  0.2487445E+04  0.7818609E-02  0.8407472E-01
       -2   -1    0    0    0  501  0.00000000000E+00  0.00000000000E+00  0.18369072283E+04  0.18369072283E+04  0.25500000920E-02 0. -1.
        2   -1    0    0  501    0  0.00000000000E+00  0.00000000000E+00 -0.84209261365E+03  0.84209261366E+03  0.25500000920E-02 0.  1.
    10030    2    1    2    0    0  0.00000000000E+00  0.00000000000E+00  0.99481461467E+03  0.26789998420E+04  0.24874452830E+04 0.  0.
        5    1    3    3  502    0 -0.22198615386E+03  0.90868254872E+03 -0.38537324403E+03  0.10116899001E+04  0.46999998093E+01 0.  1.
       -5    1    3    3    0  502  0.22198615386E+03 -0.90868254872E+03  0.13801878587E+04  0.16673099418E+04  0.46999998093E+01 0. -1.
</event>
<event>
 5   0  0.1421242E-05  0.2408945E+04  0.7818609E-02  0.8436162E-01
       -1   -1    0    0    0  501  0.00000000000E+00  0.00000000000E+00  0.11036953338E+04  0.11036953338E+04  0.50400001928E-02 0.  1.
        1   -1    0    0  501    0  0.00000000000E+00  0.00000000000E+00 -0.13144511024E+04  0.13144511024E+04  0.50400001928E-02 0. -1.
    10030    2    1    2    0    0  0.00000000000E+00  0.00000000000E+00 -0.21075576862E+03  0.24181464362E+04  0.24089446222E+04 0.  0.
        3    1    3    3  502    0 -0.73841263506E+03 -0.86700776827E+03 -0.49904660616E+03  0.12433837763E+04  0.10100000352E+00 0.  1.
       -3    1    3    3    0  502  0.73841263506E+03  0.86700776827E+03  0.28829083754E+03  0.11747626599E+04  0.10100000352E+00 0. -1.
</event>
<event>
 5   0  0.1456876E-05  0.2493105E+04  0.7818609E-02  0.8405446E-01
        1   -1    0    0  501    0  0.00000000000E+00  0.00000000000E+00  0.12216679127E+04  0.12216679127E+04  0.50400001928E-02 0. -1.
       -1   -1    0    0    0  501  0.00000000000E+00  0.00000000000E+00 -0.12719438196E+04  0.12719438197E+04  0.50400001928E-02 0.  1.
    10030    2    1    2    0    0  0.00000000000E+00  0.00000000000E+00 -0.50275906940E+02  0.24936117324E+04  0.24931048524E+04 0.  0.
        1    1    3    3  502    0 -0.58465912083E+03 -0.35394093635E+03 -0.10678433000E+04  0.12678287689E+04  0.50400001928E-02 0.  1.
       -1    1    3    3    0  502  0.58465912083E+03  0.35394093635E+03  0.10175673931E+04  0.12257829634E+04  0.50400001928E-02 0. -1.
</event>
<event>
 5   0  0.1492639E-05  0.2503634E+04  0.7818609E-02  0.8401692E-01
        1   -1    0    0  501    0  0.00000000000E+00  0.00000000000E+00  0.20507825337E+04  0.20507825337E+04  0.50400001928E-02 0.  1.
       -1   -1    0    0    0  501  0.00000000000E+00  0.00000000000E+00 -0.76412110506E+03  0.76412110508E+03  0.50400001928E-02 0. -1.
    10030    2    1    2    0    0  0.00000000000E+00  0.00000000000E+00  0.12866614287E+04  0.28149036388E+04  0.25036343311E+04 0.  0.
        5    1    3    3  502    0  0.43654799182E+03 -0.11529798279E+04  0.39935566191E+03  0.12959335119E+04  0.46999998093E+01 0.  1.
       -5    1    3    3    0  502 -0.43654799182E+03  0.11529798279E+04  0.88730576677E+03  0.15189701269E+04  0.46999998093E+01 0. -1.
</event>
<event>
 5   0  0.1421242E-05  0.2489592E+04  0.7818609E-02  0.8406703E-01
        1   -1    0    0  501    0  0.00000000000E+00  0.00000000000E+00  0.21174020990E+04  0.21174020990E+04  0.50400001928E-02 0. -1.
       -1   -1    0    0    0  501  0.00000000000E+00  0.00000000000E+00 -0.73180127012E+03  0.73180127014E+03  0.50400001928E-02 0.  1.
    10030    2    1    2    0    0  0.00000000000E+00  0.00000000000E+00  0.13856008289E+04  0.28492033692E+04  0.24895923726E+04 0.  0.
        3    1    3    3  502    0  0.82061428597E+03 -0.14725134833E+03 -0.36507038076E+03  0.91014677884E+03  0.10100000352E+00 0.  1.
       -3    1    3    3    0  502 -0.82061428597E+03  0.14725134833E+03  0.17506712097E+04  0.19390565903E+04  0.10100000352E+00 0. -1.
</event>
<event>
 5   0  0.3579097E-05  0.2501308E+04  0.7818609E-02  0.8402520E-01
       -2   -1    0    0    0  501  0.00000000000E+00  0.00000000000E+00  0.15520413440E+04  0.15520413440E+04  0.25500000920E-02 0.  1.
        2   -1    0    0  501    0  0.00000000000E+00  0.00000000000E+00 -0.10077925291E+04  0.10077925291E+04  0.25500000920E-02 0. -1.
    10030    2    1    2    0    0  0.00000000000E+00  0.00000000000E+00  0.54424881492E+03  0.25598338731E+04  0.25013081947E+04 0.  0.
        5    1    3    3  502    0  0.37892321416E+03  0.69767106396E+03  0.12610604914E+04  0.14901756167E+04  0.46999998093E+01 0.  1.
       -5    1    3    3    0  502 -0.37892321416E+03 -0.69767106396E+03 -0.71681167651E+03  0.10696582563E+04  0.46999998093E+01 0. -1.
</event>
<event>
 5   0  0.3579097E-05  0.2484316E+04  0.7818609E-02  0.8408595E-01
        2   -1    0    0  501    0  0.00000000000E+00  0.00000000000E+00  0.13202804248E+04  0.13202804248E+04  0.25500000920E-02 0. -1.
       -2   -1    0    0    0  501  0.00000000000E+00  0.00000000000E+00 -0.11686579184E+04  0.11686579184E+04  0.25500000920E-02 0.  1.
    10030    2    1    2    0    0  0.00000000000E+00  0.00000000000E+00  0.15162250639E+03  0.24889383433E+04  0.24843157392E+04 0.  0.
        5    1    3    3  502    0  0.78468157981E+03  0.38452090903E+03 -0.80864088036E+03  0.11905896332E+04  0.46999998093E+01 0.  1.
       -5    1    3    3    0  502 -0.78468157981E+03 -0.38452090903E+03  0.96026338675E+03  0.12983487101E+04  0.46999998093E+01 0. -1.
</event>
<event>
 5   0  0.1456876E-05  0.2473356E+04  0.7818609E-02  0.8412540E-01
       -1   -1    0    0    0  501  0.00000000000E+00  0.00000000000E+00  0.13170646468E+04  0.13170646468E+04  0.50400001928E-02 0. -1.
        1   -1    0    0  501    0  0.00000000000E+00  0.00000000000E+00 -0.11611973600E+04  0.11611973600E+04  0.50400001928E-02 0.  1.
    10030    2    1    2    0    0  0.00000000000E+00  0.00000000000E+00  0.15586728680E+03  0.24782620068E+04  0.24733556080E+04 0.  0.
        1    1    3    3  502    0  0.21345240965E+03 -0.11767373953E+04 -0.23749102002E+03  0.12192927513E+04  0.50400001928E-02 0. -1.
       -1    1    3    3    0  502 -0.21345240965E+03  0.11767373953E+04  0.39335830682E+03  0.12589692555E+04  0.50400001928E-02 0.  1.
</event>
<event>
 5   0  0.1201438E-05  0.2473229E+04  0.7818609E-02  0.8412586E-01
        3   -1    0    0  501    0  0.00000000000E+00  0.00000000000E+00  0.92887075993E+03  0.92887076542E+03  0.10100000352E+00 0. -1.
       -3   -1    0    0    0  501  0.00000000000E+00  0.00000000000E+00 -0.16463161243E+04  0.16463161274E+04  0.10100000352E+00 0.  1.
    10030    2    1    2    0    0  0.00000000000E+00  0.00000000000E+00 -0.71744536437E+03  0.25751868928E+04  0.24732285948E+04 0.  0.
        2    1    3    3  502    0 -0.76155317038E+03 -0.49690891634E+03  0.51387910668E+03  0.10444871654E+04  0.25500000920E-02 0. -1.
       -2    1    3    3    0  502  0.76155317038E+03  0.49690891634E+03 -0.12313244711E+04  0.15306997274E+04  0.25500000920E-02 0.  1.
</event>
<event>
 5   0  0.3650620E-05  0.1913510E+04  0.7818609E-02  0.8648161E-01
        2   -1    0    0  501    0  0.00000000000E+00  0.00000000000E+00  0.15312004599E+04  0.15312004599E+04  0.25500000920E-02 0.  1.
       -2   -1    0    0    0  501  0.00000000000E+00  0.00000000000E+00 -0.59781839669E+03  0.59781839670E+03  0.25500000920E-02 0. -1.
    10030    2    1    2    0    0  0.00000000000E+00  0.00000000000E+00  0.93338206319E+03  0.21290188566E+04  0.19135096592E+04 0.  0.
        3    1    3    3  502    0  0.53225645929E+03  0.57884289933E+03 -0.13968836970E+03  0.79866694648E+03  0.10100000352E+00 0. -1.
       -3    1    3    3    0  502 -0.53225645929E+03 -0.57884289933E+03  0.10730704329E+04  0.13303519101E+04  0.10100000352E+00 0.  1.
</event>
<event>
 5   0  0.3579097E-05  0.2485010E+04  0.7818609E-02  0.8408345E-01
       -2   -1    0    0    0  501  0.00000000000E+00  0.00000000000E+00  0.15233433427E+04  0.15233433427E+04  0.25500000920E-02 0.  1.
        2   -1    0    0  501    0  0.00000000000E+00  0.00000000000E+00 -0.10134412856E+04  0.10134412856E+04  0.25500000920E-02 0. -1.
    10030    2    1    2    0    0  0.00000000000E+00  0.00000000000E+00  0.50990205706E+03  0.25367846283E+04  0.24850102902E+04 0.  0.
        5    1    3    3  502    0 -0.11375970654E+04  0.26567952554E+03 -0.17704932749E+03  0.11815588212E+04  0.46999998093E+01 0. -1.
       -5    1    3    3    0  502  0.11375970654E+04 -0.26567952554E+03  0.68695138455E+03  0.13552258071E+04  0.46999998093E+01 0.  1.
</event>
<event>
 5   0  0.3578670E-05  0.2817720E+04  0.7818609E-02  0.8297788E-01
        2   -1    0    0  501    0  0.00000000000E+00  0.00000000000E+00  0.16356350344E+04  0.16356350344E+04  0.25500000920E-02 0. -1.
       -2   -1    0    0    0  501  0.00000000000E+00  0.00000000000E+00 -0.12135261314E+04  0.12135261314E+04  0.25500000920E-02 0.  1.
    10030    2    1    2    0    0  0.00000000000E+00  0.00000000000E+00  0.42210890296E+03  0.28491611658E+04  0.28177195429E+04 0.  0.
        4    1    3    3  502    0 -0.47122894894E+03  0.81676512075E+03 -0.84739346901E+03  0.12677694148E+04  0.12699999809E+01 0.  1.
       -4    1    3    3    0  502  0.47122894894E+03 -0.81676512075E+03  0.12695023720E+04  0.15813917510E+04  0.12699999809E+01 0. -1.
</event>
<event>
 5   0  0.1421242E-05  0.2522611E+04  0.7818609E-02  0.8394974E-01
       -1   -1    0    0    0  501  0.00000000000E+00  0.00000000000E+00  0.97154310406E+03  0.97154310408E+03  0.50400001928E-02 0. -1.
        1   -1    0    0  501    0  0.00000000000E+00  0.00000000000E+00 -0.16374896117E+04  0.16374896117E+04  0.50400001928E-02 0.  1.
    10030    2    1    2    0    0  0.00000000000E+00  0.00000000000E+00 -0.66594650761E+03  0.26090327158E+04  0.25226111395E+04 0.  0.
        3    1    3    3  502    0 -0.26152017117E+03  0.16363121632E+03  0.93192301460E+03  0.98165599383E+03  0.10100000352E+00 0. -1.
       -3    1    3    3    0  502  0.26152017117E+03 -0.16363121632E+03 -0.15978695222E+04  0.16273767219E+04  0.10100000352E+00 0.  1.
</event>
<event>
 5   0  0.1502886E-05  0.2474357E+04  0.7818609E-02  0.8412178E-01
       -1   -1    0    0    0  501  0.00000000000E+00  0.00000000000E+00  0.12587418085E+04  0.12587418085E+04  0.50400001928E-02 0. -1.
        1   -1    0    0  501    0  0.00000000000E+00  0.00000000000E+00 -0.12159847064E+04  0.12159847064E+04  0.50400001928E-02 0.  1.
    10030    2    1    2    0    0  0.00000000000E+00  0.00000000000E+00  0.42757102096E+02  0.24747265149E+04  0.24743571193E+04 0.  0.
        4    1    3    3  502    0 -0.86124944319E+03 -0.25039089706E+03  0.87365773304E+03  0.12520885161E+04  0.12699999809E+01 0. -1.
       -4    1    3    3    0  502  0.86124944319E+03  0.25039089706E+03 -0.83090063094E+03  0.12226379988E+04  0.12699999809E+01 0.  1.
</event>
<event>
 5   0  0.1502886E-05  0.2538783E+04  0.7818609E-02  0.8389298E-01
       -1   -1    0    0    0  501  0.00000000000E+00  0.00000000000E+00  0.88317026446E+03  0.88317026448E+03  0.50400001928E-02 0. -1.
        1   -1    0    0  501    0  0.00000000000E+00  0.00000000000E+00 -0.18245120692E+04  0.18245120692E+04  0.50400001928E-02 0.  1.
    10030    2    1    2    0    0  0.00000000000E+00  0.00000000000E+00 -0.94134180478E+03  0.27076823337E+04  0.25387830209E+04 0.  0.
        4    1    3    3  502    0  0.88434354577E+03  0.42423619514E+03 -0.13300786968E+04  0.16526193781E+04  0.12699999809E+01 0.  1.
       -4    1    3    3    0  502 -0.88434354577E+03 -0.42423619514E+03  0.38873689205E+03  0.10550629556E+04  0.12699999809E+01 0. -1.
</event>
<event>
 5   0  0.1502886E-05  0.2335633E+04  0.7818609E-02  0.8464003E-01
        1   -1    0    0  501    0  0.00000000000E+00  0.00000000000E+00  0.19383634498E+04  0.19383634498E+04  0.50400001928E-02 0. -1.
       -1   -1    0    0    0  501  0.00000000000E+00  0.00000000000E+00 -0.70358061873E+03  0.70358061875E+03  0.50400001928E-02 0.  1.
    10030    2    1    2    0    0  0.00000000000E+00  0.00000000000E+00  0.12347828311E+04  0.26419440686E+04  0.23356326384E+04 0.  0.
        4    1    3    3  502    0  0.23461068682E+03  0.11244309683E+02  0.19113686803E+04  0.19257467263E+04  0.12699999809E+01 0. -1.
       -4    1    3    3    0  502 -0.23461068682E+03 -0.11244309683E+02 -0.67658584920E+03  0.71619734230E+03  0.12699999809E+01 0.  1.
</event>
<event>
 5   0  0.1456876E-05  0.2198339E+04  0.7818609E-02  0.8519120E-01
        1   -1    0    0  501    0  0.00000000000E+00  0.00000000000E+00  0.15230437223E+04  0.15230437223E+04  0.50400001928E-02 0. -1.
       -1   -1    0    0    0  501  0.00000000000E+00  0.00000000000E+00 -0.79326249916E+03  0.79326249918E+03  0.50400001928E-02 0.  1.
    10030    2    1    2    0    0  0.00000000000E+00  0.00000000000E+00  0.72978122317E+03  0.23163062215E+04  0.21983388906E+04 0.  0.
        1    1    3    3  502    0 -0.27520088580E+03  0.38928052750E+03  0.14084409201E+04  0.14869366773E+04  0.50400001928E-02 0. -1.
       -1    1    3    3    0  502  0.27520088580E+03 -0.38928052750E+03 -0.67865969696E+03  0.82936954426E+03  0.50400001928E-02 0.  1.
</event>
<event>
 5   0  0.1492639E-05  0.2447572E+04  0.7818609E-02  0.8421905E-01
       -1   -1    0    0    0  501  0.00000000000E+00  0.00000000000E+00  0.14521078231E+04  0.14521078232E+04  0.50400001928E-02 0.  1.
        1   -1    0    0  501    0  0.00000000000E+00  0.00000000000E+00 -0.10313642736E+04  0.10313642736E+04  0.50400001928E-02 0. -1.
    10030    2    1    2    0    0  0.00000000000E+00  0.00000000000E+00  0.42074354954E+03  0.24834720968E+04  0.24475719644E+04 0.  0.
        5    1    3    3  502    0 -0.21297489629E+03  0.11873530683E+04  0.41946330403E+03  0.12771598054E+04  0.46999998093E+01 0. -1.
       -5    1    3    3    0  502  0.21297489629E+03 -0.11873530683E+04  0.12802455132E+01  0.12063122913E+04  0.46999998093E+01 0.  1.
</event>
<event>
 5   0  0.3578670E-05  0.2467268E+04  0.7818609E-02  0.8414740E-01
       -2   -1    0    0    0  501  0.00000000000E+00  0.00000000000E+00  0.11780258573E+04  0.11780258573E+04  0.25500000920E-02 0. -1.
        2   -1    0    0  501    0  0.00000000000E+00  0.00000000000E+00 -0.12918672603E+04  0.12918672603E+04  0.25500000920E-02 0.  1.
    10030    2    1    2    0    0  0.00000000000E+00  0.00000000000E+00 -0.11384140301E+03  0.24698931176E+04  0.24672681547E+04 0.  0.
        4    1    3    3  502    0 -0.32459890608E+03 -0.73339957088E+03  0.88141962831E+03  0.11916969222E+04  0.12699999809E+01 0. -1.
       -4    1    3    3    0  502  0.32459890608E+03  0.73339957088E+03 -0.99526103132E+03  0.12781961953E+04  0.12699999809E+01 0.  1.
</event>
<event>
 5   0  0.1201438E-05  0.2511339E+04  0.7818609E-02  0.8398957E-01
       -3   -1    0    0    0  501  0.00000000000E+00  0.00000000000E+00  0.71787788720E+03  0.71787789431E+03  0.10100000352E+00 0. -1.
        3   -1    0    0  501    0  0.00000000000E+00  0.00000000000E+00 -0.21963424649E+04  0.21963424672E+04  0.10100000352E+00 0.  1.
    10030    2    1    2    0    0  0.00000000000E+00  0.00000000000E+00 -0.14784645777E+04  0.29142203615E+04  0.25113388477E+04 0.  0.
        2    1    3    3  502    0 -0.10409057019E+03 -0.12129726173E+03 -0.21844892443E+04  0.21903290006E+04  0.25500000920E-02 0.  1.
       -2    1    3    3    0  502  0.10409057019E+03  0.12129726173E+03  0.70602466661E+03  0.72389136090E+03  0.25500000920E-02 0. -1.
</event>
<event>
 5   0  0.3578670E-05  0.2488437E+04  0.7818609E-02  0.8407117E-01
        2   -1    0    0  501    0  0.00000000000E+00  0.00000000000E+00  0.22091369688E+04  0.22091369688E+04  0.25500000920E-02 0. -1.
       -2   -1    0    0    0  501  0.00000000000E+00  0.00000000000E+00 -0.70076214400E+03  0.70076214400E+03  0.25500000920E-02 0.  1.
    10030    2    1    2    0    0  0.00000000000E+00  0.00000000000E+00  0.15083748248E+04  0.29098991128E+04  0.24884369059E+04 0.  0.
        4    1    3    3  502    0  0.82724158031E+03 -0.91467547215E+03  0.56162084864E+03  0.13551307841E+04  0.12699999809E+01 0.  1.
       -4    1    3    3    0  502 -0.82724158031E+03  0.91467547215E+03  0.94675397612E+03  0.15547683286E+04  0.12699999809E+01 0. -1.
</event>
<event>
 5   0  0.1456876E-05  0.2495843E+04  0.7818609E-02  0.8404468E-01
        1   -1    0    0  501    0  0.00000000000E+00  0.00000000000E+00  0.10771514805E+04  0.10771514805E+04  0.50400001928E-02 0.  1.
       -1   -1    0    0    0  501  0.00000000000E+00  0.00000000000E+00 -0.14457647878E+04  0.14457647878E+04  0.50400001928E-02 0. -1.
    10030    2    1    2    0    0  0.00000000000E+00  0.00000000000E+00 -0.36861330736E+03  0.25229162683E+04  0.24958426886E+04 0.  0.
        1    1    3    3  502    0  0.11509278782E+04  0.47210510458E+03 -0.84291630680E+02  0.12468453351E+04  0.50400001928E-02 0.  1.
       -1    1    3    3    0  502 -0.11509278782E+04 -0.47210510458E+03 -0.28432167668E+03  0.12760709332E+04  0.50400001928E-02 0. -1.
</event>
<event>
 5   0  0.3581449E-05  0.2466989E+04  0.7818609E-02  0.8414841E-01
        2   -1    0    0  501    0  0.00000000000E+00  0.00000000000E+00  0.20745723281E+04  0.20745723281E+04  0.25500000920E-02 0. -1.
       -2   -1    0    0    0  501  0.00000000000E+00  0.00000000000E+00 -0.73340810672E+03  0.73340810673E+03  0.25500000920E-02 0.  1.
    10030    2    1    2    0    0  0.00000000000E+00  0.00000000000E+00  0.13411642214E+04  0.28079804349E+04  0.24669885800E+04 0.  0.
        1    1    3    3  502    0  0.22477539152E+02 -0.12059988709E+03 -0.72644726281E+03  0.73673278616E+03  0.50400001928E-02 0.  1.
       -1    1    3    3    0  502 -0.22477539152E+02  0.12059988709E+03  0.20676114842E+04  0.20712476487E+04  0.50400001928E-02 0. -1.
</event>
<event>
 5   0  0.1421242E-05  0.2477051E+04  0.7818609E-02  0.8411207E-01
       -1   -1    0    0    0  501  0.00000000000E+00  0.00000000000E+00  0.20544024142E+04  0.20544024142E+04  0.50400001928E-02 0. -1.
        1   -1    0    0  501    0  0.00000000000E+00  0.00000000000E+00 -0.74666275868E+03  0.74666275869E+03  0.50400001928E-02 0.  1.
    10030    2    1    2    0    0  0.00000000000E+00  0.00000000000E+00  0.13077396555E+04  0.28010651729E+04  0.24770512906E+04 0.  0.
        3    1    3    3  502    0 -0.10050949496E+04 -0.26173538662E+03 -0.10908886432E+03  0.10443283300E+04  0.10100000352E+00 0.  1.
       -3    1    3    3    0  502  0.10050949496E+04  0.26173538662E+03  0.14168285198E+04  0.17567368429E+04  0.10100000352E+00 0. -1.
</event>
<event>
 5   0  0.3704241E-05  0.2488258E+04  0.7818609E-02  0.8407180E-01
        2   -1    0    0  501    0  0.00000000000E+00  0.00000000000E+00  0.13687993064E+04  0.13687993064E+04  0.25500000920E-02 0. -1.
       -2   -1    0    0    0  501  0.00000000000E+00  0.00000000000E+00 -0.11308140610E+04  0.11308140610E+04  0.25500000920E-02 0.  1.
    10030    2    1    2    0    0  0.00000000000E+00  0.00000000000E+00  0.23798524543E+03  0.24996133674E+04  0.24882584290E+04 0.  0.
        2    1    3    3  502    0  0.80422266543E+03 -0.64970925227E+02  0.10703423789E+04  0.13403835738E+04  0.25500000920E-02 0. -1.
       -2    1    3    3    0  502 -0.80422266543E+03  0.64970925227E+02 -0.83235713352E+03  0.11592297936E+04  0.25500000920E-02 0.  1.
</event>
<event>
 5   0  0.1456876E-05  0.2465351E+04  0.7818609E-02  0.8415434E-01
        1   -1    0    0  501    0  0.00000000000E+00  0.00000000000E+00  0.14558663613E+04  0.14558663613E+04  0.50400001928E-02 0. -1.
       -1   -1    0    0    0  501  0.00000000000E+00  0.00000000000E+00 -0.10437008619E+04  0.10437008619E+04  0.50400001928E-02 0.  1.
    10030    2    1    2    0    0  0.00000000000E+00  0.00000000000E+00  0.41216549937E+03  0.24995672232E+04  0.24653510713E+04 0.  0.
        1    1    3    3  502    0  0.58422642649E+03 -0.45786871944E+03 -0.79171242153E+03  0.10852524315E+04  0.50400001928E-02 0.  1.
       -1    1    3    3    0  502 -0.58422642649E+03  0.45786871944E+03  0.12038779209E+04  0.14143147917E+04  0.50400001928E-02 0. -1.
</event>
<event>
 5   0  0.1492639E-05  0.2525073E+04  0.7818609E-02  0.8394107E-01
        1   -1    0    0  501    0  0.00000000000E+00  0.00000000000E+00  0.18682577331E+04  0.18682577331E+04  0.50400001928E-02 0. -1.
       -1   -1    0    0    0  501  0.00000000000E+00  0.00000000000E+00 -0.85320046319E+03  0.85320046320E+03  0.50400001928E-02 0.  1.
    10030    2    1    2    0    0  0.00000000000E+00  0.00000000000E+00  0.10150572699E+04  0.27214581963E+04  0.25250729599E+04 0.  0.
        5    1    3    3  502    0  0.44416265688E+03 -0.20313716616E+03 -0.74724810458E+03  0.89271887727E+03  0.46999998093E+01 0.  1.
       -5    1    3    3    0  502 -0.44416265688E+03  0.20313716616E+03  0.17623053745E+04  0.18287393190E+04  0.46999998093E+01 0. -1.
</event>
<event>
 5   0  0.1456876E-05  0.2503699E+04  0.7818609E-02  0.8401669E-01
        1   -1    0    0  501    0  0.00000000000E+00  0.00000000000E+00  0.14501131881E+04  0.14501131882E+04  0.50400001928E-02 0. -1.
       -1   -1    0    0    0  501  0.00000000000E+00  0.00000000000E+00 -0.10806929928E+04  0.10806929928E+04  0.50400001928E-02 0.  1.
    10030    2    1    2    0    0  0.00000000000E+00  0.00000000000E+00  0.36942019538E+03  0.25308061809E+04  0.25036989924E+04 0.  0.
        1    1    3    3  502    0  0.13372568371E+03 -0.56396984955E+03 -0.93688992255E+03  0.11016838370E+04  0.50400001928E-02 0.  1.
       -1    1    3    3    0  502 -0.13372568371E+03  0.56396984955E+03  0.13063101179E+04  0.14291223439E+04  0.50400001928E-02 0. -1.
</event>
<event>
 5   0  0.3579097E-05  0.2469301E+04  0.7818609E-02  0.8414004E-01
        2   -1    0    0  501    0  0.00000000000E+00  0.00000000000E+00  0.20447317393E+04  0.20447317393E+04  0.25500000920E-02 0. -1.
       -2   -1    0    0    0  501  0.00000000000E+00  0.00000000000E+00 -0.74550709813E+03  0.74550709814E+03  0.25500000920E-02 0.  1.
    10030    2    1    2    0    0  0.00000000000E+00  0.00000000000E+00  0.12992246411E+04  0.27902388374E+04  0.24693011363E+04 0.  0.
        5    1    3    3  502    0 -0.80055224341E+03 -0.92048864930E+03  0.86447532338E+03  0.14951665200E+04  0.46999998093E+01 0. -1.
       -5    1    3    3    0  502  0.80055224341E+03  0.92048864930E+03  0.43474931775E+03  0.12950723174E+04  0.46999998093E+01 0.  1.
</event>
<event>
 5   0  0.3650620E-05  0.2850315E+04  0.7818609E-02  0.8287815E-01
       -2   -1    0    0    0  501  0.00000000000E+00  0.00000000000E+00  0.12719279840E+04  0.12719279840E+04  0.25500000920E-02 0. -1.
        2   -1    0    0  501    0  0.00000000000E+00  0.00000000000E+00 -0.15968470085E+04  0.15968470085E+04  0.25500000920E-02 0.  1.
    10030    2    1    2    0    0  0.00000000000E+00  0.00000000000E+00 -0.32491902454E+03  0.28687749926E+04  0.28503153484E+04 0.  0.
        3    1    3    3  502    0 -0.13317042112E+04  0.65537978909E+02 -0.66905121829E+03  0.14917643499E+04  0.10100000352E+00 0. -1.
       -3    1    3    3    0  502  0.13317042112E+04 -0.65537978909E+02  0.34413219375E+03  0.13770106426E+04  0.10100000352E+00 0.  1.
</event>
<event>
 5   0  0.3581449E-05  0.2478626E+04  0.7818609E-02  0.8410640E-01
       -2   -1    0    0    0  501  0.00000000000E+00  0.00000000000E+00  0.10964694250E+04  0.10964694251E+04  0.25500000920E-02 0.  1.
        2   -1    0    0  501    0  0.00000000000E+00  0.00000000000E+00 -0.14007654754E+04  0.14007654754E+04  0.25500000920E-02 0. -1.
    10030    2    1    2    0    0  0.00000000000E+00  0.00000000000E+00 -0.30429605031E+03  0.24972349004E+04  0.24786258414E+04 0.  0.
        1    1    3    3  502    0  0.96122095360E+03 -0.41223544448E+03 -0.82197990323E+03  0.13302386044E+04  0.50400001928E-02 0. -1.
       -1    1    3    3    0  502 -0.96122095360E+03  0.41223544448E+03  0.51768385291E+03  0.11669962960E+04  0.50400001928E-02 0.  1.
</event>
<event>
 5   0  0.1429483E-05  0.2448884E+04  0.7818609E-02  0.8421426E-01
       -1   -1    0    0    0  501  0.00000000000E+00  0.00000000000E+00  0.12733202154E+04  0.12733202154E+04  0.50400001928E-02 0.  1.
        1   -1    0    0  501    0  0.00000000000E+00  0.00000000000E+00 -0.11774400562E+04  0.11774400562E+04  0.50400001928E-02 0. -1.
    10030    2    1    2    0    0  0.00000000000E+00  0.00000000000E+00  0.95880159212E+02  0.24507602716E+04  0.24488840119E+04 0.  0.
        2    1    3    3  502    0  0.10378543965E+04 -0.58718034260E+03  0.32624615724E+03  0.12362681983E+04  0.25500000920E-02 0. -1.
       -2    1    3    3    0  502 -0.10378543965E+04  0.58718034260E+03 -0.23036599803E+03  0.12144920733E+04  0.25500000920E-02 0.  1.
</event>
<event>
 5   0  0.1456876E-05  0.2513816E+04  0.7818609E-02  0.8398080E-01
       -1   -1    0    0    0  501  0.00000000000E+00  0.00000000000E+00  0.92605451862E+03  0.92605451863E+03  0.50400001928E-02 0.  1.
        1   -1    0    0  501    0  0.00000000000E+00  0.00000000000E+00 -0.17059659375E+04  0.17059659375E+04  0.50400001928E-02 0. -1.
    10030    2    1    2    0    0  0.00000000000E+00  0.00000000000E+00 -0.77991141887E+03  0.26320204561E+04  0.25138157968E+04 0.  0.
        1    1    3    3  502    0  0.68871356414E+03 -0.99129348710E+03 -0.23007261922E+02  0.12072773025E+04  0.50400001928E-02 0.  1.
       -1    1    3    3    0  502 -0.68871356414E+03  0.99129348710E+03 -0.75690415695E+03  0.14247431536E+04  0.50400001928E-02 0. -1.
</event>
<event>
 5   0  0.3579097E-05  0.2484099E+04  0.7818609E-02  0.8408672E-01
        2   -1    0    0  501    0  0.00000000000E+00  0.00000000000E+00  0.14667829564E+04  0.14667829564E+04  0.25500000920E-02 0.  1.
       -2   -1    0    0    0  501  0.00000000000E+00  0.00000000000E+00 -0.10517484844E+04  0.10517484844E+04  0.25500000920E-02 0. -1.
    10030    2    1    2    0    0  0.00000000000E+00  0.00000000000E+00  0.41503447198E+03  0.25185314408E+04  0.24840988317E+04 0.  0.
        5    1    3    3  502    0  0.96807895177E+03 -0.12566754536E+03 -0.57104333011E+03  0.11309649701E+04  0.46999998093E+01 0. -1.
       -5    1    3    3    0  502 -0.96807895177E+03  0.12566754536E+03  0.98607780209E+03  0.13875664707E+04  0.46999998093E+01 0.  1.
</event>
<event>
 5   0  0.1492639E-05  0.2434485E+04  0.7818609E-02  0.8426705E-01
       -1   -1    0    0    0  501  0.00000000000E+00  0.00000000000E+00  0.50833927824E+03  0.50833927826E+03  0.50400001928E-02 0.  1.
        1   -1    0    0  501    0  0.00000000000E+00  0.00000000000E+00 -0.29147450203E+04  0.29147450203E+04  0.50400001928E-02 0. -1.
    10030    2    1    2    0    0  0.00000000000E+00  0.00000000000E+00 -0.24064057421E+04  0.34230842986E+04  0.24344850625E+04 0.  0.
        5    1    3    3  502    0  0.21503852156E+03  0.10707750314E+04 -0.19589066516E+04  0.22427969354E+04  0.46999998093E+01 0. -1.
       -5    1    3    3    0  502 -0.21503852156E+03 -0.10707750314E+04 -0.44749909043E+03  0.11802873632E+04  0.46999998093E+01 0.  1.
</event>
<event>
 5   0  0.1502886E-05  0.2498126E+04  0.7818609E-02  0.8403653E-01
        1   -1    0    0  501    0  0.00000000000E+00  0.00000000000E+00  0.21468938539E+04  0.21468938539E+04  0.50400001928E-02 0.  1.
       -1   -1    0    0    0  501  0.00000000000E+00  0.00000000000E+00 -0.72670512615E+03  0.72670512616E+03  0.50400001928E-02 0. -1.
    10030    2    1    2    0    0  0.00000000000E+00  0.00000000000E+00  0.14201887278E+04  0.28735989801E+04  0.24981263130E+04 0.  0.
        4    1    3    3  502    0 -0.83621432106E+03 -0.59923184897E+03  0.15249627368E+04  0.18395233516E+04  0.12699999809E+01 0.  1.
       -4    1    3    3    0  502  0.83621432106E+03  0.59923184897E+03 -0.10477400903E+03  0.10340756285E+04  0.12699999809E+01 0. -1.
</event>
<event>
 5   0  0.3579097E-05  0.2387135E+04  0.7818609E-02  0.8444336E-01
       -2   -1    0    0    0  501  0.00000000000E+00  0.00000000000E+00  0.63086513826E+03  0.63086513826E+03  0.25500000920E-02 0. -1.
        2   -1    0    0  501    0  0.00000000000E+00  0.00000000000E+00 -0.22581746878E+04  0.22581746878E+04  0.25500000920E-02 0.  1.
    10030    2    1    2    0    0  0.00000000000E+00  0.00000000000E+00 -0.16273095495E+04  0.28890398260E+04  0.23871352594E+04 0.  0.
        5    1    3    3  502    0  0.11105174072E+03 -0.10209706368E+04 -0.77617312205E+02  0.10299320694E+04  0.46999998093E+01 0. -1.
       -5    1    3    3    0  502 -0.11105174072E+03  0.10209706368E+04 -0.15496922373E+04  0.18591077566E+04  0.46999998093E+01 0.  1.
</event>
<event>
 5   0  0.1201438E-05  0.2493540E+04  0.7818609E-02  0.8405290E-01
        3   -1    0    0  501    0  0.00000000000E+00  0.00000000000E+00  0.10160721506E+04  0.10160721557E+04  0.10100000352E+00 0.  1.
       -3   -1    0    0    0  501  0.00000000000E+00  0.00000000000E+00 -0.15298478715E+04  0.15298478749E+04  0.10100000352E+00 0. -1.
    10030    2    1    2    0    0  0.00000000000E+00  0.00000000000E+00 -0.51377572091E+03  0.25459200305E+04  0.24935403166E+04 0.  0.
        3    1    3    3  502    0 -0.96181651607E+03 -0.48752392678E+03 -0.89586581039E+03  0.14019080391E+04  0.10100000352E+00 0. -1.
       -3    1    3    3    0  502  0.96181651607E+03  0.48752392678E+03  0.38209008948E+03  0.11440119914E+04  0.10100000352E+00 0.  1.
</event>
<event>
 5   0  0.3579097E-05  0.2488886E+04  0.7818609E-02  0.8406956E-01
       -2   -1    0    0    0  501  0.00000000000E+00  0.00000000000E+00  0.83918790586E+03  0.83918790586E+03  0.25500000920E-02 0.  1.
        2   -1    0    0  501    0  0.00000000000E+00  0.00000000000E+00 -0.18454009094E+04  0.18454009094E+04  0.25500000920E-02 0. -1.
    10030    2    1    2    0    0  0.00000000000E+00  0.00000000000E+00 -0.10062130035E+04  0.26845888152E+04  0.24888857946E+04 0.  0.
        5    1    3    3  502    0  0.75947586562E+03  0.50927394847E+03  0.40733230663E+03  0.10010520681E+04  0.46999998093E+01 0.  1.
       -5    1    3    3    0  502 -0.75947586562E+03 -0.50927394847E+03 -0.14135453101E+04  0.16835367471E+04  0.46999998093E+01 0. -1.
</event>
<event>
 5   0  0.3578670E-05  0.2548887E+04  0.7818609E-02  0.8385773E-01
       -2   -1    0    0    0  501  0.00000000000E+00  0.00000000000E+00  0.71577385953E+03  0.71577385954E+03  0.25500000920E-02 0. -1.
        2   -1    0    0  501    0  0.00000000000E+00  0.00000000000E+00 -0.22691613643E+04  0.22691613643E+04  0.25500000920E-02 0.  1.
    10030    2    1    2    0    0  0.00000000000E+00  0.00000000000E+00 -0.15533875048E+04  0.29849352239E+04  0.25488871200E+04 0.  0.
        4    1    3    3  502    0 -0.60719844908E+03 -0.12996510217E+03 -0.20800226793E+04  0.21707318682E+04  0.12699999809E+01 0.  1.
       -4    1    3    3    0  502  0.60719844908E+03  0.12996510217E+03  0.52663517454E+03  0.81420335563E+03  0.12699999809E+01 0. -1.
</event>
<event>
 5   0  0.3581449E-05  0.2490571E+04  0.7818609E-02  0.8406352E-01
        2   -1    0    0  501    0  0.00000000000E+00  0.00000000000E+00  0.18193540449E+04  0.18193540449E+04  0.25500000920E-02 0.  1.
       -2   -1    0    0    0  501  0.00000000000E+00  0.00000000000E+00 -0.85235516012E+03  0.85235516012E+03  0.25500000920E-02 0. -1.
    10030    2    1    2    0    0  0.00000000000E+00  0.00000000000E+00  0.96699888475E+03  0.26717092050E+04  0.24905708649E+04 0.  0.
        1    1    3    3  502    0 -0.52533545110E+01 -0.10204804109E+04  0.12490767188E+04  0.16129477723E+04  0.50400001928E-02 0.  1.
       -1    1    3    3    0  502  0.52533545110E+01  0.10204804109E+04 -0.28207783409E+03  0.10587614326E+04  0.50400001928E-02 0. -1.
</event>
<event>
 5   0  0.3581449E-05  0.2601919E+04  0.7818609E-02  0.8367550E-01
        2   -1    0    0  501    0  0.00000000000E+00  0.00000000000E+00  0.20571042272E+04  0.20571042272E+04  0.25500000920E-02 0.  1.
       -2   -1    0    0    0  501  0.00000000000E+00  0.00000000000E+00 -0.82275627994E+03  0.82275627994E+03  0.25500000920E-02 0. -1.
    10030    2    1    2    0    0  0.00000000000E+00  0.00000000000E+00  0.12343479472E+04  0.28798605071E+04  0.26019188468E+04 0.  0.
        1    1    3    3  502    0  0.58371702944E+03  0.49133571779E+03  0.17834716925E+04  0.19398215475E+04  0.50400001928E-02 0.  1.
       -1    1    3    3    0  502 -0.58371702944E+03 -0.49133571779E+03 -0.54912374526E+03  0.94003895965E+03  0.50400001928E-02 0. -1.
</event>
<event>
 5   0  0.1429483E-05  0.2478477E+04  0.7818609E-02  0.8410693E-01
       -1   -1    0    0    0  501  0.00000000000E+00  0.00000000000E+00  0.80562618791E+03  0.80562618792E+03  0.50400001928E-02 0.  1.
        1   -1    0    0  501    0  0.00000000000E+00  0.00000000000E+00 -0.19062346500E+04  0.19062346500E+04  0.50400001928E-02 0. -1.
    10030    2    1    2    0    0  0.00000000000E+00  0.00000000000E+00 -0.11006084621E+04  0.27118608380E+04  0.24784773990E+04 0.  0.
        2    1    3    3  502    0 -0.94348362888E+03 -0.43240049349E+03  0.19064844275E+03  0.10552148471E+04  0.25500000920E-02 0. -1.
       -2    1    3    3    0  502  0.94348362888E+03  0.43240049349E+03 -0.12912569049E+04  0.16566459909E+04  0.25500000920E-02 0.  1.
</event>
<event>
 5   0  0.3581449E-05  0.2399077E+04  0.7818609E-02  0.8439849E-01
        2   -1    0    0  501    0  0.00000000000E+00  0.00000000000E+00  0.17206439305E+04  0.17206439305E+04  0.25500000920E-02 0. -1.
       -2   -1    0    0    0  501  0.00000000000E+00  0.00000000000E+00 -0.83625269578E+03  0.83625269578E+03  0.25500000920E-02 0.  1.
    10030    2    1    2    0    0  0.00000000000E+00  0.00000000000E+00  0.88439123473E+03  0.25568966263E+04  0.23990774272E+04 0.  0.
        1    1    3    3  502    0 -0.42212317755E+03  0.52320854328E+02 -0.75317794553E+03  0.86498697474E+03  0.50400001928E-02 0.  1.
       -1    1    3    3    0  502  0.42212317755E+03 -0.52320854328E+02  0.16375691803E+04  0.16919096515E+04  0.50400001928E-02 0. -1.
</event>
<event>
 5   0  0.1492639E-05  0.2493622E+04  0.7818609E-02  0.8405261E-01
        1   -1    0    0  501    0  0.00000000000E+00  0.00000000000E+00  0.18220487602E+04  0.18220487602E+04  0.50400001928E-02 0.  1.
       -1   -1    0    0    0  501  0.00000000000E+00  0.00000000000E+00 -0.85318123974E+03  0.85318123975E+03  0.50400001928E-02 0. -1.
    10030    2    1    2    0    0  0.00000000000E+00  0.00000000000E+00  0.96886752049E+03  0.26752300000E+04  0.24936221206E+04 0.  0.
        5    1    3    3  502    0 -0.97861583239E+02 -0.12407860475E+04  0.40567887107E+03  0.13090929461E+04  0.46999998093E+01 0. -1.
       -5    1    3    3    0  502  0.97861583239E+02  0.12407860475E+04  0.56318864942E+03  0.13661370539E+04  0.46999998093E+01 0.  1.
</event>
<event>
 5   0  0.1421242E-05  0.2510478E+04  0.7818609E-02  0.8399262E-01
       -1   -1    0    0    0  501  0.00000000000E+00  0.00000000000E+00  0.10790941555E+04  0.10790941555E+04  0.50400001928E-02 0. -1.
        1   -1    0    0  501    0  0.00000000000E+00  0.00000000000E+00 -0.14601361906E+04  0.14601361906E+04  0.50400001928E-02 0.  1.
    10030    2    1    2    0    0  0.00000000000E+00  0.00000000000E+00 -0.38104203506E+03  0.25392303461E+04  0.25104775876E+04 0.  0.
        3    1    3    3  502    0  0.41650399648E+03 -0.10545117833E+04 -0.73534954183E+03  0.13513732420E+04  0.10100000352E+00 0.  1.
       -3    1    3    3    0  502 -0.41650399648E+03  0.10545117833E+04  0.35430750676E+03  0.11878571041E+04  0.10100000352E+00 0. -1.
</event>
<event>
 5   0  0.3578670E-05  0.2498150E+04  0.7818609E-02  0.8403645E-01
       -2   -1    0    0    0  501  0.00000000000E+00  0.00000000000E+00  0.17478470978E+04  0.17478470978E+04  0.25500000920E-02 0.  1.
        2   -1    0    0  501    0  0.00000000000E+00  0.00000000000E+00 -0.89263436777E+03  0.89263436777E+03  0.25500000920E-02 0. -1.
    10030    2    1    2    0    0  0.00000000000E+00  0.00000000000E+00  0.85521273007E+03  0.26404814656E+04  0.24981500268E+04 0.  0.
        4    1    3    3  502    0 -0.10013168447E+04 -0.30166678933E+03  0.11495661487E+04  0.15540727841E+04  0.12699999809E+01 0.  1.
       -4    1    3    3    0  502  0.10013168447E+04  0.30166678933E+03 -0.29435341868E+03  0.10864086815E+04  0.12699999809E+01 0. -1.
</event>
<event>
 5   0  0.1456876E-05  0.2455849E+04  0.7818609E-02  0.8418886E-01
        1   -1    0    0  501    0  0.00000000000E+00  0.00000000000E+00  0.12538193211E+04  0.12538193211E+04  0.50400001928E-02 0.  1.
       -1   -1    0    0    0  501  0.00000000000E+00  0.00000000000E+00 -0.12025641656E+04  0.12025641656E+04  0.50400001928E-02 0. -1.
    10030    2    1    2    0    0  0.00000000000E+00  0.00000000000E+00  0.51255155482E+02  0.24563834868E+04  0.24558486808E+04 0.  0.
        1    1    3    3  502    0  0.28078720445E+03  0.69463002100E+03  0.99869392807E+03  0.12484958479E+04  0.50400001928E-02 0.  1.
       -1    1    3    3    0  502 -0.28078720445E+03 -0.69463002100E+03 -0.94743877259E+03  0.12078876388E+04  0.50400001928E-02 0. -1.
</event>
<event>
 5   0  0.3650620E-05  0.2503574E+04  0.7818609E-02  0.8401713E-01
       -2   -1    0    0    0  501  0.00000000000E+00  0.00000000000E+00  0.72272731779E+03  0.72272731780E+03  0.25500000920E-02 0. -1.
        2   -1    0    0  501    0  0.00000000000E+00  0.00000000000E+00 -0.21681362223E+04  0.21681362223E+04  0.25500000920E-02 0.  1.
    10030    2    1    2    0    0  0.00000000000E+00  0.00000000000E+00 -0.14454089045E+04  0.28908635401E+04  0.25035744659E+04 0.  0.
        3    1    3    3  502    0 -0.23113035670E+03 -0.12287136470E+04 -0.65140454085E+03  0.14097823783E+04  0.10100000352E+00 0.  1.
       -3    1    3    3    0  502  0.23113035670E+03  0.12287136470E+04 -0.79400436364E+03  0.14810811618E+04  0.10100000352E+00 0. -1.
</event>
<event>
 5   0  0.3650620E-05  0.2568957E+04  0.7818609E-02  0.8378823E-01
       -2   -1    0    0    0  501  0.00000000000E+00  0.00000000000E+00  0.65294558446E+03  0.65294558446E+03  0.25500000920E-02 0. -1.
        2   -1    0    0  501    0  0.00000000000E+00  0.00000000000E+00 -0.25268347181E+04  0.25268347181E+04  0.25500000920E-02 0.  1.
    10030    2    1    2    0    0  0.00000000000E+00  0.00000000000E+00 -0.18738891336E+04  0.31797803025E+04  0.25689574320E+04 0.  0.
        3    1    3    3  502    0 -0.12063560301E+04  0.23672306055E+03 -0.13976761562E+04  0.18614057394E+04  0.10100000352E+00 0.  1.
       -3    1    3    3    0  502  0.12063560301E+04 -0.23672306055E+03 -0.47621297740E+03  0.13183745632E+04  0.10100000352E+00 0. -1.
</event>
<event>
 5   0  0.3650620E-05  0.2471506E+04  0.7818609E-02  0.8413207E-01
       -2   -1    0    0    0  501  0.00000000000E+00  0.00000000000E+00  0.12769578165E+04  0.12769578165E+04  0.25500000920E-02 0.  1.
        2   -1    0    0  501    0  0.00000000000E+00  0.00000000000E+00 -0.11958780360E+04  0.11958780360E+04  0.25500000920E-02 0. -1.
    10030    2    1    2    0    0  0.00000000000E+00  0.00000000000E+00  0.81079780476E+02  0.24728358525E+04  0.24715062659E+04 0.  0.
        3    1    3    3  502    0  0.38263693904E+03  0.11748754400E+04  0.22024019839E+02  0.12358108246E+04  0.10100000352E+00 0.  1.
       -3    1    3    3    0  502 -0.38263693904E+03 -0.11748754400E+04  0.59055760637E+02  0.12370250279E+04  0.10100000352E+00 0. -1.
</event>
<event>
 5   0  0.1429483E-05  0.2498137E+04  0.7818609E-02  0.8403650E-01
       -1   -1    0    0    0  501  0.00000000000E+00  0.00000000000E+00  0.14720878102E+04  0.14720878102E+04  0.50400001928E-02 0. -1.
        1   -1    0    0  501    0  0.00000000000E+00  0.00000000000E+00 -0.10598363465E+04  0.10598363465E+04  0.50400001928E-02 0.  1.
    10030    2    1    2    0    0  0.00000000000E+00  0.00000000000E+00  0.41225146376E+03  0.25319241567E+04  0.24981370390E+04 0.  0.
        2    1    3    3  502    0 -0.49118868205E+03  0.11345965089E+04  0.25967272982E+02  0.12366284239E+04  0.25500000920E-02 0.  1.
       -2    1    3    3    0  502  0.49118868205E+03 -0.11345965089E+04  0.38628419077E+03  0.12952957328E+04  0.25500000920E-02 0. -1.
</event>
<event>
 5   0  0.3579097E-05  0.2317909E+04  0.7818609E-02  0.8470893E-01
        2   -1    0    0  501    0  0.00000000000E+00  0.00000000000E+00  0.13077558541E+04  0.13077558542E+04  0.25500000920E-02 0.  1.
       -2   -1    0    0    0  501  0.00000000000E+00  0.00000000000E+00 -0.10270841270E+04  0.10270841270E+04  0.25500000920E-02 0. -1.
    10030    2    1    2    0    0  0.00000000000E+00  0.00000000000E+00  0.28067172718E+03  0.23348399811E+04  0.23179087814E+04 0.  0.
        5    1    3    3  502    0 -0.23004125521E+03  0.67903918203E+03 -0.77688666708E+03  0.10571604293E+04  0.46999998093E+01 0. -1.
       -5    1    3    3    0  502  0.23004125521E+03 -0.67903918203E+03  0.10575583943E+04  0.12776795518E+04  0.46999998093E+01 0.  1.
</event>
<event>
 5   0  0.3579097E-05  0.2523474E+04  0.7818609E-02  0.8394670E-01
        2   -1    0    0  501    0  0.00000000000E+00  0.00000000000E+00  0.69663679962E+03  0.69663679963E+03  0.25500000920E-02 0.  1.
       -2   -1    0    0    0  501  0.00000000000E+00  0.00000000000E+00 -0.22852368408E+04  0.22852368408E+04  0.25500000920E-02 0. -1.
    10030    2    1    2    0    0  0.00000000000E+00  0.00000000000E+00 -0.15886000412E+04  0.29818736404E+04  0.25234738589E+04 0.  0.
        5    1    3    3  502    0 -0.91666247145E+03  0.81215793170E+03 -0.43571633779E+03  0.12999005384E+04  0.46999998093E+01 0. -1.
       -5    1    3    3    0  502  0.91666247145E+03 -0.81215793170E+03 -0.11528837034E+04  0.16819731021E+04  0.46999998093E+01 0.  1.
</event>
<event>
 5   0  0.3578670E-05  0.2521675E+04  0.7818609E-02  0.8395304E-01
       -2   -1    0    0    0  501  0.00000000000E+00  0.00000000000E+00  0.15777011907E+04  0.15777011907E+04  0.25500000920E-02 0. -1.
        2   -1    0    0  501    0  0.00000000000E+00  0.00000000000E+00 -0.10076121719E+04  0.10076121719E+04  0.25500000920E-02 0.  1.
    10030    2    1    2    0    0  0.00000000000E+00  0.00000000000E+00  0.57008901878E+03  0.25853133626E+04  0.25216747795E+04 0.  0.
        4    1    3    3  502    0  0.44183811185E+03  0.46914544686E+03  0.13960864738E+04  0.15376532192E+04  0.12699999809E+01 0. -1.
       -4    1    3    3    0  502 -0.44183811185E+03 -0.46914544686E+03 -0.82599745501E+03  0.10476601434E+04  0.12699999809E+01 0.  1.
</event>
<event>
 5   0  0.3578670E-05  0.2522903E+04  0.7818609E-02  0.8394871E-01
       -2   -1    0    0    0  501  0.00000000000E+00  0.00000000000E+00  0.13603963177E+04  0.13603963177E+04  0.25500000920E-02 0.  1.
        2   -1    0    0  501    0  0.00000000000E+00  0.00000000000E+00 -0.11697035730E+04  0.11697035730E+04  0.25500000920E-02 0. -1.
    10030    2    1    2    0    0  0.00000000000E+00  0.00000000000E+00  0.19069274466E+03  0.25300998908E+04  0.25229034334E+04 0.  0.
        4    1    3    3  502    0  0.86269152218E+03 -0.90552283445E+03 -0.69593299592E+02  0.12526184999E+04  0.12699999809E+01 0. -1.
       -4    1    3    3    0  502 -0.86269152218E+03  0.90552283445E+03  0.26028604426E+03  0.12774813908E+04  0.12699999809E+01 0.  1.
</event>
<event>
 5   0  0.1502886E-05  0.2427954E+04  0.7818609E-02  0.8429112E-01
        1   -1    0    0  501    0  0.00000000000E+00  0.00000000000E+00  0.14088902685E+04  0.14088902685E+04  0.50400001928E-02 0.  1.
       -1   -1    0    0    0  501  0.00000000000E+00  0.00000000000E+00 -0.10460291498E+04  0.10460291498E+04  0.50400001928E-02 0. -1.
    10030    2    1    2    0    0  0.00000000000E+00  0.00000000000E+00  0.36286111872E+03  0.24549194183E+04  0.24279541097E+04 0.  0.
        4    1    3    3  502    0 -0.58265211851E+03 -0.86756439074E+03  0.80601861404E+03  0.13197799371E+04  0.12699999809E+01 0.  1.
       -4    1    3    3    0  502  0.58265211851E+03  0.86756439074E+03 -0.44315749532E+03  0.11351394812E+04  0.12699999809E+01 0. -1.
</event>
<event>
 5   0  0.3650620E-05  0.2473262E+04  0.7818609E-02  0.8412574E-01
       -2   -1    0    0    0  501  0.00000000000E+00  0.00000000000E+00  0.11142331977E+04  0.11142331977E+04  0.25500000920E-02 0. -1.
        2   -1    0    0  501    0  0.00000000000E+00  0.00000000000E+00 -0.13724736274E+04  0.13724736274E+04  0.25500000920E-02 0.  1.
    10030    2    1    2    0    0  0.00000000000E+00  0.00000000000E+00 -0.25824042967E+03  0.24867068252E+04  0.24732615541E+04 0.  0.
        3    1    3    3  502    0  0.15822897250E+03 -0.12226366627E+04 -0.22649115823E+03  0.12534652255E+04  0.10100000352E+00 0.  1.
       -3    1    3    3    0  502 -0.15822897250E+03  0.12226366627E+04 -0.31749271434E+02  0.12332415996E+04  0.10100000352E+00 0. -1.
</event>
<event>
 5   0  0.1502886E-05  0.2514914E+04  0.7818609E-02  0.8397691E-01
       -1   -1    0    0    0  501  0.00000000000E+00  0.00000000000E+00  0.80431963863E+03  0.80431963865E+03  0.50400001928E-02 0. -1.
        1   -1    0    0  501    0  0.00000000000E+00  0.00000000000E+00 -0.19658835261E+04  0.19658835261E+04  0.50400001928E-02 0.  1.
    10030    2    1    2    0    0  0.00000000000E+00  0.00000000000E+00 -0.11615638874E+04  0.27702031647E+04  0.25149144934E+04 0.  0.
        4    1    3    3  502    0 -0.11924732234E+04 -0.36139450287E+03 -0.39450382576E+03  0.13069939773E+04  0.12699999809E+01 0.  1.
       -4    1    3    3    0  502  0.11924732234E+04  0.36139450287E+03 -0.76706006167E+03  0.14632091875E+04  0.12699999809E+01 0. -1.
</event>
<event>
 5   0  0.3581449E-05  0.2578712E+04  0.7818609E-02  0.8375468E-01
       -2   -1    0    0    0  501  0.00000000000E+00  0.00000000000E+00  0.13768599622E+04  0.13768599622E+04  0.25500000920E-02 0.  1.
        2   -1    0    0  501    0  0.00000000000E+00  0.00000000000E+00 -0.12074132867E+04  0.12074132867E+04  0.25500000920E-02 0. -1.
    10030    2    1    2    0    0  0.00000000000E+00  0.00000000000E+00  0.16944667559E+03  0.25842732489E+04  0.25787120912E+04 0.  0.
        1    1    3    3  502    0  0.11770183115E+04 -0.18828204355E+03  0.57732868339E+03  0.13244359714E+04  0.50400001928E-02 0.  1.
       -1    1    3    3    0  502 -0.11770183115E+04  0.18828204355E+03 -0.40788200781E+03  0.12598372775E+04  0.50400001928E-02 0. -1.
</event>
<event>
 5   0  0.3704241E-05  0.2408261E+04  0.7818609E-02  0.8436417E-01
        2   -1    0    0  501    0  0.00000000000E+00  0.00000000000E+00  0.12466489931E+04  0.12466489931E+04  0.25500000920E-02 0.  1.
       -2   -1    0    0    0  501  0.00000000000E+00  0.00000000000E+00 -0.11630622936E+04  0.11630622936E+04  0.25500000920E-02 0. -1.
    10030    2    1    2    0    0  0.00000000000E+00  0.00000000000E+00  0.83586699457E+02  0.24097112868E+04  0.24082611464E+04 0.  0.
        2    1    3    3  502    0 -0.45883729673E+03  0.10924262161E+04  0.25640731484E+03  0.12123000510E+04  0.25500000920E-02 0. -1.
       -2    1    3    3    0  502  0.45883729673E+03 -0.10924262161E+04 -0.17282061538E+03  0.11974112358E+04  0.25500000920E-02 0.  1.
</event>
<event>
 5   0  0.1456876E-05  0.2455997E+04  0.7818609E-02  0.8418832E-01
        1   -1    0    0  501    0  0.00000000000E+00  0.00000000000E+00  0.14949360566E+04  0.14949360566E+04  0.50400001928E-02 0. -1.
       -1   -1    0    0    0  501  0.00000000000E+00  0.00000000000E+00 -0.10087256852E+04  0.10087256852E+04  0.50400001928E-02 0.  1.
    10030    2    1    2    0    0  0.00000000000E+00  0.00000000000E+00  0.48621037140E+03  0.25036617419E+04  0.24559970669E+04 0.  0.
        1    1    3    3  502    0 -0.13216081776E+03 -0.34756790163E+03 -0.94995457170E+03  0.10201390181E+04  0.50400001928E-02 0.  1.
       -1    1    3    3    0  502  0.13216081776E+03  0.34756790163E+03  0.14361649431E+04  0.14835227237E+04  0.50400001928E-02 0. -1.
</event>
<event>
 5   0  0.1429483E-05  0.2470702E+04  0.7818609E-02  0.8413498E-01
        1   -1    0    0  501    0  0.00000000000E+00  0.00000000000E+00  0.47086787398E+03  0.47086787401E+03  0.50400001928E-02 0.  1.
       -1   -1    0    0    0  501  0.00000000000E+00  0.00000000000E+00 -0.32410193477E+04  0.32410193477E+04  0.50400001928E-02 0. -1.
    10030    2    1    2    0    0  0.00000000000E+00  0.00000000000E+00 -0.27701514738E+04  0.37118872217E+04  0.24707018354E+04 0.  0.
        2    1    3    3  502    0 -0.12116269475E+04  0.23637632352E+03 -0.13149577162E+04  0.18036150980E+04  0.25500000920E-02 0.  1.
       -2    1    3    3    0  502  0.12116269475E+04 -0.23637632352E+03 -0.14551937576E+04  0.19082721238E+04  0.25500000920E-02 0. -1.
</event>
<event>
 5   0  0.3578670E-05  0.2466606E+04  0.7818609E-02  0.8414980E-01
       -2   -1    0    0    0  501  0.00000000000E+00  0.00000000000E+00  0.12300201198E+04  0.12300201198E+04  0.25500000920E-02 0.  1.
        2   -1    0    0  501    0  0.00000000000E+00  0.00000000000E+00 -0.12365949093E+04  0.12365949093E+04  0.25500000920E-02 0. -1.
    10030    2    1    2    0    0  0.00000000000E+00  0.00000000000E+00 -0.65747895052E+01  0.24666150291E+04  0.24666062665E+04 0.  0.
        4    1    3    3  502    0 -0.20678436327E+03  0.96613856409E+03 -0.74143059148E+03  0.12352750434E+04  0.12699999809E+01 0. -1.
       -4    1    3    3    0  502  0.20678436327E+03 -0.96613856409E+03  0.73485580197E+03  0.12313399858E+04  0.12699999809E+01 0.  1.
</event>
<event>
 5   0  0.3578670E-05  0.2533128E+04  0.7818609E-02  0.8391278E-01
        2   -1    0    0  501    0  0.00000000000E+00  0.00000000000E+00  0.15761872855E+04  0.15761872855E+04  0.25500000920E-02 0.  1.
       -2   -1    0    0    0  501  0.00000000000E+00  0.00000000000E+00 -0.10177628670E+04  0.10177628670E+04  0.25500000920E-02 0. -1.
    10030    2    1    2    0    0  0.00000000000E+00  0.00000000000E+00  0.55842441852E+03  0.25939501525E+04  0.25331284141E+04 0.  0.
        4    1    3    3  502    0 -0.51059540661E+03  0.42643982726E+03 -0.82445295619E+03  0.10593785374E+04  0.12699999809E+01 0. -1.
       -4    1    3    3    0  502  0.51059540661E+03 -0.42643982726E+03  0.13828773747E+04  0.15345716151E+04  0.12699999809E+01 0.  1.
</event>
<event>
 5   0  0.1502886E-05  0.2500149E+04  0.7818609E-02  0.8402933E-01
        1   -1    0    0  501    0  0.00000000000E+00  0.00000000000E+00  0.84751645253E+03  0.84751645254E+03  0.50400001928E-02 0. -1.
       -1   -1    0    0    0  501  0.00000000000E+00  0.00000000000E+00 -0.18438412826E+04  0.18438412826E+04  0.50400001928E-02 0.  1.
    10030    2    1    2    0    0  0.00000000000E+00  0.00000000000E+00 -0.99632483005E+03  0.26913577351E+04  0.25001486539E+04 0.  0.
        4    1    3    3  502    0 -0.10645120788E+04  0.62278099357E+03 -0.27849188734E+03  0.12643581281E+04  0.12699999809E+01 0. -1.
       -4    1    3    3    0  502  0.10645120788E+04 -0.62278099357E+03 -0.71783294270E+03  0.14269996070E+04  0.12699999809E+01 0.  1.
</event>
<event>
 5   0  0.1429483E-05  0.2478539E+04  0.7818609E-02  0.8410671E-01
        1   -1    0    0  501    0  0.00000000000E+00  0.00000000000E+00  0.21563827544E+04  0.21563827544E+04  0.50400001928E-02 0.  1.
       -1   -1    0    0    0  501  0.00000000000E+00  0.00000000000E+00 -0.71220627012E+03  0.71220627013E+03  0.50400001928E-02 0. -1.
    10030    2    1    2    0    0  0.00000000000E+00  0.00000000000E+00  0.14441764842E+04  0.28685890245E+04  0.24785393428E+04 0.  0.
        2    1    3    3  502    0  0.11488009790E+04 -0.35097183793E+03  0.10747814851E+04  0.16118561230E+04  0.25500000920E-02 0.  1.
       -2    1    3    3    0  502 -0.11488009790E+04  0.35097183793E+03  0.36939499915E+03  0.12567329015E+04  0.25500000920E-02 0. -1.
</event>
<event>
 5   0  0.3579097E-05  0.2499331E+04  0.7818609E-02  0.8403224E-01
       -2   -1    0    0    0  501  0.00000000000E+00  0.00000000000E+00  0.96853304113E+03  0.96853304113E+03  0.25500000920E-02 0.  1.
        2   -1    0    0  501    0  0.00000000000E+00  0.00000000000E+00 -0.16124010756E+04  0.16124010756E+04  0.25500000920E-02 0. -1.
    10030    2    1    2    0    0  0.00000000000E+00  0.00000000000E+00 -0.64386803450E+03  0.25809341168E+04  0.24993308843E+04 0.  0.
        5    1    3    3  502    0 -0.90677808596E+03  0.52857179650E+03  0.37844862825E+03  0.11157419484E+04  0.46999998093E+01 0.  1.
       -5    1    3    3    0  502  0.90677808596E+03 -0.52857179650E+03 -0.10223166628E+04  0.14651921683E+04  0.46999998093E+01 0. -1.
</event>
<event>
 5   0  0.1429483E-05  0.2503879E+04  0.7818609E-02  0.8401605E-01
        1   -1    0    0  501    0  0.00000000000E+00  0.00000000000E+00  0.13282810967E+04  0.13282810967E+04  0.50400001928E-02 0.  1.
       -1   -1    0    0    0  501  0.00000000000E+00  0.00000000000E+00 -0.11799854369E+04  0.11799854369E+04  0.50400001928E-02 0. -1.
    10030    2    1    2    0    0  0.00000000000E+00  0.00000000000E+00  0.14829565978E+03  0.25082665336E+04  0.25038788710E+04 0.  0.
        2    1    3    3  502    0  0.87498960901E+03  0.77615425153E+03  0.52139419929E+03  0.12805757100E+04  0.25500000920E-02 0. -1.
       -2    1    3    3    0  502 -0.87498960901E+03 -0.77615425153E+03 -0.37309853951E+03  0.12276908236E+04  0.25500000920E-02 0.  1.
</event>
<event>
 5   0  0.1492639E-05  0.2524330E+04  0.7818609E-02  0.8394369E-01
       -1   -1    0    0    0  501  0.00000000000E+00  0.00000000000E+00  0.10185184331E+04  0.10185184331E+04  0.50400001928E-02 0. -1.
        1   -1    0    0  501    0  0.00000000000E+00  0.00000000000E+00 -0.15640963800E+04  0.15640963800E+04  0.50400001928E-02 0.  1.
    10030    2    1    2    0    0  0.00000000000E+00  0.00000000000E+00 -0.54557794684E+03  0.25826148131E+04  0.25243304017E+04 0.  0.
        5    1    3    3  502    0  0.16412820180E+03  0.79711991346E+03 -0.12597919351E+04  0.14998119991E+04  0.46999998093E+01 0.  1.
       -5    1    3    3    0  502 -0.16412820180E+03 -0.79711991346E+03  0.71421398821E+03  0.10828028140E+04  0.46999998093E+01 0. -1.
</event>
<event>
 5   0  0.3704241E-05  0.2907730E+04  0.7818609E-02  0.8270581E-01
        2   -1    0    0  501    0  0.00000000000E+00  0.00000000000E+00  0.22656481592E+04  0.22656481592E+04  0.25500000920E-02 0.  1.
       -2   -1    0    0    0  501  0.00000000000E+00  0.00000000000E+00 -0.93294432394E+03  0.93294432394E+03  0.25500000920E-02 0. -1.
    10030    2    1    2    0    0  0.00000000000E+00  0.00000000000E+00  0.13327038353E+04  0.31985924831E+04  0.29077301045E+04 0.  0.
        2    1    3    3  502    0 -0.65736992306E+03  0.98461622599E+03 -0.26193276849E+03  0.12125234445E+04  0.25500000920E-02 0. -1.
       -2    1    3    3    0  502  0.65736992306E+03 -0.98461622599E+03  0.15946366037E+04  0.19860690386E+04  0.25500000920E-02 0.  1.
</event>
<event>
 5   0  0.1502886E-05  0.2198158E+04  0.7818609E-02  0.8519195E-01
       -1   -1    0    0    0  501  0.00000000000E+00  0.00000000000E+00  0.66111050691E+03  0.66111050693E+03  0.50400001928E-02 0.  1.
        1   -1    0    0  501    0  0.00000000000E+00  0.00000000000E+00 -0.18271897745E+04  0.18271897745E+04  0.50400001928E-02 0. -1.
    10030    2    1    2    0    0  0.00000000000E+00  0.00000000000E+00 -0.11660792675E+04  0.24883002814E+04  0.21981577360E+04 0.  0.
        4    1    3    3  502    0  0.44410897087E+03  0.41178663023E+03  0.45517290978E+03  0.75761797599E+03  0.12699999809E+01 0.  1.
       -4    1    3    3    0  502 -0.44410897087E+03 -0.41178663023E+03 -0.16212521773E+04  0.17306823054E+04  0.12699999809E+01 0. -1.
</event>
<event>
 5   0  0.3650620E-05  0.2517786E+04  0.7818609E-02  0.8396676E-01
        2   -1    0    0  501    0  0.00000000000E+00  0.00000000000E+00  0.22766028834E+04  0.22766028834E+04  0.25500000920E-02 0.  1.
       -2   -1    0    0    0  501  0.00000000000E+00  0.00000000000E+00 -0.69613016921E+03  0.69613016921E+03  0.25500000920E-02 0. -1.
    10030    2    1    2    0    0  0.00000000000E+00  0.00000000000E+00  0.15804727142E+04  0.29727330526E+04  0.25177862900E+04 0.  0.
        3    1    3    3  502    0  0.14297953247E+03  0.46582517639E+03 -0.58027109895E+03  0.75772739170E+03  0.10100000352E+00 0. -1.
       -3    1    3    3    0  502 -0.14297953247E+03 -0.46582517639E+03  0.21607438132E+04  0.22150056609E+04  0.10100000352E+00 0.  1.
</event>
<event>
 5   0  0.1429483E-05  0.2510674E+04  0.7818609E-02  0.8399193E-01
        1   -1    0    0  501    0  0.00000000000E+00  0.00000000000E+00  0.15690774791E+04  0.15690774791E+04  0.50400001928E-02 0.  1.
       -1   -1    0    0    0  501  0.00000000000E+00  0.00000000000E+00 -0.10043296785E+04  0.10043296786E+04  0.50400001928E-02 0. -1.
    10030    2    1    2    0    0  0.00000000000E+00  0.00000000000E+00  0.56474780057E+03  0.25734071577E+04  0.25106740770E+04 0.  0.
        2    1    3    3  502    0 -0.35957590214E+03  0.50773942087E+03  0.13999274710E+04  0.15319566159E+04  0.25500000920E-02 0.  1.
       -2    1    3    3    0  502  0.35957590214E+03 -0.50773942087E+03 -0.83517967047E+03  0.10414505417E+04  0.25500000920E-02 0. -1.
</event>
<event>
 5   0  0.3704241E-05  0.2501603E+04  0.7818609E-02  0.8402415E-01
        2   -1    0    0  501    0  0.00000000000E+00  0.00000000000E+00  0.16275722029E+04  0.16275722029E+04  0.25500000920E-02 0.  1.
       -2   -1    0    0    0  501  0.00000000000E+00  0.00000000000E+00 -0.96125017595E+03  0.96125017596E+03  0.25500000920E-02 0. -1.
    10030    2    1    2    0    0  0.00000000000E+00  0.00000000000E+00  0.66632202693E+03  0.25888223788E+04  0.25016027394E+04 0.  0.
        2    1    3    3  502    0 -0.10442267281E+04 -0.44032205644E+03  0.88096674613E+03  0.14354077403E+04  0.25500000920E-02 0.  1.
       -2    1    3    3    0  502  0.10442267281E+04  0.44032205644E+03 -0.21464471919E+03  0.11534146386E+04  0.25500000920E-02 0. -1.
</event>
<event>
 5   0  0.1421242E-05  0.2499848E+04  0.7818609E-02  0.8403040E-01
       -1   -1    0    0    0  501  0.00000000000E+00  0.00000000000E+00  0.13736761921E+04  0.13736761921E+04  0.50400001928E-02 0.  1.
        1   -1    0    0  501    0  0.00000000000E+00  0.00000000000E+00 -0.11373201282E+04  0.11373201282E+04  0.50400001928E-02 0. -1.
    10030    2    1    2    0    0  0.00000000000E+00  0.00000000000E+00  0.23635606385E+03  0.25109963203E+04  0.24998476617E+04 0.  0.
        3    1    3    3  502    0  0.16808437560E+03 -0.12383805515E+04  0.96382756578E+02  0.12534466058E+04  0.10100000352E+00 0.  1.
       -3    1    3    3    0  502 -0.16808437560E+03  0.12383805515E+04  0.13997330727E+03  0.12575497145E+04  0.10100000352E+00 0. -1.
</event>
<event>
 5   0  0.3704241E-05  0.2323584E+04  0.7818609E-02  0.8468680E-01
        2   -1    0    0  501    0  0.00000000000E+00  0.00000000000E+00  0.13792057788E+04  0.13792057788E+04  0.25500000920E-02 0. -1.
       -2   -1    0    0    0  501  0.00000000000E+00  0.00000000000E+00 -0.97865061790E+03  0.97865061790E+03  0.25500000920E-02 0.  1.
    10030    2    1    2    0    0  0.00000000000E+00  0.00000000000E+00  0.40055516092E+03  0.23578563967E+04  0.23235839452E+04 0.  0.
        2    1    3    3  502    0 -0.12638899147E+03 -0.73590377396E+03  0.11034801969E+04  0.13323652227E+04  0.25500000920E-02 0. -1.
       -2    1    3    3    0  502  0.12638899147E+03  0.73590377396E+03 -0.70292503601E+03  0.10254911740E+04  0.25500000920E-02 0.  1.
</event>
<event>
 5   0  0.1492639E-05  0.2397568E+04  0.7818609E-02  0.8440415E-01
       -1   -1    0    0    0  501  0.00000000000E+00  0.00000000000E+00  0.16826348903E+04  0.16826348903E+04  0.50400001928E-02 0. -1.
        1   -1    0    0  501    0  0.00000000000E+00  0.00000000000E+00 -0.85406691222E+03  0.85406691224E+03  0.50400001928E-02 0.  1.
    10030    2    1    2    0    0  0.00000000000E+00  0.00000000000E+00  0.82856797806E+03  0.25367018025E+04  0.23975677552E+04 0.  0.
        5    1    3    3  502    0 -0.30338513871E+03  0.34936919249E+03 -0.75576631531E+03  0.88617503261E+03  0.46999998093E+01 0.  1.
       -5    1    3    3    0  502  0.30338513871E+03 -0.34936919249E+03  0.15843342934E+04  0.16505267699E+04  0.46999998093E+01 0. -1.
</event>
<event>
 5   0  0.1502886E-05  0.2526835E+04  0.7818609E-02  0.8393488E-01
        1   -1    0    0  501    0  0.00000000000E+00  0.00000000000E+00  0.15009799321E+04  0.15009799321E+04  0.50400001928E-02 0.  1.
       -1   -1    0    0    0  501  0.00000000000E+00  0.00000000000E+00 -0.10634540561E+04  0.10634540561E+04  0.50400001928E-02 0. -1.
    10030    2    1    2    0    0  0.00000000000E+00  0.00000000000E+00  0.43752587609E+03  0.25644339882E+04  0.25268345390E+04 0.  0.
        4    1    3    3  502    0  0.77182789380E+01  0.10026236002E+03  0.14969113916E+04  0.15002857861E+04  0.12699999809E+01 0.  1.
       -4    1    3    3    0  502 -0.77182789380E+01 -0.10026236002E+03 -0.10593855155E+04  0.10641482021E+04  0.12699999809E+01 0. -1.
</event>
<event>
 5   0  0.3650620E-05  0.2486526E+04  0.7818609E-02  0.8407801E-01
        2   -1    0    0  501    0  0.00000000000E+00  0.00000000000E+00  0.14518958486E+04  0.14518958486E+04  0.25500000920E-02 0.  1.
       -2   -1    0    0    0  501  0.00000000000E+00  0.00000000000E+00 -0.10646102470E+04  0.10646102470E+04  0.25500000920E-02 0. -1.
    10030    2    1    2    0    0  0.00000000000E+00  0.00000000000E+00  0.38728560161E+03  0.25165060957E+04  0.24865262501E+04 0.  0.
        3    1    3    3  502    0 -0.77502516871E+03 -0.35007445256E+03 -0.72420246791E+03  0.11169983703E+04  0.10100000352E+00 0. -1.
       -3    1    3    3    0  502  0.77502516871E+03  0.35007445256E+03  0.11114880695E+04  0.13995077254E+04  0.10100000352E+00 0.  1.
</event>
<event>
 5   0  0.1421242E-05  0.2468188E+04  0.7818609E-02  0.8414407E-01
       -1   -1    0    0    0  501  0.00000000000E+00  0.00000000000E+00  0.15392232638E+04  0.15392232638E+04  0.50400001928E-02 0. -1.
        1   -1    0    0  501    0  0.00000000000E+00  0.00000000000E+00 -0.98945254590E+03  0.98945254592E+03  0.50400001928E-02 0.  1.
    10030    2    1    2    0    0  0.00000000000E+00  0.00000000000E+00  0.54977071785E+03  0.25286758097E+04  0.24681883049E+04 0.  0.
        3    1    3    3  502    0  0.21455203191E+03 -0.59217632140E+03  0.13621584196E+04  0.15007268040E+04  0.10100000352E+00 0. -1.
       -3    1    3    3    0  502 -0.21455203191E+03  0.59217632140E+03 -0.81238770176E+03  0.10279490056E+04  0.10100000352E+00 0.  1.
</event>
<event>
 5   0  0.1429483E-05  0.2533452E+04  0.7818609E-02  0.8391164E-01
        1   -1    0    0  501    0  0.00000000000E+00  0.00000000000E+00  0.20916506244E+04  0.20916506244E+04  0.50400001928E-02 0. -1.
       -1   -1    0    0    0  501  0.00000000000E+00  0.00000000000E+00 -0.76714287629E+03  0.76714287631E+03  0.50400001928E-02 0.  1.
    10030    2    1    2    0    0  0.00000000000E+00  0.00000000000E+00  0.13245077481E+04  0.28587935007E+04  0.25334520925E+04 0.  0.
        2    1    3    3  502    0  0.11332572590E+04  0.55329657573E+03  0.52785476144E+03  0.13671282913E+04  0.25500000920E-02 0.  1.
       -2    1    3    3    0  502 -0.11332572590E+04 -0.55329657573E+03  0.79665298670E+03  0.14916652094E+04  0.25500000920E-02 0. -1.
</event>
<event>
 5   0  0.1429483E-05  0.1957807E+04  0.7818609E-02  0.8626605E-01
       -1   -1    0    0    0  501  0.00000000000E+00  0.00000000000E+00  0.13615586314E+04  0.13615586314E+04  0.50400001928E-02 0.  1.
        1   -1    0    0  501    0  0.00000000000E+00  0.00000000000E+00 -0.70379065171E+03  0.70379065172E+03  0.50400001928E-02 0. -1.
    10030    2    1    2    0    0  0.00000000000E+00  0.00000000000E+00  0.65776797966E+03  0.20653492831E+04  0.19578071780E+04 0.  0.
        2    1    3    3  502    0  0.89780735808E+03 -0.24225880318E+03  0.65146639524E+03  0.11354099894E+04  0.25500000920E-02 0.  1.
       -2    1    3    3    0  502 -0.89780735808E+03  0.24225880318E+03  0.63015844155E+01  0.92993929367E+03  0.25500000920E-02 0. -1.
</event>
<event>
 5   0  0.3578670E-05  0.2506708E+04  0.7818609E-02  0.8400600E-01
        2   -1    0    0  501    0  0.00000000000E+00  0.00000000000E+00  0.13171032198E+04  0.13171032198E+04  0.25500000920E-02 0. -1.
       -2   -1    0    0    0  501  0.00000000000E+00  0.00000000000E+00 -0.11926905972E+04  0.11926905972E+04  0.25500000920E-02 0.  1.
    10030    2    1    2    0    0  0.00000000000E+00  0.00000000000E+00  0.12441262266E+03  0.25097938170E+04  0.25067083004E+04 0.  0.
        4    1    3    3  502    0 -0.93331941327E+03 -0.73958021275E+03  0.45362356528E+03  0.12742997960E+04  0.12699999809E+01 0. -1.
       -4    1    3    3    0  502  0.93331941327E+03  0.73958021275E+03 -0.32921094262E+03  0.12354940210E+04  0.12699999809E+01 0.  1.
</event>
<event>
 5   0  0.1456876E-05  0.2458920E+04  0.7818609E-02  0.8417768E-01
       -1   -1    0    0    0  501  0.00000000000E+00  0.00000000000E+00  0.67584895052E+03  0.67584895054E+03  0.50400001928E-02 0. -1.
        1   -1    0    0  501    0  0.00000000000E+00  0.00000000000E+00 -0.22365531742E+04  0.22365531742E+04  0.50400001928E-02 0.  1.
    10030    2    1    2    0    0  0.00000000000E+00  0.00000000000E+00 -0.15607042236E+04  0.29124021247E+04  0.24589201822E+04 0.  0.
        1    1    3    3  502    0 -0.12131728967E+04 -0.15656804205E+03 -0.92671388340E+03  0.15346337187E+04  0.50400001928E-02 0.  1.
       -1    1    3    3    0  502  0.12131728967E+04  0.15656804205E+03 -0.63399034024E+03  0.13777684060E+04  0.50400001928E-02 0. -1.
</event>
<event>
 5   0  0.1456876E-05  0.2537732E+04  0.7818609E-02  0.8389665E-01
        1   -1    0    0  501    0  0.00000000000E+00  0.00000000000E+00  0.22634680578E+04  0.22634680578E+04  0.50400001928E-02 0. -1.
       -1   -1    0    0    0  501  0.00000000000E+00  0.00000000000E+00 -0.71130696823E+03  0.71130696824E+03  0.50400001928E-02 0.  1.
    10030    2    1    2    0    0  0.00000000000E+00  0.00000000000E+00  0.15521610896E+04  0.29747750261E+04  0.25377317446E+04 0.  0.
        1    1    3    3  502    0 -0.12632348471E+04 -0.19103379687E+02  0.91425012302E+03  0.15594808449E+04  0.50400001928E-02 0.  1.
       -1    1    3    3    0  502  0.12632348471E+04  0.19103379687E+02  0.63791096656E+03  0.14152941812E+04  0.50400001928E-02 0. -1.
</event>
<event>
 5   0  0.3579097E-05  0.2452079E+04  0.7818609E-02  0.8420259E-01
        2   -1    0    0  501    0  0.00000000000E+00  0.00000000000E+00  0.98754886779E+03  0.98754886779E+03  0.25500000920E-02 0.  1.
       -2   -1    0    0    0  501  0.00000000000E+00  0.00000000000E+00 -0.15221254166E+04  0.15221254166E+04  0.25500000920E-02 0. -1.
    10030    2    1    2    0    0  0.00000000000E+00  0.00000000000E+00 -0.53457654885E+03  0.25096742844E+04  0.24520793069E+04 0.  0.
        5    1    3    3  502    0 -0.70125914211E+02  0.12090882416E+04 -0.46239402210E+03  0.12963959046E+04  0.46999998093E+01 0.  1.
       -5    1    3    3    0  502  0.70125914211E+02 -0.12090882416E+04 -0.72182526746E+02  0.12132783798E+04  0.46999998093E+01 0. -1.
</event>
<event>
 5   0  0.3581449E-05  0.2542062E+04  0.7818609E-02  0.8388152E-01
        2   -1    0    0  501    0  0.00000000000E+00  0.00000000000E+00  0.13761243872E+04  0.13761243872E+04  0.25500000920E-02 0.  1.
       -2   -1    0    0    0  501  0.00000000000E+00  0.00000000000E+00 -0.11739639381E+04  0.11739639381E+04  0.25500000920E-02 0. -1.
    10030    2    1    2    0    0  0.00000000000E+00  0.00000000000E+00  0.20216044909E+03  0.25500883254E+04  0.25420624737E+04 0.  0.
        1    1    3    3  502    0  0.96262047111E+03  0.80570363066E+03 -0.98857573955E+02  0.12591939214E+04  0.50400001928E-02 0. -1.
       -1    1    3    3    0  502 -0.96262047111E+03 -0.80570363066E+03  0.30101802304E+03  0.12908944039E+04  0.50400001928E-02 0.  1.
</event>
<event>
 5   0  0.3581449E-05  0.2524912E+04  0.7818609E-02  0.8394164E-01
       -2   -1    0    0    0  501  0.00000000000E+00  0.00000000000E+00  0.13157407542E+04  0.13157407542E+04  0.25500000920E-02 0. -1.
        2   -1    0    0  501    0  0.00000000000E+00  0.00000000000E+00 -0.12113295510E+04  0.12113295510E+04  0.25500000920E-02 0.  1.
    10030    2    1    2    0    0  0.00000000000E+00  0.00000000000E+00  0.10441120324E+03  0.25270703052E+04  0.25249124001E+04 0.  0.
        1    1    3    3  502    0 -0.12374473574E+04  0.22289379208E+03 -0.61196362055E+02  0.12588497129E+04  0.50400001928E-02 0. -1.
       -1    1    3    3    0  502  0.12374473574E+04 -0.22289379208E+03  0.16560756529E+03  0.12682205923E+04  0.50400001928E-02 0.  1.
</event>
<event>
 5   0  0.1421242E-05  0.2453407E+04  0.7818609E-02  0.8419775E-01
        1   -1    0    0  501    0  0.00000000000E+00  0.00000000000E+00  0.90515789336E+03  0.90515789337E+03  0.50400001928E-02 0. -1.
       -1   -1    0    0    0  501  0.00000000000E+00  0.00000000000E+00 -0.16624743135E+04  0.16624743135E+04  0.50400001928E-02 0.  1.
    10030    2    1    2    0    0  0.00000000000E+00  0.00000000000E+00 -0.75731642011E+03  0.25676322068E+04  0.24534072205E+04 0.  0.
        3    1    3    3  502    0 -0.85765639630E+03 -0.72016137826E+03 -0.90255921430E+03  0.14383393377E+04  0.10100000352E+00 0.  1.
       -3    1    3    3    0  502  0.85765639630E+03  0.72016137826E+03  0.14524279419E+03  0.11292928691E+04  0.10100000352E+00 0. -1.
</event>
<event>
 5   0  0.3579097E-05  0.2524817E+04  0.7818609E-02  0.8394197E-01
       -2   -1    0    0    0  501  0.00000000000E+00  0.00000000000E+00  0.11789076014E+04  0.11789076014E+04  0.25500000920E-02 0.  1.
        2   -1    0    0  501    0  0.00000000000E+00  0.00000000000E+00 -0.13518232951E+04  0.13518232951E+04  0.25500000920E-02 0. -1.
    10030    2    1    2    0    0  0.00000000000E+00  0.00000000000E+00 -0.17291569370E+03  0.25307308965E+04  0.25248166336E+04 0.  0.
        5    1    3    3  502    0 -0.40918525892E+02  0.11261132678E+04 -0.65686666615E+03  0.13043394209E+04  0.46999998093E+01 0. -1.
       -5    1    3    3    0  502  0.40918525892E+02 -0.11261132678E+04  0.48395097244E+03  0.12263914756E+04  0.46999998093E+01 0.  1.
</event>
<event>
 5   0  0.3704241E-05  0.2427963E+04  0.7818609E-02  0.8429108E-01
       -2   -1    0    0    0  501  0.00000000000E+00  0.00000000000E+00  0.80289678120E+03  0.80289678121E+03  0.25500000920E-02 0. -1.
        2   -1    0    0  501    0  0.00000000000E+00  0.00000000000E+00 -0.18355430825E+04  0.18355430825E+04  0.25500000920E-02 0.  1.
    10030    2    1    2    0    0  0.00000000000E+00  0.00000000000E+00 -0.10326463013E+04  0.26384398637E+04  0.24279634533E+04 0.  0.
        2    1    3    3  502    0 -0.92833146354E+03 -0.23532184778E+02 -0.13660263656E+04  0.16517811906E+04  0.25500000920E-02 0.  1.
       -2    1    3    3    0  502  0.92833146354E+03  0.23532184778E+02  0.33338006436E+03  0.98665867311E+03  0.25500000920E-02 0. -1.
</event>
<event>
 5   0  0.1492639E-05  0.2512041E+04  0.7818609E-02  0.8398708E-01
        1   -1    0    0  501    0  0.00000000000E+00  0.00000000000E+00  0.12111339151E+04  0.12111339151E+04  0.50400001928E-02 0. -1.
       -1   -1    0    0    0  501  0.00000000000E+00  0.00000000000E+00 -0.13025707391E+04  0.13025707391E+04  0.50400001928E-02 0.  1.
    10030    2    1    2    0    0  0.00000000000E+00  0.00000000000E+00 -0.91436823995E+02  0.25137046543E+04  0.25120410817E+04 0.  0.
        5    1    3    3  502    0 -0.44998604169E+03 -0.39389754971E+03  0.10595141828E+04  0.12166491322E+04  0.46999998093E+01 0. -1.
       -5    1    3    3    0  502  0.44998604169E+03  0.39389754971E+03 -0.11509510068E+04  0.12970555221E+04  0.46999998093E+01 0.  1.
</event>
<event>
 5   0  0.3581449E-05  0.2446167E+04  0.7818609E-02  0.8422419E-01
        2   -1    0    0  501    0  0.00000000000E+00  0.00000000000E+00  0.68085992401E+03  0.68085992401E+03  0.25500000920E-02 0. -1.
       -2   -1    0    0    0  501  0.00000000000E+00  0.00000000000E+00 -0.21971227642E+04  0.21971227642E+04  0.25500000920E-02 0.  1.
    10030    2    1    2    0    0  0.00000000000E+00  0.00000000000E+00 -0.15162628402E+04  0.28779826882E+04  0.24461666650E+04 0.  0.
        1    1    3    3  502    0 -0.12138925197E+04 -0.41536723553E+02 -0.58897109061E+03  0.13498693620E+04  0.50400001928E-02 0.  1.
       -1    1    3    3    0  502  0.12138925197E+04  0.41536723553E+02 -0.92729174959E+03  0.15281133262E+04  0.50400001928E-02 0. -1.
</event>
<event>
 5   0  0.3578670E-05  0.2454888E+04  0.7818609E-02  0.8419235E-01
       -2   -1    0    0    0  501  0.00000000000E+00  0.00000000000E+00  0.70688785421E+03  0.70688785422E+03  0.25500000920E-02 0. -1.
        2   -1    0    0  501    0  0.00000000000E+00  0.00000000000E+00 -0.21313409130E+04  0.21313409130E+04  0.25500000920E-02 0.  1.
    10030    2    1    2    0    0  0.00000000000E+00  0.00000000000E+00 -0.14244530588E+04  0.28382287673E+04  0.24548881886E+04 0.  0.
        4    1    3    3  502    0  0.91538407861E+03 -0.42171090293E+03 -0.15222353850E+04  0.18256424286E+04  0.12699999809E+01 0.  1.
       -4    1    3    3    0  502 -0.91538407861E+03  0.42171090293E+03  0.97782326123E+02  0.10125863387E+04  0.12699999809E+01 0. -1.
</event>
<event>
 5   0  0.3581449E-05  0.2252453E+04  0.7818609E-02  0.8496908E-01
        2   -1    0    0  501    0  0.00000000000E+00  0.00000000000E+00  0.14652767212E+04  0.14652767212E+04  0.25500000920E-02 0. -1.
       -2   -1    0    0    0  501  0.00000000000E+00  0.00000000000E+00 -0.86562925294E+03  0.86562925295E+03  0.25500000920E-02 0.  1.
    10030    2    1    2    0    0  0.00000000000E+00  0.00000000000E+00  0.59964746829E+03  0.23309059742E+04  0.22524532346E+04 0.  0.
        1    1    3    3  502    0  0.10825913111E+04 -0.24603500935E+03  0.10389017259E+03  0.11150472369E+04  0.50400001928E-02 0.  1.
       -1    1    3    3    0  502 -0.10825913111E+04  0.24603500935E+03  0.49575729570E+03  0.12158587372E+04  0.50400001928E-02 0. -1.
</event>
<event>
 5   0  0.3704241E-05  0.2502095E+04  0.7818609E-02  0.8402240E-01
       -2   -1    0    0    0  501  0.00000000000E+00  0.00000000000E+00  0.82473130755E+03  0.82473130755E+03  0.25500000920E-02 0.  1.
        2   -1    0    0  501    0  0.00000000000E+00  0.00000000000E+00 -0.18977326758E+04  0.18977326758E+04  0.25500000920E-02 0. -1.
    10030    2    1    2    0    0  0.00000000000E+00  0.00000000000E+00 -0.10730013683E+04  0.27224639834E+04  0.25020947633E+04 0.  0.
        2    1    3    3  502    0  0.19259013778E+03 -0.51722816891E+03  0.68510328791E+03  0.87976272653E+03  0.25500000920E-02 0.  1.
       -2    1    3    3    0  502 -0.19259013778E+03  0.51722816891E+03 -0.17581046562E+04  0.18427012568E+04  0.25500000920E-02 0. -1.
</event>
<event>
 5   0  0.1429483E-05  0.2439891E+04  0.7818609E-02  0.8424718E-01
        1   -1    0    0  501    0  0.00000000000E+00  0.00000000000E+00  0.10777322317E+04  0.10777322317E+04  0.50400001928E-02 0. -1.
       -1   -1    0    0    0  501  0.00000000000E+00  0.00000000000E+00 -0.13809247450E+04  0.13809247450E+04  0.50400001928E-02 0.  1.
    10030    2    1    2    0    0  0.00000000000E+00  0.00000000000E+00 -0.30319251328E+03  0.24586569768E+04  0.24398910691E+04 0.  0.
        2    1    3    3  502    0  0.10692979495E+04  0.45965516217E+03  0.21670923621E+03  0.11839104129E+04  0.25500000920E-02 0. -1.
       -2    1    3    3    0  502 -0.10692979495E+04 -0.45965516217E+03 -0.51990174949E+03  0.12747465638E+04  0.25500000920E-02 0.  1.
</event>
<event>
 5   0  0.1429483E-05  0.2490500E+04  0.7818609E-02  0.8406378E-01
       -1   -1    0    0    0  501  0.00000000000E+00  0.00000000000E+00  0.75511739515E+03  0.75511739517E+03  0.50400001928E-02 0.  1.
        1   -1    0    0  501    0  0.00000000000E+00  0.00000000000E+00 -0.20535192044E+04  0.20535192044E+04  0.50400001928E-02 0. -1.
    10030    2    1    2    0    0  0.00000000000E+00  0.00000000000E+00 -0.12984018092E+04  0.28086365995E+04  0.24905004096E+04 0.  0.
        2    1    3    3  502    0 -0.77163715632E+03 -0.43548839565E+03 -0.16359404403E+04  0.18604771345E+04  0.25500000920E-02 0. -1.
       -2    1    3    3    0  502  0.77163715632E+03  0.43548839565E+03  0.33753863105E+03  0.94815946508E+03  0.25500000920E-02 0.  1.
</event>
<event>
 5   0  0.3581449E-05  0.2489793E+04  0.7818609E-02  0.8406631E-01
       -2   -1    0    0    0  501  0.00000000000E+00  0.00000000000E+00  0.96155857277E+03  0.96155857278E+03  0.25500000920E-02 0.  1.
        2   -1    0    0  501    0  0.00000000000E+00  0.00000000000E+00 -0.16117245590E+04  0.16117245590E+04  0.25500000920E-02 0. -1.
    10030    2    1    2    0    0  0.00000000000E+00  0.00000000000E+00 -0.65016598623E+03  0.25732831318E+04  0.24897932177E+04 0.  0.
        1    1    3    3  502    0  0.40503465120E+03 -0.69149081039E+03 -0.13096850988E+04  0.15354112373E+04  0.50400001928E-02 0. -1.
       -1    1    3    3    0  502 -0.40503465120E+03  0.69149081039E+03  0.65951911257E+03  0.10378718945E+04  0.50400001928E-02 0.  1.
</event>
<event>
 5   0  0.1421242E-05  0.2486839E+04  0.7818609E-02  0.8407689E-01
        1   -1    0    0  501    0  0.00000000000E+00  0.00000000000E+00  0.98957313443E+03  0.98957313445E+03  0.50400001928E-02 0. -1.
       -1   -1    0    0    0  501  0.00000000000E+00  0.00000000000E+00 -0.15623825875E+04  0.15623825875E+04  0.50400001928E-02 0.  1.
    10030    2    1    2    0    0  0.00000000000E+00  0.00000000000E+00 -0.57280945304E+03  0.25519557219E+04  0.24868388241E+04 0.  0.
        3    1    3    3  502    0  0.53535077878E+03 -0.50341186928E+03 -0.13156979962E+04  0.15070120085E+04  0.10100000352E+00 0.  1.
       -3    1    3    3    0  502 -0.53535077878E+03  0.50341186928E+03  0.74288854314E+03  0.10449437134E+04  0.10100000352E+00 0. -1.
</event>
<event>
 5   0  0.1492639E-05  0.2491483E+04  0.7818609E-02  0.8406026E-01
       -1   -1    0    0    0  501  0.00000000000E+00  0.00000000000E+00  0.90902352159E+03  0.90902352160E+03  0.50400001928E-02 0.  1.
        1   -1    0    0  501    0  0.00000000000E+00  0.00000000000E+00 -0.17071862467E+04  0.17071862467E+04  0.50400001928E-02 0. -1.
    10030    2    1    2    0    0  0.00000000000E+00  0.00000000000E+00 -0.79816272508E+03  0.26162097683E+04  0.24914834569E+04 0.  0.
        5    1    3    3  502    0 -0.11944961380E+04  0.29445038629E+03 -0.60465829970E+03  0.13708230386E+04  0.46999998093E+01 0. -1.
       -5    1    3    3    0  502  0.11944961380E+04 -0.29445038629E+03 -0.19350442538E+03  0.12453867297E+04  0.46999998093E+01 0.  1.
</event>
<event>
 5   0  0.3650620E-05  0.2449584E+04  0.7818609E-02  0.8421170E-01
       -2   -1    0    0    0  501  0.00000000000E+00  0.00000000000E+00  0.13807779389E+04  0.13807779389E+04  0.25500000920E-02 0.  1.
        2   -1    0    0  501    0  0.00000000000E+00  0.00000000000E+00 -0.10864279924E+04  0.10864279924E+04  0.25500000920E-02 0. -1.
    10030    2    1    2    0    0  0.00000000000E+00  0.00000000000E+00  0.29434994645E+03  0.24672059313E+04  0.24495842946E+04 0.  0.
        3    1    3    3  502    0 -0.34602482038E+03 -0.10723060676E+04  0.63077724945E+03  0.12912991240E+04  0.10100000352E+00 0.  1.
       -3    1    3    3    0  502  0.34602482038E+03  0.10723060676E+04 -0.33642730300E+03  0.11759068073E+04  0.10100000352E+00 0. -1.
</event>
<event>
 5   0  0.1502886E-05  0.2377716E+04  0.7818609E-02  0.8447894E-01
       -1   -1    0    0    0  501  0.00000000000E+00  0.00000000000E+00  0.87664441366E+03  0.87664441367E+03  0.50400001928E-02 0. -1.
        1   -1    0    0  501    0  0.00000000000E+00  0.00000000000E+00 -0.16122646295E+04  0.16122646296E+04  0.50400001928E-02 0.  1.
    10030    2    1    2    0    0  0.00000000000E+00  0.00000000000E+00 -0.73562021589E+03  0.24889090432E+04  0.23777155262E+04 0.  0.
        4    1    3    3  502    0  0.60670007392E+03  0.39270816189E+03  0.62030291738E+03  0.95240852701E+03  0.12699999809E+01 0. -1.
       -4    1    3    3    0  502 -0.60670007392E+03 -0.39270816189E+03 -0.13559231333E+04  0.15365005162E+04  0.12699999809E+01 0.  1.
</event>
<event>
 5   0  0.3704241E-05  0.2476363E+04  0.7818609E-02  0.8411455E-01
        2   -1    0    0  501    0  0.00000000000E+00  0.00000000000E+00  0.10297243335E+04  0.10297243335E+04  0.25500000920E-02 0.  1.
       -2   -1    0    0    0  501  0.00000000000E+00  0.00000000000E+00 -0.14888391443E+04  0.14888391443E+04  0.25500000920E-02 0. -1.
    10030    2    1    2    0    0  0.00000000000E+00  0.00000000000E+00 -0.45911481082E+03  0.25185634778E+04  0.24763633784E+04 0.  0.
        2    1    3    3  502    0  0.31434771229E+02 -0.47673477442E+03 -0.13913148016E+04  0.14710612044E+04  0.25500000920E-02 0. -1.
       -2    1    3    3    0  502 -0.31434771229E+02  0.47673477442E+03  0.93219999074E+03  0.10475022734E+04  0.25500000920E-02 0.  1.
</event>
<event>
 5   0  0.1456876E-05  0.2501012E+04  0.7818609E-02  0.8402625E-01
       -1   -1    0    0    0  501  0.00000000000E+00  0.00000000000E+00  0.77157300255E+03  0.77157300256E+03  0.50400001928E-02 0.  1.
        1   -1    0    0  501    0  0.00000000000E+00  0.00000000000E+00 -0.20267231125E+04  0.20267231125E+04  0.50400001928E-02 0. -1.
    10030    2    1    2    0    0  0.00000000000E+00  0.00000000000E+00 -0.12551501100E+04  0.27982961151E+04  0.25010116651E+04 0.  0.
        1    1    3    3  502    0 -0.11703020057E+04  0.41712782185E+03 -0.46870230235E+03  0.13278871385E+04  0.50400001928E-02 0. -1.
       -1    1    3    3    0  502  0.11703020057E+04 -0.41712782185E+03 -0.78644780763E+03  0.14704089766E+04  0.50400001928E-02 0.  1.
</event>
<event>
 5   0  0.1456876E-05  0.2411714E+04  0.7818609E-02  0.8435131E-01
       -1   -1    0    0    0  501  0.00000000000E+00  0.00000000000E+00  0.10921300539E+04  0.10921300539E+04  0.50400001928E-02 0.  1.
        1   -1    0    0  501    0  0.00000000000E+00  0.00000000000E+00 -0.13314264295E+04  0.13314264295E+04  0.50400001928E-02 0. -1.
    10030    2    1    2    0    0  0.00000000000E+00  0.00000000000E+00 -0.23929637567E+03  0.24235564834E+04  0.24117137626E+04 0.  0.
        1    1    3    3  502    0 -0.33204823830E+02 -0.97508300039E+03 -0.83178976779E+03  0.12820934583E+04  0.50400001928E-02 0. -1.
       -1    1    3    3    0  502  0.33204823830E+02  0.97508300039E+03  0.59249339211E+03  0.11414630251E+04  0.50400001928E-02 0.  1.
</event>
<event>
 5   0  0.3579097E-05  0.2476429E+04  0.7818609E-02  0.8411431E-01
       -2   -1    0    0    0  501  0.00000000000E+00  0.00000000000E+00  0.13766858940E+04  0.13766858940E+04  0.25500000920E-02 0. -1.
        2   -1    0    0  501    0  0.00000000000E+00  0.00000000000E+00 -0.11136711613E+04  0.11136711613E+04  0.25500000920E-02 0.  1.
    10030    2    1    2    0    0  0.00000000000E+00  0.00000000000E+00  0.26301473270E+03  0.24903570553E+04  0.24764291860E+04 0.  0.
        5    1    3    3  502    0  0.10554156406E+04 -0.18070692264E+03 -0.49375811195E+03  0.11791422007E+04  0.46999998093E+01 0.  1.
       -5    1    3    3    0  502 -0.10554156406E+04  0.18070692264E+03  0.75677284466E+03  0.13112148546E+04  0.46999998093E+01 0. -1.
</event>
<event>
 5   0  0.1421242E-05  0.2531670E+04  0.7818609E-02  0.8391789E-01
       -1   -1    0    0    0  501  0.00000000000E+00  0.00000000000E+00  0.11402279373E+04  0.11402279373E+04  0.50400001928E-02 0. -1.
        1   -1    0    0  501    0  0.00000000000E+00  0.00000000000E+00 -0.14052785104E+04  0.14052785104E+04  0.50400001928E-02 0.  1.
    10030    2    1    2    0    0  0.00000000000E+00  0.00000000000E+00 -0.26505057305E+03  0.25455064477E+04  0.25316696603E+04 0.  0.
        3    1    3    3  502    0  0.82577502681E+02  0.12527174784E+04  0.30278429721E+02  0.12558013052E+04  0.10100000352E+00 0.  1.
       -3    1    3    3    0  502 -0.82577502681E+02 -0.12527174784E+04 -0.29532900277E+03  0.12897051425E+04  0.10100000352E+00 0. -1.
</event>
<event>
 5   0  0.1492639E-05  0.2528325E+04  0.7818609E-02  0.8392963E-01
        1   -1    0    0  501    0  0.00000000000E+00  0.00000000000E+00  0.10116580621E+04  0.10116580621E+04  0.50400001928E-02 0.  1.
       -1   -1    0    0    0  501  0.00000000000E+00  0.00000000000E+00 -0.15796910653E+04  0.15796910653E+04  0.50400001928E-02 0. -1.
    10030    2    1    2    0    0  0.00000000000E+00  0.00000000000E+00 -0.56803300323E+03  0.25913491274E+04  0.25283252970E+04 0.  0.
        5    1    3    3  502    0 -0.11752534928E+02 -0.10433576242E+04  0.44746260505E+03  0.11353317255E+04  0.46999998093E+01 0.  1.
       -5    1    3    3    0  502  0.11752534928E+02  0.10433576242E+04 -0.10154956083E+04  0.14560174019E+04  0.46999998093E+01 0. -1.
</event>
<event>
 5   0  0.3704241E-05  0.2520120E+04  0.7818609E-02  0.8395852E-01
        2   -1    0    0  501    0  0.00000000000E+00  0.00000000000E+00  0.69567853860E+03  0.69567853860E+03  0.25500000920E-02 0.  1.
       -2   -1    0    0    0  501  0.00000000000E+00  0.00000000000E+00 -0.22823063529E+04  0.22823063529E+04  0.25500000920E-02 0. -1.
    10030    2    1    2    0    0  0.00000000000E+00  0.00000000000E+00 -0.15866278143E+04  0.29779848915E+04  0.25201202735E+04 0.  0.
        2    1    3    3  502    0 -0.56125225389E+03  0.11015742888E+04 -0.50559992531E+03  0.13357025458E+04  0.25500000920E-02 0.  1.
       -2    1    3    3    0  502  0.56125225389E+03 -0.11015742888E+04 -0.10810278890E+04  0.16422823458E+04  0.25500000920E-02 0. -1.
</event>
<event>
 5   0  0.3578670E-05  0.2506551E+04  0.7818609E-02  0.8400655E-01
       -2   -1    0    0    0  501  0.00000000000E+00  0.00000000000E+00  0.72344595534E+03  0.72344595535E+03  0.25500000920E-02 0. -1.
        2   -1    0    0  501    0  0.00000000000E+00  0.00000000000E+00 -0.21711361716E+04  0.21711361716E+04  0.25500000920E-02 0.  1.
    10030    2    1    2    0    0  0.00000000000E+00  0.00000000000E+00 -0.14476902162E+04  0.28945821269E+04  0.25065511619E+04 0.  0.
        4    1    3    3  502    0  0.52092595758E+03 -0.10317251475E+04 -0.12835124314E+04  0.17272019013E+04  0.12699999809E+01 0.  1.
       -4    1    3    3    0  502 -0.52092595758E+03  0.10317251475E+04 -0.16417778482E+03  0.11673802256E+04  0.12699999809E+01 0. -1.
</event>
<event>
 5   0  0.1421242E-05  0.2505546E+04  0.7818609E-02  0.8401013E-01
        1   -1    0    0  501    0  0.00000000000E+00  0.00000000000E+00  0.16339144250E+04  0.16339144250E+04  0.50400001928E-02 0.  1.
       -1   -1    0    0    0  501  0.00000000000E+00  0.00000000000E+00 -0.96053967200E+03  0.96053967202E+03  0.50400001928E-02 0. -1.
    10030    2    1    2    0    0  0.00000000000E+00  0.00000000000E+00  0.67337475295E+03  0.25944540970E+04  0.25055455501E+04 0.  0.
        3    1    3    3  502    0 -0.78807193521E+03  0.75264263852E+03 -0.30323153137E+03  0.11311399950E+04  0.10100000352E+00 0.  1.
       -3    1    3    3    0  502  0.78807193521E+03 -0.75264263852E+03  0.97660628432E+03  0.14633141020E+04  0.10100000352E+00 0. -1.
</event>
<event>
 5   0  0.3704241E-05  0.1889367E+04  0.7818609E-02  0.8660167E-01
        2   -1    0    0  501    0  0.00000000000E+00  0.00000000000E+00  0.17503821313E+04  0.17503821313E+04  0.25500000920E-02 0.  1.
       -2   -1    0    0    0  501  0.00000000000E+00  0.00000000000E+00 -0.50984713222E+03  0.50984713223E+03  0.25500000920E-02 0. -1.
    10030    2    1    2    0    0  0.00000000000E+00  0.00000000000E+00  0.12405349991E+04  0.22602292636E+04  0.18893674179E+04 0.  0.
        2    1    3    3  502    0  0.50625781645E+03 -0.70916527294E+03  0.18363852389E+03  0.89046924064E+03  0.25500000920E-02 0. -1.
       -2    1    3    3    0  502 -0.50625781645E+03  0.70916527294E+03  0.10568964752E+04  0.13697600229E+04  0.25500000920E-02 0.  1.
</event>
<event>
 5   0  0.3578670E-05  0.2514040E+04  0.7818609E-02  0.8398001E-01
        2   -1    0    0  501    0  0.00000000000E+00  0.00000000000E+00  0.25885420633E+04  0.25885420633E+04  0.25500000920E-02 0. -1.
       -2   -1    0    0    0  501  0.00000000000E+00  0.00000000000E+00 -0.61042048020E+03  0.61042048021E+03  0.25500000920E-02 0.  1.
    10030    2    1    2    0    0  0.00000000000E+00  0.00000000000E+00  0.19781215831E+04  0.31989625435E+04  0.25140398480E+04 0.  0.
        4    1    3    3  502    0 -0.28253492727E+03 -0.29613544329E+03 -0.52325609134E+03  0.66431975428E+03  0.12699999809E+01 0.  1.
       -4    1    3    3    0  502  0.28253492727E+03  0.29613544329E+03  0.25013776744E+04  0.25346427892E+04  0.12699999809E+01 0. -1.
</event>
<event>
 5   0  0.3650620E-05  0.2486260E+04  0.7818609E-02  0.8407897E-01
       -2   -1    0    0    0  501  0.00000000000E+00  0.00000000000E+00  0.11275190968E+04  0.11275190968E+04  0.25500000920E-02 0.  1.
        2   -1    0    0  501    0  0.00000000000E+00  0.00000000000E+00 -0.13705946897E+04  0.13705946897E+04  0.25500000920E-02 0. -1.
    10030    2    1    2    0    0  0.00000000000E+00  0.00000000000E+00 -0.24307559293E+03  0.24981137865E+04  0.24862595895E+04 0.  0.
        3    1    3    3  502    0 -0.38924358495E+03 -0.11576449635E+04  0.11134140386E+03  0.12263968967E+04  0.10100000352E+00 0. -1.
       -3    1    3    3    0  502  0.38924358495E+03  0.11576449635E+04 -0.35441699679E+03  0.12717168898E+04  0.10100000352E+00 0.  1.
</event>
<event>
 5   0  0.1492639E-05  0.2487590E+04  0.7818609E-02  0.8407420E-01
       -1   -1    0    0    0  501  0.00000000000E+00  0.00000000000E+00  0.12724355853E+04  0.12724355853E+04  0.50400001928E-02 0. -1.
        1   -1    0    0  501    0  0.00000000000E+00  0.00000000000E+00 -0.12157991834E+04  0.12157991834E+04  0.50400001928E-02 0.  1.
    10030    2    1    2    0    0  0.00000000000E+00  0.00000000000E+00  0.56636401894E+02  0.24882347686E+04  0.24875901153E+04 0.  0.
        5    1    3    3  502    0 -0.96808903961E+03  0.70585030471E+03 -0.30580880283E+03  0.12365120926E+04  0.46999998093E+01 0.  1.
       -5    1    3    3    0  502  0.96808903961E+03 -0.70585030471E+03  0.36244520472E+03  0.12517226760E+04  0.46999998093E+01 0. -1.
</event>
<event>
 5   0  0.3704241E-05  0.2469080E+04  0.7818609E-02  0.8414084E-01
        2   -1    0    0  501    0  0.00000000000E+00  0.00000000000E+00  0.12298165546E+04  0.12298165546E+04  0.25500000920E-02 0.  1.
       -2   -1    0    0    0  501  0.00000000000E+00  0.00000000000E+00 -0.12392815959E+04  0.12392815959E+04  0.25500000920E-02 0. -1.
    10030    2    1    2    0    0  0.00000000000E+00  0.00000000000E+00 -0.94650413403E+01  0.24690981505E+04  0.24690800088E+04 0.  0.
        2    1    3    3  502    0 -0.10761141309E+04  0.60073608166E+03 -0.76729992950E+02  0.12348250704E+04  0.25500000920E-02 0. -1.
       -2    1    3    3    0  502  0.10761141309E+04 -0.60073608166E+03  0.67264951610E+02  0.12342730801E+04  0.25500000920E-02 0.  1.
</event>
<event>
 5   0  0.1201438E-05  0.2479457E+04  0.7818609E-02  0.8410341E-01
        3   -1    0    0  501    0  0.00000000000E+00  0.00000000000E+00  0.15742003215E+04  0.15742003247E+04  0.10100000352E+00 0.  1.
       -3   -1    0    0    0  501  0.00000000000E+00  0.00000000000E+00 -0.97632247573E+03  0.97632248095E+03  0.10100000352E+00 0. -1.
    10030    2    1    2    0    0  0.00000000000E+00  0.00000000000E+00  0.59787784574E+03  0.25505228057E+04  0.24794573325E+04 0.  0.
        5    1    3    3  502    0  0.10902258672E+04  0.18375587004E+03  0.87585805503E+03  0.14104992322E+04  0.46999998093E+01 0.  1.
       -5    1    3    3    0  502 -0.10902258672E+04 -0.18375587004E+03 -0.27798020929E+03  0.11400235735E+04  0.46999998093E+01 0. -1.
</event>
<event>
 5   0  0.1502886E-05  0.2469113E+04  0.7818609E-02  0.8414072E-01
        1   -1    0    0  501    0  0.00000000000E+00  0.00000000000E+00  0.15993565326E+04  0.15993565326E+04  0.50400001928E-02 0.  1.
       -1   -1    0    0    0  501  0.00000000000E+00  0.00000000000E+00 -0.95296448544E+03  0.95296448546E+03  0.50400001928E-02 0. -1.
    10030    2    1    2    0    0  0.00000000000E+00  0.00000000000E+00  0.64639204712E+03  0.25523210180E+04  0.24691131810E+04 0.  0.
        4    1    3    3  502    0 -0.61361795629E+02 -0.67150551349E+03 -0.74579290898E+03  0.10054320467E+04  0.12699999809E+01 0. -1.
       -4    1    3    3    0  502  0.61361795629E+02  0.67150551349E+03  0.13921849561E+04  0.15468889713E+04  0.12699999809E+01 0.  1.
</event>
<event>
 5   0  0.3704241E-05  0.2276743E+04  0.7818609E-02  0.8487148E-01
       -2   -1    0    0    0  501  0.00000000000E+00  0.00000000000E+00  0.60749788615E+03  0.60749788616E+03  0.25500000920E-02 0.  1.
        2   -1    0    0  501    0  0.00000000000E+00  0.00000000000E+00 -0.21331587322E+04  0.21331587322E+04  0.25500000920E-02 0. -1.
    10030    2    1    2    0    0  0.00000000000E+00  0.00000000000E+00 -0.15256608460E+04  0.27406566183E+04  0.22767427792E+04 0.  0.
        2    1    3    3  502    0 -0.92631267994E+03 -0.40834198011E+03 -0.13895860778E+04  0.17192288449E+04  0.25500000920E-02 0. -1.
       -2    1    3    3    0  502  0.92631267994E+03  0.40834198011E+03 -0.13607476827E+03  0.10214277734E+04  0.25500000920E-02 0.  1.
</event>
<event>
 5   0  0.1492639E-05  0.2449684E+04  0.7818609E-02  0.8421134E-01
       -1   -1    0    0    0  501  0.00000000000E+00  0.00000000000E+00  0.95170820827E+03  0.95170820828E+03  0.50400001928E-02 0.  1.
        1   -1    0    0  501    0  0.00000000000E+00  0.00000000000E+00 -0.15763628162E+04  0.15763628163E+04  0.50400001928E-02 0. -1.
    10030    2    1    2    0    0  0.00000000000E+00  0.00000000000E+00 -0.62465460798E+03  0.25280710245E+04  0.24496835971E+04 0.  0.
        5    1    3    3  502    0  0.11673257119E+04 -0.23045912843E+03 -0.12417289764E+02  0.11899315134E+04  0.46999998093E+01 0. -1.
       -5    1    3    3    0  502 -0.11673257119E+04  0.23045912843E+03 -0.61223731821E+03  0.13381395111E+04  0.46999998093E+01 0.  1.
</event>
<event>
 5   0  0.1492639E-05  0.2560505E+04  0.7818609E-02  0.8381742E-01
       -1   -1    0    0    0  501  0.00000000000E+00  0.00000000000E+00  0.10875517484E+04  0.10875517484E+04  0.50400001928E-02 0. -1.
        1   -1    0    0  501    0  0.00000000000E+00  0.00000000000E+00 -0.15070976657E+04  0.15070976657E+04  0.50400001928E-02 0.  1.
    10030    2    1    2    0    0  0.00000000000E+00  0.00000000000E+00 -0.41954591735E+03  0.25946494141E+04  0.25605051856E+04 0.  0.
        5    1    3    3  502    0 -0.46385639852E+03  0.10528957188E+04  0.35920578450E+03  0.12053227944E+04  0.46999998093E+01 0. -1.
       -5    1    3    3    0  502  0.46385639852E+03 -0.10528957188E+04 -0.77875170185E+03  0.13893266197E+04  0.46999998093E+01 0.  1.
</event>
<event>
 5   0  0.1421242E-05  0.2060040E+04  0.7818609E-02  0.8579053E-01
        1   -1    0    0  501    0  0.00000000000E+00  0.00000000000E+00  0.11607003315E+04  0.11607003315E+04  0.50400001928E-02 0.  1.
       -1   -1    0    0    0  501  0.00000000000E+00  0.00000000000E+00 -0.91405220841E+03  0.91405220842E+03  0.50400001928E-02 0. -1.
    10030    2    1    2    0    0  0.00000000000E+00  0.00000000000E+00  0.24664812309E+03  0.20747525399E+04  0.20600395155E+04 0.  0.
        3    1    3    3  502    0 -0.32050962849E+03 -0.96803629148E+03 -0.23041124265E+02  0.10199762680E+04  0.10100000352E+00 0. -1.
       -3    1    3    3    0  502  0.32050962849E+03  0.96803629148E+03  0.26968924735E+03  0.10547762720E+04  0.10100000352E+00 0.  1.
</event>
<event>
 5   0  0.1429483E-05  0.2494057E+04  0.7818609E-02  0.8405106E-01
        1   -1    0    0  501    0  0.00000000000E+00  0.00000000000E+00  0.16842748312E+04  0.16842748312E+04  0.50400001928E-02 0. -1.
       -1   -1    0    0    0  501  0.00000000000E+00  0.00000000000E+00 -0.92329334600E+03  0.92329334602E+03  0.50400001928E-02 0.  1.
    10030    2    1    2    0    0  0.00000000000E+00  0.00000000000E+00  0.76098148518E+03  0.26075681772E+04  0.24940567311E+04 0.  0.
        2    1    3    3  502    0  0.29522997319E+03  0.84367454888E+03 -0.52864394608E+03  0.10384661300E+04  0.25500000920E-02 0.  1.
       -2    1    3    3    0  502 -0.29522997319E+03 -0.84367454888E+03  0.12896254313E+04  0.15691020472E+04  0.25500000920E-02 0. -1.
</event>
<event>
 5   0  0.3579097E-05  0.2493853E+04  0.7818609E-02  0.8405179E-01
        2   -1    0    0  501    0  0.00000000000E+00  0.00000000000E+00  0.11762216465E+04  0.11762216465E+04  0.25500000920E-02 0. -1.
       -2   -1    0    0    0  501  0.00000000000E+00  0.00000000000E+00 -0.13218814339E+04  0.13218814339E+04  0.25500000920E-02 0.  1.
    10030    2    1    2    0    0  0.00000000000E+00  0.00000000000E+00 -0.14565978738E+03  0.24981030804E+04  0.24938528879E+04 0.  0.
        5    1    3    3  502    0 -0.15383289028E+03  0.84714327724E+03  0.83064248478E+03  0.11963717306E+04  0.46999998093E+01 0. -1.
       -5    1    3    3    0  502  0.15383289028E+03 -0.84714327724E+03 -0.97630227215E+03  0.13017313497E+04  0.46999998093E+01 0.  1.
</event>
<event>
 5   0  0.1456876E-05  0.2594469E+04  0.7818609E-02  0.8370082E-01
       -1   -1    0    0    0  501  0.00000000000E+00  0.00000000000E+00  0.12770569394E+04  0.12770569394E+04  0.50400001928E-02 0. -1.
        1   -1    0    0  501    0  0.00000000000E+00  0.00000000000E+00 -0.13177312672E+04  0.13177312672E+04  0.50400001928E-02 0.  1.
    10030    2    1    2    0    0  0.00000000000E+00  0.00000000000E+00 -0.40674327754E+02  0.25947882066E+04  0.25944693939E+04 0.  0.
        1    1    3    3  502    0 -0.50277188897E+03  0.20745829693E+03 -0.11981912449E+04  0.13158574302E+04  0.50400001928E-02 0.  1.
       -1    1    3    3    0  502  0.50277188897E+03 -0.20745829693E+03  0.11575169171E+04  0.12789307764E+04  0.50400001928E-02 0. -1.
</event>
<event>
 5   0  0.1492639E-05  0.2546264E+04  0.7818609E-02  0.8386687E-01
        1   -1    0    0  501    0  0.00000000000E+00  0.00000000000E+00  0.12848854322E+04  0.12848854322E+04  0.50400001928E-02 0. -1.
       -1   -1    0    0    0  501  0.00000000000E+00  0.00000000000E+00 -0.12614859639E+04  0.12614859639E+04  0.50400001928E-02 0.  1.
    10030    2    1    2    0    0  0.00000000000E+00  0.00000000000E+00  0.23399468270E+02  0.25463713961E+04  0.25462638810E+04 0.  0.
        5    1    3    3  502    0  0.37817225355E+03  0.93153614982E+03  0.79280185109E+03  0.12803635097E+04  0.46999998093E+01 0. -1.
       -5    1    3    3    0  502 -0.37817225355E+03 -0.93153614982E+03 -0.76940238282E+03  0.12660078864E+04  0.46999998093E+01 0.  1.
</event>
<event>
 5   0  0.3704241E-05  0.2484742E+04  0.7818609E-02  0.8408442E-01
       -2   -1    0    0    0  501  0.00000000000E+00  0.00000000000E+00  0.15653035578E+04  0.15653035578E+04  0.25500000920E-02 0.  1.
        2   -1    0    0  501    0  0.00000000000E+00  0.00000000000E+00 -0.98606124427E+03  0.98606124427E+03  0.25500000920E-02 0. -1.
    10030    2    1    2    0    0  0.00000000000E+00  0.00000000000E+00  0.57924231352E+03  0.25513648021E+04  0.24847415752E+04 0.  0.
        2    1    3    3  502    0  0.17071708657E+03  0.57109014911E+03  0.14088928980E+04  0.15297932802E+04  0.25500000920E-02 0.  1.
       -2    1    3    3    0  502 -0.17071708657E+03 -0.57109014911E+03 -0.82965058445E+03  0.10215715219E+04  0.25500000920E-02 0. -1.
</event>
<event>
 5   0  0.1429483E-05  0.2563696E+04  0.7818609E-02  0.8380638E-01
       -1   -1    0    0    0  501  0.00000000000E+00  0.00000000000E+00  0.65287107122E+03  0.65287107124E+03  0.50400001928E-02 0. -1.
        1   -1    0    0  501    0  0.00000000000E+00  0.00000000000E+00 -0.25167819898E+04  0.25167819898E+04  0.50400001928E-02 0.  1.
    10030    2    1    2    0    0  0.00000000000E+00  0.00000000000E+00 -0.18639109186E+04  0.31696530611E+04  0.25636958897E+04 0.  0.
        2    1    3    3  502    0  0.41920195840E+03 -0.45645374643E+03  0.45533491819E+03  0.76903198392E+03  0.25500000920E-02 0. -1.
       -2    1    3    3    0  502 -0.41920195840E+03  0.45645374643E+03 -0.23192458368E+04  0.24006210772E+04  0.25500000920E-02 0.  1.
</event>
<event>
 5   0  0.3579097E-05  0.2559422E+04  0.7818609E-02  0.8382117E-01
       -2   -1    0    0    0  501  0.00000000000E+00  0.00000000000E+00  0.89541784116E+03  0.89541784116E+03  0.25500000920E-02 0.  1.
        2   -1    0    0  501    0  0.00000000000E+00  0.00000000000E+00 -0.18289334961E+04  0.18289334961E+04  0.25500000920E-02 0. -1.
    10030    2    1    2    0    0  0.00000000000E+00  0.00000000000E+00 -0.93351565494E+03  0.27243513373E+04  0.25594215618E+04 0.  0.
        5    1    3    3  502    0  0.13518823789E+03  0.84144300434E+03 -0.14829138862E+04  0.17103677596E+04  0.46999998093E+01 0. -1.
       -5    1    3    3    0  502 -0.13518823789E+03 -0.84144300434E+03  0.54939823127E+03  0.10139835776E+04  0.46999998093E+01 0.  1.
</event>
<event>
 5   0  0.1456876E-05  0.2503853E+04  0.7818609E-02  0.8401614E-01
        1   -1    0    0  501    0  0.00000000000E+00  0.00000000000E+00  0.17691119042E+04  0.17691119042E+04  0.50400001928E-02 0. -1.
       -1   -1    0    0    0  501  0.00000000000E+00  0.00000000000E+00 -0.88593614824E+03  0.88593614826E+03  0.50400001928E-02 0.  1.
    10030    2    1    2    0    0  0.00000000000E+00  0.00000000000E+00  0.88317575595E+03  0.26550480525E+04  0.25038531796E+04 0.  0.
        1    1    3    3  502    0 -0.98341144738E+03  0.69196410488E+03  0.72111394697E+02  0.12046212893E+04  0.50400001928E-02 0.  1.
       -1    1    3    3    0  502  0.98341144738E+03 -0.69196410488E+03  0.81106436125E+03  0.14504267632E+04  0.50400001928E-02 0. -1.
</event>
<event>
 5   0  0.3650620E-05  0.2497927E+04  0.7818609E-02  0.8403724E-01
       -2   -1    0    0    0  501  0.00000000000E+00  0.00000000000E+00  0.68601800463E+03  0.68601800463E+03  0.25500000920E-02 0.  1.
        2   -1    0    0  501    0  0.00000000000E+00  0.00000000000E+00 -0.22738613934E+04  0.22738613934E+04  0.25500000920E-02 0. -1.
    10030    2    1    2    0    0  0.00000000000E+00  0.00000000000E+00 -0.15878433888E+04  0.29598793981E+04  0.24979270253E+04 0.  0.
        3    1    3    3  502    0 -0.98071349330E+03 -0.76597400102E+03 -0.66743463685E+03  0.14120850296E+04  0.10100000352E+00 0.  1.
       -3    1    3    3    0  502  0.98071349330E+03  0.76597400102E+03 -0.92040875197E+03  0.15477943685E+04  0.10100000352E+00 0. -1.
</event>
<event>
 5   0  0.1201438E-05  0.2508863E+04  0.7818609E-02  0.8399835E-01
       -4   -1    0    0    0  501  0.00000000000E+00  0.00000000000E+00  0.13337947495E+04  0.13337953541E+04  0.12699999809E+01 0. -1.
        4   -1    0    0  501    0  0.00000000000E+00  0.00000000000E+00 -0.11797893319E+04  0.11797900154E+04  0.12699999809E+01 0.  1.
    10030    2    1    2    0    0  0.00000000000E+00  0.00000000000E+00  0.15400541758E+03  0.25135853695E+04  0.25088630376E+04 0.  0.
        2    1    3    3  502    0 -0.87596411172E+01 -0.64637794603E+03  0.11540691272E+04  0.13227837052E+04  0.25500000920E-02 0. -1.
       -2    1    3    3    0  502  0.87596411172E+01  0.64637794603E+03 -0.10000637096E+04  0.11908016643E+04  0.25500000920E-02 0.  1.
</event>
<event>
 5   0  0.1456876E-05  0.2518853E+04  0.7818609E-02  0.8396300E-01
       -1   -1    0    0    0  501  0.00000000000E+00  0.00000000000E+00  0.11316620560E+04  0.11316620560E+04  0.50400001928E-02 0.  1.
        1   -1    0    0  501    0  0.00000000000E+00  0.00000000000E+00 -0.14016156927E+04  0.14016156927E+04  0.50400001928E-02 0. -1.
    10030    2    1    2    0    0  0.00000000000E+00  0.00000000000E+00 -0.26995363676E+03  0.25332777487E+04  0.25188531490E+04 0.  0.
        1    1    3    3  502    0  0.37783350114E+03 -0.18009682550E+03  0.10596648568E+04  0.11393342924E+04  0.50400001928E-02 0.  1.
       -1    1    3    3    0  502 -0.37783350114E+03  0.18009682550E+03 -0.13296184935E+04  0.13939434563E+04  0.50400001928E-02 0. -1.
</event>
<event>
 5   0  0.3704241E-05  0.2459039E+04  0.7818609E-02  0.8417725E-01
        2   -1    0    0  501    0  0.00000000000E+00  0.00000000000E+00  0.11116840817E+04  0.11116840817E+04  0.25500000920E-02 0.  1.
       -2   -1    0    0    0  501  0.00000000000E+00  0.00000000000E+00 -0.13598451516E+04  0.13598451516E+04  0.25500000920E-02 0. -1.
    10030    2    1    2    0    0  0.00000000000E+00  0.00000000000E+00 -0.24816106994E+03  0.24715292333E+04  0.24590390063E+04 0.  0.
        2    1    3    3  502    0 -0.41366707434E+03 -0.95240349537E+03  0.53769023208E+03  0.11693176010E+04  0.25500000920E-02 0.  1.
       -2    1    3    3    0  502  0.41366707434E+03  0.95240349537E+03 -0.78585130202E+03  0.13022116323E+04  0.25500000920E-02 0. -1.
</event>
<event>
 5   0  0.3579097E-05  0.2464074E+04  0.7818609E-02  0.8415897E-01
       -2   -1    0    0    0  501  0.00000000000E+00  0.00000000000E+00  0.86262557961E+03  0.86262557961E+03  0.25500000920E-02 0.  1.
        2   -1    0    0  501    0  0.00000000000E+00  0.00000000000E+00 -0.17596459163E+04  0.17596459163E+04  0.25500000920E-02 0. -1.
    10030    2    1    2    0    0  0.00000000000E+00  0.00000000000E+00 -0.89702033667E+03  0.26222714959E+04  0.24640743320E+04 0.  0.
        5    1    3    3  502    0 -0.53611875437E+03 -0.10186183140E+04  0.18875311444E+02  0.11512536453E+04  0.46999998093E+01 0.  1.
       -5    1    3    3    0  502  0.53611875437E+03  0.10186183140E+04 -0.91589564811E+03  0.14710178506E+04  0.46999998093E+01 0. -1.
</event>
<event>
 5   0  0.1502886E-05  0.2493058E+04  0.7818609E-02  0.8405463E-01
        1   -1    0    0  501    0  0.00000000000E+00  0.00000000000E+00  0.11256204669E+04  0.11256204669E+04  0.50400001928E-02 0. -1.
       -1   -1    0    0    0  501  0.00000000000E+00  0.00000000000E+00 -0.13804244854E+04  0.13804244854E+04  0.50400001928E-02 0.  1.
    10030    2    1    2    0    0  0.00000000000E+00  0.00000000000E+00 -0.25480401846E+03  0.25060449523E+04  0.24930576037E+04 0.  0.
        4    1    3    3  502    0 -0.10822920260E+04  0.56164040533E+03  0.13286079271E+03  0.12265600587E+04  0.12699999809E+01 0.  1.
       -4    1    3    3    0  502  0.10822920260E+04 -0.56164040533E+03 -0.38766481117E+03  0.12794848937E+04  0.12699999809E+01 0. -1.
</event>
<event>
 5   0  0.3579097E-05  0.2504441E+04  0.7818609E-02  0.8401405E-01
        2   -1    0    0  501    0  0.00000000000E+00  0.00000000000E+00  0.18502786130E+04  0.18502786130E+04  0.25500000920E-02 0. -1.
       -2   -1    0    0    0  501  0.00000000000E+00  0.00000000000E+00 -0.84747043114E+03  0.84747043114E+03  0.25500000920E-02 0.  1.
    10030    2    1    2    0    0  0.00000000000E+00  0.00000000000E+00  0.10028081819E+04  0.26977490442E+04  0.25044411863E+04 0.  0.
        5    1    3    3  502    0  0.21700147572E+03 -0.18390229750E+03 -0.81219969996E+03  0.86058127920E+03  0.46999998093E+01 0.  1.
       -5    1    3    3    0  502 -0.21700147572E+03  0.18390229750E+03  0.18150078818E+04  0.18371677650E+04  0.46999998093E+01 0. -1.
</event>
<event>
 5   0  0.1502886E-05  0.2434862E+04  0.7818609E-02  0.8426566E-01
        1   -1    0    0  501    0  0.00000000000E+00  0.00000000000E+00  0.11829203847E+04  0.11829203847E+04  0.50400001928E-02 0. -1.
       -1   -1    0    0    0  501  0.00000000000E+00  0.00000000000E+00 -0.12529480012E+04  0.12529480012E+04  0.50400001928E-02 0.  1.
    10030    2    1    2    0    0  0.00000000000E+00  0.00000000000E+00 -0.70027616494E+02  0.24358683860E+04  0.24348615826E+04 0.  0.
        4    1    3    3  502    0  0.63289927146E+03 -0.78079543956E+03 -0.72227174908E+03  0.12376918432E+04  0.12699999809E+01 0.  1.
       -4    1    3    3    0  502 -0.63289927146E+03  0.78079543956E+03  0.65224413259E+03  0.11981765428E+04  0.12699999809E+01 0. -1.
</event>
<event>
 5   0  0.1492639E-05  0.1853673E+04  0.7818609E-02  0.8678266E-01
       -1   -1    0    0    0  501  0.00000000000E+00  0.00000000000E+00  0.82594904023E+03  0.82594904024E+03  0.50400001928E-02 0. -1.
        1   -1    0    0  501    0  0.00000000000E+00  0.00000000000E+00 -0.10400466089E+04  0.10400466089E+04  0.50400001928E-02 0.  1.
    10030    2    1    2    0    0  0.00000000000E+00  0.00000000000E+00 -0.21409756870E+03  0.18659956492E+04  0.18536725692E+04 0.  0.
        5    1    3    3  502    0 -0.58003442291E+03 -0.14440738351E+03  0.60597493199E+03  0.85118807109E+03  0.46999998093E+01 0. -1.
       -5    1    3    3    0  502  0.58003442291E+03  0.14440738351E+03 -0.82007250068E+03  0.10148075781E+04  0.46999998093E+01 0.  1.
</event>
<event>
 5   0  0.1492639E-05  0.2495500E+04  0.7818609E-02  0.8404590E-01
        1   -1    0    0  501    0  0.00000000000E+00  0.00000000000E+00  0.13984379516E+04  0.13984379517E+04  0.50400001928E-02 0.  1.
       -1   -1    0    0    0  501  0.00000000000E+00  0.00000000000E+00 -0.11132995334E+04  0.11132995334E+04  0.50400001928E-02 0. -1.
    10030    2    1    2    0    0  0.00000000000E+00  0.00000000000E+00  0.28513841828E+03  0.25117374850E+04  0.24955002056E+04 0.  0.
        5    1    3    3  502    0  0.10050294659E+04 -0.29995521022E+03 -0.53769888137E+03  0.11786430896E+04  0.46999998093E+01 0. -1.
       -5    1    3    3    0  502 -0.10050294659E+04  0.29995521022E+03  0.82283729965E+03  0.13330943955E+04  0.46999998093E+01 0.  1.
</event>
<event>
 5   0  0.3579097E-05  0.2509996E+04  0.7818609E-02  0.8399433E-01
        2   -1    0    0  501    0  0.00000000000E+00  0.00000000000E+00  0.13126523049E+04  0.13126523049E+04  0.25500000920E-02 0.  1.
       -2   -1    0    0    0  501  0.00000000000E+00  0.00000000000E+00 -0.11998756716E+04  0.11998756716E+04  0.25500000920E-02 0. -1.
    10030    2    1    2    0    0  0.00000000000E+00  0.00000000000E+00  0.11277663327E+03  0.25125279765E+04  0.25099956700E+04 0.  0.
        5    1    3    3  502    0 -0.78387303627E+02  0.12464475815E+04  0.17988755543E+03  0.12618073408E+04  0.46999998093E+01 0. -1.
       -5    1    3    3    0  502  0.78387303627E+02 -0.12464475815E+04 -0.67110922159E+02  0.12507206357E+04  0.46999998093E+01 0.  1.
</event>
<event>
 5   0  0.1492639E-05  0.2483115E+04  0.7818609E-02  0.8409026E-01
        1   -1    0    0  501    0  0.00000000000E+00  0.00000000000E+00  0.13018587362E+04  0.13018587362E+04  0.50400001928E-02 0. -1.
       -1   -1    0    0    0  501  0.00000000000E+00  0.00000000000E+00 -0.11840493914E+04  0.11840493915E+04  0.50400001928E-02 0.  1.
    10030    2    1    2    0    0  0.00000000000E+00  0.00000000000E+00  0.11780934474E+03  0.24859081276E+04  0.24831150149E+04 0.  0.
        5    1    3    3  502    0  0.30394599142E+03  0.97296931698E+03 -0.65068771249E+03  0.12093258645E+04  0.46999998093E+01 0.  1.
       -5    1    3    3    0  502 -0.30394599142E+03 -0.97296931698E+03  0.76849705723E+03  0.12765822631E+04  0.46999998093E+01 0. -1.
</event>
<event>
 5   0  0.1492639E-05  0.2511639E+04  0.7818609E-02  0.8398851E-01
       -1   -1    0    0    0  501  0.00000000000E+00  0.00000000000E+00  0.10145804274E+04  0.10145804274E+04  0.50400001928E-02 0. -1.
        1   -1    0    0  501    0  0.00000000000E+00  0.00000000000E+00 -0.15544180553E+04  0.15544180553E+04  0.50400001928E-02 0.  1.
    10030    2    1    2    0    0  0.00000000000E+00  0.00000000000E+00 -0.53983762787E+03  0.25689984827E+04  0.25116386165E+04 0.  0.
        5    1    3    3  502    0 -0.76599945929E+03 -0.68606593450E+03  0.46738920881E+03  0.11295646952E+04  0.46999998093E+01 0. -1.
       -5    1    3    3    0  502  0.76599945929E+03  0.68606593450E+03 -0.10072268367E+04  0.14394337875E+04  0.46999998093E+01 0.  1.
</event>
<event>
 5   0  0.3650620E-05  0.2501928E+04  0.7818609E-02  0.8402299E-01
       -2   -1    0    0    0  501  0.00000000000E+00  0.00000000000E+00  0.76591524699E+03  0.76591524699E+03  0.25500000920E-02 0. -1.
        2   -1    0    0  501    0  0.00000000000E+00  0.00000000000E+00 -0.20431905198E+04  0.20431905198E+04  0.25500000920E-02 0.  1.
    10030    2    1    2    0    0  0.00000000000E+00  0.00000000000E+00 -0.12772752728E+04  0.28091057668E+04  0.25019278739E+04 0.  0.
        3    1    3    3  502    0  0.29302593328E+03  0.11269042733E+04 -0.12517963703E+03  0.11710881225E+04  0.10100000352E+00 0. -1.
       -3    1    3    3    0  502 -0.29302593328E+03 -0.11269042733E+04 -0.11520956358E+04  0.16380176443E+04  0.10100000352E+00 0.  1.
</event>
<event>
 5   0  0.3581449E-05  0.2463242E+04  0.7818609E-02  0.8416199E-01
       -2   -1    0    0    0  501  0.00000000000E+00  0.00000000000E+00  0.68148581837E+03  0.68148581838E+03  0.25500000920E-02 0.  1.
        2   -1    0    0  501    0  0.00000000000E+00  0.00000000000E+00 -0.22258573470E+04  0.22258573470E+04  0.25500000920E-02 0. -1.
    10030    2    1    2    0    0  0.00000000000E+00  0.00000000000E+00 -0.15443715286E+04  0.29073431654E+04  0.24632419416E+04 0.  0.
        1    1    3    3  502    0  0.11330825213E+04 -0.21596744277E+03 -0.12817276430E+04  0.17243386231E+04  0.50400001928E-02 0. -1.
       -1    1    3    3    0  502 -0.11330825213E+04  0.21596744277E+03 -0.26264388560E+03  0.11830045422E+04  0.50400001928E-02 0.  1.
</event>
<event>
 5   0  0.3578670E-05  0.2448515E+04  0.7818609E-02  0.8421560E-01
        2   -1    0    0  501    0  0.00000000000E+00  0.00000000000E+00  0.12036254046E+04  0.12036254046E+04  0.25500000920E-02 0.  1.
       -2   -1    0    0    0  501  0.00000000000E+00  0.00000000000E+00 -0.12452432209E+04  0.12452432209E+04  0.25500000920E-02 0. -1.
    10030    2    1    2    0    0  0.00000000000E+00  0.00000000000E+00 -0.41617816301E+02  0.24488686254E+04  0.24485149585E+04 0.  0.
        4    1    3    3  502    0 -0.53035661596E+03  0.81079083018E+03  0.72772745041E+03  0.12117131531E+04  0.12699999809E+01 0.  1.
       -4    1    3    3    0  502  0.53035661596E+03 -0.81079083018E+03 -0.76934526671E+03  0.12371554723E+04  0.12699999809E+01 0. -1.
</event>
<event>
 5   0  0.1429483E-05  0.2491041E+04  0.7818609E-02  0.8406184E-01
       -1   -1    0    0    0  501  0.00000000000E+00  0.00000000000E+00  0.11956958109E+04  0.11956958109E+04  0.50400001928E-02 0. -1.
        1   -1    0    0  501    0  0.00000000000E+00  0.00000000000E+00 -0.12974216116E+04  0.12974216116E+04  0.50400001928E-02 0.  1.
    10030    2    1    2    0    0  0.00000000000E+00  0.00000000000E+00 -0.10172580076E+03  0.24931174225E+04  0.24910412168E+04 0.  0.
        2    1    3    3  502    0  0.71482965713E+03  0.29068985632E+03  0.92762243113E+03  0.12066339155E+04  0.25500000920E-02 0. -1.
       -2    1    3    3    0  502 -0.71482965713E+03 -0.29068985632E+03 -0.10293482319E+04  0.12864835070E+04  0.25500000920E-02 0.  1.
</event>
<event>
 5   0  0.1201438E-05  0.2500589E+04  0.7818609E-02  0.8402776E-01
        4   -1    0    0  501    0  0.00000000000E+00  0.00000000000E+00  0.15971499879E+04  0.15971504929E+04  0.12699999809E+01 0. -1.
       -4   -1    0    0    0  501  0.00000000000E+00  0.00000000000E+00 -0.97876510207E+03  0.97876592602E+03  0.12699999809E+01 0.  1.
    10030    2    1    2    0    0  0.00000000000E+00  0.00000000000E+00  0.61838488586E+03  0.25759164189E+04  0.25005890366E+04 0.  0.
        5    1    3    3  502    0  0.90545544939E+02 -0.50870746570E+03 -0.86362630443E+03  0.10064066102E+04  0.46999998093E+01 0.  1.
       -5    1    3    3    0  502 -0.90545544939E+02  0.50870746570E+03  0.14820111903E+04  0.15695098087E+04  0.46999998093E+01 0. -1.
</event>
<event>
 5   0  0.1502886E-05  0.2516841E+04  0.7818609E-02  0.8397010E-01
       -1   -1    0    0    0  501  0.00000000000E+00  0.00000000000E+00  0.73679591572E+03  0.73679591573E+03  0.50400001928E-02 0. -1.
        1   -1    0    0  501    0  0.00000000000E+00  0.00000000000E+00 -0.21493354880E+04  0.21493354880E+04  0.50400001928E-02 0.  1.
    10030    2    1    2    0    0  0.00000000000E+00  0.00000000000E+00 -0.14125395723E+04  0.28861314037E+04  0.25168405663E+04 0.  0.
        4    1    3    3  502    0  0.33167280277E+03  0.10155472864E+04  0.56349005491E+02  0.10698223976E+04  0.12699999809E+01 0. -1.
       -4    1    3    3    0  502 -0.33167280277E+03 -0.10155472864E+04 -0.14688885778E+04  0.18163090061E+04  0.12699999809E+01 0.  1.
</event>
<event>
 5   0  0.3581449E-05  0.2538456E+04  0.7818609E-02  0.8389412E-01
        2   -1    0    0  501    0  0.00000000000E+00  0.00000000000E+00  0.12541509733E+04  0.12541509733E+04  0.25500000920E-02 0.  1.
       -2   -1    0    0    0  501  0.00000000000E+00  0.00000000000E+00 -0.12844867582E+04  0.12844867582E+04  0.25500000920E-02 0. -1.
    10030    2    1    2    0    0  0.00000000000E+00  0.00000000000E+00 -0.30335784874E+02  0.25386377314E+04  0.25384564743E+04 0.  0.
        1    1    3    3  502    0  0.95911093589E+03 -0.44453673090E+03 -0.71766635842E+03  0.12777134634E+04  0.50400001928E-02 0. -1.
       -1    1    3    3    0  502 -0.95911093589E+03  0.44453673090E+03  0.68733057355E+03  0.12609242681E+04  0.50400001928E-02 0.  1.
</event>
<event>
 5   0  0.1429483E-05  0.2365589E+04  0.7818609E-02  0.8452500E-01
       -1   -1    0    0    0  501  0.00000000000E+00  0.00000000000E+00  0.76843646757E+03  0.76843646758E+03  0.50400001928E-02 0.  1.
        1   -1    0    0  501    0  0.00000000000E+00  0.00000000000E+00 -0.18205839232E+04  0.18205839232E+04  0.50400001928E-02 0. -1.
    10030    2    1    2    0    0  0.00000000000E+00  0.00000000000E+00 -0.10521474556E+04  0.25890203908E+04  0.23655892111E+04 0.  0.
        2    1    3    3  502    0  0.24896593578E+02  0.12544767106E+03 -0.18129940522E+04  0.18174994888E+04  0.25500000920E-02 0. -1.
       -2    1    3    3    0  502 -0.24896593578E+02 -0.12544767106E+03  0.76084659660E+03  0.77152090193E+03  0.25500000920E-02 0.  1.
</event>
<event>
 5   0  0.3704241E-05  0.2460651E+04  0.7818609E-02  0.8417139E-01
        2   -1    0    0  501    0  0.00000000000E+00  0.00000000000E+00  0.65074033152E+03  0.65074033153E+03  0.25500000920E-02 0. -1.
       -2   -1    0    0    0  501  0.00000000000E+00  0.00000000000E+00 -0.23261209801E+04  0.23261209801E+04  0.25500000920E-02 0.  1.
    10030    2    1    2    0    0  0.00000000000E+00  0.00000000000E+00 -0.16753806486E+04  0.29768613116E+04  0.24606509202E+04 0.  0.
        2    1    3    3  502    0  0.11858786043E+03  0.97333350186E+03 -0.17367328043E+04  0.19944127005E+04  0.25500000920E-02 0.  1.
       -2    1    3    3    0  502 -0.11858786043E+03 -0.97333350186E+03  0.61352155695E+02  0.98244861112E+03  0.25500000920E-02 0. -1.
</event>
<event>
 5   0  0.1456876E-05  0.2493462E+04  0.7818609E-02  0.8405319E-01
        1   -1    0    0  501    0  0.00000000000E+00  0.00000000000E+00  0.10113997541E+04  0.10113997541E+04  0.50400001928E-02 0. -1.
       -1   -1    0    0    0  501  0.00000000000E+00  0.00000000000E+00 -0.15368184571E+04  0.15368184572E+04  0.50400001928E-02 0.  1.
    10030    2    1    2    0    0  0.00000000000E+00  0.00000000000E+00 -0.52541870305E+03  0.25482182113E+04  0.24934616979E+04 0.  0.
        1    1    3    3  502    0  0.33862414121E+03  0.93804460118E+02 -0.14851684588E+04  0.15261687118E+04  0.50400001928E-02 0.  1.
       -1    1    3    3    0  502 -0.33862414121E+03 -0.93804460118E+02  0.95974975574E+03  0.10220494995E+04  0.50400001928E-02 0. -1.
</event>
<event>
 5   0  0.1502886E-05  0.2695931E+04  0.7818609E-02  0.8336326E-01
       -1   -1    0    0    0  501  0.00000000000E+00  0.00000000000E+00  0.85690225603E+03  0.85690225604E+03  0.50400001928E-02 0. -1.
        1   -1    0    0  501    0  0.00000000000E+00  0.00000000000E+00 -0.21204413143E+04  0.21204413143E+04  0.50400001928E-02 0.  1.
    10030    2    1    2    0    0  0.00000000000E+00  0.00000000000E+00 -0.12635390583E+04  0.29773435704E+04  0.26959309680E+04 0.  0.
        4    1    3    3  502    0 -0.88826504658E+03  0.79805413016E+03 -0.13224328542E+04  0.17817787333E+04  0.12699999809E+01 0.  1.
       -4    1    3    3    0  502  0.88826504658E+03 -0.79805413016E+03  0.58893795867E+02  0.11955648371E+04  0.12699999809E+01 0. -1.
</event>
<event>
 5   0  0.3704241E-05  0.2498927E+04  0.7818609E-02  0.8403368E-01
        2   -1    0    0  501    0  0.00000000000E+00  0.00000000000E+00  0.94068403746E+03  0.94068403746E+03  0.25500000920E-02 0.  1.
       -2   -1    0    0    0  501  0.00000000000E+00  0.00000000000E+00 -0.16596002733E+04  0.16596002733E+04  0.25500000920E-02 0. -1.
    10030    2    1    2    0    0  0.00000000000E+00  0.00000000000E+00 -0.71891623587E+03  0.26002843108E+04  0.24989273584E+04 0.  0.
        2    1    3    3  502    0  0.56816847659E+03 -0.18869025130E+03  0.78171909611E+03  0.98463403047E+03  0.25500000920E-02 0.  1.
       -2    1    3    3    0  502 -0.56816847659E+03  0.18869025130E+03 -0.15006353320E+04  0.16156502803E+04  0.25500000920E-02 0. -1.
</event>
<event>
 5   0  0.3579097E-05  0.2154777E+04  0.7818609E-02  0.8537490E-01
       -2   -1    0    0    0  501  0.00000000000E+00  0.00000000000E+00  0.43351062769E+03  0.43351062770E+03  0.25500000920E-02 0. -1.
        2   -1    0    0  501    0  0.00000000000E+00  0.00000000000E+00 -0.26775940111E+04  0.26775940111E+04  0.25500000920E-02 0.  1.
    10030    2    1    2    0    0  0.00000000000E+00  0.00000000000E+00 -0.22440833834E+04  0.31111046388E+04  0.21547765178E+04 0.  0.
        5    1    3    3  502    0  0.80430205628E+03 -0.70237838384E+03 -0.91528729559E+03  0.14064174755E+04  0.46999998093E+01 0. -1.
       -5    1    3    3    0  502 -0.80430205628E+03  0.70237838384E+03 -0.13287960878E+04  0.17046871633E+04  0.46999998093E+01 0.  1.
</event>
<event>
 5   0  0.1456876E-05  0.2554575E+04  0.7818609E-02  0.8383797E-01
       -1   -1    0    0    0  501  0.00000000000E+00  0.00000000000E+00  0.10412267677E+04  0.10412267678E+04  0.50400001928E-02 0.  1.
        1   -1    0    0  501    0  0.00000000000E+00  0.00000000000E+00 -0.15668663898E+04  0.15668663898E+04  0.50400001928E-02 0. -1.
    10030    2    1    2    0    0  0.00000000000E+00  0.00000000000E+00 -0.52563962209E+03  0.26080931576E+04  0.25545748974E+04 0.  0.
        1    1    3    3  502    0  0.24718778983E+03  0.61414933718E+03 -0.13780327736E+04  0.15288085350E+04  0.50400001928E-02 0. -1.
       -1    1    3    3    0  502 -0.24718778983E+03 -0.61414933718E+03  0.85239315147E+03  0.10792846226E+04  0.50400001928E-02 0.  1.
</event>
<event>
 5   0  0.1429483E-05  0.2498795E+04  0.7818609E-02  0.8403415E-01
        1   -1    0    0  501    0  0.00000000000E+00  0.00000000000E+00  0.11945869284E+04  0.11945869284E+04  0.50400001928E-02 0.  1.
       -1   -1    0    0    0  501  0.00000000000E+00  0.00000000000E+00 -0.13067230694E+04  0.13067230695E+04  0.50400001928E-02 0. -1.
    10030    2    1    2    0    0  0.00000000000E+00  0.00000000000E+00 -0.11213614106E+03  0.25013099978E+04  0.24987951479E+04 0.  0.
        2    1    3    3  502    0 -0.15229312241E+03  0.10954841737E+04 -0.63778590639E+03  0.12767339709E+04  0.25500000920E-02 0. -1.
       -2    1    3    3    0  502  0.15229312241E+03 -0.10954841737E+04  0.52564976532E+03  0.12245760270E+04  0.25500000920E-02 0.  1.
</event>
<event>
 5   0  0.3578670E-05  0.2643772E+04  0.7818609E-02  0.8353483E-01
       -2   -1    0    0    0  501  0.00000000000E+00  0.00000000000E+00  0.18150964832E+04  0.18150964832E+04  0.25500000920E-02 0.  1.
        2   -1    0    0  501    0  0.00000000000E+00  0.00000000000E+00 -0.96269370830E+03  0.96269370831E+03  0.25500000920E-02 0. -1.
    10030    2    1    2    0    0  0.00000000000E+00  0.00000000000E+00  0.85240277487E+03  0.27777901915E+04  0.26437715214E+04 0.  0.
        4    1    3    3  502    0  0.36086224929E+03  0.99717581808E+03 -0.40297998050E+03  0.11344494932E+04  0.12699999809E+01 0. -1.
       -4    1    3    3    0  502 -0.36086224929E+03 -0.99717581808E+03  0.12553827554E+04  0.16433406982E+04  0.12699999809E+01 0.  1.
</event>
<event>
 5   0  0.1201438E-05  0.2522296E+04  0.7818609E-02  0.8395085E-01
       -3   -1    0    0    0  501  0.00000000000E+00  0.00000000000E+00  0.14774826906E+04  0.14774826941E+04  0.10100000352E+00 0. -1.
        3   -1    0    0  501    0  0.00000000000E+00  0.00000000000E+00 -0.10764889818E+04  0.10764889865E+04  0.10100000352E+00 0.  1.
    10030    2    1    2    0    0  0.00000000000E+00  0.00000000000E+00  0.40099370880E+03  0.25539716806E+04  0.25222956589E+04 0.  0.
        3    1    3    3  502    0  0.88461283405E+03  0.78130589524E+03 -0.24951111272E+03  0.12063310382E+04  0.10100000352E+00 0.  1.
       -3    1    3    3    0  502 -0.88461283405E+03 -0.78130589524E+03  0.65050482153E+03  0.13476406424E+04  0.10100000352E+00 0. -1.
</event>
<event>
 5   0  0.3578670E-05  0.2486406E+04  0.7818609E-02  0.8407844E-01
        2   -1    0    0  501    0  0.00000000000E+00  0.00000000000E+00  0.19722155623E+04  0.19722155623E+04  0.25500000920E-02 0.  1.
       -2   -1    0    0    0  501  0.00000000000E+00  0.00000000000E+00 -0.78366395848E+03  0.78366395849E+03  0.25500000920E-02 0. -1.
    10030    2    1    2    0    0  0.00000000000E+00  0.00000000000E+00  0.11885516038E+04  0.27558795208E+04  0.24864064467E+04 0.  0.
        4    1    3    3  502    0  0.28303570588E+03  0.63698457050E+03  0.17352566642E+04  0.18700202826E+04  0.12699999809E+01 0.  1.
       -4    1    3    3    0  502 -0.28303570588E+03 -0.63698457050E+03 -0.54670506040E+03  0.88585923815E+03  0.12699999809E+01 0. -1.
</event>
<event>
 5   0  0.3578670E-05  0.2219423E+04  0.7818609E-02  0.8510387E-01
       -2   -1    0    0    0  501  0.00000000000E+00  0.00000000000E+00  0.11673806657E+04  0.11673806657E+04  0.25500000920E-02 0. -1.
        2   -1    0    0  501    0  0.00000000000E+00  0.00000000000E+00 -0.10548911574E+04  0.10548911574E+04  0.25500000920E-02 0.  1.
    10030    2    1    2    0    0  0.00000000000E+00  0.00000000000E+00  0.11248950830E+03  0.22222718231E+04  0.22194229354E+04 0.  0.
        4    1    3    3  502    0  0.34384694792E+03  0.84530645655E+02 -0.99680945476E+03  0.10578312038E+04  0.12699999809E+01 0.  1.
       -4    1    3    3    0  502 -0.34384694792E+03 -0.84530645655E+02  0.11092989631E+04  0.11644406193E+04  0.12699999809E+01 0. -1.
</event>
<event>
 5   0  0.3579097E-05  0.2508623E+04  0.7818609E-02  0.8399920E-01
       -2   -1    0    0    0  501  0.00000000000E+00  0.00000000000E+00  0.66518598642E+03  0.66518598643E+03  0.25500000920E-02 0. -1.
        2   -1    0    0  501    0  0.00000000000E+00  0.00000000000E+00 -0.23652000846E+04  0.23652000846E+04  0.25500000920E-02 0.  1.
    10030    2    1    2    0    0  0.00000000000E+00  0.00000000000E+00 -0.17000140982E+04  0.30303860711E+04  0.25086234882E+04 0.  0.
        5    1    3    3  502    0 -0.41513538629E+03 -0.39102588733E+03 -0.21995174838E+04  0.22722539218E+04  0.46999998093E+01 0.  1.
       -5    1    3    3    0  502  0.41513538629E+03  0.39102588733E+03  0.49950338561E+03  0.75813214926E+03  0.46999998093E+01 0. -1.
</event>
<event>
 5   0  0.1429483E-05  0.2483966E+04  0.7818609E-02  0.8408720E-01
        1   -1    0    0  501    0  0.00000000000E+00  0.00000000000E+00  0.15169340618E+04  0.15169340618E+04  0.50400001928E-02 0.  1.
       -1   -1    0    0    0  501  0.00000000000E+00  0.00000000000E+00 -0.10168680172E+04  0.10168680172E+04  0.50400001928E-02 0. -1.
    10030    2    1    2    0    0  0.00000000000E+00  0.00000000000E+00  0.50006604466E+03  0.25338020790E+04  0.24839659673E+04 0.  0.
        2    1    3    3  502    0  0.59400679222E+03 -0.18589151483E+03  0.13463622084E+04  0.14832703464E+04  0.25500000920E-02 0.  1.
       -2    1    3    3    0  502 -0.59400679222E+03  0.18589151483E+03 -0.84629616370E+03  0.10505317326E+04  0.25500000920E-02 0. -1.
</event>
<event>
 5   0  0.1456876E-05  0.2495190E+04  0.7818609E-02  0.8404701E-01
        1   -1    0    0  501    0  0.00000000000E+00  0.00000000000E+00  0.12099089681E+04  0.12099089681E+04  0.50400001928E-02 0. -1.
       -1   -1    0    0    0  501  0.00000000000E+00  0.00000000000E+00 -0.12864550516E+04  0.12864550516E+04  0.50400001928E-02 0.  1.
    10030    2    1    2    0    0  0.00000000000E+00  0.00000000000E+00 -0.76546083507E+02  0.24963640197E+04  0.24951901763E+04 0.  0.
        1    1    3    3  502    0 -0.58283793063E+03 -0.10789124937E+04 -0.26803578160E+03  0.12552272315E+04  0.50400001928E-02 0.  1.
       -1    1    3    3    0  502  0.58283793063E+03  0.10789124937E+04  0.19148969809E+03  0.12411367882E+04  0.50400001928E-02 0. -1.
</event>
<event>
 5   0  0.1201438E-05  0.2486416E+04  0.7818609E-02  0.8407841E-01
        3   -1    0    0  501    0  0.00000000000E+00  0.00000000000E+00  0.71321522078E+03  0.71321522794E+03  0.10100000352E+00 0.  1.
       -3   -1    0    0    0  501  0.00000000000E+00  0.00000000000E+00 -0.21670404313E+04  0.21670404337E+04  0.10100000352E+00 0. -1.
    10030    2    1    2    0    0  0.00000000000E+00  0.00000000000E+00 -0.14538252105E+04  0.28802556616E+04  0.24864160821E+04 0.  0.
        4    1    3    3  502    0  0.66490391206E+03 -0.92415337745E+03 -0.14840060352E+03  0.11481206510E+04  0.12699999809E+01 0.  1.
       -4    1    3    3    0  502 -0.66490391206E+03  0.92415337745E+03 -0.13054246070E+04  0.17321350106E+04  0.12699999809E+01 0. -1.
</event>
<event>
 5   0  0.3581449E-05  0.2515006E+04  0.7818609E-02  0.8397659E-01
        2   -1    0    0  501    0  0.00000000000E+00  0.00000000000E+00  0.16679429889E+04  0.16679429889E+04  0.25500000920E-02 0.  1.
       -2   -1    0    0    0  501  0.00000000000E+00  0.00000000000E+00 -0.94806253667E+03  0.94806253667E+03  0.25500000920E-02 0. -1.
    10030    2    1    2    0    0  0.00000000000E+00  0.00000000000E+00  0.71988045222E+03  0.26160055256E+04  0.25150063706E+04 0.  0.
        1    1    3    3  502    0 -0.63980931027E+03 -0.58794882680E+02 -0.76444258799E+03  0.99859163931E+03  0.50400001928E-02 0. -1.
       -1    1    3    3    0  502  0.63980931027E+03  0.58794882680E+02  0.14843230402E+04  0.16174138863E+04  0.50400001928E-02 0.  1.
</event>
<event>
 5   0  0.1429483E-05  0.2471883E+04  0.7818609E-02  0.8413071E-01
       -1   -1    0    0    0  501  0.00000000000E+00  0.00000000000E+00  0.10057766396E+04  0.10057766396E+04  0.50400001928E-02 0.  1.
        1   -1    0    0  501    0  0.00000000000E+00  0.00000000000E+00 -0.15187778914E+04  0.15187778914E+04  0.50400001928E-02 0. -1.
    10030    2    1    2    0    0  0.00000000000E+00  0.00000000000E+00 -0.51300125186E+03  0.25245545310E+04  0.24718829454E+04 0.  0.
        2    1    3    3  502    0  0.34859483178E+03  0.38733751278E+03  0.88809511948E+03  0.10296900732E+04  0.25500000920E-02 0.  1.
       -2    1    3    3    0  502 -0.34859483178E+03 -0.38733751278E+03 -0.14010963713E+04  0.14948644578E+04  0.25500000920E-02 0. -1.
</event>
<event>
 5   0  0.3578670E-05  0.2487171E+04  0.7818609E-02  0.8407570E-01
        2   -1    0    0  501    0  0.00000000000E+00  0.00000000000E+00  0.15631360601E+04  0.15631360601E+04  0.25500000920E-02 0. -1.
       -2   -1    0    0    0  501  0.00000000000E+00  0.00000000000E+00 -0.98936016195E+03  0.98936016196E+03  0.25500000920E-02 0.  1.
    10030    2    1    2    0    0  0.00000000000E+00  0.00000000000E+00  0.57377589812E+03  0.25524962220E+04  0.24871707183E+04 0.  0.
        4    1    3    3  502    0  0.29209985705E+03  0.11783743455E+04  0.56343638797E+03  0.13384134641E+04  0.12699999809E+01 0. -1.
       -4    1    3    3    0  502 -0.29209985705E+03 -0.11783743455E+04  0.10339510150E+02  0.12140827579E+04  0.12699999809E+01 0.  1.
</event>
<event>
 5   0  0.1492639E-05  0.2507812E+04  0.7818609E-02  0.8400208E-01
        1   -1    0    0  501    0  0.00000000000E+00  0.00000000000E+00  0.15465946429E+04  0.15465946429E+04  0.50400001928E-02 0. -1.
       -1   -1    0    0    0  501  0.00000000000E+00  0.00000000000E+00 -0.10166081320E+04  0.10166081320E+04  0.50400001928E-02 0.  1.
    10030    2    1    2    0    0  0.00000000000E+00  0.00000000000E+00  0.52998651090E+03  0.25632027748E+04  0.25078123461E+04 0.  0.
        5    1    3    3  502    0  0.35695894527E+03  0.50010373553E+03 -0.85218828709E+03  0.10506047790E+04  0.46999998093E+01 0.  1.
       -5    1    3    3    0  502 -0.35695894527E+03 -0.50010373553E+03  0.13821747980E+04  0.15125979959E+04  0.46999998093E+01 0. -1.
</event>
<event>
 5   0  0.1421242E-05  0.2548650E+04  0.7818609E-02  0.8385856E-01
       -1   -1    0    0    0  501  0.00000000000E+00  0.00000000000E+00  0.75262638550E+03  0.75262638552E+03  0.50400001928E-02 0. -1.
        1   -1    0    0  501    0  0.00000000000E+00  0.00000000000E+00 -0.21576501546E+04  0.21576501546E+04  0.50400001928E-02 0.  1.
    10030    2    1    2    0    0  0.00000000000E+00  0.00000000000E+00 -0.14050237691E+04  0.29102765402E+04  0.25486501816E+04 0.  0.
        3    1    3    3  502    0 -0.10072892468E+04 -0.32511281488E+03 -0.15128306108E+04  0.18463440731E+04  0.10100000352E+00 0.  1.
       -3    1    3    3    0  502  0.10072892468E+04  0.32511281488E+03  0.10780684164E+03  0.10639324671E+04  0.10100000352E+00 0. -1.
</event>
<event>
 5   0  0.1429483E-05  0.2471209E+04  0.7818609E-02  0.8413315E-01
        1   -1    0    0  501    0  0.00000000000E+00  0.00000000000E+00  0.15277819949E+04  0.15277819949E+04  0.50400001928E-02 0. -1.
       -1   -1    0    0    0  501  0.00000000000E+00  0.00000000000E+00 -0.99930404403E+03  0.99930404404E+03  0.50400001928E-02 0.  1.
    10030    2    1    2    0    0  0.00000000000E+00  0.00000000000E+00  0.52847795083E+03  0.25270860389E+04  0.24712091987E+04 0.  0.
        2    1    3    3  502    0  0.12157861660E+03 -0.12295777465E+04  0.25532809217E+03  0.12616795272E+04  0.25500000920E-02 0. -1.
       -2    1    3    3    0  502 -0.12157861660E+03  0.12295777465E+04  0.27314985866E+03  0.12654065117E+04  0.25500000920E-02 0.  1.
</event>
<event>
 5   0  0.1429483E-05  0.2529345E+04  0.7818609E-02  0.8392605E-01
       -1   -1    0    0    0  501  0.00000000000E+00  0.00000000000E+00  0.13952970977E+04  0.13952970977E+04  0.50400001928E-02 0. -1.
        1   -1    0    0  501    0  0.00000000000E+00  0.00000000000E+00 -0.11462768837E+04  0.11462768837E+04  0.50400001928E-02 0.  1.
    10030    2    1    2    0    0  0.00000000000E+00  0.00000000000E+00  0.24902021407E+03  0.25415739814E+04  0.25293452188E+04 0.  0.
        2    1    3    3  502    0 -0.26794921330E+03 -0.82031952359E+03  0.10534666083E+04  0.13618049774E+04  0.25500000920E-02 0. -1.
       -2    1    3    3    0  502  0.26794921330E+03  0.82031952359E+03 -0.80444639421E+03  0.11797690040E+04  0.25500000920E-02 0.  1.
</event>
<event>
 5   0  0.1492639E-05  0.2480370E+04  0.7818609E-02  0.8410012E-01
        1   -1    0    0  501    0  0.00000000000E+00  0.00000000000E+00  0.12947062004E+04  0.12947062004E+04  0.50400001928E-02 0. -1.
       -1   -1    0    0    0  501  0.00000000000E+00  0.00000000000E+00 -0.11879601714E+04  0.11879601714E+04  0.50400001928E-02 0.  1.
    10030    2    1    2    0    0  0.00000000000E+00  0.00000000000E+00  0.10674602905E+03  0.24826663718E+04  0.24803704560E+04 0.  0.
        5    1    3    3  502    0 -0.18365376639E+03 -0.12022793102E+04 -0.18940678364E+03  0.12308944980E+04  0.46999998093E+01 0. -1.
       -5    1    3    3    0  502  0.18365376639E+03  0.12022793102E+04  0.29615281269E+03  0.12517718738E+04  0.46999998093E+01 0.  1.
</event>
<event>
 5   0  0.3581449E-05  0.2506490E+04  0.7818609E-02  0.8400677E-01
        2   -1    0    0  501    0  0.00000000000E+00  0.00000000000E+00  0.10577494519E+04  0.10577494519E+04  0.25500000920E-02 0.  1.
       -2   -1    0    0    0  501  0.00000000000E+00  0.00000000000E+00 -0.14848723512E+04  0.14848723512E+04  0.25500000920E-02 0. -1.
    10030    2    1    2    0    0  0.00000000000E+00  0.00000000000E+00 -0.42712289925E+03  0.25426218031E+04  0.25064899088E+04 0.  0.
        1    1    3    3  502    0 -0.11912084502E+04  0.33317932651E+03 -0.41805329094E+03  0.13056625098E+04  0.50400001928E-02 0. -1.
       -1    1    3    3    0  502  0.11912084502E+04 -0.33317932651E+03 -0.90696083062E+01  0.12369592933E+04  0.50400001928E-02 0.  1.
</event>
<event>
 5   0  0.1502886E-05  0.2598350E+04  0.7818609E-02  0.8368762E-01
        1   -1    0    0  501    0  0.00000000000E+00  0.00000000000E+00  0.15357230161E+04  0.15357230161E+04  0.50400001928E-02 0. -1.
       -1   -1    0    0    0  501  0.00000000000E+00  0.00000000000E+00 -0.10990627690E+04  0.10990627691E+04  0.50400001928E-02 0.  1.
    10030    2    1    2    0    0  0.00000000000E+00  0.00000000000E+00  0.43666024706E+03  0.26347857852E+04  0.25983502386E+04 0.  0.
        4    1    3    3  502    0  0.89600428019E+03  0.49429078373E+03  0.10299963348E+04  0.14519094709E+04  0.12699999809E+01 0. -1.
       -4    1    3    3    0  502 -0.89600428019E+03 -0.49429078373E+03 -0.59333608773E+03  0.11828763143E+04  0.12699999809E+01 0.  1.
</event>
<event>
 5   0  0.1456876E-05  0.2560301E+04  0.7818609E-02  0.8381812E-01
       -1   -1    0    0    0  501  0.00000000000E+00  0.00000000000E+00  0.10630045014E+04  0.10630045014E+04  0.50400001928E-02 0. -1.
        1   -1    0    0  501    0  0.00000000000E+00  0.00000000000E+00 -0.15416542454E+04  0.15416542454E+04  0.50400001928E-02 0.  1.
    10030    2    1    2    0    0  0.00000000000E+00  0.00000000000E+00 -0.47864974402E+03  0.26046587469E+04  0.25603010780E+04 0.  0.
        1    1    3    3  502    0 -0.63737963782E+03  0.10199250254E+04  0.20677603716E+03  0.12203508470E+04  0.50400001928E-02 0. -1.
       -1    1    3    3    0  502  0.63737963782E+03 -0.10199250254E+04 -0.68542578119E+03  0.13843078999E+04  0.50400001928E-02 0.  1.
</event>
<event>
 5   0  0.3578670E-05  0.2481429E+04  0.7818609E-02  0.8409632E-01
       -2   -1    0    0    0  501  0.00000000000E+00  0.00000000000E+00  0.20169613398E+04  0.20169613398E+04  0.25500000920E-02 0. -1.
        2   -1    0    0  501    0  0.00000000000E+00  0.00000000000E+00 -0.76321371468E+03  0.76321371469E+03  0.25500000920E-02 0.  1.
    10030    2    1    2    0    0  0.00000000000E+00  0.00000000000E+00  0.12537476251E+04  0.27801750545E+04  0.24814290693E+04 0.  0.
        4    1    3    3  502    0 -0.70493636774E+03 -0.21291678701E+03 -0.49189433418E+03  0.88556789105E+03  0.12699999809E+01 0.  1.
       -4    1    3    3    0  502  0.70493636774E+03  0.21291678701E+03  0.17456419593E+04  0.18946071634E+04  0.12699999809E+01 0. -1.
</event>
<event>
 5   0  0.1492639E-05  0.2516529E+04  0.7818609E-02  0.8397121E-01
       -1   -1    0    0    0  501  0.00000000000E+00  0.00000000000E+00  0.10415277683E+04  0.10415277683E+04  0.50400001928E-02 0. -1.
        1   -1    0    0  501    0  0.00000000000E+00  0.00000000000E+00 -0.15201026182E+04  0.15201026182E+04  0.50400001928E-02 0.  1.
    10030    2    1    2    0    0  0.00000000000E+00  0.00000000000E+00 -0.47857484990E+03  0.25616303866E+04  0.25165286310E+04 0.  0.
        5    1    3    3  502    0 -0.11983598238E+04 -0.15275469371E+03  0.11888052732E+03  0.12139007099E+04  0.46999998093E+01 0. -1.
       -5    1    3    3    0  502  0.11983598238E+04  0.15275469371E+03 -0.59745537722E+03  0.13477296767E+04  0.46999998093E+01 0.  1.
</event>
<event>
 5   0  0.1201438E-05  0.2278883E+04  0.7818609E-02  0.8486294E-01
        3   -1    0    0  501    0  0.00000000000E+00  0.00000000000E+00  0.12065469437E+04  0.12065469479E+04  0.10100000352E+00 0.  1.
       -3   -1    0    0    0  501  0.00000000000E+00  0.00000000000E+00 -0.10760679425E+04  0.10760679472E+04  0.10100000352E+00 0. -1.
    10030    2    1    2    0    0  0.00000000000E+00  0.00000000000E+00  0.13047900118E+03  0.22826148951E+04  0.22788826187E+04 0.  0.
        2    1    3    3  502    0  0.17800848692E+03 -0.47075356850E+03 -0.95870209335E+03  0.10827768226E+04  0.25500000920E-02 0. -1.
       -2    1    3    3    0  502 -0.17800848692E+03  0.47075356850E+03  0.10891810945E+04  0.11998380726E+04  0.25500000920E-02 0.  1.
</event>
<event>
 5   0  0.1502886E-05  0.2350845E+04  0.7818609E-02  0.8458139E-01
        1   -1    0    0  501    0  0.00000000000E+00  0.00000000000E+00  0.23303013179E+04  0.23303013179E+04  0.50400001928E-02 0. -1.
       -1   -1    0    0    0  501  0.00000000000E+00  0.00000000000E+00 -0.59289219929E+03  0.59289219931E+03  0.50400001928E-02 0.  1.
    10030    2    1    2    0    0  0.00000000000E+00  0.00000000000E+00  0.17374091186E+04  0.29231935172E+04  0.23508445065E+04 0.  0.
        4    1    3    3  502    0  0.79696986736E+03  0.30431059786E+03  0.18741828783E+04  0.20592059110E+04  0.12699999809E+01 0. -1.
       -4    1    3    3    0  502 -0.79696986736E+03 -0.30431059786E+03 -0.13677375975E+03  0.86398760622E+03  0.12699999809E+01 0.  1.
</event>
<event>
 5   0  0.3581449E-05  0.2488812E+04  0.7818609E-02  0.8406982E-01
       -2   -1    0    0    0  501  0.00000000000E+00  0.00000000000E+00  0.67658576129E+03  0.67658576129E+03  0.25500000920E-02 0.  1.
        2   -1    0    0  501    0  0.00000000000E+00  0.00000000000E+00 -0.22887653065E+04  0.22887653065E+04  0.25500000920E-02 0. -1.
    10030    2    1    2    0    0  0.00000000000E+00  0.00000000000E+00 -0.16121795452E+04  0.29653510678E+04  0.24888117786E+04 0.  0.
        1    1    3    3  502    0  0.97856305378E+03 -0.45929227906E+02  0.10820602802E+03  0.98559813754E+03  0.50400001928E-02 0.  1.
       -1    1    3    3    0  502 -0.97856305378E+03  0.45929227906E+02 -0.17203855732E+04  0.19797529302E+04  0.50400001928E-02 0. -1.
</event>
<event>
 5   0  0.1502886E-05  0.2559896E+04  0.7818609E-02  0.8381953E-01
       -1   -1    0    0    0  501  0.00000000000E+00  0.00000000000E+00  0.11657877830E+04  0.11657877830E+04  0.50400001928E-02 0. -1.
        1   -1    0    0  501    0  0.00000000000E+00  0.00000000000E+00 -0.14052872969E+04  0.14052872969E+04  0.50400001928E-02 0.  1.
    10030    2    1    2    0    0  0.00000000000E+00  0.00000000000E+00 -0.23949951389E+03  0.25710750800E+04  0.25598959060E+04 0.  0.
        4    1    3    3  502    0  0.34019628700E+03 -0.93188498810E+03 -0.93205981885E+03  0.13612054450E+04  0.12699999809E+01 0.  1.
       -4    1    3    3    0  502 -0.34019628700E+03  0.93188498810E+03  0.69256030496E+03  0.12098696350E+04  0.12699999809E+01 0. -1.
</event>
<event>
 5   0  0.3581449E-05  0.2502534E+04  0.7818609E-02  0.8402083E-01
        2   -1    0    0  501    0  0.00000000000E+00  0.00000000000E+00  0.10048463901E+04  0.10048463901E+04  0.25500000920E-02 0. -1.
       -2   -1    0    0    0  501  0.00000000000E+00  0.00000000000E+00 -0.15581182720E+04  0.15581182720E+04  0.25500000920E-02 0.  1.
    10030    2    1    2    0    0  0.00000000000E+00  0.00000000000E+00 -0.55327188189E+03  0.25629646620E+04  0.25025343321E+04 0.  0.
        1    1    3    3  502    0 -0.56069850785E+03  0.13824246825E+03 -0.14134747685E+04  0.15268938136E+04  0.50400001928E-02 0.  1.
       -1    1    3    3    0  502  0.56069850785E+03 -0.13824246825E+03  0.86020288663E+03  0.10360708484E+04  0.50400001928E-02 0. -1.
</event>
<event>
 5   0  0.3650620E-05  0.2517165E+04  0.7818609E-02  0.8396896E-01
       -2   -1    0    0    0  501  0.00000000000E+00  0.00000000000E+00  0.95812740070E+03  0.95812740070E+03  0.25500000920E-02 0. -1.
        2   -1    0    0  501    0  0.00000000000E+00  0.00000000000E+00 -0.16532557775E+04  0.16532557775E+04  0.25500000920E-02 0.  1.
    10030    2    1    2    0    0  0.00000000000E+00  0.00000000000E+00 -0.69512837684E+03  0.26113831782E+04  0.25171648026E+04 0.  0.
        3    1    3    3  502    0 -0.10285574566E+04  0.62428943353E+03 -0.73065831462E+03  0.14076680437E+04  0.10100000352E+00 0.  1.
       -3    1    3    3    0  502  0.10285574566E+04 -0.62428943353E+03  0.35529937776E+02  0.12037151345E+04  0.10100000352E+00 0. -1.
</event>
<event>
 5   0  0.3650620E-05  0.2489994E+04  0.7818609E-02  0.8406559E-01
       -2   -1    0    0    0  501  0.00000000000E+00  0.00000000000E+00  0.91169095021E+03  0.91169095022E+03  0.25500000920E-02 0. -1.
        2   -1    0    0  501    0  0.00000000000E+00  0.00000000000E+00 -0.17001562948E+04  0.17001562948E+04  0.25500000920E-02 0.  1.
    10030    2    1    2    0    0  0.00000000000E+00  0.00000000000E+00 -0.78846534455E+03  0.26118472450E+04  0.24899936610E+04 0.  0.
        3    1    3    3  502    0  0.32977439854E+03  0.92615973250E+03  0.40701681410E+03  0.10640421520E+04  0.10100000352E+00 0. -1.
       -3    1    3    3    0  502 -0.32977439854E+03 -0.92615973250E+03 -0.11954821587E+04  0.15478050930E+04  0.10100000352E+00 0.  1.
</event>
<event>
 5   0  0.1456876E-05  0.2500853E+04  0.7818609E-02  0.8402682E-01
        1   -1    0    0  501    0  0.00000000000E+00  0.00000000000E+00  0.14151491994E+04  0.14151491994E+04  0.50400001928E-02 0.  1.
       -1   -1    0    0    0  501  0.00000000000E+00  0.00000000000E+00 -0.11048770191E+04  0.11048770191E+04  0.50400001928E-02 0. -1.
    10030    2    1    2    0    0  0.00000000000E+00  0.00000000000E+00  0.31027218027E+03  0.25200262186E+04  0.25008525179E+04 0.  0.
        1    1    3    3  502    0  0.13211668390E+03 -0.94654496260E+03 -0.65737316930E+03  0.11599748567E+04  0.50400001928E-02 0. -1.
       -1    1    3    3    0  502 -0.13211668390E+03  0.94654496260E+03  0.96764534957E+03  0.13600513619E+04  0.50400001928E-02 0.  1.
</event>
<event>
 5   0  0.1492639E-05  0.2536652E+04  0.7818609E-02  0.8390043E-01
       -1   -1    0    0    0  501  0.00000000000E+00  0.00000000000E+00  0.17535905767E+04  0.17535905767E+04  0.50400001928E-02 0.  1.
        1   -1    0    0  501    0  0.00000000000E+00  0.00000000000E+00 -0.91734713129E+03  0.91734713130E+03  0.50400001928E-02 0. -1.
    10030    2    1    2    0    0  0.00000000000E+00  0.00000000000E+00  0.83624344537E+03  0.26709377080E+04  0.25366523490E+04 0.  0.
        5    1    3    3  502    0 -0.30947323590E+03  0.28098422559E+02  0.17128784651E+04  0.17408440284E+04  0.46999998093E+01 0.  1.
       -5    1    3    3    0  502  0.30947323590E+03 -0.28098422559E+02 -0.87663501968E+03  0.93009367960E+03  0.46999998093E+01 0. -1.
</event>
<event>
 5   0  0.3650620E-05  0.2511547E+04  0.7818609E-02  0.8398884E-01
       -2   -1    0    0    0  501  0.00000000000E+00  0.00000000000E+00  0.11737904835E+04  0.11737904835E+04  0.25500000920E-02 0. -1.
        2   -1    0    0  501    0  0.00000000000E+00  0.00000000000E+00 -0.13434820832E+04  0.13434820832E+04  0.25500000920E-02 0.  1.
    10030    2    1    2    0    0  0.00000000000E+00  0.00000000000E+00 -0.16969159975E+03  0.25172725667E+04  0.25115465228E+04 0.  0.
        3    1    3    3  502    0  0.33662316088E+03 -0.80010220988E+03 -0.99437698392E+03  0.13199485956E+04  0.10100000352E+00 0.  1.
       -3    1    3    3    0  502 -0.33662316088E+03  0.80010220988E+03  0.82468538417E+03  0.11973239711E+04  0.10100000352E+00 0. -1.
</event>
<event>
 5   0  0.1492639E-05  0.2473238E+04  0.7818609E-02  0.8412582E-01
        1   -1    0    0  501    0  0.00000000000E+00  0.00000000000E+00  0.12622247602E+04  0.12622247602E+04  0.50400001928E-02 0. -1.
       -1   -1    0    0    0  501  0.00000000000E+00  0.00000000000E+00 -0.12115329244E+04  0.12115329244E+04  0.50400001928E-02 0.  1.
    10030    2    1    2    0    0  0.00000000000E+00  0.00000000000E+00  0.50691835764E+02  0.24737576846E+04  0.24732382457E+04 0.  0.
        5    1    3    3  502    0  0.18760926807E+03 -0.17121745316E+02  0.12477786851E+04  0.12619287336E+04  0.46999998093E+01 0. -1.
       -5    1    3    3    0  502 -0.18760926807E+03  0.17121745316E+02 -0.11970868493E+04  0.12118289510E+04  0.46999998093E+01 0.  1.
</event>
<event>
 5   0  0.3704241E-05  0.2502273E+04  0.7818609E-02  0.8402176E-01
        2   -1    0    0  501    0  0.00000000000E+00  0.00000000000E+00  0.18392348382E+04  0.18392348382E+04  0.25500000920E-02 0.  1.
       -2   -1    0    0    0  501  0.00000000000E+00  0.00000000000E+00 -0.85108331469E+03  0.85108331469E+03  0.25500000920E-02 0. -1.
    10030    2    1    2    0    0  0.00000000000E+00  0.00000000000E+00  0.98815152355E+03  0.26903181529E+04  0.25022726331E+04 0.  0.
        2    1    3    3  502    0  0.11612679927E+04  0.15508968136E+03  0.22054441268E+02  0.11717860550E+04  0.25500000920E-02 0.  1.
       -2    1    3    3    0  502 -0.11612679927E+04 -0.15508968136E+03  0.96609708228E+03  0.15185320980E+04  0.25500000920E-02 0. -1.
</event>
<event>
 5   0  0.1421242E-05  0.2496056E+04  0.7818609E-02  0.8404392E-01
       -1   -1    0    0    0  501  0.00000000000E+00  0.00000000000E+00  0.53378815285E+03  0.53378815287E+03  0.50400001928E-02 0.  1.
        1   -1    0    0  501    0  0.00000000000E+00  0.00000000000E+00 -0.29179621899E+04  0.29179621899E+04  0.50400001928E-02 0. -1.
    10030    2    1    2    0    0  0.00000000000E+00  0.00000000000E+00 -0.23841740371E+04  0.34517503428E+04  0.24960558067E+04 0.  0.
        3    1    3    3  502    0 -0.11519054256E+04 -0.46664261025E+03 -0.10348259120E+04  0.16172526437E+04  0.10100000352E+00 0.  1.
       -3    1    3    3    0  502  0.11519054256E+04  0.46664261025E+03 -0.13493481251E+04  0.18344976991E+04  0.10100000352E+00 0. -1.
</event>
<event>
 5   0  0.1421242E-05  0.2474058E+04  0.7818609E-02  0.8412286E-01
        1   -1    0    0  501    0  0.00000000000E+00  0.00000000000E+00  0.56388256473E+03  0.56388256475E+03  0.50400001928E-02 0. -1.
       -1   -1    0    0    0  501  0.00000000000E+00  0.00000000000E+00 -0.27137569177E+04  0.27137569178E+04  0.50400001928E-02 0.  1.
    10030    2    1    2    0    0  0.00000000000E+00  0.00000000000E+00 -0.21498743530E+04  0.32776394825E+04  0.24740575667E+04 0.  0.
        3    1    3    3  502    0  0.98911677025E+03 -0.74184097285E+03 -0.10226085136E+04  0.16044962438E+04  0.10100000352E+00 0. -1.
       -3    1    3    3    0  502 -0.98911677025E+03  0.74184097285E+03 -0.11272658394E+04  0.16731432387E+04  0.10100000352E+00 0.  1.
</event>
<event>
 5   0  0.1502886E-05  0.2480520E+04  0.7818609E-02  0.8409958E-01
        1   -1    0    0  501    0  0.00000000000E+00  0.00000000000E+00  0.16080835410E+04  0.16080835410E+04  0.50400001928E-02 0.  1.
       -1   -1    0    0    0  501  0.00000000000E+00  0.00000000000E+00 -0.95657044544E+03  0.95657044546E+03  0.50400001928E-02 0. -1.
    10030    2    1    2    0    0  0.00000000000E+00  0.00000000000E+00  0.65151309552E+03  0.25646539864E+04  0.24805202592E+04 0.  0.
        4    1    3    3  502    0  0.22975780186E+03 -0.41830985557E+03 -0.85782950927E+03  0.98165414615E+03  0.12699999809E+01 0. -1.
       -4    1    3    3    0  502 -0.22975780186E+03  0.41830985557E+03  0.15093426048E+04  0.15829998403E+04  0.12699999809E+01 0.  1.
</event>
<event>
 5   0  0.3578670E-05  0.2150469E+04  0.7818609E-02  0.8539332E-01
        2   -1    0    0  501    0  0.00000000000E+00  0.00000000000E+00  0.10390290723E+04  0.10390290723E+04  0.25500000920E-02 0. -1.
       -2   -1    0    0    0  501  0.00000000000E+00  0.00000000000E+00 -0.11127012799E+04  0.11127012799E+04  0.25500000920E-02 0.  1.
    10030    2    1    2    0    0  0.00000000000E+00  0.00000000000E+00 -0.73672207588E+02  0.21517303523E+04  0.21504687663E+04 0.  0.
        4    1    3    3  502    0 -0.20703081726E+02 -0.72048038882E+03  0.76150838031E+03  0.10485309888E+04  0.12699999809E+01 0. -1.
       -4    1    3    3    0  502  0.20703081726E+02  0.72048038882E+03 -0.83518058789E+03  0.11031993635E+04  0.12699999809E+01 0.  1.
</event>
<event>
 5   0  0.1421242E-05  0.2491287E+04  0.7818609E-02  0.8406096E-01
        1   -1    0    0  501    0  0.00000000000E+00  0.00000000000E+00  0.54306471972E+03  0.54306471974E+03  0.50400001928E-02 0.  1.
       -1   -1    0    0    0  501  0.00000000000E+00  0.00000000000E+00 -0.28571694796E+04  0.28571694796E+04  0.50400001928E-02 0. -1.
    10030    2    1    2    0    0  0.00000000000E+00  0.00000000000E+00 -0.23141047599E+04  0.34002341994E+04  0.24912871715E+04 0.  0.
        3    1    3    3  502    0 -0.53175111074E+03  0.41504062555E+03 -0.25863120330E+04  0.26728314400E+04  0.10100000352E+00 0. -1.
       -3    1    3    3    0  502  0.53175111074E+03 -0.41504062555E+03  0.27220727306E+03  0.72740275937E+03  0.10100000352E+00 0.  1.
</event>
<event>
 5   0  0.1492639E-05  0.2696382E+04  0.7818609E-02  0.8336180E-01
       -1   -1    0    0    0  501  0.00000000000E+00  0.00000000000E+00  0.10391157837E+04  0.10391157837E+04  0.50400001928E-02 0. -1.
        1   -1    0    0  501    0  0.00000000000E+00  0.00000000000E+00 -0.17491972706E+04  0.17491972706E+04  0.50400001928E-02 0.  1.
    10030    2    1    2    0    0  0.00000000000E+00  0.00000000000E+00 -0.71008148689E+03  0.27883130543E+04  0.26963816441E+04 0.  0.
        5    1    3    3  502    0  0.98430761785E+03 -0.55058420942E+03  0.40878474203E+03  0.11996380761E+04  0.46999998093E+01 0. -1.
       -5    1    3    3    0  502 -0.98430761785E+03  0.55058420942E+03 -0.11188662289E+04  0.15886749782E+04  0.46999998093E+01 0.  1.
</event>
<event>
 5   0  0.1502886E-05  0.2490703E+04  0.7818609E-02  0.8406305E-01
        1   -1    0    0  501    0  0.00000000000E+00  0.00000000000E+00  0.19516112619E+04  0.19516112619E+04  0.50400001928E-02 0.  1.
       -1   -1    0    0    0  501  0.00000000000E+00  0.00000000000E+00 -0.79467670668E+03  0.79467670670E+03  0.50400001928E-02 0. -1.
    10030    2    1    2    0    0  0.00000000000E+00  0.00000000000E+00  0.11569345552E+04  0.27462879686E+04  0.24907027204E+04 0.  0.
        4    1    3    3  502    0 -0.10737505446E+04  0.30337136387E+03 -0.31393833009E+02  0.11162265012E+04  0.12699999809E+01 0. -1.
       -4    1    3    3    0  502  0.10737505446E+04 -0.30337136387E+03  0.11883283882E+04  0.16300614674E+04  0.12699999809E+01 0.  1.
</event>
<event>
 5   0  0.3704241E-05  0.2533917E+04  0.7818609E-02  0.8391001E-01
       -2   -1    0    0    0  501  0.00000000000E+00  0.00000000000E+00  0.17135631473E+04  0.17135631473E+04  0.25500000920E-02 0.  1.
        2   -1    0    0  501    0  0.00000000000E+00  0.00000000000E+00 -0.93675198937E+03  0.93675198937E+03  0.25500000920E-02 0. -1.
    10030    2    1    2    0    0  0.00000000000E+00  0.00000000000E+00  0.77681115788E+03  0.26503151366E+04  0.25339168788E+04 0.  0.
        2    1    3    3  502    0 -0.75946286985E+03  0.92492947269E+03  0.82332551362E+03  0.14526332233E+04  0.25500000920E-02 0. -1.
       -2    1    3    3    0  502  0.75946286985E+03 -0.92492947269E+03 -0.46514355741E+02  0.11976819133E+04  0.25500000920E-02 0.  1.
</event>
<event>
 5   0  0.3578670E-05  0.2484212E+04  0.7818609E-02  0.8408632E-01
       -2   -1    0    0    0  501  0.00000000000E+00  0.00000000000E+00  0.76244398529E+03  0.76244398530E+03  0.25500000920E-02 0. -1.
        2   -1    0    0  501    0  0.00000000000E+00  0.00000000000E+00 -0.20235285539E+04  0.20235285539E+04  0.25500000920E-02 0.  1.
    10030    2    1    2    0    0  0.00000000000E+00  0.00000000000E+00 -0.12610845686E+04  0.27859725392E+04  0.24842118871E+04 0.  0.
        4    1    3    3  502    0 -0.10456004228E+04  0.22385399972E+03  0.78237126931E+02  0.10721536822E+04  0.12699999809E+01 0. -1.
       -4    1    3    3    0  502  0.10456004228E+04 -0.22385399972E+03 -0.13393216956E+04  0.17138188570E+04  0.12699999809E+01 0.  1.
</event>
<event>
 5   0  0.3578670E-05  0.2483783E+04  0.7818609E-02  0.8408786E-01
        2   -1    0    0  501    0  0.00000000000E+00  0.00000000000E+00  0.28564980058E+04  0.28564980058E+04  0.25500000920E-02 0.  1.
       -2   -1    0    0    0  501  0.00000000000E+00  0.00000000000E+00 -0.53992480903E+03  0.53992480903E+03  0.25500000920E-02 0. -1.
    10030    2    1    2    0    0  0.00000000000E+00  0.00000000000E+00  0.23165731967E+04  0.33964228148E+04  0.24837827121E+04 0.  0.
        4    1    3    3  502    0 -0.11270939720E+04  0.47005389034E+03  0.14671011031E+04  0.19088422515E+04  0.12699999809E+01 0.  1.
       -4    1    3    3    0  502  0.11270939720E+04 -0.47005389034E+03  0.84947209360E+03  0.14875805633E+04  0.12699999809E+01 0. -1.
</event>
<event>
 5   0  0.1502886E-05  0.2508704E+04  0.7818609E-02  0.8399891E-01
       -1   -1    0    0    0  501  0.00000000000E+00  0.00000000000E+00  0.24331856277E+04  0.24331856277E+04  0.50400001928E-02 0. -1.
        1   -1    0    0  501    0  0.00000000000E+00  0.00000000000E+00 -0.64664158745E+03  0.64664158747E+03  0.50400001928E-02 0.  1.
    10030    2    1    2    0    0  0.00000000000E+00  0.00000000000E+00  0.17865440402E+04  0.30798272152E+04  0.25087040614E+04 0.  0.
        4    1    3    3  502    0 -0.12418043992E+04 -0.94389531678E+02  0.70949278643E+03  0.14333070768E+04  0.12699999809E+01 0.  1.
       -4    1    3    3    0  502  0.12418043992E+04  0.94389531678E+02  0.10770512538E+04  0.16465201383E+04  0.12699999809E+01 0. -1.
</event>
<event>
 5   0  0.3704241E-05  0.2291405E+04  0.7818609E-02  0.8481318E-01
        2   -1    0    0  501    0  0.00000000000E+00  0.00000000000E+00  0.97256478233E+03  0.97256478234E+03  0.25500000920E-02 0. -1.
       -2   -1    0    0    0  501  0.00000000000E+00  0.00000000000E+00 -0.13496630856E+04  0.13496630856E+04  0.25500000920E-02 0.  1.
    10030    2    1    2    0    0  0.00000000000E+00  0.00000000000E+00 -0.37709830329E+03  0.23222278680E+04  0.22914054945E+04 0.  0.
        2    1    3    3  502    0 -0.99168505845E+03  0.38675571334E+03 -0.61806070108E+03  0.12308607830E+04  0.25500000920E-02 0.  1.
       -2    1    3    3    0  502  0.99168505845E+03 -0.38675571334E+03  0.24096239779E+03  0.10913670849E+04  0.25500000920E-02 0. -1.
</event>
<event>
 5   0  0.3578670E-05  0.2488344E+04  0.7818609E-02  0.8407150E-01
        2   -1    0    0  501    0  0.00000000000E+00  0.00000000000E+00  0.25083438778E+04  0.25083438778E+04  0.25500000920E-02 0.  1.
       -2   -1    0    0    0  501  0.00000000000E+00  0.00000000000E+00 -0.61712610619E+03  0.61712610620E+03  0.25500000920E-02 0. -1.
    10030    2    1    2    0    0  0.00000000000E+00  0.00000000000E+00  0.18912177716E+04  0.31254699840E+04  0.24883444217E+04 0.  0.
        4    1    3    3  502    0  0.29873457772E+02 -0.30151796260E+02 -0.61621565458E+03  0.61767701928E+03  0.12699999809E+01 0. -1.
       -4    1    3    3    0  502 -0.29873457772E+02  0.30151796260E+02  0.25074334262E+04  0.25077929647E+04  0.12699999809E+01 0.  1.
</event>
<event>
 5   0  0.3579097E-05  0.2494027E+04  0.7818609E-02  0.8405117E-01
        2   -1    0    0  501    0  0.00000000000E+00  0.00000000000E+00  0.26310510406E+04  0.26310510406E+04  0.25500000920E-02 0.  1.
       -2   -1    0    0    0  501  0.00000000000E+00  0.00000000000E+00 -0.59103478882E+03  0.59103478882E+03  0.25500000920E-02 0. -1.
    10030    2    1    2    0    0  0.00000000000E+00  0.00000000000E+00  0.20400162518E+04  0.32220858295E+04  0.24940270216E+04 0.  0.
        5    1    3    3  502    0  0.51196723464E+03  0.29663101862E+03 -0.39811876456E+03  0.71317673213E+03  0.46999998093E+01 0. -1.
       -5    1    3    3    0  502 -0.51196723464E+03 -0.29663101862E+03  0.24381350164E+04  0.25089090973E+04  0.46999998093E+01 0.  1.
</event>
<event>
 5   0  0.1429483E-05  0.2430944E+04  0.7818609E-02  0.8428009E-01
       -1   -1    0    0    0  501  0.00000000000E+00  0.00000000000E+00  0.11282273869E+04  0.11282273869E+04  0.50400001928E-02 0.  1.
        1   -1    0    0  501    0  0.00000000000E+00  0.00000000000E+00 -0.13094627224E+04  0.13094627224E+04  0.50400001928E-02 0. -1.
    10030    2    1    2    0    0  0.00000000000E+00  0.00000000000E+00 -0.18123533548E+03  0.24376901093E+04  0.24309436073E+04 0.  0.
        2    1    3    3  502    0  0.34635353705E+03  0.11019196057E+04 -0.47006458722E+03  0.12470558553E+04  0.25500000920E-02 0. -1.
       -2    1    3    3    0  502 -0.34635353705E+03 -0.11019196057E+04  0.28882925174E+03  0.11906342540E+04  0.25500000920E-02 0.  1.
</event>
<event>
 5   0  0.3579097E-05  0.2504931E+04  0.7818609E-02  0.8401231E-01
       -2   -1    0    0    0  501  0.00000000000E+00  0.00000000000E+00  0.11603479470E+04  0.11603479470E+04  0.25500000920E-02 0. -1.
        2   -1    0    0  501    0  0.00000000000E+00  0.00000000000E+00 -0.13518962100E+04  0.13518962100E+04  0.25500000920E-02 0.  1.
    10030    2    1    2    0    0  0.00000000000E+00  0.00000000000E+00 -0.19154826301E+03  0.25122441571E+04  0.25049311303E+04 0.  0.
        5    1    3    3  502    0  0.45601518681E+02  0.11028257051E+04 -0.68940067900E+03  0.13013836562E+04  0.46999998093E+01 0.  1.
       -5    1    3    3    0  502 -0.45601518681E+02 -0.11028257051E+04  0.49785241599E+03  0.12108605009E+04  0.46999998093E+01 0. -1.
</event>
<event>
 5   0  0.1201438E-05  0.2515639E+04  0.7818609E-02  0.8397435E-01
        3   -1    0    0  501    0  0.00000000000E+00  0.00000000000E+00  0.10234191268E+04  0.10234191318E+04  0.10100000352E+00 0.  1.
       -3   -1    0    0    0  501  0.00000000000E+00  0.00000000000E+00 -0.15459064323E+04  0.15459064356E+04  0.10100000352E+00 0. -1.
    10030    2    1    2    0    0  0.00000000000E+00  0.00000000000E+00 -0.52248730552E+03  0.25693255674E+04  0.25156392601E+04 0.  0.
        4    1    3    3  502    0 -0.20155743855E+03 -0.49359249172E+03  0.90230076929E+03  0.10480492546E+04  0.12699999809E+01 0.  1.
       -4    1    3    3    0  502  0.20155743855E+03  0.49359249172E+03 -0.14247880748E+04  0.15212763128E+04  0.12699999809E+01 0. -1.
</event>
<event>
 5   0  0.1429483E-05  0.2467460E+04  0.7818609E-02  0.8414671E-01
        1   -1    0    0  501    0  0.00000000000E+00  0.00000000000E+00  0.14802442704E+04  0.14802442704E+04  0.50400001928E-02 0. -1.
       -1   -1    0    0    0  501  0.00000000000E+00  0.00000000000E+00 -0.10282694376E+04  0.10282694376E+04  0.50400001928E-02 0.  1.
    10030    2    1    2    0    0  0.00000000000E+00  0.00000000000E+00  0.45197483283E+03  0.25085137080E+04  0.24674601868E+04 0.  0.
        2    1    3    3  502    0  0.92129956056E+03 -0.61997663012E+03  0.77244904009E+03  0.13527163124E+04  0.25500000920E-02 0. -1.
       -2    1    3    3    0  502 -0.92129956056E+03  0.61997663012E+03 -0.32047420725E+03  0.11557973956E+04  0.25500000920E-02 0.  1.
</event>
<event>
 5   0  0.3581449E-05  0.2526218E+04  0.7818609E-02  0.8393704E-01
       -2   -1    0    0    0  501  0.00000000000E+00  0.00000000000E+00  0.12709772758E+04  0.12709772758E+04  0.25500000920E-02 0.  1.
        2   -1    0    0  501    0  0.00000000000E+00  0.00000000000E+00 -0.12552893880E+04  0.12552893880E+04  0.25500000920E-02 0. -1.
    10030    2    1    2    0    0  0.00000000000E+00  0.00000000000E+00  0.15687887807E+02  0.25262666637E+04  0.25262179531E+04 0.  0.
        1    1    3    3  502    0 -0.25348092713E+03  0.85125985606E+03 -0.89025374998E+03  0.12575562263E+04  0.50400001928E-02 0. -1.
       -1    1    3    3    0  502  0.25348092713E+03 -0.85125985606E+03  0.90594163779E+03  0.12687104374E+04  0.50400001928E-02 0.  1.
</event>
<event>
 5   0  0.1456876E-05  0.2511776E+04  0.7818609E-02  0.8398802E-01
        1   -1    0    0  501    0  0.00000000000E+00  0.00000000000E+00  0.14952108793E+04  0.14952108793E+04  0.50400001928E-02 0.  1.
       -1   -1    0    0    0  501  0.00000000000E+00  0.00000000000E+00 -0.10548710439E+04  0.10548710440E+04  0.50400001928E-02 0. -1.
    10030    2    1    2    0    0  0.00000000000E+00  0.00000000000E+00  0.44033983530E+03  0.25500819232E+04  0.25117759941E+04 0.  0.
        1    1    3    3  502    0 -0.89844331315E+03 -0.86666262530E+03  0.35992890986E+03  0.12991740889E+04  0.50400001928E-02 0.  1.
       -1    1    3    3    0  502  0.89844331315E+03  0.86666262530E+03  0.80410925441E+02  0.12509078343E+04  0.50400001928E-02 0. -1.
</event>
<event>
 5   0  0.3579097E-05  0.2525232E+04  0.7818609E-02  0.8394051E-01
       -2   -1    0    0    0  501  0.00000000000E+00  0.00000000000E+00  0.11882765491E+04  0.11882765491E+04  0.25500000920E-02 0.  1.
        2   -1    0    0  501    0  0.00000000000E+00  0.00000000000E+00 -0.13416064178E+04  0.13416064178E+04  0.25500000920E-02 0. -1.
    10030    2    1    2    0    0  0.00000000000E+00  0.00000000000E+00 -0.15332986875E+03  0.25298829669E+04  0.25252322225E+04 0.  0.
        5    1    3    3  502    0  0.64619620382E+03 -0.43068965614E+03 -0.10740456499E+04  0.13253902300E+04  0.46999998093E+01 0. -1.
       -5    1    3    3    0  502 -0.64619620382E+03  0.43068965614E+03  0.92071578114E+03  0.12044927369E+04  0.46999998093E+01 0.  1.
</event>
<event>
 5   0  0.1492639E-05  0.2572173E+04  0.7818609E-02  0.8377715E-01
        1   -1    0    0  501    0  0.00000000000E+00  0.00000000000E+00  0.24239245807E+04  0.24239245807E+04  0.50400001928E-02 0.  1.
       -1   -1    0    0    0  501  0.00000000000E+00  0.00000000000E+00 -0.68237197041E+03  0.68237197043E+03  0.50400001928E-02 0. -1.
    10030    2    1    2    0    0  0.00000000000E+00  0.00000000000E+00  0.17415526103E+04  0.31062965511E+04  0.25721727720E+04 0.  0.
        5    1    3    3  502    0 -0.55923787366E+03  0.15695828290E+03  0.22564848032E+04  0.23300490679E+04  0.46999998093E+01 0.  1.
       -5    1    3    3    0  502  0.55923787366E+03 -0.15695828290E+03 -0.51493219290E+03  0.77624748321E+03  0.46999998093E+01 0. -1.
</event>
<event>
 5   0  0.1421242E-05  0.2512356E+04  0.7818609E-02  0.8398597E-01
       -1   -1    0    0    0  501  0.00000000000E+00  0.00000000000E+00  0.65999845602E+03  0.65999845604E+03  0.50400001928E-02 0. -1.
        1   -1    0    0  501    0  0.00000000000E+00  0.00000000000E+00 -0.23908890854E+04  0.23908890854E+04  0.50400001928E-02 0.  1.
    10030    2    1    2    0    0  0.00000000000E+00  0.00000000000E+00 -0.17308906293E+04  0.30508875414E+04  0.25123559500E+04 0.  0.
        3    1    3    3  502    0 -0.44693374212E+03 -0.86667073701E+03  0.96208322527E+02  0.97985916731E+03  0.10100000352E+00 0. -1.
       -3    1    3    3    0  502  0.44693374212E+03  0.86667073701E+03 -0.18270989519E+04  0.20710283741E+04  0.10100000352E+00 0.  1.
</event>
<event>
 5   0  0.3704241E-05  0.2800282E+04  0.7818609E-02  0.8303181E-01
        2   -1    0    0  501    0  0.00000000000E+00  0.00000000000E+00  0.20109977877E+04  0.20109977877E+04  0.25500000920E-02 0. -1.
       -2   -1    0    0    0  501  0.00000000000E+00  0.00000000000E+00 -0.97483684471E+03  0.97483684472E+03  0.25500000920E-02 0.  1.
    10030    2    1    2    0    0  0.00000000000E+00  0.00000000000E+00  0.10361609430E+04  0.29858346324E+04  0.28002819416E+04 0.  0.
        2    1    3    3  502    0 -0.10931208595E+04 -0.13173944734E+03  0.14403363581E+04  0.18129636841E+04  0.25500000920E-02 0. -1.
       -2    1    3    3    0  502  0.10931208595E+04  0.13173944734E+03 -0.40417541507E+03  0.11728709484E+04  0.25500000920E-02 0.  1.
</event>
<event>
 5   0  0.3579097E-05  0.2515692E+04  0.7818609E-02  0.8397416E-01
        2   -1    0    0  501    0  0.00000000000E+00  0.00000000000E+00  0.17839662806E+04  0.17839662806E+04  0.25500000920E-02 0. -1.
       -2   -1    0    0    0  501  0.00000000000E+00  0.00000000000E+00 -0.88688718931E+03  0.88688718931E+03  0.25500000920E-02 0.  1.
    10030    2    1    2    0    0  0.00000000000E+00  0.00000000000E+00  0.89707909133E+03  0.26708534700E+04  0.25156922232E+04 0.  0.
        5    1    3    3  502    0 -0.41261291839E+03  0.25681356684E+03 -0.78316731552E+03  0.92172434200E+03  0.46999998093E+01 0.  1.
       -5    1    3    3    0  502  0.41261291839E+03 -0.25681356684E+03  0.16802464069E+04  0.17491291280E+04  0.46999998093E+01 0. -1.
</event>
<event>
 5   0  0.1456876E-05  0.2379574E+04  0.7818609E-02  0.8447190E-01
       -1   -1    0    0    0  501  0.00000000000E+00  0.00000000000E+00  0.14163195212E+04  0.14163195212E+04  0.50400001928E-02 0.  1.
        1   -1    0    0  501    0  0.00000000000E+00  0.00000000000E+00 -0.99948749650E+03  0.99948749651E+03  0.50400001928E-02 0. -1.
    10030    2    1    2    0    0  0.00000000000E+00  0.00000000000E+00  0.41683202471E+03  0.24158070177E+04  0.23795744599E+04 0.  0.
        1    1    3    3  502    0 -0.42425384905E+03  0.49957705707E+03  0.12165236896E+04  0.13818460304E+04  0.50400001928E-02 0.  1.
       -1    1    3    3    0  502  0.42425384905E+03 -0.49957705707E+03 -0.79969166489E+03  0.10339609873E+04  0.50400001928E-02 0. -1.
</event>
<event>
 5   0  0.3578670E-05  0.2492202E+04  0.7818609E-02  0.8405769E-01
        2   -1    0    0  501    0  0.00000000000E+00  0.00000000000E+00  0.14393414726E+04  0.14393414726E+04  0.25500000920E-02 0. -1.
       -2   -1    0    0    0  501  0.00000000000E+00  0.00000000000E+00 -0.10788043023E+04  0.10788043023E+04  0.25500000920E-02 0.  1.
    10030    2    1    2    0    0  0.00000000000E+00  0.00000000000E+00  0.36053717038E+03  0.25181457749E+04  0.24922020569E+04 0.  0.
        4    1    3    3  502    0  0.87648697448E+03 -0.33831738234E+03  0.10073729778E+04  0.13774941005E+04  0.12699999809E+01 0. -1.
       -4    1    3    3    0  502 -0.87648697448E+03  0.33831738234E+03 -0.64683580744E+03  0.11406516744E+04  0.12699999809E+01 0.  1.
</event>
<event>
 5   0  0.1492639E-05  0.2486283E+04  0.7818609E-02  0.8407889E-01
        1   -1    0    0  501    0  0.00000000000E+00  0.00000000000E+00  0.25710693033E+04  0.25710693033E+04  0.50400001928E-02 0.  1.
       -1   -1    0    0    0  501  0.00000000000E+00  0.00000000000E+00 -0.60107310795E+03  0.60107310797E+03  0.50400001928E-02 0. -1.
    10030    2    1    2    0    0  0.00000000000E+00  0.00000000000E+00  0.19699961953E+04  0.31721424112E+04  0.24862828615E+04 0.  0.
        5    1    3    3  502    0 -0.65869183816E+03 -0.47557806031E+03  0.21854769371E+04  0.23316048040E+04  0.46999998093E+01 0.  1.
       -5    1    3    3    0  502  0.65869183816E+03  0.47557806031E+03 -0.21548074184E+03  0.84053760726E+03  0.46999998093E+01 0. -1.
</event>
<event>
 5   0  0.3704241E-05  0.2473582E+04  0.7818609E-02  0.8412458E-01
        2   -1    0    0  501    0  0.00000000000E+00  0.00000000000E+00  0.20855104988E+04  0.20855104988E+04  0.25500000920E-02 0.  1.
       -2   -1    0    0    0  501  0.00000000000E+00  0.00000000000E+00 -0.73346626674E+03  0.73346626674E+03  0.25500000920E-02 0. -1.
    10030    2    1    2    0    0  0.00000000000E+00  0.00000000000E+00  0.13520442320E+04  0.28189767655E+04  0.24735816945E+04 0.  0.
        2    1    3    3  502    0 -0.93468563723E+03  0.80496418320E+03  0.77825317557E+03  0.14585206827E+04  0.25500000920E-02 0.  1.
       -2    1    3    3    0  502  0.93468563723E+03 -0.80496418320E+03  0.57379105646E+03  0.13604560828E+04  0.25500000920E-02 0. -1.
</event>
<event>
 5   0  0.3650620E-05  0.2496843E+04  0.7818609E-02  0.8404111E-01
       -2   -1    0    0    0  501  0.00000000000E+00  0.00000000000E+00  0.88546296963E+03  0.88546296964E+03  0.25500000920E-02 0.  1.
        2   -1    0    0  501    0  0.00000000000E+00  0.00000000000E+00 -0.17601600050E+04  0.17601600050E+04  0.25500000920E-02 0. -1.
    10030    2    1    2    0    0  0.00000000000E+00  0.00000000000E+00 -0.87469703534E+03  0.26456229746E+04  0.24968432110E+04 0.  0.
        3    1    3    3  502    0 -0.35924427588E+03  0.62138775138E+03 -0.15196727327E+04  0.16806499969E+04  0.10100000352E+00 0. -1.
       -3    1    3    3    0  502  0.35924427588E+03 -0.62138775138E+03  0.64497569737E+03  0.96497297771E+03  0.10100000352E+00 0.  1.
</event>
<event>
 5   0  0.1502886E-05  0.2492300E+04  0.7818609E-02  0.8405734E-01
       -1   -1    0    0    0  501  0.00000000000E+00  0.00000000000E+00  0.10249580372E+04  0.10249580372E+04  0.50400001928E-02 0. -1.
        1   -1    0    0  501    0  0.00000000000E+00  0.00000000000E+00 -0.15150770713E+04  0.15150770713E+04  0.50400001928E-02 0.  1.
    10030    2    1    2    0    0  0.00000000000E+00  0.00000000000E+00 -0.49011903410E+03  0.25400351086E+04  0.24923004805E+04 0.  0.
        4    1    3    3  502    0  0.76179769432E+02  0.10286572275E+04 -0.95770155406E+03  0.14075272390E+04  0.12699999809E+01 0.  1.
       -4    1    3    3    0  502 -0.76179769432E+02 -0.10286572275E+04  0.46758251997E+03  0.11325078696E+04  0.12699999809E+01 0. -1.
</event>
<event>
 5   0  0.1492639E-05  0.2473291E+04  0.7818609E-02  0.8412563E-01
       -1   -1    0    0    0  501  0.00000000000E+00  0.00000000000E+00  0.11330539545E+04  0.11330539545E+04  0.50400001928E-02 0. -1.
        1   -1    0    0  501    0  0.00000000000E+00  0.00000000000E+00 -0.13497082171E+04  0.13497082171E+04  0.50400001928E-02 0.  1.
    10030    2    1    2    0    0  0.00000000000E+00  0.00000000000E+00 -0.21665426264E+03  0.24827621716E+04  0.24732911133E+04 0.  0.
        5    1    3    3  502    0 -0.50865081093E+03 -0.56266039894E+03  0.87212062645E+03  0.11558238832E+04  0.46999998093E+01 0. -1.
       -5    1    3    3    0  502  0.50865081093E+03  0.56266039894E+03 -0.10887748891E+04  0.13269382884E+04  0.46999998093E+01 0.  1.
</event>
<event>
 5   0  0.3650620E-05  0.2461431E+04  0.7818609E-02  0.8416856E-01
        2   -1    0    0  501    0  0.00000000000E+00  0.00000000000E+00  0.16089426107E+04  0.16089426107E+04  0.25500000920E-02 0. -1.
       -2   -1    0    0    0  501  0.00000000000E+00  0.00000000000E+00 -0.94140108431E+03  0.94140108431E+03  0.25500000920E-02 0.  1.
    10030    2    1    2    0    0  0.00000000000E+00  0.00000000000E+00  0.66754152644E+03  0.25503436951E+04  0.24614307371E+04 0.  0.
        3    1    3    3  502    0 -0.95764414547E+03 -0.57339188180E+03 -0.20341627045E+03  0.11345654449E+04  0.10100000352E+00 0.  1.
       -3    1    3    3    0  502  0.95764414547E+03  0.57339188180E+03  0.87095779689E+03  0.14157782502E+04  0.10100000352E+00 0. -1.
</event>
<event>
 5   0  0.3650620E-05  0.2459107E+04  0.7818609E-02  0.8417700E-01
        2   -1    0    0  501    0  0.00000000000E+00  0.00000000000E+00  0.13850394173E+04  0.13850394173E+04  0.25500000920E-02 0.  1.
       -2   -1    0    0    0  501  0.00000000000E+00  0.00000000000E+00 -0.10915227757E+04  0.10915227757E+04  0.25500000920E-02 0. -1.
    10030    2    1    2    0    0  0.00000000000E+00  0.00000000000E+00  0.29351664162E+03  0.24765621930E+04  0.24591072113E+04 0.  0.
        3    1    3    3  502    0  0.11902675479E+04  0.28610704744E+03  0.31016585839E+02  0.12245636435E+04  0.10100000352E+00 0. -1.
       -3    1    3    3    0  502 -0.11902675479E+04 -0.28610704744E+03  0.26250005578E+03  0.12519985494E+04  0.10100000352E+00 0.  1.
</event>
<event>
 5   0  0.3704241E-05  0.2340701E+04  0.7818609E-02  0.8462044E-01
       -2   -1    0    0    0  501  0.00000000000E+00  0.00000000000E+00  0.15463417672E+04  0.15463417672E+04  0.25500000920E-02 0. -1.
        2   -1    0    0  501    0  0.00000000000E+00  0.00000000000E+00 -0.88578072853E+03  0.88578072853E+03  0.25500000920E-02 0.  1.
    10030    2    1    2    0    0  0.00000000000E+00  0.00000000000E+00  0.66056103868E+03  0.24321224957E+04  0.23407005252E+04 0.  0.
        2    1    3    3  502    0  0.61679542433E+03  0.81928073218E+03 -0.25571681102E+03  0.10569051996E+04  0.25500000920E-02 0.  1.
       -2    1    3    3    0  502 -0.61679542433E+03 -0.81928073218E+03  0.91627784970E+03  0.13752172961E+04  0.25500000920E-02 0. -1.
</event>
<event>
 5   0  0.1456876E-05  0.2457930E+04  0.7818609E-02  0.8418128E-01
       -1   -1    0    0    0  501  0.00000000000E+00  0.00000000000E+00  0.14712476012E+04  0.14712476012E+04  0.50400001928E-02 0.  1.
        1   -1    0    0  501    0  0.00000000000E+00  0.00000000000E+00 -0.10265812872E+04  0.10265812873E+04  0.50400001928E-02 0. -1.
    10030    2    1    2    0    0  0.00000000000E+00  0.00000000000E+00  0.44466631393E+03  0.24978288884E+04  0.24579302320E+04 0.  0.
        1    1    3    3  502    0 -0.32669170189E+03  0.78252420964E+03 -0.68164768943E+03  0.10879867551E+04  0.50400001928E-02 0. -1.
       -1    1    3    3    0  502  0.32669170189E+03 -0.78252420964E+03  0.11263140034E+04  0.14098421333E+04  0.50400001928E-02 0.  1.
</event>
<event>
 5   0  0.3578670E-05  0.2501207E+04  0.7818609E-02  0.8402555E-01
       -2   -1    0    0    0  501  0.00000000000E+00  0.00000000000E+00  0.11699522616E+04  0.11699522616E+04  0.25500000920E-02 0.  1.
        2   -1    0    0  501    0  0.00000000000E+00  0.00000000000E+00 -0.13368150007E+04  0.13368150007E+04  0.25500000920E-02 0. -1.
    10030    2    1    2    0    0  0.00000000000E+00  0.00000000000E+00 -0.16686273907E+03  0.25067672624E+04  0.25012074952E+04 0.  0.
        4    1    3    3  502    0  0.29008835267E+03  0.12029939702E+04  0.97697709917E+02  0.12413267902E+04  0.12699999809E+01 0.  1.
       -4    1    3    3    0  502 -0.29008835267E+03 -0.12029939702E+04 -0.26456044899E+03  0.12654404722E+04  0.12699999809E+01 0. -1.
</event>
<event>
 5   0  0.3650620E-05  0.2486144E+04  0.7818609E-02  0.8407938E-01
        2   -1    0    0  501    0  0.00000000000E+00  0.00000000000E+00  0.17145438294E+04  0.17145438294E+04  0.25500000920E-02 0.  1.
       -2   -1    0    0    0  501  0.00000000000E+00  0.00000000000E+00 -0.90124738281E+03  0.90124738281E+03  0.25500000920E-02 0. -1.
    10030    2    1    2    0    0  0.00000000000E+00  0.00000000000E+00  0.81329644654E+03  0.26157912122E+04  0.24861441140E+04 0.  0.
        3    1    3    3  502    0  0.30443091986E+03  0.11775551891E+04  0.67677316699E+03  0.13918823004E+04  0.10100000352E+00 0.  1.
       -3    1    3    3    0  502 -0.30443091986E+03 -0.11775551891E+04  0.13652327956E+03  0.12239089118E+04  0.10100000352E+00 0. -1.
</event>
<event>
 5   0  0.1429483E-05  0.2493556E+04  0.7818609E-02  0.8405285E-01
        1   -1    0    0  501    0  0.00000000000E+00  0.00000000000E+00  0.79115000199E+03  0.79115000200E+03  0.50400001928E-02 0.  1.
       -1   -1    0    0    0  501  0.00000000000E+00  0.00000000000E+00 -0.19648046867E+04  0.19648046867E+04  0.50400001928E-02 0. -1.
    10030    2    1    2    0    0  0.00000000000E+00  0.00000000000E+00 -0.11736546847E+04  0.27559546887E+04  0.24935558801E+04 0.  0.
        2    1    3    3  502    0 -0.82697161923E+02  0.89526076535E+03  0.36785444953E+03  0.97141523285E+03  0.25500000920E-02 0.  1.
       -2    1    3    3    0  502  0.82697161923E+02 -0.89526076535E+03 -0.15415091343E+04  0.17845394559E+04  0.25500000920E-02 0. -1.
</event>
<event>
 5   0  0.1456876E-05  0.2495372E+04  0.7818609E-02  0.8404636E-01
        1   -1    0    0  501    0  0.00000000000E+00  0.00000000000E+00  0.27260150953E+04  0.27260150953E+04  0.50400001928E-02 0.  1.
       -1   -1    0    0    0  501  0.00000000000E+00  0.00000000000E+00 -0.57106076227E+03  0.57106076229E+03  0.50400001928E-02 0. -1.
    10030    2    1    2    0    0  0.00000000000E+00  0.00000000000E+00  0.21549543331E+04  0.32970758576E+04  0.24953719229E+04 0.  0.
        1    1    3    3  502    0 -0.94166474492E+03 -0.53794139714E+03  0.26233766790E+03  0.11157663244E+04  0.50400001928E-02 0. -1.
       -1    1    3    3    0  502  0.94166474492E+03  0.53794139714E+03  0.18926166652E+04  0.21813095333E+04  0.50400001928E-02 0.  1.
</event>
<event>
 5   0  0.3581449E-05  0.2503668E+04  0.7818609E-02  0.8401680E-01
       -2   -1    0    0    0  501  0.00000000000E+00  0.00000000000E+00  0.21045405953E+04  0.21045405953E+04  0.25500000920E-02 0. -1.
        2   -1    0    0  501    0  0.00000000000E+00  0.00000000000E+00 -0.74462266509E+03  0.74462266509E+03  0.25500000920E-02 0.  1.
    10030    2    1    2    0    0  0.00000000000E+00  0.00000000000E+00  0.13599179302E+04  0.28491632604E+04  0.25036682103E+04 0.  0.
        1    1    3    3  502    0 -0.18853262560E+03 -0.22366755475E+03 -0.70518165561E+03  0.76344802927E+03  0.50400001928E-02 0.  1.
       -1    1    3    3    0  502  0.18853262560E+03  0.22366755475E+03  0.20650995858E+04  0.20857152311E+04  0.50400001928E-02 0. -1.
</event>
<event>
 5   0  0.1492639E-05  0.2485503E+04  0.7818609E-02  0.8408168E-01
       -1   -1    0    0    0  501  0.00000000000E+00  0.00000000000E+00  0.11088661938E+04  0.11088661938E+04  0.50400001928E-02 0.  1.
        1   -1    0    0  501    0  0.00000000000E+00  0.00000000000E+00 -0.13928020620E+04  0.13928020620E+04  0.50400001928E-02 0. -1.
    10030    2    1    2    0    0  0.00000000000E+00  0.00000000000E+00 -0.28393586821E+03  0.25016682558E+04  0.24855028636E+04 0.  0.
        5    1    3    3  502    0  0.81936303042E+03 -0.38799068454E+03  0.71357011665E+03  0.11537317488E+04  0.46999998093E+01 0.  1.
       -5    1    3    3    0  502 -0.81936303042E+03  0.38799068454E+03 -0.99750598486E+03  0.13479365069E+04  0.46999998093E+01 0. -1.
</event>
<event>
 5   0  0.1456876E-05  0.2516938E+04  0.7818609E-02  0.8396976E-01
        1   -1    0    0  501    0  0.00000000000E+00  0.00000000000E+00  0.97213978333E+03  0.97213978335E+03  0.50400001928E-02 0.  1.
       -1   -1    0    0    0  501  0.00000000000E+00  0.00000000000E+00 -0.16291325637E+04  0.16291325637E+04  0.50400001928E-02 0. -1.
    10030    2    1    2    0    0  0.00000000000E+00  0.00000000000E+00 -0.65699278037E+03  0.26012723471E+04  0.25169382810E+04 0.  0.
        1    1    3    3  502    0 -0.66018478476E+02 -0.11860654616E+04 -0.75791168119E+03  0.14090918477E+04  0.50400001928E-02 0. -1.
       -1    1    3    3    0  502  0.66018478476E+02  0.11860654616E+04  0.10091890082E+03  0.11921804994E+04  0.50400001928E-02 0.  1.
</event>
<event>
 5   0  0.3650620E-05  0.2507549E+04  0.7818609E-02  0.8400301E-01
        2   -1    0    0  501    0  0.00000000000E+00  0.00000000000E+00  0.21178356281E+04  0.21178356281E+04  0.25500000920E-02 0.  1.
       -2   -1    0    0    0  501  0.00000000000E+00  0.00000000000E+00 -0.74224362141E+03  0.74224362142E+03  0.25500000920E-02 0. -1.
    10030    2    1    2    0    0  0.00000000000E+00  0.00000000000E+00  0.13755920067E+04  0.28600792495E+04  0.25075485927E+04 0.  0.
        3    1    3    3  502    0  0.98823087451E+03  0.33962450326E+03  0.14780224312E+04  0.18101092182E+04  0.10100000352E+00 0.  1.
       -3    1    3    3    0  502 -0.98823087451E+03 -0.33962450326E+03 -0.10243042451E+03  0.10499700313E+04  0.10100000352E+00 0. -1.
</event>
<event>
 5   0  0.1456876E-05  0.2482049E+04  0.7818609E-02  0.8409409E-01
       -1   -1    0    0    0  501  0.00000000000E+00  0.00000000000E+00  0.73545218979E+03  0.73545218981E+03  0.50400001928E-02 0. -1.
        1   -1    0    0  501    0  0.00000000000E+00  0.00000000000E+00 -0.20941425862E+04  0.20941425862E+04  0.50400001928E-02 0.  1.
    10030    2    1    2    0    0  0.00000000000E+00  0.00000000000E+00 -0.13586903964E+04  0.28295947760E+04  0.24820489526E+04 0.  0.
        1    1    3    3  502    0 -0.18682804461E+03  0.42563399830E+03  0.63246143686E+03  0.78490540061E+03  0.50400001928E-02 0. -1.
       -1    1    3    3    0  502  0.18682804461E+03 -0.42563399830E+03 -0.19911518333E+04  0.20446893754E+04  0.50400001928E-02 0.  1.
</event>
<event>
 5   0  0.1456876E-05  0.2498144E+04  0.7818609E-02  0.8403647E-01
        1   -1    0    0  501    0  0.00000000000E+00  0.00000000000E+00  0.12669604222E+04  0.12669604222E+04  0.50400001928E-02 0. -1.
       -1   -1    0    0    0  501  0.00000000000E+00  0.00000000000E+00 -0.12314365142E+04  0.12314365142E+04  0.50400001928E-02 0.  1.
    10030    2    1    2    0    0  0.00000000000E+00  0.00000000000E+00  0.35523908000E+02  0.24983969365E+04  0.24981443721E+04 0.  0.
        1    1    3    3  502    0 -0.96987892369E+02 -0.10530931404E+04  0.68248659117E+03  0.12586499755E+04  0.50400001928E-02 0. -1.
       -1    1    3    3    0  502  0.96987892369E+02  0.10530931404E+04 -0.64696268317E+03  0.12397469609E+04  0.50400001928E-02 0.  1.
</event>
<event>
 5   0  0.1429483E-05  0.2485462E+04  0.7818609E-02  0.8408183E-01
        1   -1    0    0  501    0  0.00000000000E+00  0.00000000000E+00  0.19953697736E+04  0.19953697736E+04  0.50400001928E-02 0.  1.
       -1   -1    0    0    0  501  0.00000000000E+00  0.00000000000E+00 -0.77398183797E+03  0.77398183799E+03  0.50400001928E-02 0. -1.
    10030    2    1    2    0    0  0.00000000000E+00  0.00000000000E+00  0.12213879356E+04  0.27693516116E+04  0.24854616994E+04 0.  0.
        2    1    3    3  502    0  0.37683749512E+03  0.40434906484E+03 -0.62948631328E+03  0.83770978422E+03  0.25500000920E-02 0. -1.
       -2    1    3    3    0  502 -0.37683749512E+03 -0.40434906484E+03  0.18508742489E+04  0.19316418274E+04  0.25500000920E-02 0.  1.
</event>
<event>
 5   0  0.3581449E-05  0.2492084E+04  0.7818609E-02  0.8405811E-01
        2   -1    0    0  501    0  0.00000000000E+00  0.00000000000E+00  0.13883421975E+04  0.13883421975E+04  0.25500000920E-02 0.  1.
       -2   -1    0    0    0  501  0.00000000000E+00  0.00000000000E+00 -0.11183273542E+04  0.11183273542E+04  0.25500000920E-02 0. -1.
    10030    2    1    2    0    0  0.00000000000E+00  0.00000000000E+00  0.27001484323E+03  0.25066695517E+04  0.24920843135E+04 0.  0.
        1    1    3    3  502    0 -0.90546270097E+02 -0.13079719177E+03 -0.11080711928E+04  0.11194321332E+04  0.50400001928E-02 0. -1.
       -1    1    3    3    0  502  0.90546270097E+02  0.13079719177E+03  0.13780860361E+04  0.13872374185E+04  0.50400001928E-02 0.  1.
</event>
<event>
 5   0  0.3650620E-05  0.2127775E+04  0.7818609E-02  0.8549106E-01
       -2   -1    0    0    0  501  0.00000000000E+00  0.00000000000E+00  0.10157845085E+04  0.10157845085E+04  0.25500000920E-02 0. -1.
        2   -1    0    0  501    0  0.00000000000E+00  0.00000000000E+00 -0.11142679766E+04  0.11142679766E+04  0.25500000920E-02 0.  1.
    10030    2    1    2    0    0  0.00000000000E+00  0.00000000000E+00 -0.98483468103E+02  0.21300524851E+04  0.21277745641E+04 0.  0.
        3    1    3    3  502    0  0.76399052273E+03 -0.44813490244E+03 -0.63923652057E+03  0.10923047876E+04  0.10100000352E+00 0.  1.
       -3    1    3    3    0  502 -0.76399052273E+03  0.44813490244E+03  0.54075305247E+03  0.10377476974E+04  0.10100000352E+00 0. -1.
</event>
<event>
 5   0  0.3704241E-05  0.2495884E+04  0.7818609E-02  0.8404453E-01
        2   -1    0    0  501    0  0.00000000000E+00  0.00000000000E+00  0.27197472696E+04  0.27197472696E+04  0.25500000920E-02 0.  1.
       -2   -1    0    0    0  501  0.00000000000E+00  0.00000000000E+00 -0.57261197108E+03  0.57261197109E+03  0.25500000920E-02 0. -1.
    10030    2    1    2    0    0  0.00000000000E+00  0.00000000000E+00  0.21471352985E+04  0.32923592406E+04  0.24958844884E+04 0.  0.
        2    1    3    3  502    0  0.54170394484E+03 -0.10469152349E+04  0.16140591942E+04  0.19986649932E+04  0.25500000920E-02 0.  1.
       -2    1    3    3    0  502 -0.54170394484E+03  0.10469152349E+04  0.53307610428E+03  0.12936942474E+04  0.25500000920E-02 0. -1.
</event>
<event>
 5   0  0.3581449E-05  0.2508248E+04  0.7818609E-02  0.8400053E-01
       -2   -1    0    0    0  501  0.00000000000E+00  0.00000000000E+00  0.94432599196E+03  0.94432599196E+03  0.25500000920E-02 0.  1.
        2   -1    0    0  501    0  0.00000000000E+00  0.00000000000E+00 -0.16655544980E+04  0.16655544980E+04  0.25500000920E-02 0. -1.
    10030    2    1    2    0    0  0.00000000000E+00  0.00000000000E+00 -0.72122850606E+03  0.26098804900E+04  0.25082475185E+04 0.  0.
        1    1    3    3  502    0 -0.57583226893E+03 -0.77717073168E+03 -0.11912390611E+04  0.15344796020E+04  0.50400001928E-02 0. -1.
       -1    1    3    3    0  502  0.57583226893E+03  0.77717073168E+03  0.47001055503E+03  0.10754008880E+04  0.50400001928E-02 0.  1.
</event>
<event>
 5   0  0.3650620E-05  0.2485681E+04  0.7818609E-02  0.8408104E-01
        2   -1    0    0  501    0  0.00000000000E+00  0.00000000000E+00  0.16691933823E+04  0.16691933823E+04  0.25500000920E-02 0.  1.
       -2   -1    0    0    0  501  0.00000000000E+00  0.00000000000E+00 -0.92538878514E+03  0.92538878514E+03  0.25500000920E-02 0. -1.
    10030    2    1    2    0    0  0.00000000000E+00  0.00000000000E+00  0.74380459715E+03  0.25945821674E+04  0.24856812637E+04 0.  0.
        3    1    3    3  502    0  0.64574539577E+03 -0.77021713939E+03  0.11349785189E+04  0.15160467692E+04  0.10100000352E+00 0.  1.
       -3    1    3    3    0  502 -0.64574539577E+03  0.77021713939E+03 -0.39117392171E+03  0.10785353982E+04  0.10100000352E+00 0. -1.
</event>
<event>
 5   0  0.1421242E-05  0.2399267E+04  0.7818609E-02  0.8439778E-01
        1   -1    0    0  501    0  0.00000000000E+00  0.00000000000E+00  0.13249693797E+04  0.13249693797E+04  0.50400001928E-02 0. -1.
       -1   -1    0    0    0  501  0.00000000000E+00  0.00000000000E+00 -0.10861535242E+04  0.10861535242E+04  0.50400001928E-02 0.  1.
    10030    2    1    2    0    0  0.00000000000E+00  0.00000000000E+00  0.23881585549E+03  0.24111229040E+04  0.23992666891E+04 0.  0.
        3    1    3    3  502    0  0.38731526043E+03  0.16741927232E+03 -0.10091185917E+04  0.10937836468E+04  0.10100000352E+00 0.  1.
       -3    1    3    3    0  502 -0.38731526043E+03 -0.16741927232E+03  0.12479344472E+04  0.13173392572E+04  0.10100000352E+00 0. -1.
</event>
<event>
 5   0  0.1201438E-05  0.2005489E+04  0.7818609E-02  0.8604059E-01
        3   -1    0    0  501    0  0.00000000000E+00  0.00000000000E+00  0.15939734716E+04  0.15939734748E+04  0.10100000352E+00 0. -1.
       -3   -1    0    0    0  501  0.00000000000E+00  0.00000000000E+00 -0.63081102024E+03  0.63081102833E+03  0.10100000352E+00 0.  1.
    10030    2    1    2    0    0  0.00000000000E+00  0.00000000000E+00  0.96316245133E+03  0.22247845031E+04  0.20054885134E+04 0.  0.
        5    1    3    3  502    0  0.67391746510E+03 -0.72095435730E+03  0.28458521266E+03  0.10271079633E+04  0.46999998093E+01 0.  1.
       -5    1    3    3    0  502 -0.67391746510E+03  0.72095435730E+03  0.67857723866E+03  0.11976765398E+04  0.46999998093E+01 0. -1.
</event>
<event>
 5   0  0.3578670E-05  0.2440529E+04  0.7818609E-02  0.8424484E-01
       -2   -1    0    0    0  501  0.00000000000E+00  0.00000000000E+00  0.11669569535E+04  0.11669569535E+04  0.25500000920E-02 0.  1.
        2   -1    0    0  501    0  0.00000000000E+00  0.00000000000E+00 -0.12760067021E+04  0.12760067021E+04  0.25500000920E-02 0. -1.
    10030    2    1    2    0    0  0.00000000000E+00  0.00000000000E+00 -0.10904974867E+03  0.24429636556E+04  0.24405285442E+04 0.  0.
        4    1    3    3  502    0  0.75506296303E+03 -0.12217148053E+03  0.89721154591E+03  0.11789979304E+04  0.12699999809E+01 0.  1.
       -4    1    3    3    0  502 -0.75506296303E+03  0.12217148053E+03 -0.10062612946E+04  0.12639657253E+04  0.12699999809E+01 0. -1.
</event>
<event>
 5   0  0.3704241E-05  0.2480359E+04  0.7818609E-02  0.8410016E-01
       -2   -1    0    0    0  501  0.00000000000E+00  0.00000000000E+00  0.11712261879E+04  0.11712261879E+04  0.25500000920E-02 0. -1.
        2   -1    0    0  501    0  0.00000000000E+00  0.00000000000E+00 -0.13131922327E+04  0.13131922327E+04  0.25500000920E-02 0.  1.
    10030    2    1    2    0    0  0.00000000000E+00  0.00000000000E+00 -0.14196604475E+03  0.24844184206E+04  0.24803589520E+04 0.  0.
        2    1    3    3  502    0  0.78789869005E+03  0.16200014324E+03  0.87449869844E+03  0.11881819582E+04  0.25500000920E-02 0. -1.
       -2    1    3    3    0  502 -0.78789869005E+03 -0.16200014324E+03 -0.10164647432E+04  0.12962364624E+04  0.25500000920E-02 0.  1.
</event>
<event>
 5   0  0.1429483E-05  0.2484275E+04  0.7818609E-02  0.8408609E-01
        1   -1    0    0  501    0  0.00000000000E+00  0.00000000000E+00  0.17533278338E+04  0.17533278338E+04  0.50400001928E-02 0.  1.
       -1   -1    0    0    0  501  0.00000000000E+00  0.00000000000E+00 -0.87998706122E+03  0.87998706123E+03  0.50400001928E-02 0. -1.
    10030    2    1    2    0    0  0.00000000000E+00  0.00000000000E+00  0.87334077262E+03  0.26333148951E+04  0.24842751924E+04 0.  0.
        2    1    3    3  502    0  0.33022480551E+03  0.11716556923E+04  0.17469905879E+03  0.12297744690E+04  0.25500000920E-02 0. -1.
       -2    1    3    3    0  502 -0.33022480551E+03 -0.11716556923E+04  0.69864171383E+03  0.14035404261E+04  0.25500000920E-02 0.  1.
</event>
<event>
 5   0  0.1429483E-05  0.2435422E+04  0.7818609E-02  0.8426360E-01
       -1   -1    0    0    0  501  0.00000000000E+00  0.00000000000E+00  0.11080798574E+04  0.11080798575E+04  0.50400001928E-02 0. -1.
        1   -1    0    0  501    0  0.00000000000E+00  0.00000000000E+00 -0.13381883754E+04  0.13381883754E+04  0.50400001928E-02 0.  1.
    10030    2    1    2    0    0  0.00000000000E+00  0.00000000000E+00 -0.23010851794E+03  0.24462682328E+04  0.24354215933E+04 0.  0.
        2    1    3    3  502    0 -0.93392652676E+03  0.70708759804E+03 -0.44914340514E+03  0.12545602525E+04  0.25500000920E-02 0.  1.
       -2    1    3    3    0  502  0.93392652676E+03 -0.70708759804E+03  0.21903488720E+03  0.11917079804E+04  0.25500000920E-02 0. -1.
</event>
<event>
 5   0  0.3581449E-05  0.2498163E+04  0.7818609E-02  0.8403640E-01
       -2   -1    0    0    0  501  0.00000000000E+00  0.00000000000E+00  0.70463220348E+03  0.70463220349E+03  0.25500000920E-02 0.  1.
        2   -1    0    0  501    0  0.00000000000E+00  0.00000000000E+00 -0.22142111192E+04  0.22142111192E+04  0.25500000920E-02 0. -1.
    10030    2    1    2    0    0  0.00000000000E+00  0.00000000000E+00 -0.15095789157E+04  0.29188433226E+04  0.24981628929E+04 0.  0.
        1    1    3    3  502    0  0.31672667759E+03 -0.12134036338E+03  0.64979796779E+03  0.73299159003E+03  0.50400001928E-02 0.  1.
       -1    1    3    3    0  502 -0.31672667759E+03  0.12134036338E+03 -0.21593768835E+04  0.21858517326E+04  0.50400001928E-02 0. -1.
</event>
<event>
 5   0  0.1456876E-05  0.2521718E+04  0.7818609E-02  0.8395289E-01
       -1   -1    0    0    0  501  0.00000000000E+00  0.00000000000E+00  0.14768586763E+04  0.14768586763E+04  0.50400001928E-02 0.  1.
        1   -1    0    0  501    0  0.00000000000E+00  0.00000000000E+00 -0.10764503114E+04  0.10764503114E+04  0.50400001928E-02 0. -1.
    10030    2    1    2    0    0  0.00000000000E+00  0.00000000000E+00  0.40040836491E+03  0.25533089877E+04  0.25217176543E+04 0.  0.
        1    1    3    3  502    0 -0.12563616964E+04 -0.39509416377E+02  0.10017753638E+03  0.12609683759E+04  0.50400001928E-02 0. -1.
       -1    1    3    3    0  502  0.12563616964E+04  0.39509416377E+02  0.30023082853E+03  0.12923406117E+04  0.50400001928E-02 0.  1.
</event>
<event>
 5   0  0.1492639E-05  0.2453832E+04  0.7818609E-02  0.8419620E-01
        1   -1    0    0  501    0  0.00000000000E+00  0.00000000000E+00  0.20826688604E+04  0.20826688604E+04  0.50400001928E-02 0. -1.
       -1   -1    0    0    0  501  0.00000000000E+00  0.00000000000E+00 -0.72278527176E+03  0.72278527178E+03  0.50400001928E-02 0.  1.
    10030    2    1    2    0    0  0.00000000000E+00  0.00000000000E+00  0.13598835886E+04  0.28054541322E+04  0.24538315984E+04 0.  0.
        5    1    3    3  502    0 -0.52334148653E+03  0.78887000566E+03  0.15722235992E+04  0.18352414918E+04  0.46999998093E+01 0. -1.
       -5    1    3    3    0  502  0.52334148653E+03 -0.78887000566E+03 -0.21234001060E+03  0.97021264033E+03  0.46999998093E+01 0.  1.
</event>
<event>
 5   0  0.1456876E-05  0.2026110E+04  0.7818609E-02  0.8594510E-01
        1   -1    0    0  501    0  0.00000000000E+00  0.00000000000E+00  0.21076498807E+04  0.21076498807E+04  0.50400001928E-02 0. -1.
       -1   -1    0    0    0  501  0.00000000000E+00  0.00000000000E+00 -0.48693122330E+03  0.48693122333E+03  0.50400001928E-02 0.  1.
    10030    2    1    2    0    0  0.00000000000E+00  0.00000000000E+00  0.16207186574E+04  0.25945811041E+04  0.20261101004E+04 0.  0.
        1    1    3    3  502    0 -0.31979100353E+03  0.39692528159E+03 -0.31075589863E+03  0.59698006136E+03  0.50400001928E-02 0.  1.
       -1    1    3    3    0  502  0.31979100353E+03 -0.39692528159E+03  0.19314745561E+04  0.19976010427E+04  0.50400001928E-02 0. -1.
</event>
<event>
 5   0  0.1421242E-05  0.2735646E+04  0.7818609E-02  0.8323531E-01
        1   -1    0    0  501    0  0.00000000000E+00  0.00000000000E+00  0.20346792019E+04  0.20346792019E+04  0.50400001928E-02 0.  1.
       -1   -1    0    0    0  501  0.00000000000E+00  0.00000000000E+00 -0.91952594915E+03  0.91952594916E+03  0.50400001928E-02 0. -1.
    10030    2    1    2    0    0  0.00000000000E+00  0.00000000000E+00  0.11151532528E+04  0.29542051511E+04  0.27356464131E+04 0.  0.
        3    1    3    3  502    0 -0.72174526773E+03  0.12680673083E+03 -0.68966187496E+03  0.10062950315E+04  0.10100000352E+00 0. -1.
       -3    1    3    3    0  502  0.72174526773E+03 -0.12680673083E+03  0.18048151277E+04  0.19479101196E+04  0.10100000352E+00 0.  1.
</event>
<event>
 5   0  0.3650620E-05  0.2502587E+04  0.7818609E-02  0.8402065E-01
       -2   -1    0    0    0  501  0.00000000000E+00  0.00000000000E+00  0.13005691420E+04  0.13005691420E+04  0.25500000920E-02 0.  1.
        2   -1    0    0  501    0  0.00000000000E+00  0.00000000000E+00 -0.12038843717E+04  0.12038843717E+04  0.25500000920E-02 0. -1.
    10030    2    1    2    0    0  0.00000000000E+00  0.00000000000E+00  0.96684770264E+02  0.25044535136E+04  0.25025865534E+04 0.  0.
        3    1    3    3  502    0 -0.10952549307E+04 -0.58844501547E+03 -0.92773287472E+02  0.12467789670E+04  0.10100000352E+00 0.  1.
       -3    1    3    3    0  502  0.10952549307E+04  0.58844501547E+03  0.18945805774E+03  0.12576745467E+04  0.10100000352E+00 0. -1.
</event>
<event>
 5   0  0.3581449E-05  0.2516164E+04  0.7818609E-02  0.8397250E-01
       -2   -1    0    0    0  501  0.00000000000E+00  0.00000000000E+00  0.69883530534E+03  0.69883530534E+03  0.25500000920E-02 0. -1.
        2   -1    0    0  501    0  0.00000000000E+00  0.00000000000E+00 -0.22648682245E+04  0.22648682245E+04  0.25500000920E-02 0.  1.
    10030    2    1    2    0    0  0.00000000000E+00  0.00000000000E+00 -0.15660329192E+04  0.29637035298E+04  0.25161636491E+04 0.  0.
        1    1    3    3  502    0 -0.11077941709E+04  0.26936897944E+03 -0.15641578228E+03  0.11507534354E+04  0.50400001928E-02 0. -1.
       -1    1    3    3    0  502  0.11077941709E+04 -0.26936897944E+03 -0.14096171369E+04  0.18129500944E+04  0.50400001928E-02 0.  1.
</event>
<event>
 5   0  0.3578670E-05  0.2349783E+04  0.7818609E-02  0.8458547E-01
       -2   -1    0    0    0  501  0.00000000000E+00  0.00000000000E+00  0.60512487696E+03  0.60512487697E+03  0.25500000920E-02 0.  1.
        2   -1    0    0  501    0  0.00000000000E+00  0.00000000000E+00 -0.22811329537E+04  0.22811329537E+04  0.25500000920E-02 0. -1.
    10030    2    1    2    0    0  0.00000000000E+00  0.00000000000E+00 -0.16760080768E+04  0.28862578307E+04  0.23497832223E+04 0.  0.
        4    1    3    3  502    0 -0.17112662854E+03 -0.10456610177E+02  0.58967632203E+03  0.61409562884E+03  0.12699999809E+01 0.  1.
       -4    1    3    3    0  502  0.17112662854E+03  0.10456610177E+02 -0.22656843988E+04  0.22721622019E+04  0.12699999809E+01 0. -1.
</event>
<event>
 5   0  0.1429483E-05  0.2518689E+04  0.7818609E-02  0.8396357E-01
       -1   -1    0    0    0  501  0.00000000000E+00  0.00000000000E+00  0.10091315626E+04  0.10091315626E+04  0.50400001928E-02 0.  1.
        1   -1    0    0  501    0  0.00000000000E+00  0.00000000000E+00 -0.15715979065E+04  0.15715979065E+04  0.50400001928E-02 0. -1.
    10030    2    1    2    0    0  0.00000000000E+00  0.00000000000E+00 -0.56246634384E+03  0.25807294691E+04  0.25186893824E+04 0.  0.
        2    1    3    3  502    0  0.99724663601E+02 -0.29653034626E+03  0.96868074671E+03  0.10179477609E+04  0.25500000920E-02 0.  1.
       -2    1    3    3    0  502 -0.99724663601E+02  0.29653034626E+03 -0.15311470905E+04  0.15627817083E+04  0.25500000920E-02 0. -1.
</event>
<event>
 5   0  0.3579097E-05  0.2477027E+04  0.7818609E-02  0.8411216E-01
       -2   -1    0    0    0  501  0.00000000000E+00  0.00000000000E+00  0.90678193698E+03  0.90678193698E+03  0.25500000920E-02 0. -1.
        2   -1    0    0  501    0  0.00000000000E+00  0.00000000000E+00 -0.16916035667E+04  0.16916035667E+04  0.25500000920E-02 0.  1.
    10030    2    1    2    0    0  0.00000000000E+00  0.00000000000E+00 -0.78482162974E+03  0.25983855037E+04  0.24770268943E+04 0.  0.
        5    1    3    3  502    0  0.49111655754E+03  0.15166619021E+03 -0.15744248391E+04  0.16562106661E+04  0.46999998093E+01 0.  1.
       -5    1    3    3    0  502 -0.49111655754E+03 -0.15166619021E+03  0.78960320940E+03  0.94217483762E+03  0.46999998093E+01 0. -1.
</event>
<event>
 5   0  0.3579097E-05  0.2493625E+04  0.7818609E-02  0.8405260E-01
        2   -1    0    0  501    0  0.00000000000E+00  0.00000000000E+00  0.23090353644E+04  0.23090353644E+04  0.25500000920E-02 0. -1.
       -2   -1    0    0    0  501  0.00000000000E+00  0.00000000000E+00 -0.67324273522E+03  0.67324273523E+03  0.25500000920E-02 0.  1.
    10030    2    1    2    0    0  0.00000000000E+00  0.00000000000E+00  0.16357926292E+04  0.29822780997E+04  0.24936248992E+04 0.  0.
        5    1    3    3  502    0  0.12371413638E+03 -0.83755018051E+03 -0.27673385851E+03  0.89072959469E+03  0.46999998093E+01 0.  1.
       -5    1    3    3    0  502 -0.12371413638E+03  0.83755018051E+03  0.19125264877E+04  0.20915485050E+04  0.46999998093E+01 0. -1.
</event>
<event>
 5   0  0.3650620E-05  0.2461677E+04  0.7818609E-02  0.8416767E-01
        2   -1    0    0  501    0  0.00000000000E+00  0.00000000000E+00  0.20650205474E+04  0.20650205474E+04  0.25500000920E-02 0.  1.
       -2   -1    0    0    0  501  0.00000000000E+00  0.00000000000E+00 -0.73363093260E+03  0.73363093260E+03  0.25500000920E-02 0. -1.
    10030    2    1    2    0    0  0.00000000000E+00  0.00000000000E+00  0.13313896148E+04  0.27986514800E+04  0.24616766238E+04 0.  0.
        3    1    3    3  502    0 -0.60341813598E+01 -0.12261524524E+04  0.78748888773E+03  0.14572662785E+04  0.10100000352E+00 0.  1.
       -3    1    3    3    0  502  0.60341813598E+01  0.12261524524E+04  0.54390072706E+03  0.13413852015E+04  0.10100000352E+00 0. -1.
</event>
<event>
 5   0  0.3579097E-05  0.2485685E+04  0.7818609E-02  0.8408103E-01
       -2   -1    0    0    0  501  0.00000000000E+00  0.00000000000E+00  0.10274794623E+04  0.10274794623E+04  0.25500000920E-02 0.  1.
        2   -1    0    0  501    0  0.00000000000E+00  0.00000000000E+00 -0.15033469098E+04  0.15033469098E+04  0.25500000920E-02 0. -1.
    10030    2    1    2    0    0  0.00000000000E+00  0.00000000000E+00 -0.47586744754E+03  0.25308263721E+04  0.24856854785E+04 0.  0.
        5    1    3    3  502    0  0.10134718608E+04 -0.70490251929E+03 -0.91717922096E+02  0.12379204504E+04  0.46999998093E+01 0.  1.
       -5    1    3    3    0  502 -0.10134718608E+04  0.70490251929E+03 -0.38414952545E+03  0.12929059217E+04  0.46999998093E+01 0. -1.
</event>
<event>
 5   0  0.3704241E-05  0.2523691E+04  0.7818609E-02  0.8394594E-01
       -2   -1    0    0    0  501  0.00000000000E+00  0.00000000000E+00  0.94214886552E+03  0.94214886553E+03  0.25500000920E-02 0.  1.
        2   -1    0    0  501    0  0.00000000000E+00  0.00000000000E+00 -0.16900233305E+04  0.16900233305E+04  0.25500000920E-02 0. -1.
    10030    2    1    2    0    0  0.00000000000E+00  0.00000000000E+00 -0.74787446496E+03  0.26321721960E+04  0.25236906019E+04 0.  0.
        2    1    3    3  502    0 -0.49025822078E+03  0.85956716375E+03 -0.11905652371E+04  0.15481131793E+04  0.25500000920E-02 0. -1.
       -2    1    3    3    0  502  0.49025822078E+03 -0.85956716375E+03  0.44269077213E+03  0.10840590167E+04  0.25500000920E-02 0.  1.
</event>
<event>
 5   0  0.3579097E-05  0.2500013E+04  0.7818609E-02  0.8402981E-01
        2   -1    0    0  501    0  0.00000000000E+00  0.00000000000E+00  0.12057893284E+04  0.12057893284E+04  0.25500000920E-02 0. -1.
       -2   -1    0    0    0  501  0.00000000000E+00  0.00000000000E+00 -0.12958453986E+04  0.12958453986E+04  0.25500000920E-02 0.  1.
    10030    2    1    2    0    0  0.00000000000E+00  0.00000000000E+00 -0.90056070235E+02  0.25016347270E+04  0.25000132423E+04 0.  0.
        5    1    3    3  502    0  0.84248628725E+03  0.92323608796E+03 -0.63653130526E+02  0.12514878463E+04  0.46999998093E+01 0. -1.
       -5    1    3    3    0  502 -0.84248628725E+03 -0.92323608796E+03 -0.26402939709E+02  0.12501468808E+04  0.46999998093E+01 0.  1.
</event>
<event>
 5   0  0.3704241E-05  0.2312840E+04  0.7818609E-02  0.8472876E-01
       -2   -1    0    0    0  501  0.00000000000E+00  0.00000000000E+00  0.89561573679E+03  0.89561573680E+03  0.25500000920E-02 0. -1.
        2   -1    0    0  501    0  0.00000000000E+00  0.00000000000E+00 -0.14931705888E+04  0.14931705888E+04  0.25500000920E-02 0.  1.
    10030    2    1    2    0    0  0.00000000000E+00  0.00000000000E+00 -0.59755485198E+03  0.23887863256E+04  0.23128398795E+04 0.  0.
        2    1    3    3  502    0 -0.11591823602E+03 -0.11475469867E+04 -0.38522749470E+03  0.12160186458E+04  0.25500000920E-02 0. -1.
       -2    1    3    3    0  502  0.11591823602E+03  0.11475469867E+04 -0.21232735728E+03  0.11727676798E+04  0.25500000920E-02 0.  1.
</event>
<event>
 5   0  0.3578670E-05  0.2280007E+04  0.7818609E-02  0.8485846E-01
       -2   -1    0    0    0  501  0.00000000000E+00  0.00000000000E+00  0.76439805320E+03  0.76439805320E+03  0.25500000920E-02 0. -1.
        2   -1    0    0  501    0  0.00000000000E+00  0.00000000000E+00 -0.17001720294E+04  0.17001720294E+04  0.25500000920E-02 0.  1.
    10030    2    1    2    0    0  0.00000000000E+00  0.00000000000E+00 -0.93577397617E+03  0.24645700826E+04  0.22800071836E+04 0.  0.
        4    1    3    3  502    0  0.33848004184E+03 -0.48937997478E+03 -0.15189919254E+04  0.16313796556E+04  0.12699999809E+01 0.  1.
       -4    1    3    3    0  502 -0.33848004184E+03  0.48937997478E+03  0.58321794920E+03  0.83319042698E+03  0.12699999809E+01 0. -1.
</event>
<event>
 5   0  0.3581449E-05  0.2491790E+04  0.7818609E-02  0.8405916E-01
       -2   -1    0    0    0  501  0.00000000000E+00  0.00000000000E+00  0.14184731751E+04  0.14184731751E+04  0.25500000920E-02 0. -1.
        2   -1    0    0  501    0  0.00000000000E+00  0.00000000000E+00 -0.10943137509E+04  0.10943137509E+04  0.25500000920E-02 0.  1.
    10030    2    1    2    0    0  0.00000000000E+00  0.00000000000E+00  0.32415942411E+03  0.25127869260E+04  0.24917902807E+04 0.  0.
        1    1    3    3  502    0 -0.69041474843E+03  0.90767716943E+03 -0.34384922656E+03  0.11911266345E+04  0.50400001928E-02 0. -1.
       -1    1    3    3    0  502  0.69041474843E+03 -0.90767716943E+03  0.66800865067E+03  0.13216602915E+04  0.50400001928E-02 0.  1.
</event>
<event>
 5   0  0.1456876E-05  0.2541315E+04  0.7818609E-02  0.8388413E-01
        1   -1    0    0  501    0  0.00000000000E+00  0.00000000000E+00  0.14809419942E+04  0.14809419942E+04  0.50400001928E-02 0. -1.
       -1   -1    0    0    0  501  0.00000000000E+00  0.00000000000E+00 -0.10902324057E+04  0.10902324058E+04  0.50400001928E-02 0.  1.
    10030    2    1    2    0    0  0.00000000000E+00  0.00000000000E+00  0.39070958841E+03  0.25711743999E+04  0.25413153705E+04 0.  0.
        1    1    3    3  502    0 -0.45134164952E+03 -0.80698389880E+03 -0.68645821258E+03  0.11515889784E+04  0.50400001928E-02 0.  1.
       -1    1    3    3    0  502  0.45134164952E+03  0.80698389880E+03  0.10771678010E+04  0.14195854215E+04  0.50400001928E-02 0. -1.
</event>
<event>
 5   0  0.1492639E-05  0.2477219E+04  0.7818609E-02  0.8411147E-01
       -1   -1    0    0    0  501  0.00000000000E+00  0.00000000000E+00  0.10097048743E+04  0.10097048743E+04  0.50400001928E-02 0.  1.
        1   -1    0    0  501    0  0.00000000000E+00  0.00000000000E+00 -0.15194079985E+04  0.15194079985E+04  0.50400001928E-02 0. -1.
    10030    2    1    2    0    0  0.00000000000E+00  0.00000000000E+00 -0.50970312426E+03  0.25291128728E+04  0.24772191361E+04 0.  0.
        5    1    3    3  502    0  0.30392823410E+03  0.11423537933E+04 -0.63244654636E+03  0.13406547969E+04  0.46999998093E+01 0. -1.
       -5    1    3    3    0  502 -0.30392823410E+03 -0.11423537933E+04  0.12274342211E+03  0.11884580759E+04  0.46999998093E+01 0.  1.
</event>
<event>
 5   0  0.1429483E-05  0.2460153E+04  0.7818609E-02  0.8417320E-01
        1   -1    0    0  501    0  0.00000000000E+00  0.00000000000E+00  0.17290706701E+04  0.17290706701E+04  0.50400001928E-02 0. -1.
       -1   -1    0    0    0  501  0.00000000000E+00  0.00000000000E+00 -0.87508779255E+03  0.87508779257E+03  0.50400001928E-02 0.  1.
    10030    2    1    2    0    0  0.00000000000E+00  0.00000000000E+00  0.85398287757E+03  0.26041584627E+04  0.24601533578E+04 0.  0.
        2    1    3    3  502    0 -0.10263075377E+04  0.64031748840E+02 -0.28756392296E+03  0.10677547643E+04  0.25500000920E-02 0.  1.
       -2    1    3    3    0  502  0.10263075377E+04 -0.64031748840E+02  0.11415468005E+04  0.15364036984E+04  0.25500000920E-02 0. -1.
</event>
<event>
 5   0  0.1201438E-05  0.2472071E+04  0.7818609E-02  0.8413003E-01
        3   -1    0    0  501    0  0.00000000000E+00  0.00000000000E+00  0.72908034655E+03  0.72908035355E+03  0.10100000352E+00 0.  1.
       -3   -1    0    0    0  501  0.00000000000E+00  0.00000000000E+00 -0.20954950914E+04  0.20954950939E+04  0.10100000352E+00 0. -1.
    10030    2    1    2    0    0  0.00000000000E+00  0.00000000000E+00 -0.13664147449E+04  0.28245754474E+04  0.24720714397E+04 0.  0.
        2    1    3    3  502    0 -0.59923736466E+03 -0.74651543188E+03 -0.15766356764E+04  0.18444920074E+04  0.25500000920E-02 0. -1.
       -2    1    3    3    0  502  0.59923736466E+03  0.74651543188E+03  0.21022093157E+03  0.98008343998E+03  0.25500000920E-02 0.  1.
</event>
<event>
 5   0  0.3650620E-05  0.2520726E+04  0.7818609E-02  0.8395639E-01
        2   -1    0    0  501    0  0.00000000000E+00  0.00000000000E+00  0.12710629633E+04  0.12710629633E+04  0.25500000920E-02 0. -1.
       -2   -1    0    0    0  501  0.00000000000E+00  0.00000000000E+00 -0.12497531506E+04  0.12497531506E+04  0.25500000920E-02 0.  1.
    10030    2    1    2    0    0  0.00000000000E+00  0.00000000000E+00  0.21309812691E+02  0.25208161139E+04  0.25207260407E+04 0.  0.
        3    1    3    3  502    0 -0.59543943898E+03 -0.39135275869E+03 -0.10290022815E+04  0.12516192763E+04  0.10100000352E+00 0.  1.
       -3    1    3    3    0  502  0.59543943898E+03  0.39135275869E+03  0.10503120942E+04  0.12691968376E+04  0.10100000352E+00 0. -1.
</event>
<event>
 5   0  0.3578670E-05  0.2491835E+04  0.7818609E-02  0.8405900E-01
       -2   -1    0    0    0  501  0.00000000000E+00  0.00000000000E+00  0.10619551970E+04  0.10619551970E+04  0.25500000920E-02 0.  1.
        2   -1    0    0  501    0  0.00000000000E+00  0.00000000000E+00 -0.14617472021E+04  0.14617472021E+04  0.25500000920E-02 0. -1.
    10030    2    1    2    0    0  0.00000000000E+00  0.00000000000E+00 -0.39979200512E+03  0.25237023992E+04  0.24918346960E+04 0.  0.
        4    1    3    3  502    0 -0.89536148487E+02  0.12352882122E+04 -0.62683721475E+02  0.12401147330E+04  0.12699999809E+01 0.  1.
       -4    1    3    3    0  502  0.89536148487E+02 -0.12352882122E+04 -0.33710828364E+03  0.12835876662E+04  0.12699999809E+01 0. -1.
</event>
<event>
 5   0  0.1502886E-05  0.2410660E+04  0.7818609E-02  0.8435523E-01
       -1   -1    0    0    0  501  0.00000000000E+00  0.00000000000E+00  0.60494289782E+03  0.60494289784E+03  0.50400001928E-02 0.  1.
        1   -1    0    0  501    0  0.00000000000E+00  0.00000000000E+00 -0.24015831753E+04  0.24015831753E+04  0.50400001928E-02 0. -1.
    10030    2    1    2    0    0  0.00000000000E+00  0.00000000000E+00 -0.17966402774E+04  0.30065260731E+04  0.24106602294E+04 0.  0.
        4    1    3    3  502    0 -0.99632907787E+03 -0.60871663662E+03 -0.12716655679E+04  0.17263668511E+04  0.12699999809E+01 0. -1.
       -4    1    3    3    0  502  0.99632907787E+03  0.60871663662E+03 -0.52497470954E+03  0.12801592220E+04  0.12699999809E+01 0.  1.
</event>
<event>
 5   0  0.1429483E-05  0.2522044E+04  0.7818609E-02  0.8395174E-01
       -1   -1    0    0    0  501  0.00000000000E+00  0.00000000000E+00  0.12902181830E+04  0.12902181830E+04  0.50400001928E-02 0. -1.
        1   -1    0    0  501    0  0.00000000000E+00  0.00000000000E+00 -0.12324863376E+04  0.12324863376E+04  0.50400001928E-02 0.  1.
    10030    2    1    2    0    0  0.00000000000E+00  0.00000000000E+00  0.57731845423E+02  0.25227045206E+04  0.25220438403E+04 0.  0.
        2    1    3    3  502    0  0.53728028175E+03  0.77727882799E+03  0.86415581780E+03  0.12804677876E+04  0.25500000920E-02 0. -1.
       -2    1    3    3    0  502 -0.53728028175E+03 -0.77727882799E+03 -0.80642397238E+03  0.12422367330E+04  0.25500000920E-02 0.  1.
</event>
<event>
 5   0  0.1429483E-05  0.2614794E+04  0.7818609E-02  0.8363193E-01
        1   -1    0    0  501    0  0.00000000000E+00  0.00000000000E+00  0.93298474568E+03  0.93298474570E+03  0.50400001928E-02 0. -1.
       -1   -1    0    0    0  501  0.00000000000E+00  0.00000000000E+00 -0.18320630118E+04  0.18320630118E+04  0.50400001928E-02 0.  1.
    10030    2    1    2    0    0  0.00000000000E+00  0.00000000000E+00 -0.89907826609E+03  0.27650477575E+04  0.26147939446E+04 0.  0.
        2    1    3    3  502    0 -0.11550749342E+04 -0.36065673672E+03 -0.97297310804E+03  0.15527227874E+04  0.25500000920E-02 0.  1.
       -2    1    3    3    0  502  0.11550749342E+04  0.36065673672E+03  0.73894841957E+02  0.12123249701E+04  0.25500000920E-02 0. -1.
</event>
<event>
 5   0  0.3704241E-05  0.2399943E+04  0.7818609E-02  0.8439525E-01
        2   -1    0    0  501    0  0.00000000000E+00  0.00000000000E+00  0.21768366617E+04  0.21768366617E+04  0.25500000920E-02 0.  1.
       -2   -1    0    0    0  501  0.00000000000E+00  0.00000000000E+00 -0.66147896906E+03  0.66147896906E+03  0.25500000920E-02 0. -1.
    10030    2    1    2    0    0  0.00000000000E+00  0.00000000000E+00  0.15153576927E+04  0.28383156308E+04  0.23999430583E+04 0.  0.
        2    1    3    3  502    0 -0.71881131720E+03 -0.75336267916E+03  0.14630107437E+04  0.17957297882E+04  0.25500000920E-02 0.  1.
       -2    1    3    3    0  502  0.71881131720E+03  0.75336267916E+03  0.52346948977E+02  0.10425858426E+04  0.25500000920E-02 0. -1.
</event>
<event>
 5   0  0.1456876E-05  0.2554061E+04  0.7818609E-02  0.8383975E-01
       -1   -1    0    0    0  501  0.00000000000E+00  0.00000000000E+00  0.15584371531E+04  0.15584371531E+04  0.50400001928E-02 0.  1.
        1   -1    0    0  501    0  0.00000000000E+00  0.00000000000E+00 -0.10464372991E+04  0.10464372992E+04  0.50400001928E-02 0. -1.
    10030    2    1    2    0    0  0.00000000000E+00  0.00000000000E+00  0.51199985397E+03  0.26048744523E+04  0.25540608962E+04 0.  0.
        1    1    3    3  502    0 -0.16025467520E+03 -0.12468272434E+04  0.26700289344E+02  0.12573673454E+04  0.50400001928E-02 0. -1.
       -1    1    3    3    0  502  0.16025467520E+03  0.12468272434E+04  0.48529956463E+03  0.13475071069E+04  0.50400001928E-02 0.  1.
</event>
<event>
 5   0  0.1502886E-05  0.2483032E+04  0.7818609E-02  0.8409056E-01
        1   -1    0    0  501    0  0.00000000000E+00  0.00000000000E+00  0.95820809783E+03  0.95820809785E+03  0.50400001928E-02 0. -1.
       -1   -1    0    0    0  501  0.00000000000E+00  0.00000000000E+00 -0.16085878530E+04  0.16085878530E+04  0.50400001928E-02 0.  1.
    10030    2    1    2    0    0  0.00000000000E+00  0.00000000000E+00 -0.65037975519E+03  0.25667959509E+04  0.24830319425E+04 0.  0.
        4    1    3    3  502    0  0.18515380988E+03 -0.25820490299E+03 -0.15658473344E+04  0.15977581772E+04  0.12699999809E+01 0.  1.
       -4    1    3    3    0  502 -0.18515380988E+03  0.25820490299E+03  0.91546757924E+03  0.96903777366E+03  0.12699999809E+01 0. -1.
</event>
<event>
 5   0  0.1421242E-05  0.2576823E+04  0.7818609E-02  0.8376117E-01
       -1   -1    0    0    0  501  0.00000000000E+00  0.00000000000E+00  0.91308641475E+03  0.91308641477E+03  0.50400001928E-02 0. -1.
        1   -1    0    0  501    0  0.00000000000E+00  0.00000000000E+00 -0.18180147941E+04  0.18180147941E+04  0.50400001928E-02 0.  1.
    10030    2    1    2    0    0  0.00000000000E+00  0.00000000000E+00 -0.90492837931E+03  0.27311012088E+04  0.25768233236E+04 0.  0.
        3    1    3    3  502    0 -0.28336651254E+03  0.10838901723E+04 -0.11268706753E+04  0.15890097593E+04  0.10100000352E+00 0.  1.
       -3    1    3    3    0  502  0.28336651254E+03 -0.10838901723E+04  0.22194229597E+03  0.11420914495E+04  0.10100000352E+00 0. -1.
</event>
<event>
 5   0  0.1502886E-05  0.2410879E+04  0.7818609E-02  0.8435442E-01
       -1   -1    0    0    0  501  0.00000000000E+00  0.00000000000E+00  0.20897110206E+04  0.20897110207E+04  0.50400001928E-02 0. -1.
        1   -1    0    0  501    0  0.00000000000E+00  0.00000000000E+00 -0.69535206027E+03  0.69535206028E+03  0.50400001928E-02 0.  1.
    10030    2    1    2    0    0  0.00000000000E+00  0.00000000000E+00  0.13943589604E+04  0.27850630809E+04  0.24108793944E+04 0.  0.
        4    1    3    3  502    0  0.36114799928E+03 -0.66690129173E+03 -0.38520508598E+03  0.85062905045E+03  0.12699999809E+01 0.  1.
       -4    1    3    3    0  502 -0.36114799928E+03  0.66690129173E+03  0.17795640464E+04  0.19344340305E+04  0.12699999809E+01 0. -1.
</event>
<event>
 5   0  0.3578670E-05  0.2491689E+04  0.7818609E-02  0.8405952E-01
       -2   -1    0    0    0  501  0.00000000000E+00  0.00000000000E+00  0.71909987551E+03  0.71909987552E+03  0.25500000920E-02 0. -1.
        2   -1    0    0  501    0  0.00000000000E+00  0.00000000000E+00 -0.21584325562E+04  0.21584325562E+04  0.25500000920E-02 0.  1.
    10030    2    1    2    0    0  0.00000000000E+00  0.00000000000E+00 -0.14393326807E+04  0.28775324317E+04  0.24916890516E+04 0.  0.
        4    1    3    3  502    0  0.55680548823E+03  0.72505082559E+03 -0.16971352092E+04  0.19276930727E+04  0.12699999809E+01 0.  1.
       -4    1    3    3    0  502 -0.55680548823E+03 -0.72505082559E+03  0.25780252846E+03  0.94983935905E+03  0.12699999809E+01 0. -1.
</event>
<event>
 5   0  0.3704241E-05  0.2534294E+04  0.7818609E-02  0.8390869E-01
        2   -1    0    0  501    0  0.00000000000E+00  0.00000000000E+00  0.16196921721E+04  0.16196921721E+04  0.25500000920E-02 0.  1.
       -2   -1    0    0    0  501  0.00000000000E+00  0.00000000000E+00 -0.99133779661E+03  0.99133779662E+03  0.25500000920E-02 0. -1.
    10030    2    1    2    0    0  0.00000000000E+00  0.00000000000E+00  0.62835437552E+03  0.26110299688E+04  0.25342944337E+04 0.  0.
        2    1    3    3  502    0  0.12016203191E+04 -0.36596100157E+03  0.14226188309E+03  0.12641429070E+04  0.25500000920E-02 0.  1.
       -2    1    3    3    0  502 -0.12016203191E+04  0.36596100157E+03  0.48609249243E+03  0.13468870618E+04  0.25500000920E-02 0. -1.
</event>
<event>
 5   0  0.3579097E-05  0.2502699E+04  0.7818609E-02  0.8402025E-01
        2   -1    0    0  501    0  0.00000000000E+00  0.00000000000E+00  0.12291420852E+04  0.12291420852E+04  0.25500000920E-02 0. -1.
       -2   -1    0    0    0  501  0.00000000000E+00  0.00000000000E+00 -0.12739584828E+04  0.12739584828E+04  0.25500000920E-02 0.  1.
    10030    2    1    2    0    0  0.00000000000E+00  0.00000000000E+00 -0.44816397602E+02  0.25031005680E+04  0.25026993316E+04 0.  0.
        5    1    3    3  502    0  0.46769013893E+03  0.11606362515E+04 -0.15825224006E+02  0.12514324201E+04  0.46999998093E+01 0. -1.
       -5    1    3    3    0  502 -0.46769013893E+03 -0.11606362515E+04 -0.28991173597E+02  0.12516681479E+04  0.46999998093E+01 0.  1.
</event>
<event>
 5   0  0.3650620E-05  0.2516331E+04  0.7818609E-02  0.8397190E-01
        2   -1    0    0  501    0  0.00000000000E+00  0.00000000000E+00  0.10942754709E+04  0.10942754709E+04  0.25500000920E-02 0.  1.
       -2   -1    0    0    0  501  0.00000000000E+00  0.00000000000E+00 -0.14466018608E+04  0.14466018608E+04  0.25500000920E-02 0. -1.
    10030    2    1    2    0    0  0.00000000000E+00  0.00000000000E+00 -0.35232638990E+03  0.25408773318E+04  0.25163314031E+04 0.  0.
        3    1    3    3  502    0 -0.13846526017E+03  0.99749182642E+03  0.58539423652E+03  0.11648386130E+04  0.10100000352E+00 0.  1.
       -3    1    3    3    0  502  0.13846526017E+03 -0.99749182642E+03 -0.93772062643E+03  0.13760387187E+04  0.10100000352E+00 0. -1.
</event>
<event>
 5   0  0.3581449E-05  0.2367138E+04  0.7818609E-02  0.8451910E-01
       -2   -1    0    0    0  501  0.00000000000E+00  0.00000000000E+00  0.15029556582E+04  0.15029556582E+04  0.25500000920E-02 0. -1.
        2   -1    0    0  501    0  0.00000000000E+00  0.00000000000E+00 -0.93205371495E+03  0.93205371495E+03  0.25500000920E-02 0.  1.
    10030    2    1    2    0    0  0.00000000000E+00  0.00000000000E+00  0.57090194323E+03  0.24350093731E+04  0.23671378537E+04 0.  0.
        1    1    3    3  502    0 -0.18041766775E+03  0.99270950336E+03 -0.35100777928E+03  0.10682832742E+04  0.50400001928E-02 0.  1.
       -1    1    3    3    0  502  0.18041766775E+03 -0.99270950336E+03  0.92190972251E+03  0.13667260989E+04  0.50400001928E-02 0. -1.
</event>
<event>
 5   0  0.1421242E-05  0.2661851E+04  0.7818609E-02  0.8347490E-01
        1   -1    0    0  501    0  0.00000000000E+00  0.00000000000E+00  0.17530050244E+04  0.17530050244E+04  0.50400001928E-02 0.  1.
       -1   -1    0    0    0  501  0.00000000000E+00  0.00000000000E+00 -0.10104724796E+04  0.10104724797E+04  0.50400001928E-02 0. -1.
    10030    2    1    2    0    0  0.00000000000E+00  0.00000000000E+00  0.74253254473E+03  0.27634775040E+04  0.26618514864E+04 0.  0.
        3    1    3    3  502    0  0.42073810611E+03 -0.75318574351E+03 -0.68086214997E+03  0.10990371220E+04  0.10100000352E+00 0. -1.
       -3    1    3    3    0  502 -0.42073810611E+03  0.75318574351E+03  0.14233946947E+04  0.16644403820E+04  0.10100000352E+00 0.  1.
</event>
<event>
 5   0  0.1421242E-05  0.2469293E+04  0.7818609E-02  0.8414007E-01
       -1   -1    0    0    0  501  0.00000000000E+00  0.00000000000E+00  0.21629508964E+04  0.21629508964E+04  0.50400001928E-02 0. -1.
        1   -1    0    0  501    0  0.00000000000E+00  0.00000000000E+00 -0.70475566889E+03  0.70475566891E+03  0.50400001928E-02 0.  1.
    10030    2    1    2    0    0  0.00000000000E+00  0.00000000000E+00  0.14581952275E+04  0.28677065653E+04  0.24692929399E+04 0.  0.
        3    1    3    3  502    0  0.10638563389E+04 -0.30847972810E+03  0.13624332475E+04  0.17558970404E+04  0.10100000352E+00 0.  1.
       -3    1    3    3    0  502 -0.10638563389E+04  0.30847972810E+03  0.95761979970E+02  0.11118095248E+04  0.10100000352E+00 0. -1.
</event>
<event>
 5   0  0.3579097E-05  0.2478440E+04  0.7818609E-02  0.8410707E-01
       -2   -1    0    0    0  501  0.00000000000E+00  0.00000000000E+00  0.14709067149E+04  0.14709067149E+04  0.25500000920E-02 0. -1.
        2   -1    0    0  501    0  0.00000000000E+00  0.00000000000E+00 -0.10440266835E+04  0.10440266835E+04  0.25500000920E-02 0.  1.
    10030    2    1    2    0    0  0.00000000000E+00  0.00000000000E+00  0.42688003141E+03  0.25149333985E+04  0.24784397184E+04 0.  0.
        5    1    3    3  502    0 -0.10543246835E+04 -0.54451876137E+02 -0.44502016902E+03  0.11457009147E+04  0.46999998093E+01 0.  1.
       -5    1    3    3    0  502  0.10543246835E+04  0.54451876137E+02  0.87190020043E+03  0.13692324838E+04  0.46999998093E+01 0. -1.
</event>
<event>
 5   0  0.1502886E-05  0.2295708E+04  0.7818609E-02  0.8479615E-01
       -1   -1    0    0    0  501  0.00000000000E+00  0.00000000000E+00  0.10438529030E+04  0.10438529030E+04  0.50400001928E-02 0. -1.
        1   -1    0    0  501    0  0.00000000000E+00  0.00000000000E+00 -0.12622168316E+04  0.12622168316E+04  0.50400001928E-02 0.  1.
    10030    2    1    2    0    0  0.00000000000E+00  0.00000000000E+00 -0.21836392856E+03  0.23060697346E+04  0.22957079116E+04 0.  0.
        4    1    3    3  502    0 -0.40125254959E+03 -0.53873376022E+03  0.82578730390E+03  0.10645017413E+04  0.12699999809E+01 0. -1.
       -4    1    3    3    0  502  0.40125254959E+03  0.53873376022E+03 -0.10441512325E+04  0.12415679933E+04  0.12699999809E+01 0.  1.
</event>
<event>
 5   0  0.3581449E-05  0.2525755E+04  0.7818609E-02  0.8393867E-01
        2   -1    0    0  501    0  0.00000000000E+00  0.00000000000E+00  0.85854633003E+03  0.85854633004E+03  0.25500000920E-02 0. -1.
       -2   -1    0    0    0  501  0.00000000000E+00  0.00000000000E+00 -0.18576284066E+04  0.18576284066E+04  0.25500000920E-02 0.  1.
    10030    2    1    2    0    0  0.00000000000E+00  0.00000000000E+00 -0.99908207661E+03  0.27161747367E+04  0.25257553730E+04 0.  0.
        1    1    3    3  502    0 -0.11534773260E+04  0.17839254999E+03  0.19022974333E+02  0.11673455859E+04  0.50400001928E-02 0. -1.
       -1    1    3    3    0  502  0.11534773260E+04 -0.17839254999E+03 -0.10181050509E+04  0.15488291507E+04  0.50400001928E-02 0.  1.
</event>
<event>
 5   0  0.3650620E-05  0.2473372E+04  0.7818609E-02  0.8412534E-01
       -2   -1    0    0    0  501  0.00000000000E+00  0.00000000000E+00  0.14255159012E+04  0.14255159012E+04  0.25500000920E-02 0. -1.
        2   -1    0    0  501    0  0.00000000000E+00  0.00000000000E+00 -0.10728689208E+04  0.10728689208E+04  0.25500000920E-02 0.  1.
    10030    2    1    2    0    0  0.00000000000E+00  0.00000000000E+00  0.35264698042E+03  0.24983848219E+04  0.24733715503E+04 0.  0.
        3    1    3    3  502    0  0.10715102446E+04  0.11514679342E+03  0.78908731545E+03  0.13356840158E+04  0.10100000352E+00 0. -1.
       -3    1    3    3    0  502 -0.10715102446E+04 -0.11514679342E+03 -0.43644033503E+03  0.11627008062E+04  0.10100000352E+00 0.  1.
</event>
<event>
 5   0  0.1421242E-05  0.2490777E+04  0.7818609E-02  0.8406279E-01
        1   -1    0    0  501    0  0.00000000000E+00  0.00000000000E+00  0.14193716629E+04  0.14193716629E+04  0.50400001928E-02 0. -1.
       -1   -1    0    0    0  501  0.00000000000E+00  0.00000000000E+00 -0.10927315864E+04  0.10927315864E+04  0.50400001928E-02 0.  1.
    10030    2    1    2    0    0  0.00000000000E+00  0.00000000000E+00  0.32664007647E+03  0.25121032493E+04  0.24907767856E+04 0.  0.
        3    1    3    3  502    0 -0.40089969614E+03 -0.14450554225E+03 -0.10169088036E+04  0.11025905600E+04  0.10100000352E+00 0.  1.
       -3    1    3    3    0  502  0.40089969614E+03  0.14450554225E+03  0.13435488800E+04  0.14095126893E+04  0.10100000352E+00 0. -1.
</event>
<event>
 5   0  0.3650620E-05  0.2550772E+04  0.7818609E-02  0.8385118E-01
       -2   -1    0    0    0  501  0.00000000000E+00  0.00000000000E+00  0.10566433911E+04  0.10566433911E+04  0.25500000920E-02 0. -1.
        2   -1    0    0  501    0  0.00000000000E+00  0.00000000000E+00 -0.15394121704E+04  0.15394121704E+04  0.25500000920E-02 0.  1.
    10030    2    1    2    0    0  0.00000000000E+00  0.00000000000E+00 -0.48276877928E+03  0.25960555616E+04  0.25507721938E+04 0.  0.
        3    1    3    3  502    0 -0.12167671883E+04  0.38189684955E+03 -0.22554886922E+03  0.12950829691E+04  0.10100000352E+00 0. -1.
       -3    1    3    3    0  502  0.12167671883E+04 -0.38189684955E+03 -0.25721991006E+03  0.13009725925E+04  0.10100000352E+00 0.  1.
</event>
<event>
 5   0  0.3581449E-05  0.2502816E+04  0.7818609E-02  0.8401983E-01
        2   -1    0    0  501    0  0.00000000000E+00  0.00000000000E+00  0.22432415241E+04  0.22432415241E+04  0.25500000920E-02 0.  1.
       -2   -1    0    0    0  501  0.00000000000E+00  0.00000000000E+00 -0.69810695058E+03  0.69810695059E+03  0.25500000920E-02 0. -1.
    10030    2    1    2    0    0  0.00000000000E+00  0.00000000000E+00  0.15451345735E+04  0.29413484747E+04  0.25028164134E+04 0.  0.
        1    1    3    3  502    0 -0.34632618308E+03  0.51040213531E+03  0.20521876657E+04  0.21428780600E+04  0.50400001928E-02 0.  1.
       -1    1    3    3    0  502  0.34632618308E+03 -0.51040213531E+03 -0.50705309218E+03  0.79847041468E+03  0.50400001928E-02 0. -1.
</event>
<event>
 5   0  0.1502886E-05  0.2502046E+04  0.7818609E-02  0.8402257E-01
        1   -1    0    0  501    0  0.00000000000E+00  0.00000000000E+00  0.17296604202E+04  0.17296604202E+04  0.50400001928E-02 0. -1.
       -1   -1    0    0    0  501  0.00000000000E+00  0.00000000000E+00 -0.90483571757E+03  0.90483571758E+03  0.50400001928E-02 0.  1.
    10030    2    1    2    0    0  0.00000000000E+00  0.00000000000E+00  0.82482470265E+03  0.26344961378E+04  0.25020459848E+04 0.  0.
        4    1    3    3  502    0  0.85800766939E+03  0.91034616782E+03  0.39953339798E+03  0.13132158448E+04  0.12699999809E+01 0.  1.
       -4    1    3    3    0  502 -0.85800766939E+03 -0.91034616782E+03  0.42529130467E+03  0.13212802930E+04  0.12699999809E+01 0. -1.
</event>
<event>
 5   0  0.3578670E-05  0.2677421E+04  0.7818609E-02  0.8342369E-01
       -2   -1    0    0    0  501  0.00000000000E+00  0.00000000000E+00  0.11216674810E+04  0.11216674810E+04  0.25500000920E-02 0.  1.
        2   -1    0    0  501    0  0.00000000000E+00  0.00000000000E+00 -0.15977510913E+04  0.15977510913E+04  0.25500000920E-02 0. -1.
    10030    2    1    2    0    0  0.00000000000E+00  0.00000000000E+00 -0.47608361032E+03  0.27194185723E+04  0.26774207304E+04 0.  0.
        4    1    3    3  502    0 -0.13280387860E+04  0.16221812070E+03 -0.28505054468E+03  0.13679390198E+04  0.12699999809E+01 0. -1.
       -4    1    3    3    0  502  0.13280387860E+04 -0.16221812070E+03 -0.19103306564E+03  0.13514795526E+04  0.12699999809E+01 0.  1.
</event>
<event>
 5   0  0.3704241E-05  0.2584997E+04  0.7818609E-02  0.8373315E-01
       -2   -1    0    0    0  501  0.00000000000E+00  0.00000000000E+00  0.10256086430E+04  0.10256086430E+04  0.25500000920E-02 0. -1.
        2   -1    0    0  501    0  0.00000000000E+00  0.00000000000E+00 -0.16288405880E+04  0.16288405880E+04  0.25500000920E-02 0.  1.
    10030    2    1    2    0    0  0.00000000000E+00  0.00000000000E+00 -0.60323194503E+03  0.26544492311E+04  0.25849974741E+04 0.  0.
        2    1    3    3  502    0  0.79522227166E+03  0.74015476618E+03  0.41744442995E+03  0.11638158752E+04  0.25500000920E-02 0. -1.
       -2    1    3    3    0  502 -0.79522227166E+03 -0.74015476618E+03 -0.10206763750E+04  0.14906333559E+04  0.25500000920E-02 0.  1.
</event>
<event>
 5   0  0.1421242E-05  0.2485294E+04  0.7818609E-02  0.8408243E-01
       -1   -1    0    0    0  501  0.00000000000E+00  0.00000000000E+00  0.13739673903E+04  0.13739673903E+04  0.50400001928E-02 0. -1.
        1   -1    0    0  501    0  0.00000000000E+00  0.00000000000E+00 -0.11238780236E+04  0.11238780236E+04  0.50400001928E-02 0.  1.
    10030    2    1    2    0    0  0.00000000000E+00  0.00000000000E+00  0.25008936665E+03  0.24978454139E+04  0.24852941517E+04 0.  0.
        3    1    3    3  502    0  0.14664583637E+03  0.11826819580E+04  0.47885965969E+03  0.12843473825E+04  0.10100000352E+00 0.  1.
       -3    1    3    3    0  502 -0.14664583637E+03 -0.11826819580E+04 -0.22877029303E+03  0.12134980314E+04  0.10100000352E+00 0. -1.
</event>
<event>
 5   0  0.1502886E-05  0.2388229E+04  0.7818609E-02  0.8443924E-01
        1   -1    0    0  501    0  0.00000000000E+00  0.00000000000E+00  0.74537643061E+03  0.74537643063E+03  0.50400001928E-02 0. -1.
       -1   -1    0    0    0  501  0.00000000000E+00  0.00000000000E+00 -0.19130053771E+04  0.19130053771E+04  0.50400001928E-02 0.  1.
    10030    2    1    2    0    0  0.00000000000E+00  0.00000000000E+00 -0.11676289465E+04  0.26583818078E+04  0.23882287326E+04 0.  0.
        4    1    3    3  502    0 -0.16040057341E+03 -0.76273295479E+03  0.42318424572E+03  0.88689143811E+03  0.12699999809E+01 0. -1.
       -4    1    3    3    0  502  0.16040057341E+03  0.76273295479E+03 -0.15908131922E+04  0.17714903697E+04  0.12699999809E+01 0.  1.
</event>
<event>
 5   0  0.1492639E-05  0.2431803E+04  0.7818609E-02  0.8427692E-01
       -1   -1    0    0    0  501  0.00000000000E+00  0.00000000000E+00  0.75115917150E+03  0.75115917152E+03  0.50400001928E-02 0.  1.
        1   -1    0    0  501    0  0.00000000000E+00  0.00000000000E+00 -0.19681808058E+04  0.19681808058E+04  0.50400001928E-02 0. -1.
    10030    2    1    2    0    0  0.00000000000E+00  0.00000000000E+00 -0.12170216343E+04  0.27193399773E+04  0.24318034982E+04 0.  0.
        5    1    3    3  502    0  0.97803018928E+03  0.71820354532E+03 -0.69538583091E+03  0.13985502949E+04  0.46999998093E+01 0. -1.
       -5    1    3    3    0  502 -0.97803018928E+03 -0.71820354532E+03 -0.52163580335E+03  0.13207896823E+04  0.46999998093E+01 0.  1.
</event>
<event>
 5   0  0.1502886E-05  0.2523507E+04  0.7818609E-02  0.8394659E-01
        1   -1    0    0  501    0  0.00000000000E+00  0.00000000000E+00  0.13296611325E+04  0.13296611325E+04  0.50400001928E-02 0.  1.
       -1   -1    0    0    0  501  0.00000000000E+00  0.00000000000E+00 -0.11973137022E+04  0.11973137022E+04  0.50400001928E-02 0. -1.
    10030    2    1    2    0    0  0.00000000000E+00  0.00000000000E+00  0.13234743029E+03  0.25269748347E+04  0.25235066817E+04 0.  0.
        4    1    3    3  502    0  0.78204665976E+03 -0.50045561620E+03 -0.78938160233E+03  0.12186786815E+04  0.12699999809E+01 0. -1.
       -4    1    3    3    0  502 -0.78204665976E+03  0.50045561620E+03  0.92172903262E+03  0.13082961531E+04  0.12699999809E+01 0.  1.
</event>
<event>
 5   0  0.1456876E-05  0.2515068E+04  0.7818609E-02  0.8397637E-01
        1   -1    0    0  501    0  0.00000000000E+00  0.00000000000E+00  0.17888656651E+04  0.17888656651E+04  0.50400001928E-02 0. -1.
       -1   -1    0    0    0  501  0.00000000000E+00  0.00000000000E+00 -0.88401953005E+03  0.88401953006E+03  0.50400001928E-02 0.  1.
    10030    2    1    2    0    0  0.00000000000E+00  0.00000000000E+00  0.90484613505E+03  0.26728851952E+04  0.25150683367E+04 0.  0.
        1    1    3    3  502    0  0.89821675127E+03 -0.71984113090E+03 -0.85738771022E+02  0.11542598160E+04  0.50400001928E-02 0.  1.
       -1    1    3    3    0  502 -0.89821675127E+03  0.71984113090E+03  0.99058490607E+03  0.15186253791E+04  0.50400001928E-02 0. -1.
</event>
<event>
 5   0  0.3579097E-05  0.2324478E+04  0.7818609E-02  0.8468332E-01
       -2   -1    0    0    0  501  0.00000000000E+00  0.00000000000E+00  0.84772355883E+03  0.84772355883E+03  0.25500000920E-02 0. -1.
        2   -1    0    0  501    0  0.00000000000E+00  0.00000000000E+00 -0.15934427865E+04  0.15934427865E+04  0.25500000920E-02 0.  1.
    10030    2    1    2    0    0  0.00000000000E+00  0.00000000000E+00 -0.74571922764E+03  0.24411663453E+04  0.23244775669E+04 0.  0.
        5    1    3    3  502    0 -0.61642341339E+00 -0.71039768716E+03  0.59315979269E+03  0.92548683598E+03  0.46999998093E+01 0. -1.
       -5    1    3    3    0  502  0.61642341339E+00  0.71039768716E+03 -0.13388790203E+04  0.15156795093E+04  0.46999998093E+01 0.  1.
</event>
<event>
 5   0  0.1502886E-05  0.2340075E+04  0.7818609E-02  0.8462286E-01
        1   -1    0    0  501    0  0.00000000000E+00  0.00000000000E+00  0.89292889681E+03  0.89292889682E+03  0.50400001928E-02 0. -1.
       -1   -1    0    0    0  501  0.00000000000E+00  0.00000000000E+00 -0.15331428902E+04  0.15331428902E+04  0.50400001928E-02 0.  1.
    10030    2    1    2    0    0  0.00000000000E+00  0.00000000000E+00 -0.64021399340E+03  0.24260717870E+04  0.23400748617E+04 0.  0.
        4    1    3    3  502    0  0.10332622746E+04  0.19289361538E+03 -0.85294699862E+03  0.13536465825E+04  0.12699999809E+01 0.  1.
       -4    1    3    3    0  502 -0.10332622746E+04 -0.19289361538E+03  0.21273300521E+03  0.10724252045E+04  0.12699999809E+01 0. -1.
</event>
<event>
 5   0  0.1429483E-05  0.2424927E+04  0.7818609E-02  0.8430230E-01
        1   -1    0    0  501    0  0.00000000000E+00  0.00000000000E+00  0.19158751491E+04  0.19158751491E+04  0.50400001928E-02 0.  1.
       -1   -1    0    0    0  501  0.00000000000E+00  0.00000000000E+00 -0.76730882818E+03  0.76730882820E+03  0.50400001928E-02 0. -1.
    10030    2    1    2    0    0  0.00000000000E+00  0.00000000000E+00  0.11485663209E+04  0.26831839773E+04  0.24249271458E+04 0.  0.
        2    1    3    3  502    0 -0.76893991957E+03 -0.92622746600E+03  0.73425577622E+03  0.14100700208E+04  0.25500000920E-02 0. -1.
       -2    1    3    3    0  502  0.76893991957E+03  0.92622746600E+03  0.41431054466E+03  0.12731139564E+04  0.25500000920E-02 0.  1.
</event>
<event>
 5   0  0.3650620E-05  0.2542896E+04  0.7818609E-02  0.8387861E-01
       -2   -1    0    0    0  501  0.00000000000E+00  0.00000000000E+00  0.75903702440E+03  0.75903702441E+03  0.25500000920E-02 0.  1.
        2   -1    0    0  501    0  0.00000000000E+00  0.00000000000E+00 -0.21297778353E+04  0.21297778353E+04  0.25500000920E-02 0. -1.
    10030    2    1    2    0    0  0.00000000000E+00  0.00000000000E+00 -0.13707408109E+04  0.28888148597E+04  0.25428961683E+04 0.  0.
        3    1    3    3  502    0 -0.12505074975E+04 -0.12353590571E+03 -0.90550922145E+03  0.15488631578E+04  0.10100000352E+00 0. -1.
       -3    1    3    3    0  502  0.12505074975E+04  0.12353590571E+03 -0.46523158945E+03  0.13399517019E+04  0.10100000352E+00 0.  1.
</event>
<event>
 5   0  0.3650620E-05  0.2181275E+04  0.7818609E-02  0.8526262E-01
       -2   -1    0    0    0  501  0.00000000000E+00  0.00000000000E+00  0.10137162924E+04  0.10137162924E+04  0.25500000920E-02 0. -1.
        2   -1    0    0  501    0  0.00000000000E+00  0.00000000000E+00 -0.11733959648E+04  0.11733959648E+04  0.25500000920E-02 0.  1.
    10030    2    1    2    0    0  0.00000000000E+00  0.00000000000E+00 -0.15967967240E+03  0.21871122572E+04  0.21812754131E+04 0.  0.
        3    1    3    3  502    0 -0.36011403366E+03  0.75527590652E+03 -0.78125930267E+03  0.11447663169E+04  0.10100000352E+00 0.  1.
       -3    1    3    3    0  502  0.36011403366E+03 -0.75527590652E+03  0.62157963027E+03  0.10423459403E+04  0.10100000352E+00 0. -1.
</event>
<event>
 5   0  0.1492639E-05  0.2507843E+04  0.7818609E-02  0.8400197E-01
       -1   -1    0    0    0  501  0.00000000000E+00  0.00000000000E+00  0.14302231136E+04  0.14302231136E+04  0.50400001928E-02 0. -1.
        1   -1    0    0  501    0  0.00000000000E+00  0.00000000000E+00 -0.10993522588E+04  0.10993522588E+04  0.50400001928E-02 0.  1.
    10030    2    1    2    0    0  0.00000000000E+00  0.00000000000E+00  0.33087085480E+03  0.25295753724E+04  0.25078429061E+04 0.  0.
        5    1    3    3  502    0 -0.11324594294E+03 -0.92870395154E+03 -0.67665327854E+03  0.11546416858E+04  0.46999998093E+01 0.  1.
       -5    1    3    3    0  502  0.11324594294E+03  0.92870395154E+03  0.10075241333E+04  0.13749336866E+04  0.46999998093E+01 0. -1.
</event>
<event>
 5   0  0.3579097E-05  0.2528935E+04  0.7818609E-02  0.8392749E-01
       -2   -1    0    0    0  501  0.00000000000E+00  0.00000000000E+00  0.11356847203E+04  0.11356847203E+04  0.25500000920E-02 0. -1.
        2   -1    0    0  501    0  0.00000000000E+00  0.00000000000E+00 -0.14078542739E+04  0.14078542739E+04  0.25500000920E-02 0.  1.
    10030    2    1    2    0    0  0.00000000000E+00  0.00000000000E+00 -0.27216955359E+03  0.25435389943E+04  0.25289354182E+04 0.  0.
        5    1    3    3  502    0  0.44884231919E+03 -0.47612434984E+03  0.95215342210E+03  0.11553233544E+04  0.46999998093E+01 0. -1.
       -5    1    3    3    0  502 -0.44884231919E+03  0.47612434984E+03 -0.12243229757E+04  0.13882156399E+04  0.46999998093E+01 0.  1.
</event>
<event>
 5   0  0.3650620E-05  0.2442683E+04  0.7818609E-02  0.8423694E-01
       -2   -1    0    0    0  501  0.00000000000E+00  0.00000000000E+00  0.85893458129E+03  0.85893458129E+03  0.25500000920E-02 0.  1.
        2   -1    0    0  501    0  0.00000000000E+00  0.00000000000E+00 -0.17366570933E+04  0.17366570933E+04  0.25500000920E-02 0. -1.
    10030    2    1    2    0    0  0.00000000000E+00  0.00000000000E+00 -0.87772251204E+03  0.25955916746E+04  0.24426828147E+04 0.  0.
        3    1    3    3  502    0  0.88631383485E+03 -0.54892716416E+03 -0.11149292772E+04  0.15264142782E+04  0.10100000352E+00 0. -1.
       -3    1    3    3    0  502 -0.88631383485E+03  0.54892716416E+03  0.23720676513E+03  0.10691773964E+04  0.10100000352E+00 0.  1.
</event>
<event>
 5   0  0.1421242E-05  0.2496482E+04  0.7818609E-02  0.8404240E-01
       -1   -1    0    0    0  501  0.00000000000E+00  0.00000000000E+00  0.14875147325E+04  0.14875147325E+04  0.50400001928E-02 0.  1.
        1   -1    0    0  501    0  0.00000000000E+00  0.00000000000E+00 -0.10474558690E+04  0.10474558691E+04  0.50400001928E-02 0. -1.
    10030    2    1    2    0    0  0.00000000000E+00  0.00000000000E+00  0.44005886346E+03  0.25349706016E+04  0.24964823547E+04 0.  0.
        3    1    3    3  502    0 -0.64529788076E+03 -0.10677442308E+04  0.26088566863E+03  0.12745777496E+04  0.10100000352E+00 0.  1.
       -3    1    3    3    0  502  0.64529788076E+03  0.10677442308E+04  0.17917319483E+03  0.12603928520E+04  0.10100000352E+00 0. -1.
</event>
<event>
 5   0  0.1421242E-05  0.2507390E+04  0.7818609E-02  0.8400357E-01
        1   -1    0    0  501    0  0.00000000000E+00  0.00000000000E+00  0.19529861444E+04  0.19529861444E+04  0.50400001928E-02 0.  1.
       -1   -1    0    0    0  501  0.00000000000E+00  0.00000000000E+00 -0.80479394049E+03  0.80479394051E+03  0.50400001928E-02 0. -1.
    10030    2    1    2    0    0  0.00000000000E+00  0.00000000000E+00  0.11481922039E+04  0.27577800849E+04  0.25073902089E+04 0.  0.
        3    1    3    3  502    0 -0.45971942760E+03  0.11180601298E+04  0.20873202945E+03  0.12267719740E+04  0.10100000352E+00 0. -1.
       -3    1    3    3    0  502  0.45971942760E+03 -0.11180601298E+04  0.93946017447E+03  0.15310081109E+04  0.10100000352E+00 0.  1.
</event>
<event>
 5   0  0.1502886E-05  0.2497044E+04  0.7818609E-02  0.8404040E-01
        1   -1    0    0  501    0  0.00000000000E+00  0.00000000000E+00  0.20437864343E+04  0.20437864343E+04  0.50400001928E-02 0.  1.
       -1   -1    0    0    0  501  0.00000000000E+00  0.00000000000E+00 -0.76270525294E+03  0.76270525295E+03  0.50400001928E-02 0. -1.
    10030    2    1    2    0    0  0.00000000000E+00  0.00000000000E+00  0.12810811813E+04  0.28064916872E+04  0.24970435714E+04 0.  0.
        4    1    3    3  502    0  0.41347432042E+03 -0.63778453660E+03  0.17537803885E+04  0.19114071761E+04  0.12699999809E+01 0.  1.
       -4    1    3    3    0  502 -0.41347432042E+03  0.63778453660E+03 -0.47269920715E+03  0.89508451116E+03  0.12699999809E+01 0. -1.
</event>
<event>
 5   0  0.3650620E-05  0.2502779E+04  0.7818609E-02  0.8401996E-01
       -2   -1    0    0    0  501  0.00000000000E+00  0.00000000000E+00  0.10197851199E+04  0.10197851199E+04  0.25500000920E-02 0.  1.
        2   -1    0    0  501    0  0.00000000000E+00  0.00000000000E+00 -0.15355935554E+04  0.15355935554E+04  0.25500000920E-02 0. -1.
    10030    2    1    2    0    0  0.00000000000E+00  0.00000000000E+00 -0.51580843547E+03  0.25553786753E+04  0.25027788221E+04 0.  0.
        3    1    3    3  502    0  0.11781898436E+04  0.42171216509E+03 -0.25613866414E+03  0.12773329571E+04  0.10100000352E+00 0. -1.
       -3    1    3    3    0  502 -0.11781898436E+04 -0.42171216509E+03 -0.25966977133E+03  0.12780457183E+04  0.10100000352E+00 0.  1.
</event>
<event>
 5   0  0.1429483E-05  0.2435087E+04  0.7818609E-02  0.8426483E-01
       -1   -1    0    0    0  501  0.00000000000E+00  0.00000000000E+00  0.63475459624E+03  0.63475459626E+03  0.50400001928E-02 0. -1.
        1   -1    0    0  501    0  0.00000000000E+00  0.00000000000E+00 -0.23354095261E+04  0.23354095261E+04  0.50400001928E-02 0.  1.
    10030    2    1    2    0    0  0.00000000000E+00  0.00000000000E+00 -0.17006549298E+04  0.29701641223E+04  0.24350867999E+04 0.  0.
        2    1    3    3  502    0 -0.16307896268E+03  0.11939222546E+04 -0.10628797361E+04  0.16067851230E+04  0.25500000920E-02 0. -1.
       -2    1    3    3    0  502  0.16307896268E+03 -0.11939222546E+04 -0.63777519369E+03  0.13633789993E+04  0.25500000920E-02 0.  1.
</event>
<event>
 5   0  0.3704241E-05  0.2490697E+04  0.7818609E-02  0.8406307E-01
        2   -1    0    0  501    0  0.00000000000E+00  0.00000000000E+00  0.16776241542E+04  0.16776241542E+04  0.25500000920E-02 0. -1.
       -2   -1    0    0    0  501  0.00000000000E+00  0.00000000000E+00 -0.92445822197E+03  0.92445822197E+03  0.25500000920E-02 0.  1.
    10030    2    1    2    0    0  0.00000000000E+00  0.00000000000E+00  0.75316593219E+03  0.26020823761E+04  0.24906974467E+04 0.  0.
        2    1    3    3  502    0 -0.87315206725E+03 -0.34677579102E+03  0.12306030311E+04  0.15482350603E+04  0.25500000920E-02 0. -1.
       -2    1    3    3    0  502  0.87315206725E+03  0.34677579102E+03 -0.47743709886E+03  0.10538473159E+04  0.25500000920E-02 0.  1.
</event>
<event>
 5   0  0.3650620E-05  0.2475791E+04  0.7818609E-02  0.8411661E-01
       -2   -1    0    0    0  501  0.00000000000E+00  0.00000000000E+00  0.21790734006E+04  0.21790734006E+04  0.25500000920E-02 0. -1.
        2   -1    0    0  501    0  0.00000000000E+00  0.00000000000E+00 -0.70322767956E+03  0.70322767956E+03  0.25500000920E-02 0.  1.
    10030    2    1    2    0    0  0.00000000000E+00  0.00000000000E+00  0.14758457211E+04  0.28823010802E+04  0.24757905656E+04 0.  0.
        3    1    3    3  502    0 -0.79379226132E+03 -0.94874444593E+03  0.79206156127E+03  0.14688715753E+04  0.10100000352E+00 0.  1.
       -3    1    3    3    0  502  0.79379226132E+03  0.94874444593E+03  0.68378415981E+03  0.14134295049E+04  0.10100000352E+00 0. -1.
</event>
<event>
 5   0  0.1502886E-05  0.2547335E+04  0.7818609E-02  0.8386314E-01
        1   -1    0    0  501    0  0.00000000000E+00  0.00000000000E+00  0.25637600296E+04  0.25637600296E+04  0.50400001928E-02 0. -1.
       -1   -1    0    0    0  501  0.00000000000E+00  0.00000000000E+00 -0.63275396725E+03  0.63275396727E+03  0.50400001928E-02 0.  1.
    10030    2    1    2    0    0  0.00000000000E+00  0.00000000000E+00  0.19310060624E+04  0.31965139969E+04  0.25473353371E+04 0.  0.
        4    1    3    3  502    0  0.79883493150E+03  0.95465571791E+03  0.13038997728E+04  0.18026816186E+04  0.12699999809E+01 0. -1.
       -4    1    3    3    0  502 -0.79883493150E+03 -0.95465571791E+03  0.62710628959E+03  0.13938323783E+04  0.12699999809E+01 0.  1.
</event>
<event>
 5   0  0.1456876E-05  0.2459483E+04  0.7818609E-02  0.8417564E-01
       -1   -1    0    0    0  501  0.00000000000E+00  0.00000000000E+00  0.10178537977E+04  0.10178537977E+04  0.50400001928E-02 0.  1.
        1   -1    0    0  501    0  0.00000000000E+00  0.00000000000E+00 -0.14857383609E+04  0.14857383609E+04  0.50400001928E-02 0. -1.
    10030    2    1    2    0    0  0.00000000000E+00  0.00000000000E+00 -0.46788456320E+03  0.25035921586E+04  0.24594832246E+04 0.  0.
        1    1    3    3  502    0  0.34188181895E+03  0.27392649380E+03  0.93572816731E+03  0.10332018705E+04  0.50400001928E-02 0.  1.
       -1    1    3    3    0  502 -0.34188181895E+03 -0.27392649380E+03 -0.14036127305E+04  0.14703902881E+04  0.50400001928E-02 0. -1.
</event>
<event>
 5   0  0.3650620E-05  0.2627234E+04  0.7818609E-02  0.8359009E-01
        2   -1    0    0  501    0  0.00000000000E+00  0.00000000000E+00  0.15986567062E+04  0.15986567062E+04  0.25500000920E-02 0. -1.
       -2   -1    0    0    0  501  0.00000000000E+00  0.00000000000E+00 -0.10793997969E+04  0.10793997969E+04  0.25500000920E-02 0.  1.
    10030    2    1    2    0    0  0.00000000000E+00  0.00000000000E+00  0.51925690936E+03  0.26780565031E+04  0.26272340771E+04 0.  0.
        3    1    3    3  502    0  0.88564971251E+03  0.50268727893E+03 -0.58619394872E+03  0.11750290504E+04  0.10100000352E+00 0.  1.
       -3    1    3    3    0  502 -0.88564971251E+03 -0.50268727893E+03  0.11054508581E+04  0.15030274527E+04  0.10100000352E+00 0. -1.
</event>
<event>
 5   0  0.3579097E-05  0.2247327E+04  0.7818609E-02  0.8498984E-01
       -2   -1    0    0    0  501  0.00000000000E+00  0.00000000000E+00  0.15198066070E+04  0.15198066070E+04  0.25500000920E-02 0.  1.
        2   -1    0    0  501    0  0.00000000000E+00  0.00000000000E+00 -0.83077659549E+03  0.83077659549E+03  0.25500000920E-02 0. -1.
    10030    2    1    2    0    0  0.00000000000E+00  0.00000000000E+00  0.68903001152E+03  0.23505832025E+04  0.22473270868E+04 0.  0.
        5    1    3    3  502    0 -0.35948310401E+03  0.39928128469E+03 -0.68771466926E+03  0.87271255444E+03  0.46999998093E+01 0. -1.
       -5    1    3    3    0  502  0.35948310401E+03 -0.39928128469E+03  0.13767446808E+04  0.14778706481E+04  0.46999998093E+01 0.  1.
</event>
<event>
 5   0  0.1421242E-05  0.2585962E+04  0.7818609E-02  0.8372985E-01
        1   -1    0    0  501    0  0.00000000000E+00  0.00000000000E+00  0.14443905457E+04  0.14443905457E+04  0.50400001928E-02 0.  1.
       -1   -1    0    0    0  501  0.00000000000E+00  0.00000000000E+00 -0.11574428713E+04  0.11574428713E+04  0.50400001928E-02 0. -1.
    10030    2    1    2    0    0  0.00000000000E+00  0.00000000000E+00  0.28694767438E+03  0.26018334170E+04  0.25859617480E+04 0.  0.
        3    1    3    3  502    0 -0.71188025128E+03 -0.28162005559E+03 -0.90489848414E+03  0.11852951635E+04  0.10100000352E+00 0. -1.
       -3    1    3    3    0  502  0.71188025128E+03  0.28162005559E+03  0.11918461585E+04  0.14165382535E+04  0.10100000352E+00 0.  1.
</event>
<event>
 5   0  0.1502886E-05  0.2125972E+04  0.7818609E-02  0.8549888E-01
       -1   -1    0    0    0  501  0.00000000000E+00  0.00000000000E+00  0.94082910804E+03  0.94082910806E+03  0.50400001928E-02 0. -1.
        1   -1    0    0  501    0  0.00000000000E+00  0.00000000000E+00 -0.12010036373E+04  0.12010036373E+04  0.50400001928E-02 0.  1.
    10030    2    1    2    0    0  0.00000000000E+00  0.00000000000E+00 -0.26017452926E+03  0.21418327454E+04  0.21259719480E+04 0.  0.
        4    1    3    3  502    0 -0.30037575123E+03  0.61555888530E+03  0.68887292330E+03  0.97143494407E+03  0.12699999809E+01 0. -1.
       -4    1    3    3    0  502  0.30037575123E+03 -0.61555888530E+03 -0.94904745256E+03  0.11703978013E+04  0.12699999809E+01 0.  1.
</event>
<event>
 5   0  0.1429483E-05  0.2494466E+04  0.7818609E-02  0.8404960E-01
        1   -1    0    0  501    0  0.00000000000E+00  0.00000000000E+00  0.13452817844E+04  0.13452817844E+04  0.50400001928E-02 0. -1.
       -1   -1    0    0    0  501  0.00000000000E+00  0.00000000000E+00 -0.11563307566E+04  0.11563307566E+04  0.50400001928E-02 0.  1.
    10030    2    1    2    0    0  0.00000000000E+00  0.00000000000E+00  0.18895102778E+03  0.25016125410E+04  0.24944664388E+04 0.  0.
        2    1    3    3  502    0 -0.47269447398E+03  0.78041295648E+03  0.94726814583E+03  0.13152191409E+04  0.25500000920E-02 0. -1.
       -2    1    3    3    0  502  0.47269447398E+03 -0.78041295648E+03 -0.75831711805E+03  0.11863934002E+04  0.25500000920E-02 0.  1.
</event>
<event>
 5   0  0.3578670E-05  0.2507058E+04  0.7818609E-02  0.8400475E-01
       -2   -1    0    0    0  501  0.00000000000E+00  0.00000000000E+00  0.92448430560E+03  0.92448430560E+03  0.25500000920E-02 0.  1.
        2   -1    0    0  501    0  0.00000000000E+00  0.00000000000E+00 -0.16996877488E+04  0.16996877488E+04  0.25500000920E-02 0. -1.
    10030    2    1    2    0    0  0.00000000000E+00  0.00000000000E+00 -0.77520344321E+03  0.26241720544E+04  0.25070577562E+04 0.  0.
        4    1    3    3  502    0  0.12195132832E+04 -0.11680019551E+03 -0.10972314444E+03  0.12299982581E+04  0.12699999809E+01 0.  1.
       -4    1    3    3    0  502 -0.12195132832E+04  0.11680019551E+03 -0.66548029877E+03  0.13941737964E+04  0.12699999809E+01 0. -1.
</event>
<event>
 5   0  0.1492639E-05  0.2501513E+04  0.7818609E-02  0.8402447E-01
        1   -1    0    0  501    0  0.00000000000E+00  0.00000000000E+00  0.14257956805E+04  0.14257956805E+04  0.50400001928E-02 0.  1.
       -1   -1    0    0    0  501  0.00000000000E+00  0.00000000000E+00 -0.10972058181E+04  0.10972058181E+04  0.50400001928E-02 0. -1.
    10030    2    1    2    0    0  0.00000000000E+00  0.00000000000E+00  0.32858986239E+03  0.25230014986E+04  0.25015125953E+04 0.  0.
        5    1    3    3  502    0 -0.48780650950E+00 -0.10330009456E+04  0.87553211332E+03  0.13541306300E+04  0.46999998093E+01 0.  1.
       -5    1    3    3    0  502  0.48780650950E+00  0.10330009456E+04 -0.54694225093E+03  0.11688708686E+04  0.46999998093E+01 0. -1.
</event>
<event>
 5   0  0.3579097E-05  0.2466502E+04  0.7818609E-02  0.8415017E-01
       -2   -1    0    0    0  501  0.00000000000E+00  0.00000000000E+00  0.12954173458E+04  0.12954173458E+04  0.25500000920E-02 0. -1.
        2   -1    0    0  501    0  0.00000000000E+00  0.00000000000E+00 -0.11740680753E+04  0.11740680753E+04  0.25500000920E-02 0.  1.
    10030    2    1    2    0    0  0.00000000000E+00  0.00000000000E+00  0.12134927059E+03  0.24694854211E+04  0.24665020980E+04 0.  0.
        5    1    3    3  502    0 -0.11848287226E+04 -0.33461346022E+03  0.13218083649E+03  0.12382564893E+04  0.46999998093E+01 0. -1.
       -5    1    3    3    0  502  0.11848287226E+04  0.33461346022E+03 -0.10831565905E+02  0.12312289318E+04  0.46999998093E+01 0.  1.
</event>
<event>
 5   0  0.1429483E-05  0.2465091E+04  0.7818609E-02  0.8415528E-01
       -1   -1    0    0    0  501  0.00000000000E+00  0.00000000000E+00  0.88514065398E+03  0.88514065400E+03  0.50400001928E-02 0.  1.
        1   -1    0    0  501    0  0.00000000000E+00  0.00000000000E+00 -0.17163022103E+04  0.17163022103E+04  0.50400001928E-02 0. -1.
    10030    2    1    2    0    0  0.00000000000E+00  0.00000000000E+00 -0.83116155633E+03  0.26014428643E+04  0.24650913662E+04 0.  0.
        2    1    3    3  502    0  0.84783154936E+03 -0.70583285725E+03 -0.99566750943E+03  0.14860592679E+04  0.25500000920E-02 0. -1.
       -2    1    3    3    0  502 -0.84783154936E+03  0.70583285725E+03  0.16450595310E+03  0.11153835964E+04  0.25500000920E-02 0.  1.
</event>
<event>
 5   0  0.3581449E-05  0.2613624E+04  0.7818609E-02  0.8363588E-01
       -2   -1    0    0    0  501  0.00000000000E+00  0.00000000000E+00  0.82557645250E+03  0.82557645250E+03  0.25500000920E-02 0. -1.
        2   -1    0    0  501    0  0.00000000000E+00  0.00000000000E+00 -0.20685633063E+04  0.20685633063E+04  0.25500000920E-02 0.  1.
    10030    2    1    2    0    0  0.00000000000E+00  0.00000000000E+00 -0.12429868538E+04  0.28941397588E+04  0.26136236578E+04 0.  0.
        1    1    3    3  502    0 -0.12912317200E+03 -0.12425025262E+04 -0.19654493140E+03  0.12645612801E+04  0.50400001928E-02 0. -1.
       -1    1    3    3    0  502  0.12912317200E+03  0.12425025262E+04 -0.10464419224E+04  0.16295784787E+04  0.50400001928E-02 0.  1.
</event>
<event>
 5   0  0.1492639E-05  0.2471807E+04  0.7818609E-02  0.8413099E-01
        1   -1    0    0  501    0  0.00000000000E+00  0.00000000000E+00  0.25578053898E+04  0.25578053898E+04  0.50400001928E-02 0.  1.
       -1   -1    0    0    0  501  0.00000000000E+00  0.00000000000E+00 -0.59717489871E+03  0.59717489873E+03  0.50400001928E-02 0. -1.
    10030    2    1    2    0    0  0.00000000000E+00  0.00000000000E+00  0.19606304911E+04  0.31549802886E+04  0.24718067680E+04 0.  0.
        5    1    3    3  502    0 -0.78295578775E+03  0.91982012714E+03  0.13140023992E+04  0.17848566405E+04  0.46999998093E+01 0. -1.
       -5    1    3    3    0  502  0.78295578775E+03 -0.91982012714E+03  0.64662809189E+03  0.13701236481E+04  0.46999998093E+01 0.  1.
</event>
<event>
 5   0  0.1429483E-05  0.2510453E+04  0.7818609E-02  0.8399271E-01
       -1   -1    0    0    0  501  0.00000000000E+00  0.00000000000E+00  0.31617939638E+04  0.31617939638E+04  0.50400001928E-02 0.  1.
        1   -1    0    0  501    0  0.00000000000E+00  0.00000000000E+00 -0.49832280211E+03  0.49832280213E+03  0.50400001928E-02 0. -1.
    10030    2    1    2    0    0  0.00000000000E+00  0.00000000000E+00  0.26634711617E+04  0.36601167660E+04  0.25104533677E+04 0.  0.
        2    1    3    3  502    0  0.74573544720E+03  0.98245860592E+03  0.99216216769E+03  0.15829504214E+04  0.25500000920E-02 0. -1.
       -2    1    3    3    0  502 -0.74573544720E+03 -0.98245860592E+03  0.16713089940E+04  0.20771663446E+04  0.25500000920E-02 0.  1.
</event>
<event>
 5   0  0.3704241E-05  0.2436167E+04  0.7818609E-02  0.8426086E-01
        2   -1    0    0  501    0  0.00000000000E+00  0.00000000000E+00  0.90466683863E+03  0.90466683863E+03  0.25500000920E-02 0. -1.
       -2   -1    0    0    0  501  0.00000000000E+00  0.00000000000E+00 -0.16400811109E+04  0.16400811109E+04  0.25500000920E-02 0.  1.
    10030    2    1    2    0    0  0.00000000000E+00  0.00000000000E+00 -0.73541427229E+03  0.25447479495E+04  0.24361666558E+04 0.  0.
        2    1    3    3  502    0 -0.95374558312E+03  0.75380575144E+03 -0.44775999665E+03  0.12955086888E+04  0.25500000920E-02 0.  1.
       -2    1    3    3    0  502  0.95374558312E+03 -0.75380575144E+03 -0.28765427564E+03  0.12492392607E+04  0.25500000920E-02 0. -1.
</event>
<event>
 5   0  0.3704241E-05  0.2230593E+04  0.7818609E-02  0.8505801E-01
       -2   -1    0    0    0  501  0.00000000000E+00  0.00000000000E+00  0.73083983051E+03  0.73083983051E+03  0.25500000920E-02 0. -1.
        2   -1    0    0  501    0  0.00000000000E+00  0.00000000000E+00 -0.17019957012E+04  0.17019957012E+04  0.25500000920E-02 0.  1.
    10030    2    1    2    0    0  0.00000000000E+00  0.00000000000E+00 -0.97115587065E+03  0.24328355317E+04  0.22305929703E+04 0.  0.
        2    1    3    3  502    0  0.27505881794E+03  0.65893230140E+03  0.44886208840E+03  0.84340162768E+03  0.25500000920E-02 0. -1.
       -2    1    3    3    0  502 -0.27505881794E+03 -0.65893230140E+03 -0.14200179590E+04  0.15894339040E+04  0.25500000920E-02 0.  1.
</event>
<event>
 5   0  0.3578670E-05  0.2490106E+04  0.7818609E-02  0.8406519E-01
       -2   -1    0    0    0  501  0.00000000000E+00  0.00000000000E+00  0.49599348823E+03  0.49599348824E+03  0.25500000920E-02 0. -1.
        2   -1    0    0  501    0  0.00000000000E+00  0.00000000000E+00 -0.31253575314E+04  0.31253575314E+04  0.25500000920E-02 0.  1.
    10030    2    1    2    0    0  0.00000000000E+00  0.00000000000E+00 -0.26293640432E+04  0.36213510196E+04  0.24901060090E+04 0.  0.
        4    1    3    3  502    0 -0.41670553672E+03 -0.11571901199E+04 -0.15960155326E+04  0.20149440864E+04  0.12699999809E+01 0.  1.
       -4    1    3    3    0  502  0.41670553672E+03  0.11571901199E+04 -0.10333485106E+04  0.16064069333E+04  0.12699999809E+01 0. -1.
</event>
<event>
 5   0  0.3704241E-05  0.2487088E+04  0.7818609E-02  0.8407600E-01
       -2   -1    0    0    0  501  0.00000000000E+00  0.00000000000E+00  0.11083657742E+04  0.11083657742E+04  0.25500000920E-02 0.  1.
        2   -1    0    0  501    0  0.00000000000E+00  0.00000000000E+00 -0.13952090604E+04  0.13952090604E+04  0.25500000920E-02 0. -1.
    10030    2    1    2    0    0  0.00000000000E+00  0.00000000000E+00 -0.28684328619E+03  0.25035748345E+04  0.24870882335E+04 0.  0.
        2    1    3    3  502    0 -0.37248397290E+03  0.64469084766E+03 -0.11460317718E+04  0.13666599508E+04  0.25500000920E-02 0. -1.
       -2    1    3    3    0  502  0.37248397290E+03 -0.64469084766E+03  0.85918848560E+03  0.11369148838E+04  0.25500000920E-02 0.  1.
</event>
<event>
 5   0  0.3704241E-05  0.2482378E+04  0.7818609E-02  0.8409290E-01
        2   -1    0    0  501    0  0.00000000000E+00  0.00000000000E+00  0.18322215114E+04  0.18322215114E+04  0.25500000920E-02 0.  1.
       -2   -1    0    0    0  501  0.00000000000E+00  0.00000000000E+00 -0.84081019385E+03  0.84081019385E+03  0.25500000920E-02 0. -1.
    10030    2    1    2    0    0  0.00000000000E+00  0.00000000000E+00  0.99141131758E+03  0.26730317053E+04  0.24823783146E+04 0.  0.
        2    1    3    3  502    0  0.34650127028E+03 -0.77939236309E+03 -0.47523065801E+03  0.97640143603E+03  0.25500000920E-02 0. -1.
       -2    1    3    3    0  502 -0.34650127028E+03  0.77939236309E+03  0.14666419756E+04  0.16966302693E+04  0.25500000920E-02 0.  1.
</event>
<event>
 5   0  0.3650620E-05  0.2504583E+04  0.7818609E-02  0.8401355E-01
        2   -1    0    0  501    0  0.00000000000E+00  0.00000000000E+00  0.81791041224E+03  0.81791041224E+03  0.25500000920E-02 0.  1.
       -2   -1    0    0    0  501  0.00000000000E+00  0.00000000000E+00 -0.19173659306E+04  0.19173659306E+04  0.25500000920E-02 0. -1.
    10030    2    1    2    0    0  0.00000000000E+00  0.00000000000E+00 -0.10994555184E+04  0.27352763429E+04  0.25045826469E+04 0.  0.
        3    1    3    3  502    0  0.31486311649E+03  0.65663070092E+02 -0.18714874600E+04  0.18989248916E+04  0.10100000352E+00 0. -1.
       -3    1    3    3    0  502 -0.31486311649E+03 -0.65663070092E+02  0.77203194162E+03  0.83635145124E+03  0.10100000352E+00 0.  1.
</event>
<event>
 5   0  0.1502886E-05  0.2545827E+04  0.7818609E-02  0.8386839E-01
       -1   -1    0    0    0  501  0.00000000000E+00  0.00000000000E+00  0.12909265753E+04  0.12909265753E+04  0.50400001928E-02 0. -1.
        1   -1    0    0  501    0  0.00000000000E+00  0.00000000000E+00 -0.12551518735E+04  0.12551518735E+04  0.50400001928E-02 0.  1.
    10030    2    1    2    0    0  0.00000000000E+00  0.00000000000E+00  0.35774701837E+02  0.25460784488E+04  0.25458271029E+04 0.  0.
        4    1    3    3  502    0  0.92778806491E+03 -0.46004517756E+03  0.75814624143E+03  0.12834405304E+04  0.12699999809E+01 0. -1.
       -4    1    3    3    0  502 -0.92778806491E+03  0.46004517756E+03 -0.72237153960E+03  0.12626379184E+04  0.12699999809E+01 0.  1.
</event>
<event>
 5   0  0.1456876E-05  0.2493988E+04  0.7818609E-02  0.8405131E-01
        1   -1    0    0  501    0  0.00000000000E+00  0.00000000000E+00  0.14459443294E+04  0.14459443294E+04  0.50400001928E-02 0.  1.
       -1   -1    0    0    0  501  0.00000000000E+00  0.00000000000E+00 -0.10754173267E+04  0.10754173267E+04  0.50400001928E-02 0. -1.
    10030    2    1    2    0    0  0.00000000000E+00  0.00000000000E+00  0.37052700275E+03  0.25213616561E+04  0.24939876385E+04 0.  0.
        1    1    3    3  502    0  0.73295991483E+03 -0.10035997813E+04  0.81418856136E+02  0.12454203258E+04  0.50400001928E-02 0.  1.
       -1    1    3    3    0  502 -0.73295991483E+03  0.10035997813E+04  0.28910814662E+03  0.12759413303E+04  0.50400001928E-02 0. -1.
</event>
<event>
 5   0  0.1421242E-05  0.2489790E+04  0.7818609E-02  0.8406632E-01
       -1   -1    0    0    0  501  0.00000000000E+00  0.00000000000E+00  0.50613013155E+03  0.50613013158E+03  0.50400001928E-02 0. -1.
        1   -1    0    0  501    0  0.00000000000E+00  0.00000000000E+00 -0.30619874526E+04  0.30619874526E+04  0.50400001928E-02 0.  1.
    10030    2    1    2    0    0  0.00000000000E+00  0.00000000000E+00 -0.25558573211E+04  0.35681175842E+04  0.24897904428E+04 0.  0.
        3    1    3    3  502    0  0.69585519324E+03  0.26891994989E+03  0.15031284898E+03  0.76100351654E+03  0.10100000352E+00 0. -1.
       -3    1    3    3    0  502 -0.69585519324E+03 -0.26891994989E+03 -0.27061701701E+04  0.28071140677E+04  0.10100000352E+00 0.  1.
</event>
<event>
 5   0  0.1429483E-05  0.2499376E+04  0.7818609E-02  0.8403208E-01
        1   -1    0    0  501    0  0.00000000000E+00  0.00000000000E+00  0.17635000029E+04  0.17635000029E+04  0.50400001928E-02 0.  1.
       -1   -1    0    0    0  501  0.00000000000E+00  0.00000000000E+00 -0.88557965056E+03  0.88557965058E+03  0.50400001928E-02 0. -1.
    10030    2    1    2    0    0  0.00000000000E+00  0.00000000000E+00  0.87792035235E+03  0.26490796535E+04  0.24993756951E+04 0.  0.
        2    1    3    3  502    0  0.72133880775E+01 -0.73147355739E+03 -0.63494785686E+03  0.96864047978E+03  0.25500000920E-02 0. -1.
       -2    1    3    3    0  502 -0.72133880775E+01  0.73147355739E+03  0.15128682092E+04  0.16804391737E+04  0.25500000920E-02 0.  1.
</event>
<event>
 5   0  0.1421242E-05  0.2528556E+04  0.7818609E-02  0.8392882E-01
        1   -1    0    0  501    0  0.00000000000E+00  0.00000000000E+00  0.23625872839E+04  0.23625872839E+04  0.50400001928E-02 0.  1.
       -1   -1    0    0    0  501  0.00000000000E+00  0.00000000000E+00 -0.67654584199E+03  0.67654584201E+03  0.50400001928E-02 0. -1.
    10030    2    1    2    0    0  0.00000000000E+00  0.00000000000E+00  0.16860414419E+04  0.30391331259E+04  0.25285557959E+04 0.  0.
        3    1    3    3  502    0  0.87142102242E+03 -0.43117001581E+03 -0.12832198121E+03  0.98068788200E+03  0.10100000352E+00 0.  1.
       -3    1    3    3    0  502 -0.87142102242E+03  0.43117001581E+03  0.18143634231E+04  0.20584452439E+04  0.10100000352E+00 0. -1.
</event>
<event>
 5   0  0.3578670E-05  0.2504746E+04  0.7818609E-02  0.8401297E-01
        2   -1    0    0  501    0  0.00000000000E+00  0.00000000000E+00  0.63671185607E+03  0.63671185607E+03  0.25500000920E-02 0.  1.
       -2   -1    0    0    0  501  0.00000000000E+00  0.00000000000E+00 -0.24633407079E+04  0.24633407079E+04  0.25500000920E-02 0. -1.
    10030    2    1    2    0    0  0.00000000000E+00  0.00000000000E+00 -0.18266288518E+04  0.31000525639E+04  0.25047460823E+04 0.  0.
        4    1    3    3  502    0 -0.40773436289E+03  0.11827066067E+04 -0.98542291880E+03  0.15925144175E+04  0.12699999809E+01 0.  1.
       -4    1    3    3    0  502  0.40773436289E+03 -0.11827066067E+04 -0.84120593299E+03  0.15075381464E+04  0.12699999809E+01 0. -1.
</event>
<event>
 5   0  0.3578670E-05  0.2498803E+04  0.7818609E-02  0.8403412E-01
        2   -1    0    0  501    0  0.00000000000E+00  0.00000000000E+00  0.16178424219E+04  0.16178424219E+04  0.25500000920E-02 0. -1.
       -2   -1    0    0    0  501  0.00000000000E+00  0.00000000000E+00 -0.96486752133E+03  0.96486752133E+03  0.25500000920E-02 0.  1.
    10030    2    1    2    0    0  0.00000000000E+00  0.00000000000E+00  0.65297490060E+03  0.25827099433E+04  0.24988025993E+04 0.  0.
        4    1    3    3  502    0  0.22458544214E+03 -0.16549663389E+03 -0.93226338630E+03  0.97311067767E+03  0.12699999809E+01 0.  1.
       -4    1    3    3    0  502 -0.22458544214E+03  0.16549663389E+03  0.15852382869E+04  0.16095992656E+04  0.12699999809E+01 0. -1.
</event>
<event>
 5   0  0.3704241E-05  0.2550040E+04  0.7818609E-02  0.8385372E-01
       -2   -1    0    0    0  501  0.00000000000E+00  0.00000000000E+00  0.78407579222E+03  0.78407579222E+03  0.25500000920E-02 0. -1.
        2   -1    0    0  501    0  0.00000000000E+00  0.00000000000E+00 -0.20733658694E+04  0.20733658694E+04  0.25500000920E-02 0.  1.
    10030    2    1    2    0    0  0.00000000000E+00  0.00000000000E+00 -0.12892900772E+04  0.28574416616E+04  0.25500399892E+04 0.  0.
        2    1    3    3  502    0  0.65985069819E+02 -0.72111398874E+03  0.53129849607E+03  0.89813000514E+03  0.25500000920E-02 0. -1.
       -2    1    3    3    0  502 -0.65985069819E+02  0.72111398874E+03 -0.18205885732E+04  0.19593116565E+04  0.25500000920E-02 0.  1.
</event>
<event>
 5   0  0.1201438E-05  0.2488420E+04  0.7818609E-02  0.8407123E-01
        3   -1    0    0  501    0  0.00000000000E+00  0.00000000000E+00  0.11566926492E+04  0.11566926536E+04  0.10100000352E+00 0.  1.
       -3   -1    0    0    0  501  0.00000000000E+00  0.00000000000E+00 -0.13383492328E+04  0.13383492367E+04  0.10100000352E+00 0. -1.
    10030    2    1    2    0    0  0.00000000000E+00  0.00000000000E+00 -0.18165658362E+03  0.24950418903E+04  0.24884201655E+04 0.  0.
        5    1    3    3  502    0  0.66685560766E+03  0.40747562064E+03 -0.10615490830E+04  0.13181962405E+04  0.46999998093E+01 0. -1.
       -5    1    3    3    0  502 -0.66685560766E+03 -0.40747562064E+03  0.87989249940E+03  0.11768456498E+04  0.46999998093E+01 0.  1.
</event>
<event>
 5   0  0.1456876E-05  0.2508347E+04  0.7818609E-02  0.8400018E-01
        1   -1    0    0  501    0  0.00000000000E+00  0.00000000000E+00  0.11749844411E+04  0.11749844411E+04  0.50400001928E-02 0.  1.
       -1   -1    0    0    0  501  0.00000000000E+00  0.00000000000E+00 -0.13387000222E+04  0.13387000222E+04  0.50400001928E-02 0. -1.
    10030    2    1    2    0    0  0.00000000000E+00  0.00000000000E+00 -0.16371558113E+03  0.25136844633E+04  0.25083474220E+04 0.  0.
        1    1    3    3  502    0 -0.11777348760E+04 -0.37044601497E+03  0.13920624327E+03  0.12424443916E+04  0.50400001928E-02 0. -1.
       -1    1    3    3    0  502  0.11777348760E+04  0.37044601497E+03 -0.30292182441E+03  0.12712400717E+04  0.50400001928E-02 0.  1.
</event>
<event>
 5   0  0.1421242E-05  0.2159388E+04  0.7818609E-02  0.8535524E-01
       -1   -1    0    0    0  501  0.00000000000E+00  0.00000000000E+00  0.72528130918E+03  0.72528130920E+03  0.50400001928E-02 0.  1.
        1   -1    0    0  501    0  0.00000000000E+00  0.00000000000E+00 -0.16072927525E+04  0.16072927525E+04  0.50400001928E-02 0. -1.
    10030    2    1    2    0    0  0.00000000000E+00  0.00000000000E+00 -0.88201144331E+03  0.23325740617E+04  0.21593882391E+04 0.  0.
        3    1    3    3  502    0 -0.37601730267E+03 -0.10635507011E+03  0.64621516267E+03  0.75517842893E+03  0.10100000352E+00 0.  1.
       -3    1    3    3    0  502  0.37601730267E+03  0.10635507011E+03 -0.15282266060E+04  0.15773956328E+04  0.10100000352E+00 0. -1.
</event>
<event>
 5   0  0.1502886E-05  0.2506134E+04  0.7818609E-02  0.8400804E-01
       -1   -1    0    0    0  501  0.00000000000E+00  0.00000000000E+00  0.95568291055E+03  0.95568291057E+03  0.50400001928E-02 0. -1.
        1   -1    0    0  501    0  0.00000000000E+00  0.00000000000E+00 -0.16429894191E+04  0.16429894191E+04  0.50400001928E-02 0.  1.
    10030    2    1    2    0    0  0.00000000000E+00  0.00000000000E+00 -0.68730650852E+03  0.25986723296E+04  0.25061340028E+04 0.  0.
        4    1    3    3  502    0 -0.22270337652E+03 -0.11925525471E+04 -0.66891875156E+03  0.13853635915E+04  0.12699999809E+01 0.  1.
       -4    1    3    3    0  502  0.22270337652E+03  0.11925525471E+04 -0.18387756963E+02  0.12133087381E+04  0.12699999809E+01 0. -1.
</event>
<event>
 5   0  0.1502886E-05  0.2596897E+04  0.7818609E-02  0.8369256E-01
        1   -1    0    0  501    0  0.00000000000E+00  0.00000000000E+00  0.12189572934E+04  0.12189572934E+04  0.50400001928E-02 0.  1.
       -1   -1    0    0    0  501  0.00000000000E+00  0.00000000000E+00 -0.13831240461E+04  0.13831240461E+04  0.50400001928E-02 0. -1.
    10030    2    1    2    0    0  0.00000000000E+00  0.00000000000E+00 -0.16416675268E+03  0.26020813395E+04  0.25968974903E+04 0.  0.
        4    1    3    3  502    0 -0.59423951309E+03  0.10534816645E+04 -0.55527951772E+03  0.13308948764E+04  0.12699999809E+01 0. -1.
       -4    1    3    3    0  502  0.59423951309E+03 -0.10534816645E+04  0.39111276503E+03  0.12711864632E+04  0.12699999809E+01 0.  1.
</event>
<event>
 5   0  0.3650620E-05  0.2459172E+04  0.7818609E-02  0.8417677E-01
        2   -1    0    0  501    0  0.00000000000E+00  0.00000000000E+00  0.22333277473E+04  0.22333277473E+04  0.25500000920E-02 0.  1.
       -2   -1    0    0    0  501  0.00000000000E+00  0.00000000000E+00 -0.67696380573E+03  0.67696380573E+03  0.25500000920E-02 0. -1.
    10030    2    1    2    0    0  0.00000000000E+00  0.00000000000E+00  0.15563639416E+04  0.29102915531E+04  0.24591722602E+04 0.  0.
        3    1    3    3  502    0 -0.79180384380E+03 -0.32771548770E+03 -0.26535173318E+03  0.89708545883E+03  0.10100000352E+00 0. -1.
       -3    1    3    3    0  502  0.79180384380E+03  0.32771548770E+03  0.18217156748E+04  0.20132060942E+04  0.10100000352E+00 0.  1.
</event>
<event>
 5   0  0.3704241E-05  0.2454577E+04  0.7818609E-02  0.8419349E-01
        2   -1    0    0  501    0  0.00000000000E+00  0.00000000000E+00  0.11644380125E+04  0.11644380125E+04  0.25500000920E-02 0. -1.
       -2   -1    0    0    0  501  0.00000000000E+00  0.00000000000E+00 -0.12935310789E+04  0.12935310789E+04  0.25500000920E-02 0.  1.
    10030    2    1    2    0    0  0.00000000000E+00  0.00000000000E+00 -0.12909306639E+03  0.24579690914E+04  0.24545767526E+04 0.  0.
        2    1    3    3  502    0 -0.31256453901E+03 -0.95004486455E+03 -0.77683467407E+03  0.12663940724E+04  0.25500000920E-02 0.  1.
       -2    1    3    3    0  502  0.31256453901E+03  0.95004486455E+03  0.64774160768E+03  0.11915750191E+04  0.25500000920E-02 0. -1.
</event>
<event>
 5   0  0.3650620E-05  0.2494520E+04  0.7818609E-02  0.8404940E-01
        2   -1    0    0  501    0  0.00000000000E+00  0.00000000000E+00  0.15897323984E+04  0.15897323984E+04  0.25500000920E-02 0.  1.
       -2   -1    0    0    0  501  0.00000000000E+00  0.00000000000E+00 -0.97856575499E+03  0.97856575499E+03  0.25500000920E-02 0. -1.
    10030    2    1    2    0    0  0.00000000000E+00  0.00000000000E+00  0.61116664340E+03  0.25682981534E+04  0.24945201420E+04 0.  0.
        3    1    3    3  502    0 -0.64574570156E+03  0.24233560055E+03  0.13755221935E+04  0.15387577358E+04  0.10100000352E+00 0.  1.
       -3    1    3    3    0  502  0.64574570156E+03 -0.24233560055E+03 -0.76435555009E+03  0.10295404176E+04  0.10100000352E+00 0. -1.
</event>
<event>
 5   0  0.3579097E-05  0.2540422E+04  0.7818609E-02  0.8388725E-01
        2   -1    0    0  501    0  0.00000000000E+00  0.00000000000E+00  0.16693009491E+04  0.16693009491E+04  0.25500000920E-02 0.  1.
       -2   -1    0    0    0  501  0.00000000000E+00  0.00000000000E+00 -0.96653368329E+03  0.96653368329E+03  0.25500000920E-02 0. -1.
    10030    2    1    2    0    0  0.00000000000E+00  0.00000000000E+00  0.70276726582E+03  0.26358346324E+04  0.25404216932E+04 0.  0.
        5    1    3    3  502    0  0.33882111730E+03 -0.10052205784E+03 -0.91448340138E+03  0.98041134992E+03  0.46999998093E+01 0. -1.
       -5    1    3    3    0  502 -0.33882111730E+03  0.10052205784E+03  0.16172506672E+04  0.16554232825E+04  0.46999998093E+01 0.  1.
</event>
<event>
 5   0  0.1492639E-05  0.2515997E+04  0.7818609E-02  0.8397309E-01
        1   -1    0    0  501    0  0.00000000000E+00  0.00000000000E+00  0.14272675540E+04  0.14272675540E+04  0.50400001928E-02 0. -1.
       -1   -1    0    0    0  501  0.00000000000E+00  0.00000000000E+00 -0.11088043070E+04  0.11088043071E+04  0.50400001928E-02 0.  1.
    10030    2    1    2    0    0  0.00000000000E+00  0.00000000000E+00  0.31846324698E+03  0.25360718611E+04  0.25159971472E+04 0.  0.
        5    1    3    3  502    0  0.12227380411E+04 -0.21018304655E+03 -0.50449999913E+02  0.12417054895E+04  0.46999998093E+01 0.  1.
       -5    1    3    3    0  502 -0.12227380411E+04  0.21018304655E+03  0.36891324689E+03  0.12943663716E+04  0.46999998093E+01 0. -1.
</event>
<event>
 5   0  0.1429483E-05  0.2517078E+04  0.7818609E-02  0.8396926E-01
       -1   -1    0    0    0  501  0.00000000000E+00  0.00000000000E+00  0.15540095442E+04  0.15540095442E+04  0.50400001928E-02 0.  1.
        1   -1    0    0  501    0  0.00000000000E+00  0.00000000000E+00 -0.10192478886E+04  0.10192478886E+04  0.50400001928E-02 0. -1.
    10030    2    1    2    0    0  0.00000000000E+00  0.00000000000E+00  0.53476165554E+03  0.25732574328E+04  0.25170784230E+04 0.  0.
        2    1    3    3  502    0 -0.69639479029E+03 -0.58391527160E+03 -0.62268181992E+03  0.11016602912E+04  0.25500000920E-02 0. -1.
       -2    1    3    3    0  502  0.69639479029E+03  0.58391527160E+03  0.11574434755E+04  0.14715971416E+04  0.25500000920E-02 0.  1.
</event>
<event>
 5   0  0.1492639E-05  0.2514672E+04  0.7818609E-02  0.8397777E-01
       -1   -1    0    0    0  501  0.00000000000E+00  0.00000000000E+00  0.11211618408E+04  0.11211618408E+04  0.50400001928E-02 0.  1.
        1   -1    0    0  501    0  0.00000000000E+00  0.00000000000E+00 -0.14100491842E+04  0.14100491842E+04  0.50400001928E-02 0. -1.
    10030    2    1    2    0    0  0.00000000000E+00  0.00000000000E+00 -0.28888734339E+03  0.25312110250E+04  0.25146716199E+04 0.  0.
        5    1    3    3  502    0  0.10332076846E+04  0.34853320740E+03  0.48567502550E+03  0.11936900086E+04  0.46999998093E+01 0.  1.
       -5    1    3    3    0  502 -0.10332076846E+04 -0.34853320740E+03 -0.77456236889E+03  0.13375210165E+04  0.46999998093E+01 0. -1.
</event>
<event>
 5   0  0.3704241E-05  0.2524617E+04  0.7818609E-02  0.8394268E-01
        2   -1    0    0  501    0  0.00000000000E+00  0.00000000000E+00  0.22667339629E+04  0.22667339629E+04  0.25500000920E-02 0.  1.
       -2   -1    0    0    0  501  0.00000000000E+00  0.00000000000E+00 -0.70295998197E+03  0.70295998197E+03  0.25500000920E-02 0. -1.
    10030    2    1    2    0    0  0.00000000000E+00  0.00000000000E+00  0.15637739809E+04  0.29696939448E+04  0.25246174092E+04 0.  0.
        2    1    3    3  502    0  0.52986179917E+03  0.92458693094E+03 -0.14012384523E+02  0.10657442780E+04  0.25500000920E-02 0. -1.
       -2    1    3    3    0  502 -0.52986179917E+03 -0.92458693094E+03  0.15777863654E+04  0.19039496669E+04  0.25500000920E-02 0.  1.
</event>
<event>
 5   0  0.3581449E-05  0.2507697E+04  0.7818609E-02  0.8400248E-01
        2   -1    0    0  501    0  0.00000000000E+00  0.00000000000E+00  0.86126707144E+03  0.86126707144E+03  0.25500000920E-02 0. -1.
       -2   -1    0    0    0  501  0.00000000000E+00  0.00000000000E+00 -0.18253764801E+04  0.18253764801E+04  0.25500000920E-02 0.  1.
    10030    2    1    2    0    0  0.00000000000E+00  0.00000000000E+00 -0.96410940863E+03  0.26866435515E+04  0.25076974740E+04 0.  0.
        1    1    3    3  502    0 -0.91119661200E+03 -0.17912507840E+03 -0.13846523903E+04  0.16672214314E+04  0.50400001928E-02 0.  1.
       -1    1    3    3    0  502  0.91119661200E+03  0.17912507840E+03  0.42054298167E+03  0.10194221201E+04  0.50400001928E-02 0. -1.
</event>
<event>
 5   0  0.3581449E-05  0.2492011E+04  0.7818609E-02  0.8405837E-01
        2   -1    0    0  501    0  0.00000000000E+00  0.00000000000E+00  0.97144296183E+03  0.97144296184E+03  0.25500000920E-02 0. -1.
       -2   -1    0    0    0  501  0.00000000000E+00  0.00000000000E+00 -0.15981687803E+04  0.15981687803E+04  0.25500000920E-02 0.  1.
    10030    2    1    2    0    0  0.00000000000E+00  0.00000000000E+00 -0.62672581849E+03  0.25696117422E+04  0.24920110862E+04 0.  0.
        1    1    3    3  502    0 -0.87328994767E+03 -0.87861092865E+03 -0.45146373562E+03  0.13184885291E+04  0.50400001928E-02 0.  1.
       -1    1    3    3    0  502  0.87328994767E+03  0.87861092865E+03 -0.17526208288E+03  0.12511232131E+04  0.50400001928E-02 0. -1.
</event>
<event>
 5   0  0.3650620E-05  0.2510807E+04  0.7818609E-02  0.8399146E-01
        2   -1    0    0  501    0  0.00000000000E+00  0.00000000000E+00  0.25956794726E+04  0.25956794726E+04  0.25500000920E-02 0. -1.
       -2   -1    0    0    0  501  0.00000000000E+00  0.00000000000E+00 -0.60717726619E+03  0.60717726619E+03  0.25500000920E-02 0.  1.
    10030    2    1    2    0    0  0.00000000000E+00  0.00000000000E+00  0.19885022064E+04  0.32028567388E+04  0.25108066959E+04 0.  0.
        3    1    3    3  502    0  0.33548121498E+03 -0.53280761032E+03 -0.39120482243E+03  0.74126433781E+03  0.10100000352E+00 0.  1.
       -3    1    3    3    0  502 -0.33548121498E+03  0.53280761032E+03  0.23797070288E+04  0.24615924009E+04  0.10100000352E+00 0. -1.
</event>
<event>
 5   0  0.1502886E-05  0.2469655E+04  0.7818609E-02  0.8413877E-01
       -1   -1    0    0    0  501  0.00000000000E+00  0.00000000000E+00  0.12002716773E+04  0.12002716773E+04  0.50400001928E-02 0.  1.
        1   -1    0    0  501    0  0.00000000000E+00  0.00000000000E+00 -0.12703779281E+04  0.12703779281E+04  0.50400001928E-02 0. -1.
    10030    2    1    2    0    0  0.00000000000E+00  0.00000000000E+00 -0.70106250784E+02  0.24706496054E+04  0.24696547504E+04 0.  0.
        4    1    3    3  502    0  0.30425676181E+03  0.40429266242E+03 -0.11619048054E+04  0.12672999344E+04  0.12699999809E+01 0. -1.
       -4    1    3    3    0  502 -0.30425676181E+03 -0.40429266242E+03  0.10917985546E+04  0.12033496710E+04  0.12699999809E+01 0.  1.
</event>
<event>
 5   0  0.3650620E-05  0.2617599E+04  0.7818609E-02  0.8362248E-01
       -2   -1    0    0    0  501  0.00000000000E+00  0.00000000000E+00  0.78593455957E+03  0.78593455958E+03  0.25500000920E-02 0. -1.
        2   -1    0    0  501    0  0.00000000000E+00  0.00000000000E+00 -0.21795148103E+04  0.21795148103E+04  0.25500000920E-02 0.  1.
    10030    2    1    2    0    0  0.00000000000E+00  0.00000000000E+00 -0.13935802507E+04  0.29654493699E+04  0.26175989093E+04 0.  0.
        3    1    3    3  502    0 -0.12300922317E+04 -0.39753106224E+03 -0.92840475437E+03  0.15915694273E+04  0.10100000352E+00 0. -1.
       -3    1    3    3    0  502  0.12300922317E+04  0.39753106224E+03 -0.46517549634E+03  0.13738799425E+04  0.10100000352E+00 0.  1.
</event>
<event>
 5   0  0.1429483E-05  0.2479799E+04  0.7818609E-02  0.8410218E-01
        1   -1    0    0  501    0  0.00000000000E+00  0.00000000000E+00  0.11439347885E+04  0.11439347885E+04  0.50400001928E-02 0. -1.
       -1   -1    0    0    0  501  0.00000000000E+00  0.00000000000E+00 -0.13439145123E+04  0.13439145124E+04  0.50400001928E-02 0.  1.
    10030    2    1    2    0    0  0.00000000000E+00  0.00000000000E+00 -0.19997972380E+03  0.24878493009E+04  0.24797988334E+04 0.  0.
        2    1    3    3  502    0  0.11495629896E+04 -0.14611082928E+02 -0.56587011935E+03  0.12813733035E+04  0.25500000920E-02 0. -1.
       -2    1    3    3    0  502 -0.11495629896E+04  0.14611082928E+02  0.36589039555E+03  0.12064759974E+04  0.25500000920E-02 0.  1.
</event>
<event>
 5   0  0.1429483E-05  0.2529321E+04  0.7818609E-02  0.8392614E-01
       -1   -1    0    0    0  501  0.00000000000E+00  0.00000000000E+00  0.10827319387E+04  0.10827319387E+04  0.50400001928E-02 0. -1.
        1   -1    0    0  501    0  0.00000000000E+00  0.00000000000E+00 -0.14771581613E+04  0.14771581613E+04  0.50400001928E-02 0.  1.
    10030    2    1    2    0    0  0.00000000000E+00  0.00000000000E+00 -0.39442622267E+03  0.25598901000E+04  0.25293211103E+04 0.  0.
        2    1    3    3  502    0  0.93731198022E+03  0.84846721959E+03 -0.22784353035E+03  0.12846645653E+04  0.25500000920E-02 0.  1.
       -2    1    3    3    0  502 -0.93731198022E+03 -0.84846721959E+03 -0.16658269232E+03  0.12752255347E+04  0.25500000920E-02 0. -1.
</event>
<event>
 5   0  0.3650620E-05  0.2198873E+04  0.7818609E-02  0.8518897E-01
        2   -1    0    0  501    0  0.00000000000E+00  0.00000000000E+00  0.13427345614E+04  0.13427345614E+04  0.25500000920E-02 0. -1.
       -2   -1    0    0    0  501  0.00000000000E+00  0.00000000000E+00 -0.90022325896E+03  0.90022325896E+03  0.25500000920E-02 0.  1.
    10030    2    1    2    0    0  0.00000000000E+00  0.00000000000E+00  0.44251130244E+03  0.22429578204E+04  0.21988732413E+04 0.  0.
        3    1    3    3  502    0  0.46938580731E+03 -0.98711492113E+03  0.34213021413E+03  0.11453261532E+04  0.10100000352E+00 0. -1.
       -3    1    3    3    0  502 -0.46938580731E+03  0.98711492113E+03  0.10038108831E+03  0.10976316671E+04  0.10100000352E+00 0.  1.
</event>
<event>
 5   0  0.1429483E-05  0.2488184E+04  0.7818609E-02  0.8407207E-01
       -1   -1    0    0    0  501  0.00000000000E+00  0.00000000000E+00  0.10328405157E+04  0.10328405157E+04  0.50400001928E-02 0.  1.
        1   -1    0    0  501    0  0.00000000000E+00  0.00000000000E+00 -0.14985522586E+04  0.14985522586E+04  0.50400001928E-02 0. -1.
    10030    2    1    2    0    0  0.00000000000E+00  0.00000000000E+00 -0.46571174289E+03  0.25313927743E+04  0.24881844687E+04 0.  0.
        2    1    3    3  502    0  0.53779833680E+03 -0.70304327492E+03 -0.11222616912E+04  0.14293243862E+04  0.25500000920E-02 0. -1.
       -2    1    3    3    0  502 -0.53779833680E+03  0.70304327492E+03  0.65654994830E+03  0.11020683881E+04  0.25500000920E-02 0.  1.
</event>
<event>
 5   0  0.1429483E-05  0.2493633E+04  0.7818609E-02  0.8405257E-01
        1   -1    0    0  501    0  0.00000000000E+00  0.00000000000E+00  0.16725514949E+04  0.16725514949E+04  0.50400001928E-02 0. -1.
       -1   -1    0    0    0  501  0.00000000000E+00  0.00000000000E+00 -0.92944879906E+03  0.92944879907E+03  0.50400001928E-02 0.  1.
    10030    2    1    2    0    0  0.00000000000E+00  0.00000000000E+00  0.74310269584E+03  0.26020002940E+04  0.24936326741E+04 0.  0.
        2    1    3    3  502    0 -0.80173582898E+03 -0.23054949687E+03  0.13384361784E+04  0.15771318314E+04  0.25500000920E-02 0. -1.
       -2    1    3    3    0  502  0.80173582898E+03  0.23054949687E+03 -0.59533348260E+03  0.10248684625E+04  0.25500000920E-02 0.  1.
</event>
<event>
 5   0  0.1201438E-05  0.2491952E+04  0.7818609E-02  0.8405858E-01
        3   -1    0    0  501    0  0.00000000000E+00  0.00000000000E+00  0.17839273173E+04  0.17839273202E+04  0.10100000352E+00 0. -1.
       -3   -1    0    0    0  501  0.00000000000E+00  0.00000000000E+00 -0.87024636353E+03  0.87024636939E+03  0.10100000352E+00 0.  1.
    10030    2    1    2    0    0  0.00000000000E+00  0.00000000000E+00  0.91368095380E+03  0.26541736896E+04  0.24919520640E+04 0.  0.
        4    1    3    3  502    0  0.29493755627E+02  0.11974276228E+04  0.91352113070E+02  0.12012700009E+04  0.12699999809E+01 0.  1.
       -4    1    3    3    0  502 -0.29493755627E+02 -0.11974276228E+04  0.82232884073E+03  0.14529036887E+04  0.12699999809E+01 0. -1.
</event>
<event>
 5   0  0.3704241E-05  0.2493454E+04  0.7818609E-02  0.8405321E-01
        2   -1    0    0  501    0  0.00000000000E+00  0.00000000000E+00  0.26909937866E+04  0.26909937866E+04  0.25500000920E-02 0.  1.
       -2   -1    0    0    0  501  0.00000000000E+00  0.00000000000E+00 -0.57760381208E+03  0.57760381208E+03  0.25500000920E-02 0. -1.
    10030    2    1    2    0    0  0.00000000000E+00  0.00000000000E+00  0.21133899746E+04  0.32685975987E+04  0.24934540457E+04 0.  0.
        2    1    3    3  502    0 -0.89753405396E+03  0.44704373225E+03  0.85488074372E+02  0.10063417349E+04  0.25500000920E-02 0. -1.
       -2    1    3    3    0  502  0.89753405396E+03 -0.44704373225E+03  0.20279019002E+04  0.22622558638E+04  0.25500000920E-02 0.  1.
</event>
<event>
 5   0  0.3704241E-05  0.2362951E+04  0.7818609E-02  0.8453506E-01
       -2   -1    0    0    0  501  0.00000000000E+00  0.00000000000E+00  0.65617867574E+03  0.65617867574E+03  0.25500000920E-02 0.  1.
        2   -1    0    0  501    0  0.00000000000E+00  0.00000000000E+00 -0.21272937509E+04  0.21272937509E+04  0.25500000920E-02 0. -1.
    10030    2    1    2    0    0  0.00000000000E+00  0.00000000000E+00 -0.14711150752E+04  0.27834724267E+04  0.23629513718E+04 0.  0.
        2    1    3    3  502    0  0.97957259767E+03  0.62526984722E+03 -0.98643888709E+03  0.15243315039E+04  0.25500000920E-02 0.  1.
       -2    1    3    3    0  502 -0.97957259767E+03 -0.62526984722E+03 -0.48467618809E+03  0.12591409227E+04  0.25500000920E-02 0. -1.
</event>
<event>
 5   0  0.1421242E-05  0.2476129E+04  0.7818609E-02  0.8411539E-01
       -1   -1    0    0    0  501  0.00000000000E+00  0.00000000000E+00  0.13808681449E+04  0.13808681449E+04  0.50400001928E-02 0.  1.
        1   -1    0    0  501    0  0.00000000000E+00  0.00000000000E+00 -0.11100289078E+04  0.11100289078E+04  0.50400001928E-02 0. -1.
    10030    2    1    2    0    0  0.00000000000E+00  0.00000000000E+00  0.27083923707E+03  0.24908970527E+04  0.24761288809E+04 0.  0.
        3    1    3    3  502    0  0.99489820017E+03 -0.19362839033E+03  0.85063765689E+03  0.13232153323E+04  0.10100000352E+00 0.  1.
       -3    1    3    3    0  502 -0.99489820017E+03  0.19362839033E+03 -0.57979841982E+03  0.11676817204E+04  0.10100000352E+00 0. -1.
</event>
<event>
 5   0  0.3578670E-05  0.2506011E+04  0.7818609E-02  0.8400847E-01
       -2   -1    0    0    0  501  0.00000000000E+00  0.00000000000E+00  0.82244607857E+03  0.82244607858E+03  0.25500000920E-02 0. -1.
        2   -1    0    0  501    0  0.00000000000E+00  0.00000000000E+00 -0.19089668905E+04  0.19089668905E+04  0.25500000920E-02 0.  1.
    10030    2    1    2    0    0  0.00000000000E+00  0.00000000000E+00 -0.10865208119E+04  0.27314129691E+04  0.25060106410E+04 0.  0.
        4    1    3    3  502    0  0.86489640023E+03 -0.90471899858E+02 -0.15265027424E+04  0.17568275907E+04  0.12699999809E+01 0.  1.
       -4    1    3    3    0  502 -0.86489640023E+03  0.90471899858E+02  0.43998193048E+03  0.97458537843E+03  0.12699999809E+01 0. -1.
</event>
<event>
 5   0  0.1456876E-05  0.2473742E+04  0.7818609E-02  0.8412400E-01
       -1   -1    0    0    0  501  0.00000000000E+00  0.00000000000E+00  0.96704902406E+03  0.96704902408E+03  0.50400001928E-02 0. -1.
        1   -1    0    0  501    0  0.00000000000E+00  0.00000000000E+00 -0.15819780750E+04  0.15819780750E+04  0.50400001928E-02 0.  1.
    10030    2    1    2    0    0  0.00000000000E+00  0.00000000000E+00 -0.61492905094E+03  0.25490270991E+04  0.24737423904E+04 0.  0.
        1    1    3    3  502    0 -0.39087294261E+03  0.11731009623E+04 -0.33842606857E+03  0.12819827335E+04  0.50400001928E-02 0.  1.
       -1    1    3    3    0  502  0.39087294261E+03 -0.11731009623E+04 -0.27650298237E+03  0.12670443656E+04  0.50400001928E-02 0. -1.
</event>
<event>
 5   0  0.3704241E-05  0.2500132E+04  0.7818609E-02  0.8402939E-01
       -2   -1    0    0    0  501  0.00000000000E+00  0.00000000000E+00  0.88417144021E+03  0.88417144021E+03  0.25500000920E-02 0. -1.
        2   -1    0    0  501    0  0.00000000000E+00  0.00000000000E+00 -0.17673776659E+04  0.17673776659E+04  0.25500000920E-02 0.  1.
    10030    2    1    2    0    0  0.00000000000E+00  0.00000000000E+00 -0.88320622572E+03  0.26515491061E+04  0.25001318815E+04 0.  0.
        2    1    3    3  502    0 -0.97826997163E+02 -0.11329772670E+04  0.10892777569E+03  0.11423978594E+04  0.25500000920E-02 0. -1.
       -2    1    3    3    0  502  0.97826997163E+02  0.11329772670E+04 -0.99213400141E+03  0.15091512467E+04  0.25500000920E-02 0.  1.
</event>
<event>
 5   0  0.1492639E-05  0.2528960E+04  0.7818609E-02  0.8392740E-01
        1   -1    0    0  501    0  0.00000000000E+00  0.00000000000E+00  0.56067664483E+03  0.56067664486E+03  0.50400001928E-02 0.  1.
       -1   -1    0    0    0  501  0.00000000000E+00  0.00000000000E+00 -0.28517506419E+04  0.28517506419E+04  0.50400001928E-02 0. -1.
    10030    2    1    2    0    0  0.00000000000E+00  0.00000000000E+00 -0.22910739971E+04  0.34124272868E+04  0.25289602463E+04 0.  0.
        5    1    3    3  502    0  0.11400692555E+04 -0.14858398407E+03 -0.18557729676E+04  0.21830598950E+04  0.46999998093E+01 0. -1.
       -5    1    3    3    0  502 -0.11400692555E+04  0.14858398407E+03 -0.43530102946E+03  0.12293673918E+04  0.46999998093E+01 0.  1.
</event>
<event>
 5   0  0.3581449E-05  0.2531999E+04  0.7818609E-02  0.8391673E-01
       -2   -1    0    0    0  501  0.00000000000E+00  0.00000000000E+00  0.17138345096E+04  0.17138345096E+04  0.25500000920E-02 0. -1.
        2   -1    0    0  501    0  0.00000000000E+00  0.00000000000E+00 -0.93518673961E+03  0.93518673962E+03  0.25500000920E-02 0.  1.
    10030    2    1    2    0    0  0.00000000000E+00  0.00000000000E+00  0.77864777000E+03  0.26490212492E+04  0.25319994528E+04 0.  0.
        1    1    3    3  502    0 -0.45535766328E+03  0.11752295396E+04  0.51417154670E+03  0.13612080854E+04  0.50400001928E-02 0. -1.
       -1    1    3    3    0  502  0.45535766328E+03 -0.11752295396E+04  0.26447622330E+03  0.12878131638E+04  0.50400001928E-02 0.  1.
</event>
<event>
 5   0  0.1429483E-05  0.2477074E+04  0.7818609E-02  0.8411199E-01
        1   -1    0    0  501    0  0.00000000000E+00  0.00000000000E+00  0.96601555738E+03  0.96601555739E+03  0.50400001928E-02 0.  1.
       -1   -1    0    0    0  501  0.00000000000E+00  0.00000000000E+00 -0.15879386541E+04  0.15879386541E+04  0.50400001928E-02 0. -1.
    10030    2    1    2    0    0  0.00000000000E+00  0.00000000000E+00 -0.62192309674E+03  0.25539542115E+04  0.24770736316E+04 0.  0.
        2    1    3    3  502    0  0.11134394540E+04  0.42793895339E+03  0.32691370566E+02  0.11932928774E+04  0.25500000920E-02 0.  1.
       -2    1    3    3    0  502 -0.11134394540E+04 -0.42793895339E+03 -0.65461446731E+03  0.13606613342E+04  0.25500000920E-02 0. -1.
</event>
<event>
 5   0  0.1421242E-05  0.2481466E+04  0.7818609E-02  0.8409618E-01
        1   -1    0    0  501    0  0.00000000000E+00  0.00000000000E+00  0.12726993984E+04  0.12726993985E+04  0.50400001928E-02 0.  1.
       -1   -1    0    0    0  501  0.00000000000E+00  0.00000000000E+00 -0.12095699829E+04  0.12095699829E+04  0.50400001928E-02 0. -1.
    10030    2    1    2    0    0  0.00000000000E+00  0.00000000000E+00  0.63129415585E+02  0.24822693813E+04  0.24814664935E+04 0.  0.
        3    1    3    3  502    0  0.28426008978E+03 -0.10717016874E+03 -0.11717915718E+04  0.12105307686E+04  0.10100000352E+00 0. -1.
       -3    1    3    3    0  502 -0.28426008978E+03  0.10717016874E+03  0.12349209874E+04  0.12717386127E+04  0.10100000352E+00 0.  1.
</event>
<event>
 5   0  0.1502886E-05  0.2571876E+04  0.7818609E-02  0.8377818E-01
        1   -1    0    0  501    0  0.00000000000E+00  0.00000000000E+00  0.12372190257E+04  0.12372190257E+04  0.50400001928E-02 0.  1.
       -1   -1    0    0    0  501  0.00000000000E+00  0.00000000000E+00 -0.13365751364E+04  0.13365751364E+04  0.50400001928E-02 0. -1.
    10030    2    1    2    0    0  0.00000000000E+00  0.00000000000E+00 -0.99356110690E+02  0.25737941621E+04  0.25718757264E+04 0.  0.
        4    1    3    3  502    0 -0.53326782093E+03 -0.91530174434E+03 -0.77925047475E+03  0.13150607466E+04  0.12699999809E+01 0. -1.
       -4    1    3    3    0  502  0.53326782093E+03  0.91530174434E+03  0.67989436406E+03  0.12587334155E+04  0.12699999809E+01 0.  1.
</event>
<event>
 5   0  0.1502886E-05  0.2514477E+04  0.7818609E-02  0.8397846E-01
        1   -1    0    0  501    0  0.00000000000E+00  0.00000000000E+00  0.11214796992E+04  0.11214796993E+04  0.50400001928E-02 0. -1.
       -1   -1    0    0    0  501  0.00000000000E+00  0.00000000000E+00 -0.14094317286E+04  0.14094317287E+04  0.50400001928E-02 0.  1.
    10030    2    1    2    0    0  0.00000000000E+00  0.00000000000E+00 -0.28795202941E+03  0.25309114279E+04  0.25144773383E+04 0.  0.
        4    1    3    3  502    0 -0.10348447084E+04  0.63697599512E+03  0.18063055857E+03  0.12285239112E+04  0.12699999809E+01 0. -1.
       -4    1    3    3    0  502  0.10348447084E+04 -0.63697599512E+03 -0.46858258797E+03  0.13023875167E+04  0.12699999809E+01 0.  1.
</event>
<event>
 5   0  0.3704241E-05  0.2481647E+04  0.7818609E-02  0.8409553E-01
        2   -1    0    0  501    0  0.00000000000E+00  0.00000000000E+00  0.28748514646E+04  0.28748514646E+04  0.25500000920E-02 0.  1.
       -2   -1    0    0    0  501  0.00000000000E+00  0.00000000000E+00 -0.53555555917E+03  0.53555555918E+03  0.25500000920E-02 0. -1.
    10030    2    1    2    0    0  0.00000000000E+00  0.00000000000E+00  0.23392959054E+04  0.34104070237E+04  0.24816467788E+04 0.  0.
        2    1    3    3  502    0  0.58286516276E+03  0.64616812234E+03  0.23852025300E+04  0.25389872291E+04  0.25500000920E-02 0.  1.
       -2    1    3    3    0  502 -0.58286516276E+03 -0.64616812234E+03 -0.45906624635E+02  0.87141979464E+03  0.25500000920E-02 0. -1.
</event>
<event>
 5   0  0.3704241E-05  0.2291189E+04  0.7818609E-02  0.8481403E-01
        2   -1    0    0  501    0  0.00000000000E+00  0.00000000000E+00  0.13868886358E+04  0.13868886358E+04  0.25500000920E-02 0. -1.
       -2   -1    0    0    0  501  0.00000000000E+00  0.00000000000E+00 -0.94628128404E+03  0.94628128404E+03  0.25500000920E-02 0.  1.
    10030    2    1    2    0    0  0.00000000000E+00  0.00000000000E+00  0.44060735177E+03  0.23331699198E+04  0.22911890006E+04 0.  0.
        2    1    3    3  502    0 -0.21699129494E+03  0.24576261504E+03  0.13380966230E+04  0.13776745107E+04  0.25500000920E-02 0. -1.
       -2    1    3    3    0  502  0.21699129494E+03 -0.24576261504E+03 -0.89748927118E+03  0.95549540916E+03  0.25500000920E-02 0.  1.
</event>
<event>
 5   0  0.3578670E-05  0.2443072E+04  0.7818609E-02  0.8423552E-01
       -2   -1    0    0    0  501  0.00000000000E+00  0.00000000000E+00  0.13414507541E+04  0.13414507541E+04  0.25500000920E-02 0.  1.
        2   -1    0    0  501    0  0.00000000000E+00  0.00000000000E+00 -0.11123408278E+04  0.11123408278E+04  0.25500000920E-02 0. -1.
    10030    2    1    2    0    0  0.00000000000E+00  0.00000000000E+00  0.22910992633E+03  0.24537915820E+04  0.24430721990E+04 0.  0.
        4    1    3    3  502    0 -0.64417305382E+03  0.69201011351E+03  0.89145509328E+03  0.12994347682E+04  0.12699999809E+01 0.  1.
       -4    1    3    3    0  502  0.64417305382E+03 -0.69201011351E+03 -0.66234516695E+03  0.11543568138E+04  0.12699999809E+01 0. -1.
</event>
<event>
 5   0  0.3579097E-05  0.2488400E+04  0.7818609E-02  0.8407130E-01
       -2   -1    0    0    0  501  0.00000000000E+00  0.00000000000E+00  0.76027201434E+03  0.76027201435E+03  0.25500000920E-02 0. -1.
        2   -1    0    0  501    0  0.00000000000E+00  0.00000000000E+00 -0.20361578620E+04  0.20361578620E+04  0.25500000920E-02 0.  1.
    10030    2    1    2    0    0  0.00000000000E+00  0.00000000000E+00 -0.12758858476E+04  0.27964298763E+04  0.24884001601E+04 0.  0.
        5    1    3    3  502    0  0.14761117487E+03  0.12353542777E+04 -0.65038090366E+03  0.14038898319E+04  0.46999998093E+01 0. -1.
       -5    1    3    3    0  502 -0.14761117487E+03 -0.12353542777E+04 -0.62550494395E+03  0.13925400444E+04  0.46999998093E+01 0.  1.
</event>
<event>
 5   0  0.3704241E-05  0.2447636E+04  0.7818609E-02  0.8421882E-01
        2   -1    0    0  501    0  0.00000000000E+00  0.00000000000E+00  0.20708990968E+04  0.20708990968E+04  0.25500000920E-02 0. -1.
       -2   -1    0    0    0  501  0.00000000000E+00  0.00000000000E+00 -0.72322725880E+03  0.72322725880E+03  0.25500000920E-02 0.  1.
    10030    2    1    2    0    0  0.00000000000E+00  0.00000000000E+00  0.13476718380E+04  0.27941263556E+04  0.24476361470E+04 0.  0.
        2    1    3    3  502    0  0.39107162472E+03 -0.44301608397E+03  0.18972414313E+04  0.19871399838E+04  0.25500000920E-02 0. -1.
       -2    1    3    3    0  502 -0.39107162472E+03  0.44301608397E+03 -0.54956959336E+03  0.80698637181E+03  0.25500000920E-02 0.  1.
</event>
<event>
 5   0  0.3581449E-05  0.2576334E+04  0.7818609E-02  0.8376285E-01
        2   -1    0    0  501    0  0.00000000000E+00  0.00000000000E+00  0.16540756676E+04  0.16540756676E+04  0.25500000920E-02 0. -1.
       -2   -1    0    0    0  501  0.00000000000E+00  0.00000000000E+00 -0.10032035182E+04  0.10032035182E+04  0.25500000920E-02 0.  1.
    10030    2    1    2    0    0  0.00000000000E+00  0.00000000000E+00  0.65087214939E+03  0.26572791857E+04  0.25763342400E+04 0.  0.
        1    1    3    3  502    0 -0.10156741142E+04 -0.91798470608E+02 -0.48628035368E+03  0.11298183251E+04  0.50400001928E-02 0.  1.
       -1    1    3    3    0  502  0.10156741142E+04  0.91798470608E+02  0.11371525031E+04  0.15274608606E+04  0.50400001928E-02 0. -1.
</event>
<event>
 5   0  0.3578670E-05  0.2508346E+04  0.7818609E-02  0.8400018E-01
        2   -1    0    0  501    0  0.00000000000E+00  0.00000000000E+00  0.11585215472E+04  0.11585215472E+04  0.25500000920E-02 0.  1.
       -2   -1    0    0    0  501  0.00000000000E+00  0.00000000000E+00 -0.13577214233E+04  0.13577214233E+04  0.25500000920E-02 0. -1.
    10030    2    1    2    0    0  0.00000000000E+00  0.00000000000E+00 -0.19919987611E+03  0.25162429705E+04  0.25083456891E+04 0.  0.
        4    1    3    3  502    0 -0.62700896977E+03 -0.53262883307E+03  0.85001352427E+03  0.11829447689E+04  0.12699999809E+01 0.  1.
       -4    1    3    3    0  502  0.62700896977E+03  0.53262883307E+03 -0.10492134004E+04  0.13332982016E+04  0.12699999809E+01 0. -1.
</event>
<event>
 5   0  0.3578670E-05  0.2518762E+04  0.7818609E-02  0.8396332E-01
        2   -1    0    0  501    0  0.00000000000E+00  0.00000000000E+00  0.16463334663E+04  0.16463334663E+04  0.25500000920E-02 0. -1.
       -2   -1    0    0    0  501  0.00000000000E+00  0.00000000000E+00 -0.96337745591E+03  0.96337745592E+03  0.25500000920E-02 0.  1.
    10030    2    1    2    0    0  0.00000000000E+00  0.00000000000E+00  0.68295601042E+03  0.26097109223E+04  0.25187620343E+04 0.  0.
        4    1    3    3  502    0 -0.49129391291E+03 -0.44672393161E+03 -0.76725835629E+03  0.10147014231E+04  0.12699999809E+01 0.  1.
       -4    1    3    3    0  502  0.49129391291E+03  0.44672393161E+03  0.14502143667E+04  0.15950094991E+04  0.12699999809E+01 0. -1.
</event>
<event>
 5   0  0.3579097E-05  0.2503229E+04  0.7818609E-02  0.8401836E-01
        2   -1    0    0  501    0  0.00000000000E+00  0.00000000000E+00  0.11178589902E+04  0.11178589902E+04  0.25500000920E-02 0.  1.
       -2   -1    0    0    0  501  0.00000000000E+00  0.00000000000E+00 -0.14013742553E+04  0.14013742553E+04  0.25500000920E-02 0. -1.
    10030    2    1    2    0    0  0.00000000000E+00  0.00000000000E+00 -0.28351526512E+03  0.25192332455E+04  0.25032289627E+04 0.  0.
        5    1    3    3  502    0 -0.68653927973E+03 -0.25062714189E+03  0.88079288047E+03  0.11445384813E+04  0.46999998093E+01 0.  1.
       -5    1    3    3    0  502  0.68653927973E+03  0.25062714189E+03 -0.11643081456E+04  0.13746947642E+04  0.46999998093E+01 0. -1.
</event>
<event>
 5   0  0.1502886E-05  0.2514855E+04  0.7818609E-02  0.8397712E-01
       -1   -1    0    0    0  501  0.00000000000E+00  0.00000000000E+00  0.16203995087E+04  0.16203995087E+04  0.50400001928E-02 0.  1.
        1   -1    0    0  501    0  0.00000000000E+00  0.00000000000E+00 -0.97576179003E+03  0.97576179004E+03  0.50400001928E-02 0. -1.
    10030    2    1    2    0    0  0.00000000000E+00  0.00000000000E+00  0.64463771865E+03  0.25961612987E+04  0.25148550059E+04 0.  0.
        4    1    3    3  502    0  0.66552159506E+02  0.12338335251E+04  0.56298241175E+03  0.13578384169E+04  0.12699999809E+01 0.  1.
       -4    1    3    3    0  502 -0.66552159506E+02 -0.12338335251E+04  0.81655306901E+02  0.12383228818E+04  0.12699999809E+01 0. -1.
</event>
<event>
 5   0  0.3579097E-05  0.2536698E+04  0.7818609E-02  0.8390027E-01
       -2   -1    0    0    0  501  0.00000000000E+00  0.00000000000E+00  0.66613658639E+03  0.66613658639E+03  0.25500000920E-02 0.  1.
        2   -1    0    0  501    0  0.00000000000E+00  0.00000000000E+00 -0.24149835124E+04  0.24149835124E+04  0.25500000920E-02 0. -1.
    10030    2    1    2    0    0  0.00000000000E+00  0.00000000000E+00 -0.17488469260E+04  0.30811200988E+04  0.25366977535E+04 0.  0.
        5    1    3    3  502    0 -0.59173663946E+03  0.10203388276E+04 -0.14408098772E+04  0.18620415586E+04  0.46999998093E+01 0. -1.
       -5    1    3    3    0  502  0.59173663946E+03 -0.10203388276E+04 -0.30803704877E+03  0.12190785402E+04  0.46999998093E+01 0.  1.
</event>
<event>
 5   0  0.3650620E-05  0.2486881E+04  0.7818609E-02  0.8407674E-01
        2   -1    0    0  501    0  0.00000000000E+00  0.00000000000E+00  0.17105862923E+04  0.17105862923E+04  0.25500000920E-02 0. -1.
       -2   -1    0    0    0  501  0.00000000000E+00  0.00000000000E+00 -0.90386813930E+03  0.90386813930E+03  0.25500000920E-02 0.  1.
    10030    2    1    2    0    0  0.00000000000E+00  0.00000000000E+00  0.80671815296E+03  0.26144544316E+04  0.24868811384E+04 0.  0.
        3    1    3    3  502    0 -0.77888327597E+03 -0.54530030589E+03  0.12457981365E+04  0.15671708867E+04  0.10100000352E+00 0. -1.
       -3    1    3    3    0  502  0.77888327597E+03  0.54530030589E+03 -0.43907998350E+03  0.10472835448E+04  0.10100000352E+00 0.  1.
</event>
<event>
 5   0  0.1429483E-05  0.2538727E+04  0.7818609E-02  0.8389317E-01
       -1   -1    0    0    0  501  0.00000000000E+00  0.00000000000E+00  0.79848981840E+03  0.79848981841E+03  0.50400001928E-02 0. -1.
        1   -1    0    0  501    0  0.00000000000E+00  0.00000000000E+00 -0.20179143489E+04  0.20179143489E+04  0.50400001928E-02 0.  1.
    10030    2    1    2    0    0  0.00000000000E+00  0.00000000000E+00 -0.12194245305E+04  0.28164041673E+04  0.25387272890E+04 0.  0.
        2    1    3    3  502    0  0.95043309457E+03 -0.62434496034E+03 -0.12354579598E+04  0.16791325341E+04  0.25500000920E-02 0. -1.
       -2    1    3    3    0  502 -0.95043309457E+03  0.62434496034E+03  0.16033429317E+02  0.11372716332E+04  0.25500000920E-02 0.  1.
</event>
<event>
 5   0  0.1456876E-05  0.2378594E+04  0.7818609E-02  0.8447561E-01
        1   -1    0    0  501    0  0.00000000000E+00  0.00000000000E+00  0.15918118325E+04  0.15918118325E+04  0.50400001928E-02 0.  1.
       -1   -1    0    0    0  501  0.00000000000E+00  0.00000000000E+00 -0.88856464498E+03  0.88856464500E+03  0.50400001928E-02 0. -1.
    10030    2    1    2    0    0  0.00000000000E+00  0.00000000000E+00  0.70324718755E+03  0.24803764775E+04  0.23785943041E+04 0.  0.
        1    1    3    3  502    0 -0.16103938297E+03  0.53627550604E+03  0.14457605345E+04  0.15504027297E+04  0.50400001928E-02 0.  1.
       -1    1    3    3    0  502  0.16103938297E+03 -0.53627550604E+03 -0.74251334692E+03  0.92997374782E+03  0.50400001928E-02 0. -1.
</event>
<event>
 5   0  0.1492639E-05  0.2523084E+04  0.7818609E-02  0.8394808E-01
        1   -1    0    0  501    0  0.00000000000E+00  0.00000000000E+00  0.18527192668E+04  0.18527192668E+04  0.50400001928E-02 0.  1.
       -1   -1    0    0    0  501  0.00000000000E+00  0.00000000000E+00 -0.85900095359E+03  0.85900095361E+03  0.50400001928E-02 0. -1.
    10030    2    1    2    0    0  0.00000000000E+00  0.00000000000E+00  0.99371831318E+03  0.27117202204E+04  0.25230835237E+04 0.  0.
        5    1    3    3  502    0 -0.11822643408E+04  0.37855859100E+03  0.25555134626E+03  0.12674321122E+04  0.46999998093E+01 0. -1.
       -5    1    3    3    0  502  0.11822643408E+04 -0.37855859100E+03  0.73816696692E+03  0.14442881082E+04  0.46999998093E+01 0.  1.
</event>
<event>
 5   0  0.1492639E-05  0.2493732E+04  0.7818609E-02  0.8405222E-01
        1   -1    0    0  501    0  0.00000000000E+00  0.00000000000E+00  0.17209225806E+04  0.17209225806E+04  0.50400001928E-02 0. -1.
       -1   -1    0    0    0  501  0.00000000000E+00  0.00000000000E+00 -0.90339579798E+03  0.90339579799E+03  0.50400001928E-02 0.  1.
    10030    2    1    2    0    0  0.00000000000E+00  0.00000000000E+00  0.81752678264E+03  0.26243183786E+04  0.24937315236E+04 0.  0.
        5    1    3    3  502    0  0.61313166875E+03 -0.84577837616E+03 -0.30760392935E+03  0.10889966814E+04  0.46999998093E+01 0.  1.
       -5    1    3    3    0  502 -0.61313166875E+03  0.84577837616E+03  0.11251307120E+04  0.15353216972E+04  0.46999998093E+01 0. -1.
</event>
<event>
 5   0  0.3581449E-05  0.2493333E+04  0.7818609E-02  0.8405365E-01
       -2   -1    0    0    0  501  0.00000000000E+00  0.00000000000E+00  0.58101760208E+03  0.58101760209E+03  0.25500000920E-02 0.  1.
        2   -1    0    0  501    0  0.00000000000E+00  0.00000000000E+00 -0.26749230286E+04  0.26749230286E+04  0.25500000920E-02 0. -1.
    10030    2    1    2    0    0  0.00000000000E+00  0.00000000000E+00 -0.20939054265E+04  0.32559406306E+04  0.24933330013E+04 0.  0.
        1    1    3    3  502    0  0.40017025349E+03  0.45257742963E+03  0.37710091653E+03  0.71215704930E+03  0.50400001928E-02 0.  1.
       -1    1    3    3    0  502 -0.40017025349E+03 -0.45257742963E+03 -0.24710063430E+04  0.25437835814E+04  0.50400001928E-02 0. -1.
</event>
<event>
 5   0  0.3581449E-05  0.2505830E+04  0.7818609E-02  0.8400912E-01
        2   -1    0    0  501    0  0.00000000000E+00  0.00000000000E+00  0.11396910000E+04  0.11396910000E+04  0.25500000920E-02 0. -1.
       -2   -1    0    0    0  501  0.00000000000E+00  0.00000000000E+00 -0.13773870651E+04  0.13773870651E+04  0.25500000920E-02 0.  1.
    10030    2    1    2    0    0  0.00000000000E+00  0.00000000000E+00 -0.23769606512E+03  0.25170780651E+04  0.25058297162E+04 0.  0.
        1    1    3    3  502    0 -0.79867058611E+03  0.31513014867E+03  0.79772476747E+03  0.11719840103E+04  0.50400001928E-02 0. -1.
       -1    1    3    3    0  502  0.79867058611E+03 -0.31513014867E+03 -0.10354208326E+04  0.13450940548E+04  0.50400001928E-02 0.  1.
</event>
<event>
 5   0  0.1456876E-05  0.2421105E+04  0.7818609E-02  0.8431644E-01
        1   -1    0    0  501    0  0.00000000000E+00  0.00000000000E+00  0.18696122407E+04  0.18696122407E+04  0.50400001928E-02 0.  1.
       -1   -1    0    0    0  501  0.00000000000E+00  0.00000000000E+00 -0.78381871944E+03  0.78381871945E+03  0.50400001928E-02 0. -1.
    10030    2    1    2    0    0  0.00000000000E+00  0.00000000000E+00  0.10857935212E+04  0.26534309601E+04  0.24211047663E+04 0.  0.
        1    1    3    3  502    0 -0.38154244640E+03  0.11293852938E+04  0.31209062577E+03  0.12322687770E+04  0.50400001928E-02 0. -1.
       -1    1    3    3    0  502  0.38154244640E+03 -0.11293852938E+04  0.77370289547E+03  0.14211621831E+04  0.50400001928E-02 0.  1.
</event>
<event>
 5   0  0.3704241E-05  0.2623004E+04  0.7818609E-02  0.8360429E-01
        2   -1    0    0  501    0  0.00000000000E+00  0.00000000000E+00  0.22956678825E+04  0.22956678825E+04  0.25500000920E-02 0.  1.
       -2   -1    0    0    0  501  0.00000000000E+00  0.00000000000E+00 -0.74925364527E+03  0.74925364527E+03  0.25500000920E-02 0. -1.
    10030    2    1    2    0    0  0.00000000000E+00  0.00000000000E+00  0.15464142372E+04  0.30449215278E+04  0.26230040254E+04 0.  0.
        2    1    3    3  502    0  0.12304269698E+04 -0.30439402681E+03  0.11641772315E+04  0.17210214635E+04  0.25500000920E-02 0.  1.
       -2    1    3    3    0  502 -0.12304269698E+04  0.30439402681E+03  0.38223700570E+03  0.13239000642E+04  0.25500000920E-02 0. -1.
</event>
<event>
 5   0  0.3579097E-05  0.2501847E+04  0.7818609E-02  0.8402328E-01
        2   -1    0    0  501    0  0.00000000000E+00  0.00000000000E+00  0.16066269637E+04  0.16066269637E+04  0.25500000920E-02 0. -1.
       -2   -1    0    0    0  501  0.00000000000E+00  0.00000000000E+00 -0.97397229203E+03  0.97397229204E+03  0.25500000920E-02 0.  1.
    10030    2    1    2    0    0  0.00000000000E+00  0.00000000000E+00  0.63265467165E+03  0.25805992557E+04  0.25018474344E+04 0.  0.
        5    1    3    3  502    0  0.37973290984E+03 -0.40924298850E+03 -0.83833378422E+03  0.10072251636E+04  0.46999998093E+01 0.  1.
       -5    1    3    3    0  502 -0.37973290984E+03  0.40924298850E+03  0.14709884559E+04  0.15733740921E+04  0.46999998093E+01 0. -1.
</event>
<event>
 5   0  0.3579097E-05  0.2478135E+04  0.7818609E-02  0.8410817E-01
        2   -1    0    0  501    0  0.00000000000E+00  0.00000000000E+00  0.86671752770E+03  0.86671752771E+03  0.25500000920E-02 0.  1.
       -2   -1    0    0    0  501  0.00000000000E+00  0.00000000000E+00 -0.17713819692E+04  0.17713819692E+04  0.25500000920E-02 0. -1.
    10030    2    1    2    0    0  0.00000000000E+00  0.00000000000E+00 -0.90466444150E+03  0.26380994969E+04  0.24781346218E+04 0.  0.
        5    1    3    3  502    0  0.69088803193E+03  0.94568421364E+03 -0.21720803826E+02  0.11713832797E+04  0.46999998093E+01 0.  1.
       -5    1    3    3    0  502 -0.69088803193E+03 -0.94568421364E+03 -0.88294363767E+03  0.14667162172E+04  0.46999998093E+01 0. -1.
</event>
<event>
 5   0  0.1456876E-05  0.2400178E+04  0.7818609E-02  0.8439437E-01
       -1   -1    0    0    0  501  0.00000000000E+00  0.00000000000E+00  0.12216900072E+04  0.12216900072E+04  0.50400001928E-02 0.  1.
        1   -1    0    0  501    0  0.00000000000E+00  0.00000000000E+00 -0.11788698073E+04  0.11788698073E+04  0.50400001928E-02 0. -1.
    10030    2    1    2    0    0  0.00000000000E+00  0.00000000000E+00  0.42820199926E+02  0.24005598145E+04  0.24001778796E+04 0.  0.
        1    1    3    3  502    0  0.40535172983E+03  0.81540571004E+03 -0.76039002894E+03  0.11863344777E+04  0.50400001928E-02 0. -1.
       -1    1    3    3    0  502 -0.40535172983E+03 -0.81540571004E+03  0.80321022886E+03  0.12142253368E+04  0.50400001928E-02 0.  1.
</event>
<event>
 5   0  0.1502886E-05  0.2509561E+04  0.7818609E-02  0.8399587E-01
        1   -1    0    0  501    0  0.00000000000E+00  0.00000000000E+00  0.98051396871E+03  0.98051396872E+03  0.50400001928E-02 0. -1.
       -1   -1    0    0    0  501  0.00000000000E+00  0.00000000000E+00 -0.16057640893E+04  0.16057640893E+04  0.50400001928E-02 0.  1.
    10030    2    1    2    0    0  0.00000000000E+00  0.00000000000E+00 -0.62525012057E+03  0.25862780580E+04  0.25095610134E+04 0.  0.
        4    1    3    3  502    0  0.95556690647E+03 -0.43479148361E+03  0.39564025410E+03  0.11219111242E+04  0.12699999809E+01 0. -1.
       -4    1    3    3    0  502 -0.95556690647E+03  0.43479148361E+03 -0.10208903747E+04  0.14643669338E+04  0.12699999809E+01 0.  1.
</event>
<event>
 5   0  0.3650620E-05  0.2444871E+04  0.7818609E-02  0.8422893E-01
        2   -1    0    0  501    0  0.00000000000E+00  0.00000000000E+00  0.12391987931E+04  0.12391987931E+04  0.25500000920E-02 0. -1.
       -2   -1    0    0    0  501  0.00000000000E+00  0.00000000000E+00 -0.12058992599E+04  0.12058992599E+04  0.25500000920E-02 0.  1.
    10030    2    1    2    0    0  0.00000000000E+00  0.00000000000E+00  0.33299533262E+02  0.24450980530E+04  0.24448712911E+04 0.  0.
        3    1    3    3  502    0 -0.58200039886E+03  0.69779535564E+02  0.10894818712E+04  0.12371598141E+04  0.10100000352E+00 0. -1.
       -3    1    3    3    0  502  0.58200039886E+03 -0.69779535564E+02 -0.10561823379E+04  0.12079382389E+04  0.10100000352E+00 0.  1.
</event>
<event>
 5   0  0.3581449E-05  0.2462421E+04  0.7818609E-02  0.8416497E-01
        2   -1    0    0  501    0  0.00000000000E+00  0.00000000000E+00  0.13880904421E+04  0.13880904421E+04  0.25500000920E-02 0.  1.
       -2   -1    0    0    0  501  0.00000000000E+00  0.00000000000E+00 -0.10920606960E+04  0.10920606960E+04  0.25500000920E-02 0. -1.
    10030    2    1    2    0    0  0.00000000000E+00  0.00000000000E+00  0.29602974611E+03  0.24801511381E+04  0.24624207718E+04 0.  0.
        1    1    3    3  502    0  0.90849556322E+03 -0.47002607634E+03 -0.54218590745E+03  0.11576935083E+04  0.50400001928E-02 0. -1.
       -1    1    3    3    0  502 -0.90849556322E+03  0.47002607634E+03  0.83821565356E+03  0.13224576298E+04  0.50400001928E-02 0.  1.
</event>
<event>
 5   0  0.3579097E-05  0.2484987E+04  0.7818609E-02  0.8408353E-01
        2   -1    0    0  501    0  0.00000000000E+00  0.00000000000E+00  0.13898676763E+04  0.13898676763E+04  0.25500000920E-02 0.  1.
       -2   -1    0    0    0  501  0.00000000000E+00  0.00000000000E+00 -0.11107463799E+04  0.11107463799E+04  0.25500000920E-02 0. -1.
    10030    2    1    2    0    0  0.00000000000E+00  0.00000000000E+00  0.27912129641E+03  0.25006140563E+04  0.24849873159E+04 0.  0.
        5    1    3    3  502    0  0.41512123023E+03  0.85025515424E+03  0.94992527325E+03  0.13407608205E+04  0.46999998093E+01 0.  1.
       -5    1    3    3    0  502 -0.41512123023E+03 -0.85025515424E+03 -0.67080397684E+03  0.11598532357E+04  0.46999998093E+01 0. -1.
</event>
<event>
 5   0  0.1429483E-05  0.2449778E+04  0.7818609E-02  0.8421099E-01
       -1   -1    0    0    0  501  0.00000000000E+00  0.00000000000E+00  0.29694615183E+04  0.29694615183E+04  0.50400001928E-02 0.  1.
        1   -1    0    0  501    0  0.00000000000E+00  0.00000000000E+00 -0.50526093043E+03  0.50526093045E+03  0.50400001928E-02 0. -1.
    10030    2    1    2    0    0  0.00000000000E+00  0.00000000000E+00  0.24642005879E+04  0.34747224488E+04  0.24497778590E+04 0.  0.
        2    1    3    3  502    0 -0.61360556741E+03 -0.41543583107E+03  0.26154809580E+04  0.27184258982E+04  0.25500000920E-02 0.  1.
       -2    1    3    3    0  502  0.61360556741E+03  0.41543583107E+03 -0.15128037011E+03  0.75629655062E+03  0.25500000920E-02 0. -1.
</event>
<event>
 5   0  0.3650620E-05  0.2484188E+04  0.7818609E-02  0.8408640E-01
        2   -1    0    0  501    0  0.00000000000E+00  0.00000000000E+00  0.17886004769E+04  0.17886004769E+04  0.25500000920E-02 0. -1.
       -2   -1    0    0    0  501  0.00000000000E+00  0.00000000000E+00 -0.86257224615E+03  0.86257224616E+03  0.25500000920E-02 0.  1.
    10030    2    1    2    0    0  0.00000000000E+00  0.00000000000E+00  0.92602823078E+03  0.26511727231E+04  0.24841876989E+04 0.  0.
        3    1    3    3  502    0  0.75022366226E+03  0.94543641139E+03  0.77618715517E+03  0.14349745856E+04  0.10100000352E+00 0.  1.
       -3    1    3    3    0  502 -0.75022366226E+03 -0.94543641139E+03  0.14984107561E+03  0.12161981374E+04  0.10100000352E+00 0. -1.
</event>
<event>
 5   0  0.3578670E-05  0.2336598E+04  0.7818609E-02  0.8463629E-01
        2   -1    0    0  501    0  0.00000000000E+00  0.00000000000E+00  0.26166365722E+04  0.26166365722E+04  0.25500000920E-02 0.  1.
       -2   -1    0    0    0  501  0.00000000000E+00  0.00000000000E+00 -0.52163256474E+03  0.52163256474E+03  0.25500000920E-02 0. -1.
    10030    2    1    2    0    0  0.00000000000E+00  0.00000000000E+00  0.20950040075E+04  0.31382691370E+04  0.23365982506E+04 0.  0.
        4    1    3    3  502    0 -0.96768452082E+03  0.15770697819E+03  0.19420286699E+03  0.99950046986E+03  0.12699999809E+01 0. -1.
       -4    1    3    3    0  502  0.96768452082E+03 -0.15770697819E+03  0.19008011405E+04  0.21387686671E+04  0.12699999809E+01 0.  1.
</event>
<event>
 5   0  0.1201438E-05  0.2463255E+04  0.7818609E-02  0.8416194E-01
        3   -1    0    0  501    0  0.00000000000E+00  0.00000000000E+00  0.80035901255E+03  0.80035901893E+03  0.10100000352E+00 0.  1.
       -3   -1    0    0    0  501  0.00000000000E+00  0.00000000000E+00 -0.18952829390E+04  0.18952829417E+04  0.10100000352E+00 0. -1.
    10030    2    1    2    0    0  0.00000000000E+00  0.00000000000E+00 -0.10949239265E+04  0.26956419606E+04  0.24632554019E+04 0.  0.
        5    1    3    3  502    0  0.13181800039E+03 -0.94147402786E+03 -0.14043635566E+04  0.16958798364E+04  0.46999998093E+01 0. -1.
       -5    1    3    3    0  502 -0.13181800039E+03  0.94147402786E+03  0.30943963015E+03  0.99976212424E+03  0.46999998093E+01 0.  1.
</event>
<event>
 5   0  0.3650620E-05  0.2512703E+04  0.7818609E-02  0.8398474E-01
       -2   -1    0    0    0  501  0.00000000000E+00  0.00000000000E+00  0.14687872117E+04  0.14687872117E+04  0.25500000920E-02 0. -1.
        2   -1    0    0  501    0  0.00000000000E+00  0.00000000000E+00 -0.10746406762E+04  0.10746406762E+04  0.25500000920E-02 0.  1.
    10030    2    1    2    0    0  0.00000000000E+00  0.00000000000E+00  0.39414653547E+03  0.25434278879E+04  0.25127025151E+04 0.  0.
        3    1    3    3  502    0  0.28549577977E+03 -0.53959864248E+03 -0.91441759744E+03  0.10994699123E+04  0.10100000352E+00 0.  1.
       -3    1    3    3    0  502 -0.28549577977E+03  0.53959864248E+03  0.13085641329E+04  0.14439579756E+04  0.10100000352E+00 0. -1.
</event>
<event>
 5   0  0.3578670E-05  0.2536423E+04  0.7818609E-02  0.8390124E-01
        2   -1    0    0  501    0  0.00000000000E+00  0.00000000000E+00  0.11476312383E+04  0.11476312383E+04  0.25500000920E-02 0.  1.
       -2   -1    0    0    0  501  0.00000000000E+00  0.00000000000E+00 -0.14014604489E+04  0.14014604489E+04  0.25500000920E-02 0. -1.
    10030    2    1    2    0    0  0.00000000000E+00  0.00000000000E+00 -0.25382921054E+03  0.25490916872E+04  0.25364225125E+04 0.  0.
        4    1    3    3  502    0  0.48833870107E+03  0.80875820132E+02 -0.13003693867E+04  0.13913941713E+04  0.12699999809E+01 0. -1.
       -4    1    3    3    0  502 -0.48833870107E+03 -0.80875820132E+02  0.10465401761E+04  0.11576975159E+04  0.12699999809E+01 0.  1.
</event>
<event>
 5   0  0.3581449E-05  0.2485374E+04  0.7818609E-02  0.8408215E-01
        2   -1    0    0  501    0  0.00000000000E+00  0.00000000000E+00  0.18462577514E+04  0.18462577514E+04  0.25500000920E-02 0. -1.
       -2   -1    0    0    0  501  0.00000000000E+00  0.00000000000E+00 -0.83643337187E+03  0.83643337187E+03  0.25500000920E-02 0.  1.
    10030    2    1    2    0    0  0.00000000000E+00  0.00000000000E+00  0.10098243795E+04  0.26826911233E+04  0.24853744960E+04 0.  0.
        1    1    3    3  502    0  0.62375279313E+03  0.65209948569E+03 -0.41730122025E+03  0.99420400051E+03  0.50400001928E-02 0.  1.
       -1    1    3    3    0  502 -0.62375279313E+03 -0.65209948569E+03  0.14271255998E+04  0.16884871228E+04  0.50400001928E-02 0. -1.
</event>
<event>
 5   0  0.1502886E-05  0.2529259E+04  0.7818609E-02  0.8392635E-01
        1   -1    0    0  501    0  0.00000000000E+00  0.00000000000E+00  0.25699918959E+04  0.25699918959E+04  0.50400001928E-02 0. -1.
       -1   -1    0    0    0  501  0.00000000000E+00  0.00000000000E+00 -0.62229294781E+03  0.62229294783E+03  0.50400001928E-02 0.  1.
    10030    2    1    2    0    0  0.00000000000E+00  0.00000000000E+00  0.19476989481E+04  0.31922848438E+04  0.25292590479E+04 0.  0.
        4    1    3    3  502    0  0.40306601841E+03 -0.26921022064E+03  0.24480996875E+04  0.24956221772E+04  0.12699999809E+01 0. -1.
       -4    1    3    3    0  502 -0.40306601841E+03  0.26921022064E+03 -0.50040073943E+03  0.69666266659E+03  0.12699999809E+01 0.  1.
</event>
<event>
 5   0  0.3650620E-05  0.2505539E+04  0.7818609E-02  0.8401015E-01
       -2   -1    0    0    0  501  0.00000000000E+00  0.00000000000E+00  0.84619372733E+03  0.84619372734E+03  0.25500000920E-02 0. -1.
        2   -1    0    0  501    0  0.00000000000E+00  0.00000000000E+00 -0.18546956201E+04  0.18546956201E+04  0.25500000920E-02 0.  1.
    10030    2    1    2    0    0  0.00000000000E+00  0.00000000000E+00 -0.10085018928E+04  0.27008893474E+04  0.25055393031E+04 0.  0.
        3    1    3    3  502    0  0.38422828536E+03 -0.10594188859E+04 -0.10941187687E+04  0.15706990932E+04  0.10100000352E+00 0.  1.
       -3    1    3    3    0  502 -0.38422828536E+03  0.10594188859E+04  0.85616875959E+02  0.11301902542E+04  0.10100000352E+00 0. -1.
</event>
<event>
 5   0  0.3579097E-05  0.2549551E+04  0.7818609E-02  0.8385542E-01
        2   -1    0    0  501    0  0.00000000000E+00  0.00000000000E+00  0.23835708800E+04  0.23835708800E+04  0.25500000920E-02 0. -1.
       -2   -1    0    0    0  501  0.00000000000E+00  0.00000000000E+00 -0.68177215097E+03  0.68177215098E+03  0.25500000920E-02 0.  1.
    10030    2    1    2    0    0  0.00000000000E+00  0.00000000000E+00  0.17017987290E+04  0.30653430310E+04  0.25495507415E+04 0.  0.
        5    1    3    3  502    0 -0.21576162472E+02  0.11170105174E+04  0.11282366189E+03  0.11229110809E+04  0.46999998093E+01 0.  1.
       -5    1    3    3    0  502  0.21576162472E+02 -0.11170105174E+04  0.15889750671E+04  0.19424319501E+04  0.46999998093E+01 0. -1.
</event>
<event>
 5   0  0.1421242E-05  0.2550734E+04  0.7818609E-02  0.8385131E-01
       -1   -1    0    0    0  501  0.00000000000E+00  0.00000000000E+00  0.10438519243E+04  0.10438519243E+04  0.50400001928E-02 0. -1.
        1   -1    0    0  501    0  0.00000000000E+00  0.00000000000E+00 -0.15582292128E+04  0.15582292128E+04  0.50400001928E-02 0.  1.
    10030    2    1    2    0    0  0.00000000000E+00  0.00000000000E+00 -0.51437728848E+03  0.26020811372E+04  0.25507336689E+04 0.  0.
        3    1    3    3  502    0 -0.35859597271E+03 -0.86439713812E+02  0.98824722203E+03  0.10548438168E+04  0.10100000352E+00 0. -1.
       -3    1    3    3    0  502  0.35859597271E+03  0.86439713812E+02 -0.15026245105E+04  0.15472373204E+04  0.10100000352E+00 0.  1.
</event>
<event>
 5   0  0.1502886E-05  0.2531264E+04  0.7818609E-02  0.8391932E-01
       -1   -1    0    0    0  501  0.00000000000E+00  0.00000000000E+00  0.10963559595E+04  0.10963559595E+04  0.50400001928E-02 0. -1.
        1   -1    0    0  501    0  0.00000000000E+00  0.00000000000E+00 -0.14610437025E+04  0.14610437025E+04  0.50400001928E-02 0.  1.
    10030    2    1    2    0    0  0.00000000000E+00  0.00000000000E+00 -0.36468774298E+03  0.25573996621E+04  0.25312636926E+04 0.  0.
        4    1    3    3  502    0  0.23649085327E+03  0.13291368146E+03  0.10666357283E+04  0.11005940942E+04  0.12699999809E+01 0. -1.
       -4    1    3    3    0  502 -0.23649085327E+03 -0.13291368146E+03 -0.14313234712E+04  0.14568055679E+04  0.12699999809E+01 0.  1.
</event>
<event>
 5   0  0.3578670E-05  0.2468365E+04  0.7818609E-02  0.8414343E-01
       -2   -1    0    0    0  501  0.00000000000E+00  0.00000000000E+00  0.16749765670E+04  0.16749765670E+04  0.25500000920E-02 0. -1.
        2   -1    0    0  501    0  0.00000000000E+00  0.00000000000E+00 -0.90938992862E+03  0.90938992862E+03  0.25500000920E-02 0.  1.
    10030    2    1    2    0    0  0.00000000000E+00  0.00000000000E+00  0.76558663834E+03  0.25843664956E+04  0.24683653058E+04 0.  0.
        4    1    3    3  502    0  0.12415358982E+03 -0.14682674299E+03  0.16591972083E+04  0.16703021269E+04  0.12699999809E+01 0. -1.
       -4    1    3    3    0  502 -0.12415358982E+03  0.14682674299E+03 -0.89361056997E+03  0.91406436863E+03  0.12699999809E+01 0.  1.
</event>
<event>
 5   0  0.1421242E-05  0.2478599E+04  0.7818609E-02  0.8410650E-01
        1   -1    0    0  501    0  0.00000000000E+00  0.00000000000E+00  0.12578988552E+04  0.12578988553E+04  0.50400001928E-02 0.  1.
       -1   -1    0    0    0  501  0.00000000000E+00  0.00000000000E+00 -0.12209752581E+04  0.12209752581E+04  0.50400001928E-02 0. -1.
    10030    2    1    2    0    0  0.00000000000E+00  0.00000000000E+00  0.36923597108E+02  0.24788741134E+04  0.24785991039E+04 0.  0.
        3    1    3    3  502    0  0.55216909216E+03  0.91967640393E+02  0.11242583060E+04  0.12559082379E+04  0.10100000352E+00 0.  1.
       -3    1    3    3    0  502 -0.55216909216E+03 -0.91967640393E+02 -0.10873347089E+04  0.12229658755E+04  0.10100000352E+00 0. -1.
</event>
<event>
 5   0  0.3579097E-05  0.2522747E+04  0.7818609E-02  0.8394927E-01
       -2   -1    0    0    0  501  0.00000000000E+00  0.00000000000E+00  0.10367131469E+04  0.10367131470E+04  0.25500000920E-02 0. -1.
        2   -1    0    0  501    0  0.00000000000E+00  0.00000000000E+00 -0.15347181521E+04  0.15347181521E+04  0.25500000920E-02 0.  1.
    10030    2    1    2    0    0  0.00000000000E+00  0.00000000000E+00 -0.49800500513E+03  0.25714312990E+04  0.25227465074E+04 0.  0.
        5    1    3    3  502    0  0.25243696383E+03 -0.51562369251E+03  0.89581436543E+03  0.10640007896E+04  0.46999998093E+01 0. -1.
       -5    1    3    3    0  502 -0.25243696383E+03  0.51562369251E+03 -0.13938193706E+04  0.15074305094E+04  0.46999998093E+01 0.  1.
</event>
<event>
 5   0  0.3704241E-05  0.2588946E+04  0.7818609E-02  0.8371966E-01
        2   -1    0    0  501    0  0.00000000000E+00  0.00000000000E+00  0.18633487522E+04  0.18633487522E+04  0.25500000920E-02 0.  1.
       -2   -1    0    0    0  501  0.00000000000E+00  0.00000000000E+00 -0.89927362229E+03  0.89927362229E+03  0.25500000920E-02 0. -1.
    10030    2    1    2    0    0  0.00000000000E+00  0.00000000000E+00  0.96407512995E+03  0.27626223745E+04  0.25889460265E+04 0.  0.
        2    1    3    3  502    0  0.54352037463E+03  0.46946247592E+03 -0.66717303465E+03  0.98026999959E+03  0.25500000920E-02 0. -1.
       -2    1    3    3    0  502 -0.54352037463E+03 -0.46946247592E+03  0.16312481646E+04  0.17823523749E+04  0.25500000920E-02 0.  1.
</event>
<event>
 5   0  0.3579097E-05  0.2509273E+04  0.7818609E-02  0.8399690E-01
       -2   -1    0    0    0  501  0.00000000000E+00  0.00000000000E+00  0.11890097017E+04  0.11890097017E+04  0.25500000920E-02 0.  1.
        2   -1    0    0  501    0  0.00000000000E+00  0.00000000000E+00 -0.13238850797E+04  0.13238850797E+04  0.25500000920E-02 0. -1.
    10030    2    1    2    0    0  0.00000000000E+00  0.00000000000E+00 -0.13487537800E+03  0.25128947814E+04  0.25092725669E+04 0.  0.
        5    1    3    3  502    0 -0.95876367443E+03 -0.18370530702E+03  0.72180826901E+03  0.12140859485E+04  0.46999998093E+01 0.  1.
       -5    1    3    3    0  502  0.95876367443E+03  0.18370530702E+03 -0.85668364702E+03  0.12988088329E+04  0.46999998093E+01 0. -1.
</event>
<event>
 5   0  0.1492639E-05  0.2501699E+04  0.7818609E-02  0.8402380E-01
       -1   -1    0    0    0  501  0.00000000000E+00  0.00000000000E+00  0.78388471381E+03  0.78388471382E+03  0.50400001928E-02 0.  1.
        1   -1    0    0  501    0  0.00000000000E+00  0.00000000000E+00 -0.19959884281E+04  0.19959884281E+04  0.50400001928E-02 0. -1.
    10030    2    1    2    0    0  0.00000000000E+00  0.00000000000E+00 -0.12121037143E+04  0.27798731419E+04  0.25016992767E+04 0.  0.
        5    1    3    3  502    0 -0.80074124656E+03 -0.87962926306E+03 -0.10359396773E+04  0.15773798811E+04  0.46999998093E+01 0. -1.
       -5    1    3    3    0  502  0.80074124656E+03  0.87962926306E+03 -0.17616403702E+03  0.12024932608E+04  0.46999998093E+01 0.  1.
</event>
<event>
 5   0  0.1502886E-05  0.2450342E+04  0.7818609E-02  0.8420893E-01
       -1   -1    0    0    0  501  0.00000000000E+00  0.00000000000E+00  0.89363513006E+03  0.89363513008E+03  0.50400001928E-02 0. -1.
        1   -1    0    0  501    0  0.00000000000E+00  0.00000000000E+00 -0.16797054368E+04  0.16797054368E+04  0.50400001928E-02 0.  1.
    10030    2    1    2    0    0  0.00000000000E+00  0.00000000000E+00 -0.78607030674E+03  0.25733405669E+04  0.24503418427E+04 0.  0.
        4    1    3    3  502    0 -0.77943940583E+03  0.45803923505E+01  0.59966194440E+03  0.98343420106E+03  0.12699999809E+01 0. -1.
       -4    1    3    3    0  502  0.77943940583E+03 -0.45803923505E+01 -0.13857322511E+04  0.15899063658E+04  0.12699999809E+01 0.  1.
</event>
<event>
 5   0  0.3650620E-05  0.2557498E+04  0.7818609E-02  0.8382783E-01
       -2   -1    0    0    0  501  0.00000000000E+00  0.00000000000E+00  0.24958826672E+04  0.24958826672E+04  0.25500000920E-02 0. -1.
        2   -1    0    0  501    0  0.00000000000E+00  0.00000000000E+00 -0.65515864327E+03  0.65515864328E+03  0.25500000920E-02 0.  1.
    10030    2    1    2    0    0  0.00000000000E+00  0.00000000000E+00  0.18407240239E+04  0.31510413104E+04  0.25574980759E+04 0.  0.
        3    1    3    3  502    0  0.26394884709E+03  0.48752003760E+03  0.23401189352E+04  0.24048911455E+04  0.10100000352E+00 0. -1.
       -3    1    3    3    0  502 -0.26394884709E+03 -0.48752003760E+03 -0.49939491129E+03  0.74615016489E+03  0.10100000352E+00 0.  1.
</event>
<event>
 5   0  0.1429483E-05  0.2431945E+04  0.7818609E-02  0.8427640E-01
        1   -1    0    0  501    0  0.00000000000E+00  0.00000000000E+00  0.31157227566E+04  0.31157227566E+04  0.50400001928E-02 0.  1.
       -1   -1    0    0    0  501  0.00000000000E+00  0.00000000000E+00 -0.47455732987E+03  0.47455732989E+03  0.50400001928E-02 0. -1.
    10030    2    1    2    0    0  0.00000000000E+00  0.00000000000E+00  0.26411654267E+04  0.35902800865E+04  0.24319449599E+04 0.  0.
        2    1    3    3  502    0  0.29020700017E+03 -0.34786669729E+03 -0.34532064264E+03  0.56962943066E+03  0.25500000920E-02 0. -1.
       -2    1    3    3    0  502 -0.29020700017E+03  0.34786669729E+03  0.29864860694E+04  0.30206506558E+04  0.25500000920E-02 0.  1.
</event>
<event>
 5   0  0.3578670E-05  0.2361846E+04  0.7818609E-02  0.8453927E-01
        2   -1    0    0  501    0  0.00000000000E+00  0.00000000000E+00  0.13603513062E+04  0.13603513062E+04  0.25500000920E-02 0.  1.
       -2   -1    0    0    0  501  0.00000000000E+00  0.00000000000E+00 -0.10251613075E+04  0.10251613075E+04  0.25500000920E-02 0. -1.
    10030    2    1    2    0    0  0.00000000000E+00  0.00000000000E+00  0.33518999867E+03  0.23855126137E+04  0.23618463317E+04 0.  0.
        4    1    3    3  502    0 -0.97177580244E+03  0.18949168434E+03 -0.48253378127E+03  0.11014062700E+04  0.12699999809E+01 0. -1.
       -4    1    3    3    0  502  0.97177580244E+03 -0.18949168434E+03  0.81772377995E+03  0.12841063437E+04  0.12699999809E+01 0.  1.
</event>
<event>
 5   0  0.1502886E-05  0.2365056E+04  0.7818609E-02  0.8452703E-01
        1   -1    0    0  501    0  0.00000000000E+00  0.00000000000E+00  0.11169331926E+04  0.11169331926E+04  0.50400001928E-02 0. -1.
       -1   -1    0    0    0  501  0.00000000000E+00  0.00000000000E+00 -0.12519746237E+04  0.12519746238E+04  0.50400001928E-02 0.  1.
    10030    2    1    2    0    0  0.00000000000E+00  0.00000000000E+00 -0.13504143113E+03  0.23689078164E+04  0.23650556134E+04 0.  0.
        4    1    3    3  502    0 -0.74787073165E+03 -0.77346430016E+03  0.42400533296E+03  0.11564340838E+04  0.12699999809E+01 0. -1.
       -4    1    3    3    0  502  0.74787073165E+03  0.77346430016E+03 -0.55904676409E+03  0.12124737326E+04  0.12699999809E+01 0.  1.
</event>
<event>
 5   0  0.1456876E-05  0.2468765E+04  0.7818609E-02  0.8414198E-01
       -1   -1    0    0    0  501  0.00000000000E+00  0.00000000000E+00  0.10416795237E+04  0.10416795237E+04  0.50400001928E-02 0.  1.
        1   -1    0    0  501    0  0.00000000000E+00  0.00000000000E+00 -0.14627339816E+04  0.14627339816E+04  0.50400001928E-02 0. -1.
    10030    2    1    2    0    0  0.00000000000E+00  0.00000000000E+00 -0.42105445788E+03  0.25044135054E+04  0.24687649036E+04 0.  0.
        1    1    3    3  502    0 -0.11347168686E+04 -0.47375356945E+03 -0.10091503852E+03  0.12337782059E+04  0.50400001928E-02 0.  1.
       -1    1    3    3    0  502  0.11347168686E+04  0.47375356945E+03 -0.32013941936E+03  0.12706352994E+04  0.50400001928E-02 0. -1.
</event>
<event>
 5   0  0.1492639E-05  0.2476709E+04  0.7818609E-02  0.8411331E-01
       -1   -1    0    0    0  501  0.00000000000E+00  0.00000000000E+00  0.87140165094E+03  0.87140165095E+03  0.50400001928E-02 0.  1.
        1   -1    0    0  501    0  0.00000000000E+00  0.00000000000E+00 -0.17598328976E+04  0.17598328977E+04  0.50400001928E-02 0. -1.
    10030    2    1    2    0    0  0.00000000000E+00  0.00000000000E+00 -0.88843124671E+03  0.26312345486E+04  0.24767085355E+04 0.  0.
        5    1    3    3  502    0 -0.17378893090E+03  0.10907828238E+04  0.15061883769E+03  0.11147725712E+04  0.46999998093E+01 0.  1.
       -5    1    3    3    0  502  0.17378893090E+03 -0.10907828238E+04 -0.10390500844E+04  0.15164619774E+04  0.46999998093E+01 0. -1.
</event>
<event>
 5   0  0.1421242E-05  0.2478034E+04  0.7818609E-02  0.8410853E-01
       -1   -1    0    0    0  501  0.00000000000E+00  0.00000000000E+00  0.19579606842E+04  0.19579606842E+04  0.50400001928E-02 0. -1.
        1   -1    0    0  501    0  0.00000000000E+00  0.00000000000E+00 -0.78406249361E+03  0.78406249363E+03  0.50400001928E-02 0.  1.
    10030    2    1    2    0    0  0.00000000000E+00  0.00000000000E+00  0.11738981905E+04  0.27420231778E+04  0.24780343310E+04 0.  0.
        3    1    3    3  502    0 -0.92756874080E+03 -0.17151383924E+03 -0.30197720025E+03  0.99044990062E+03  0.10100000352E+00 0.  1.
       -3    1    3    3    0  502  0.92756874080E+03  0.17151383924E+03  0.14758753908E+04  0.17515732772E+04  0.10100000352E+00 0. -1.
</event>
<event>
 5   0  0.3704241E-05  0.2505364E+04  0.7818609E-02  0.8401077E-01
        2   -1    0    0  501    0  0.00000000000E+00  0.00000000000E+00  0.10433874300E+04  0.10433874300E+04  0.25500000920E-02 0.  1.
       -2   -1    0    0    0  501  0.00000000000E+00  0.00000000000E+00 -0.15039589132E+04  0.15039589132E+04  0.25500000920E-02 0. -1.
    10030    2    1    2    0    0  0.00000000000E+00  0.00000000000E+00 -0.46057148314E+03  0.25473463432E+04  0.25053637064E+04 0.  0.
        2    1    3    3  502    0  0.10529758622E+04 -0.45420872621E+03  0.28229306030E+03  0.11809966576E+04  0.25500000920E-02 0.  1.
       -2    1    3    3    0  502 -0.10529758622E+04  0.45420872621E+03 -0.74286454344E+03  0.13663496856E+04  0.25500000920E-02 0. -1.
</event>
<event>
 5   0  0.1502886E-05  0.2514447E+04  0.7818609E-02  0.8397857E-01
        1   -1    0    0  501    0  0.00000000000E+00  0.00000000000E+00  0.12579367523E+04  0.12579367523E+04  0.50400001928E-02 0.  1.
       -1   -1    0    0    0  501  0.00000000000E+00  0.00000000000E+00 -0.12565104402E+04  0.12565104402E+04  0.50400001928E-02 0. -1.
    10030    2    1    2    0    0  0.00000000000E+00  0.00000000000E+00  0.14263120988E+01  0.25144471926E+04  0.25144467881E+04 0.  0.
        4    1    3    3  502    0  0.11501995973E+04  0.12852177559E+03 -0.49033894577E+03  0.12569450486E+04  0.12699999809E+01 0.  1.
       -4    1    3    3    0  502 -0.11501995973E+04 -0.12852177559E+03  0.49176525787E+03  0.12575021440E+04  0.12699999809E+01 0. -1.
</event>
<event>
 5   0  0.3579097E-05  0.2481043E+04  0.7818609E-02  0.8409770E-01
        2   -1    0    0  501    0  0.00000000000E+00  0.00000000000E+00  0.15909351638E+04  0.15909351638E+04  0.25500000920E-02 0.  1.
       -2   -1    0    0    0  501  0.00000000000E+00  0.00000000000E+00 -0.96728898626E+03  0.96728898627E+03  0.25500000920E-02 0. -1.
    10030    2    1    2    0    0  0.00000000000E+00  0.00000000000E+00  0.62364617750E+03  0.25582241500E+04  0.24810433787E+04 0.  0.
        5    1    3    3  502    0  0.88421383381E+03  0.35293278890E+03  0.11318467238E+04  0.14790181722E+04  0.46999998093E+01 0.  1.
       -5    1    3    3    0  502 -0.88421383381E+03 -0.35293278890E+03 -0.50820054631E+03  0.10792059779E+04  0.46999998093E+01 0. -1.
</event>
<event>
 5   0  0.3578670E-05  0.2499222E+04  0.7818609E-02  0.8403263E-01
       -2   -1    0    0    0  501  0.00000000000E+00  0.00000000000E+00  0.10921286931E+04  0.10921286931E+04  0.25500000920E-02 0.  1.
        2   -1    0    0  501    0  0.00000000000E+00  0.00000000000E+00 -0.14298021701E+04  0.14298021701E+04  0.25500000920E-02 0. -1.
    10030    2    1    2    0    0  0.00000000000E+00  0.00000000000E+00 -0.33767347705E+03  0.25219308632E+04  0.24992222594E+04 0.  0.
        4    1    3    3  502    0 -0.48992418049E+03 -0.78999640633E+03  0.67385986053E+03  0.11481327228E+04  0.12699999809E+01 0.  1.
       -4    1    3    3    0  502  0.48992418049E+03  0.78999640633E+03 -0.10115333376E+04  0.13737981404E+04  0.12699999809E+01 0. -1.
</event>
<event>
 5   0  0.1421242E-05  0.2469260E+04  0.7818609E-02  0.8414019E-01
        1   -1    0    0  501    0  0.00000000000E+00  0.00000000000E+00  0.16399079590E+04  0.16399079590E+04  0.50400001928E-02 0. -1.
       -1   -1    0    0    0  501  0.00000000000E+00  0.00000000000E+00 -0.92951042901E+03  0.92951042902E+03  0.50400001928E-02 0.  1.
    10030    2    1    2    0    0  0.00000000000E+00  0.00000000000E+00  0.71039752996E+03  0.25694183880E+04  0.24692602540E+04 0.  0.
        3    1    3    3  502    0 -0.12193102000E+04 -0.11816323005E+03  0.51516001132E+03  0.13289355741E+04  0.10100000352E+00 0. -1.
       -3    1    3    3    0  502  0.12193102000E+04  0.11816323005E+03  0.19523751864E+03  0.12404828139E+04  0.10100000352E+00 0.  1.
</event>
<event>
 5   0  0.3579097E-05  0.2525251E+04  0.7818609E-02  0.8394044E-01
       -2   -1    0    0    0  501  0.00000000000E+00  0.00000000000E+00  0.17474806625E+04  0.17474806625E+04  0.25500000920E-02 0. -1.
        2   -1    0    0  501    0  0.00000000000E+00  0.00000000000E+00 -0.91229836815E+03  0.91229836815E+03  0.25500000920E-02 0.  1.
    10030    2    1    2    0    0  0.00000000000E+00  0.00000000000E+00  0.83518229439E+03  0.26597790307E+04  0.25252514780E+04 0.  0.
        5    1    3    3  502    0 -0.33364206407E+03 -0.54565690131E+03 -0.72904686702E+03  0.96984014414E+03  0.46999998093E+01 0.  1.
       -5    1    3    3    0  502  0.33364206407E+03  0.54565690131E+03  0.15642291614E+04  0.16899388865E+04  0.46999998093E+01 0. -1.
</event>
<event>
 5   0  0.3581449E-05  0.2456873E+04  0.7818609E-02  0.8418513E-01
       -2   -1    0    0    0  501  0.00000000000E+00  0.00000000000E+00  0.91871842877E+03  0.91871842878E+03  0.25500000920E-02 0. -1.
        2   -1    0    0  501    0  0.00000000000E+00  0.00000000000E+00 -0.16425661628E+04  0.16425661628E+04  0.25500000920E-02 0.  1.
    10030    2    1    2    0    0  0.00000000000E+00  0.00000000000E+00 -0.72384773400E+03  0.25612845916E+04  0.24568726497E+04 0.  0.
        1    1    3    3  502    0  0.11431584703E+04  0.13914098544E+03  0.83900093701E+02  0.11546474474E+04  0.50400001928E-02 0. -1.
       -1    1    3    3    0  502 -0.11431584703E+04 -0.13914098544E+03 -0.80774782770E+03  0.14066371441E+04  0.50400001928E-02 0.  1.
</event>
<event>
 5   0  0.3650620E-05  0.2505003E+04  0.7818609E-02  0.8401205E-01
       -2   -1    0    0    0  501  0.00000000000E+00  0.00000000000E+00  0.12664609440E+04  0.12664609440E+04  0.25500000920E-02 0. -1.
        2   -1    0    0  501    0  0.00000000000E+00  0.00000000000E+00 -0.12386964144E+04  0.12386964144E+04  0.25500000920E-02 0.  1.
    10030    2    1    2    0    0  0.00000000000E+00  0.00000000000E+00  0.27764529630E+02  0.25051573584E+04  0.25050034973E+04 0.  0.
        3    1    3    3  502    0 -0.68267409630E+03  0.10480464335E+04 -0.51813258236E+02  0.12518505791E+04  0.10100000352E+00 0. -1.
       -3    1    3    3    0  502  0.68267409630E+03 -0.10480464335E+04  0.79577787866E+02  0.12533067793E+04  0.10100000352E+00 0.  1.
</event>
<event>
 5   0  0.1456876E-05  0.2513747E+04  0.7818609E-02  0.8398105E-01
        1   -1    0    0  501    0  0.00000000000E+00  0.00000000000E+00  0.10623118004E+04  0.10623118004E+04  0.50400001928E-02 0.  1.
       -1   -1    0    0    0  501  0.00000000000E+00  0.00000000000E+00 -0.14870686273E+04  0.14870686273E+04  0.50400001928E-02 0. -1.
    10030    2    1    2    0    0  0.00000000000E+00  0.00000000000E+00 -0.42475682692E+03  0.25493804276E+04  0.25137466465E+04 0.  0.
        1    1    3    3  502    0 -0.74512827381E+03  0.45181325485E+03 -0.11309657636E+04  0.14277376931E+04  0.50400001928E-02 0. -1.
       -1    1    3    3    0  502  0.74512827381E+03 -0.45181325485E+03  0.70620893672E+03  0.11216427346E+04  0.50400001928E-02 0.  1.
</event>
<event>
 5   0  0.1429483E-05  0.2486379E+04  0.7818609E-02  0.8407854E-01
        1   -1    0    0  501    0  0.00000000000E+00  0.00000000000E+00  0.12672755083E+04  0.12672755083E+04  0.50400001928E-02 0.  1.
       -1   -1    0    0    0  501  0.00000000000E+00  0.00000000000E+00 -0.12195615353E+04  0.12195615353E+04  0.50400001928E-02 0. -1.
    10030    2    1    2    0    0  0.00000000000E+00  0.00000000000E+00  0.47713973025E+02  0.24868370436E+04  0.24863792667E+04 0.  0.
        2    1    3    3  502    0  0.34752749015E+03  0.19496371746E+03 -0.11539566396E+04  0.12208202708E+04  0.25500000920E-02 0. -1.
       -2    1    3    3    0  502 -0.34752749015E+03 -0.19496371746E+03  0.12016706126E+04  0.12660167727E+04  0.25500000920E-02 0.  1.
</event>
<event>
 5   0  0.3581449E-05  0.2475068E+04  0.7818609E-02  0.8411922E-01
        2   -1    0    0  501    0  0.00000000000E+00  0.00000000000E+00  0.19429379641E+04  0.19429379642E+04  0.25500000920E-02 0. -1.
       -2   -1    0    0    0  501  0.00000000000E+00  0.00000000000E+00 -0.78823436719E+03  0.78823436719E+03  0.25500000920E-02 0.  1.
    10030    2    1    2    0    0  0.00000000000E+00  0.00000000000E+00  0.11547035970E+04  0.27311723313E+04  0.24750680610E+04 0.  0.
        1    1    3    3  502    0  0.78415092417E+03  0.94088206824E+03  0.38200661258E+03  0.12829968006E+04  0.50400001928E-02 0. -1.
       -1    1    3    3    0  502 -0.78415092417E+03 -0.94088206824E+03  0.77269698438E+03  0.14481755308E+04  0.50400001928E-02 0.  1.
</event>
<event>
 5   0  0.3650620E-05  0.2405398E+04  0.7818609E-02  0.8437485E-01
        2   -1    0    0  501    0  0.00000000000E+00  0.00000000000E+00  0.11644226080E+04  0.11644226080E+04  0.25500000920E-02 0.  1.
       -2   -1    0    0    0  501  0.00000000000E+00  0.00000000000E+00 -0.12422339968E+04  0.12422339968E+04  0.25500000920E-02 0. -1.
    10030    2    1    2    0    0  0.00000000000E+00  0.00000000000E+00 -0.77811388760E+02  0.24066566049E+04  0.24053983873E+04 0.  0.
        3    1    3    3  502    0 -0.60528163568E+03  0.71297611712E+03  0.71765419982E+03  0.11788674068E+04  0.10100000352E+00 0.  1.
       -3    1    3    3    0  502  0.60528163568E+03 -0.71297611712E+03 -0.79546558858E+03  0.12277891981E+04  0.10100000352E+00 0. -1.
</event>
<event>
 5   0  0.1492639E-05  0.2494312E+04  0.7818609E-02  0.8405015E-01
       -1   -1    0    0    0  501  0.00000000000E+00  0.00000000000E+00  0.18415159078E+04  0.18415159078E+04  0.50400001928E-02 0.  1.
        1   -1    0    0  501    0  0.00000000000E+00  0.00000000000E+00 -0.84462901254E+03  0.84462901255E+03  0.50400001928E-02 0. -1.
    10030    2    1    2    0    0  0.00000000000E+00  0.00000000000E+00  0.99688689528E+03  0.26861449204E+04  0.24943117390E+04 0.  0.
        5    1    3    3  502    0  0.61491846247E+03  0.80164886300E+03  0.12858468218E+04  0.16352950052E+04  0.46999998093E+01 0.  1.
       -5    1    3    3    0  502 -0.61491846247E+03 -0.80164886300E+03 -0.28895992651E+03  0.10508499151E+04  0.46999998093E+01 0. -1.
</event>
<event>
 5   0  0.3650620E-05  0.2508500E+04  0.7818609E-02  0.8399964E-01
       -2   -1    0    0    0  501  0.00000000000E+00  0.00000000000E+00  0.16962124649E+04  0.16962124649E+04  0.25500000920E-02 0.  1.
        2   -1    0    0  501    0  0.00000000000E+00  0.00000000000E+00 -0.92744482206E+03  0.92744482207E+03  0.25500000920E-02 0. -1.
    10030    2    1    2    0    0  0.00000000000E+00  0.00000000000E+00  0.76876764281E+03  0.26236572869E+04  0.25085003230E+04 0.  0.
        3    1    3    3  502    0 -0.67239777784E+03 -0.17588265999E+03 -0.70761989587E+03  0.99185654656E+03  0.10100000352E+00 0. -1.
       -3    1    3    3    0  502  0.67239777784E+03  0.17588265999E+03  0.14763875387E+04  0.16318007404E+04  0.10100000352E+00 0.  1.
</event>
<event>
 5   0  0.1502886E-05  0.2464296E+04  0.7818609E-02  0.8415817E-01
       -1   -1    0    0    0  501  0.00000000000E+00  0.00000000000E+00  0.73884245235E+03  0.73884245237E+03  0.50400001928E-02 0.  1.
        1   -1    0    0  501    0  0.00000000000E+00  0.00000000000E+00 -0.20548211357E+04  0.20548211357E+04  0.50400001928E-02 0. -1.
    10030    2    1    2    0    0  0.00000000000E+00  0.00000000000E+00 -0.13159786834E+04  0.27936635881E+04  0.24642963191E+04 0.  0.
        4    1    3    3  502    0 -0.87774920036E+03 -0.39758324587E+02 -0.16372494438E+04  0.18581204851E+04  0.12699999809E+01 0. -1.
       -4    1    3    3    0  502  0.87774920036E+03  0.39758324587E+02  0.32127076043E+03  0.93554310297E+03  0.12699999809E+01 0.  1.
</event>
<event>
 5   0  0.1502886E-05  0.2496904E+04  0.7818609E-02  0.8404089E-01
        1   -1    0    0  501    0  0.00000000000E+00  0.00000000000E+00  0.17819868636E+04  0.17819868636E+04  0.50400001928E-02 0.  1.
       -1   -1    0    0    0  501  0.00000000000E+00  0.00000000000E+00 -0.87466008372E+03  0.87466008373E+03  0.50400001928E-02 0. -1.
    10030    2    1    2    0    0  0.00000000000E+00  0.00000000000E+00  0.90732677985E+03  0.26566469473E+04  0.24969043068E+04 0.  0.
        4    1    3    3  502    0 -0.57527795372E+03 -0.55787316044E+02  0.16310646612E+04  0.17304422818E+04  0.12699999809E+01 0.  1.
       -4    1    3    3    0  502  0.57527795372E+03  0.55787316044E+02 -0.72373788134E+03  0.92620466553E+03  0.12699999809E+01 0. -1.
</event>
<event>
 5   0  0.3650620E-05  0.2486891E+04  0.7818609E-02  0.8407671E-01
        2   -1    0    0  501    0  0.00000000000E+00  0.00000000000E+00  0.11917281551E+04  0.11917281552E+04  0.25500000920E-02 0. -1.
       -2   -1    0    0    0  501  0.00000000000E+00  0.00000000000E+00 -0.12974070248E+04  0.12974070248E+04  0.25500000920E-02 0.  1.
    10030    2    1    2    0    0  0.00000000000E+00  0.00000000000E+00 -0.10567886967E+03  0.24891351800E+04  0.24868908140E+04 0.  0.
        3    1    3    3  502    0  0.78117039383E+03  0.81838301544E+03  0.46355109906E+03  0.12226436831E+04  0.10100000352E+00 0. -1.
       -3    1    3    3    0  502 -0.78117039383E+03 -0.81838301544E+03 -0.56922996873E+03  0.12664914969E+04  0.10100000352E+00 0.  1.
</event>
<event>
 5   0  0.1492639E-05  0.2369335E+04  0.7818609E-02  0.8451074E-01
       -1   -1    0    0    0  501  0.00000000000E+00  0.00000000000E+00  0.11669535936E+04  0.11669535936E+04  0.50400001928E-02 0.  1.
        1   -1    0    0  501    0  0.00000000000E+00  0.00000000000E+00 -0.12026499474E+04  0.12026499475E+04  0.50400001928E-02 0. -1.
    10030    2    1    2    0    0  0.00000000000E+00  0.00000000000E+00 -0.35696353835E+02  0.23696035411E+04  0.23693346560E+04 0.  0.
        5    1    3    3  502    0 -0.11656888436E+04 -0.20613938064E+03  0.27880787811E+02  0.11841128969E+04  0.46999998093E+01 0. -1.
       -5    1    3    3    0  502  0.11656888436E+04  0.20613938064E+03 -0.63577141646E+02  0.11854906441E+04  0.46999998093E+01 0.  1.
</event>
<event>
 5   0  0.1456876E-05  0.2304221E+04  0.7818609E-02  0.8476259E-01
       -1   -1    0    0    0  501  0.00000000000E+00  0.00000000000E+00  0.21259252988E+04  0.21259252988E+04  0.50400001928E-02 0.  1.
        1   -1    0    0  501    0  0.00000000000E+00  0.00000000000E+00 -0.62436752454E+03  0.62436752456E+03  0.50400001928E-02 0. -1.
    10030    2    1    2    0    0  0.00000000000E+00  0.00000000000E+00  0.15015577743E+04  0.27502928234E+04  0.23042210972E+04 0.  0.
        1    1    3    3  502    0  0.20720760459E+03 -0.11964959936E+03 -0.59438457111E+03  0.64073710399E+03  0.50400001928E-02 0. -1.
       -1    1    3    3    0  502 -0.20720760459E+03  0.11964959936E+03  0.20959423454E+04  0.21095557194E+04  0.50400001928E-02 0.  1.
</event>
<event>
 5   0  0.1502886E-05  0.2621527E+04  0.7818609E-02  0.8360926E-01
       -1   -1    0    0    0  501  0.00000000000E+00  0.00000000000E+00  0.11844520655E+04  0.11844520656E+04  0.50400001928E-02 0.  1.
        1   -1    0    0  501    0  0.00000000000E+00  0.00000000000E+00 -0.14505449141E+04  0.14505449141E+04  0.50400001928E-02 0. -1.
    10030    2    1    2    0    0  0.00000000000E+00  0.00000000000E+00 -0.26609284856E+03  0.26349969797E+04  0.26215269746E+04 0.  0.
        4    1    3    3  502    0  0.48132276076E+02 -0.91222699835E+03  0.81179660638E+03  0.12220843488E+04  0.12699999809E+01 0.  1.
       -4    1    3    3    0  502 -0.48132276076E+02  0.91222699835E+03 -0.10778894549E+04  0.14129126309E+04  0.12699999809E+01 0. -1.
</event>
<event>
 5   0  0.3704241E-05  0.2491412E+04  0.7818609E-02  0.8406051E-01
       -2   -1    0    0    0  501  0.00000000000E+00  0.00000000000E+00  0.10474327156E+04  0.10474327156E+04  0.25500000920E-02 0. -1.
        2   -1    0    0  501    0  0.00000000000E+00  0.00000000000E+00 -0.14815115117E+04  0.14815115117E+04  0.25500000920E-02 0.  1.
    10030    2    1    2    0    0  0.00000000000E+00  0.00000000000E+00 -0.43407879612E+03  0.25289442273E+04  0.24914121505E+04 0.  0.
        2    1    3    3  502    0 -0.29599708051E+03  0.11145101725E+04  0.26126656041E+03  0.11823736346E+04  0.25500000920E-02 0. -1.
       -2    1    3    3    0  502  0.29599708051E+03 -0.11145101725E+04 -0.69534535652E+03  0.13465705927E+04  0.25500000920E-02 0.  1.
</event>
<event>
 5   0  0.3704241E-05  0.2529779E+04  0.7818609E-02  0.8392453E-01
       -2   -1    0    0    0  501  0.00000000000E+00  0.00000000000E+00  0.11451770270E+04  0.11451770270E+04  0.25500000920E-02 0. -1.
        2   -1    0    0  501    0  0.00000000000E+00  0.00000000000E+00 -0.13971159723E+04  0.13971159723E+04  0.25500000920E-02 0.  1.
    10030    2    1    2    0    0  0.00000000000E+00  0.00000000000E+00 -0.25193894531E+03  0.25422929993E+04  0.25297787378E+04 0.  0.
        2    1    3    3  502    0  0.17656458690E+03  0.50295340800E+03  0.10267916291E+04  0.11569089132E+04  0.25500000920E-02 0. -1.
       -2    1    3    3    0  502 -0.17656458690E+03 -0.50295340800E+03 -0.12787305744E+04  0.13853840860E+04  0.25500000920E-02 0.  1.
</event>
<event>
 5   0  0.3704241E-05  0.2524825E+04  0.7818609E-02  0.8394195E-01
        2   -1    0    0  501    0  0.00000000000E+00  0.00000000000E+00  0.21295360432E+04  0.21295360432E+04  0.25500000920E-02 0. -1.
       -2   -1    0    0    0  501  0.00000000000E+00  0.00000000000E+00 -0.74837211294E+03  0.74837211295E+03  0.25500000920E-02 0.  1.
    10030    2    1    2    0    0  0.00000000000E+00  0.00000000000E+00  0.13811639302E+04  0.28779081561E+04  0.25248250539E+04 0.  0.
        2    1    3    3  502    0 -0.56870133235E+03 -0.60667259816E+03 -0.39209792165E+03  0.91935500594E+03  0.25500000920E-02 0.  1.
       -2    1    3    3    0  502  0.56870133235E+03  0.60667259816E+03  0.17732618519E+04  0.19585531502E+04  0.25500000920E-02 0. -1.
</event>
<event>
 5   0  0.1429483E-05  0.2535592E+04  0.7818609E-02  0.8390414E-01
       -1   -1    0    0    0  501  0.00000000000E+00  0.00000000000E+00  0.11318191282E+04  0.11318191282E+04  0.50400001928E-02 0.  1.
        1   -1    0    0  501    0  0.00000000000E+00  0.00000000000E+00 -0.14201087923E+04  0.14201087923E+04  0.50400001928E-02 0. -1.
    10030    2    1    2    0    0  0.00000000000E+00  0.00000000000E+00 -0.28828966418E+03  0.25519279205E+04  0.25355916826E+04 0.  0.
        2    1    3    3  502    0 -0.64539836233E+03  0.78069579983E+03 -0.91147499003E+03  0.13626487572E+04  0.25500000920E-02 0. -1.
       -2    1    3    3    0  502  0.64539836233E+03 -0.78069579983E+03  0.62318532586E+03  0.11892791633E+04  0.25500000920E-02 0.  1.
</event>
<event>
 5   0  0.1502886E-05  0.2409450E+04  0.7818609E-02  0.8435974E-01
        1   -1    0    0  501    0  0.00000000000E+00  0.00000000000E+00  0.11982514333E+04  0.11982514333E+04  0.50400001928E-02 0. -1.
       -1   -1    0    0    0  501  0.00000000000E+00  0.00000000000E+00 -0.12112333638E+04  0.12112333638E+04  0.50400001928E-02 0.  1.
    10030    2    1    2    0    0  0.00000000000E+00  0.00000000000E+00 -0.12981930455E+02  0.24094847971E+04  0.24094498245E+04 0.  0.
        4    1    3    3  502    0 -0.96439234237E+03 -0.49808782731E+03  0.51621770986E+03  0.12019261253E+04  0.12699999809E+01 0.  1.
       -4    1    3    3    0  502  0.96439234237E+03  0.49808782731E+03 -0.52919964031E+03  0.12075586718E+04  0.12699999809E+01 0. -1.
</event>
<event>
 5   0  0.1421242E-05  0.2506996E+04  0.7818609E-02  0.8400497E-01
       -1   -1    0    0    0  501  0.00000000000E+00  0.00000000000E+00  0.18784547863E+04  0.18784547863E+04  0.50400001928E-02 0. -1.
        1   -1    0    0  501    0  0.00000000000E+00  0.00000000000E+00 -0.83646289975E+03  0.83646289976E+03  0.50400001928E-02 0.  1.
    10030    2    1    2    0    0  0.00000000000E+00  0.00000000000E+00  0.10419918866E+04  0.27149176861E+04  0.25069964002E+04 0.  0.
        3    1    3    3  502    0 -0.28016681633E+03  0.11493144737E+04  0.96991263034E+03  0.15297541388E+04  0.10100000352E+00 0. -1.
       -3    1    3    3    0  502  0.28016681633E+03 -0.11493144737E+04  0.72079256209E+02  0.11851635473E+04  0.10100000352E+00 0.  1.
</event>
<event>
 5   0  0.3579097E-05  0.2101330E+04  0.7818609E-02  0.8560658E-01
       -2   -1    0    0    0  501  0.00000000000E+00  0.00000000000E+00  0.13007894774E+04  0.13007894774E+04  0.25500000920E-02 0.  1.
        2   -1    0    0  501    0  0.00000000000E+00  0.00000000000E+00 -0.84863613269E+03  0.84863613270E+03  0.25500000920E-02 0. -1.
    10030    2    1    2    0    0  0.00000000000E+00  0.00000000000E+00  0.45215334472E+03  0.21494256101E+04  0.21013300089E+04 0.  0.
        5    1    3    3  502    0 -0.46905497763E+03 -0.41991993708E+03 -0.63432341061E+03  0.89371897420E+03  0.46999998093E+01 0. -1.
       -5    1    3    3    0  502  0.46905497763E+03  0.41991993708E+03  0.10864767553E+04  0.12557066359E+04  0.46999998093E+01 0.  1.
</event>
<event>
 5   0  0.1502886E-05  0.2523858E+04  0.7818609E-02  0.8394535E-01
       -1   -1    0    0    0  501  0.00000000000E+00  0.00000000000E+00  0.19088756511E+04  0.19088756511E+04  0.50400001928E-02 0. -1.
        1   -1    0    0  501    0  0.00000000000E+00  0.00000000000E+00 -0.83424207876E+03  0.83424207878E+03  0.50400001928E-02 0.  1.
    10030    2    1    2    0    0  0.00000000000E+00  0.00000000000E+00  0.10746335723E+04  0.27431177298E+04  0.25238576753E+04 0.  0.
        4    1    3    3  502    0  0.37656598024E+03 -0.95779356864E+02  0.18422400540E+04  0.18827707380E+04  0.12699999809E+01 0. -1.
       -4    1    3    3    0  502 -0.37656598024E+03  0.95779356864E+02 -0.76760648168E+03  0.86034699180E+03  0.12699999809E+01 0.  1.
</event>
<event>
 5   0  0.3579097E-05  0.2488749E+04  0.7818609E-02  0.8407005E-01
       -2   -1    0    0    0  501  0.00000000000E+00  0.00000000000E+00  0.12488158191E+04  0.12488158192E+04  0.25500000920E-02 0. -1.
        2   -1    0    0  501    0  0.00000000000E+00  0.00000000000E+00 -0.12399486000E+04  0.12399486000E+04  0.25500000920E-02 0.  1.
    10030    2    1    2    0    0  0.00000000000E+00  0.00000000000E+00  0.88672191498E+01  0.24887644192E+04  0.24887486226E+04 0.  0.
        5    1    3    3  502    0 -0.34219013385E+03  0.84963455320E+03 -0.83787356792E+03  0.12413811532E+04  0.46999998093E+01 0.  1.
       -5    1    3    3    0  502  0.34219013385E+03 -0.84963455320E+03  0.84674078707E+03  0.12473832660E+04  0.46999998093E+01 0. -1.
</event>
<event>
 5   0  0.1502886E-05  0.2403920E+04  0.7818609E-02  0.8438038E-01
       -1   -1    0    0    0  501  0.00000000000E+00  0.00000000000E+00  0.10633923018E+04  0.10633923018E+04  0.50400001928E-02 0. -1.
        1   -1    0    0  501    0  0.00000000000E+00  0.00000000000E+00 -0.13585836395E+04  0.13585836395E+04  0.50400001928E-02 0.  1.
    10030    2    1    2    0    0  0.00000000000E+00  0.00000000000E+00 -0.29519133772E+03  0.24219759413E+04  0.24039196189E+04 0.  0.
        4    1    3    3  502    0 -0.62478365820E+03 -0.96628469577E+03 -0.49754455451E+03  0.12536398723E+04  0.12699999809E+01 0.  1.
       -4    1    3    3    0  502  0.62478365820E+03  0.96628469577E+03  0.20235321679E+03  0.11683360690E+04  0.12699999809E+01 0. -1.
</event>
<event>
 5   0  0.1201438E-05  0.2598895E+04  0.7818609E-02  0.8368577E-01
        3   -1    0    0  501    0  0.00000000000E+00  0.00000000000E+00  0.10054385528E+04  0.10054385579E+04  0.10100000352E+00 0. -1.
       -3   -1    0    0    0  501  0.00000000000E+00  0.00000000000E+00 -0.16794302281E+04  0.16794302311E+04  0.10100000352E+00 0.  1.
    10030    2    1    2    0    0  0.00000000000E+00  0.00000000000E+00 -0.67399167528E+03  0.26848687890E+04  0.25988950798E+04 0.  0.
        1    1    3    3  502    0 -0.35297969502E+03  0.12504969045E+04 -0.32143997372E+03  0.13385293535E+04  0.50400001928E-02 0. -1.
       -1    1    3    3    0  502  0.35297969502E+03 -0.12504969045E+04 -0.35255170155E+03  0.13463394355E+04  0.50400001928E-02 0.  1.
</event>
<event>
 5   0  0.1421242E-05  0.2497263E+04  0.7818609E-02  0.8403961E-01
        1   -1    0    0  501    0  0.00000000000E+00  0.00000000000E+00  0.20565170038E+04  0.20565170038E+04  0.50400001928E-02 0. -1.
       -1   -1    0    0    0  501  0.00000000000E+00  0.00000000000E+00 -0.75811675814E+03  0.75811675816E+03  0.50400001928E-02 0.  1.
    10030    2    1    2    0    0  0.00000000000E+00  0.00000000000E+00  0.12984002456E+04  0.28146337619E+04  0.24972625044E+04 0.  0.
        3    1    3    3  502    0  0.74128379706E+02 -0.12158784662E+04  0.95832748283E+03  0.15499183965E+04  0.10100000352E+00 0.  1.
       -3    1    3    3    0  502 -0.74128379706E+02  0.12158784662E+04  0.34007276280E+03  0.12647153654E+04  0.10100000352E+00 0. -1.
</event>
<event>
 5   0  0.1421242E-05  0.2519938E+04  0.7818609E-02  0.8395917E-01
        1   -1    0    0  501    0  0.00000000000E+00  0.00000000000E+00  0.13715756761E+04  0.13715756761E+04  0.50400001928E-02 0.  1.
       -1   -1    0    0    0  501  0.00000000000E+00  0.00000000000E+00 -0.11574438193E+04  0.11574438193E+04  0.50400001928E-02 0. -1.
    10030    2    1    2    0    0  0.00000000000E+00  0.00000000000E+00  0.21413185681E+03  0.25290194955E+04  0.25199379271E+04 0.  0.
        3    1    3    3  502    0 -0.11290736638E+04 -0.55911430884E+03  0.96751231796E+02  0.12636364033E+04  0.10100000352E+00 0.  1.
       -3    1    3    3    0  502  0.11290736638E+04  0.55911430884E+03  0.11738062501E+03  0.12653830922E+04  0.10100000352E+00 0. -1.
</event>
<event>
 5   0  0.3578670E-05  0.2503917E+04  0.7818609E-02  0.8401591E-01
        2   -1    0    0  501    0  0.00000000000E+00  0.00000000000E+00  0.15239412423E+04  0.15239412423E+04  0.25500000920E-02 0.  1.
       -2   -1    0    0    0  501  0.00000000000E+00  0.00000000000E+00 -0.10285173791E+04  0.10285173791E+04  0.25500000920E-02 0. -1.
    10030    2    1    2    0    0  0.00000000000E+00  0.00000000000E+00  0.49542386318E+03  0.25524586214E+04  0.25039169735E+04 0.  0.
        4    1    3    3  502    0  0.42899404587E+03  0.96858920146E+02  0.14426052527E+04  0.15081541930E+04  0.12699999809E+01 0.  1.
       -4    1    3    3    0  502 -0.42899404587E+03 -0.96858920146E+02 -0.94718138950E+03  0.10443044285E+04  0.12699999809E+01 0. -1.
</event>
<event>
 5   0  0.3704241E-05  0.2516076E+04  0.7818609E-02  0.8397281E-01
        2   -1    0    0  501    0  0.00000000000E+00  0.00000000000E+00  0.20909870174E+04  0.20909870174E+04  0.25500000920E-02 0. -1.
       -2   -1    0    0    0  501  0.00000000000E+00  0.00000000000E+00 -0.75689611912E+03  0.75689611912E+03  0.25500000920E-02 0.  1.
    10030    2    1    2    0    0  0.00000000000E+00  0.00000000000E+00  0.13340908983E+04  0.28478831366E+04  0.25160762776E+04 0.  0.
        2    1    3    3  502    0  0.33991704468E+03 -0.31159434885E+03  0.19918830886E+04  0.20445617805E+04  0.25500000920E-02 0. -1.
       -2    1    3    3    0  502 -0.33991704468E+03  0.31159434885E+03 -0.65779219030E+03  0.80332135607E+03  0.25500000920E-02 0.  1.
</event>
<event>
 5   0  0.1421242E-05  0.2579787E+04  0.7818609E-02  0.8375100E-01
        1   -1    0    0  501    0  0.00000000000E+00  0.00000000000E+00  0.74129492400E+03  0.74129492402E+03  0.50400001928E-02 0. -1.
       -1   -1    0    0    0  501  0.00000000000E+00  0.00000000000E+00 -0.22444854657E+04  0.22444854657E+04  0.50400001928E-02 0.  1.
    10030    2    1    2    0    0  0.00000000000E+00  0.00000000000E+00 -0.15031905417E+04  0.29857803898E+04  0.25797873422E+04 0.  0.
        3    1    3    3  502    0 -0.50453225679E+03 -0.11745887204E+04 -0.55242521432E+03  0.13926180696E+04  0.10100000352E+00 0. -1.
       -3    1    3    3    0  502  0.50453225679E+03  0.11745887204E+04 -0.95076532741E+03  0.15931623201E+04  0.10100000352E+00 0.  1.
</event>
<event>
 5   0  0.3650620E-05  0.2509226E+04  0.7818609E-02  0.8399706E-01
       -2   -1    0    0    0  501  0.00000000000E+00  0.00000000000E+00  0.10840426105E+04  0.10840426105E+04  0.25500000920E-02 0. -1.
        2   -1    0    0  501    0  0.00000000000E+00  0.00000000000E+00 -0.14520225045E+04  0.14520225045E+04  0.25500000920E-02 0.  1.
    10030    2    1    2    0    0  0.00000000000E+00  0.00000000000E+00 -0.36797989397E+03  0.25360651150E+04  0.25092263878E+04 0.  0.
        3    1    3    3  502    0 -0.21637537775E+03  0.12340919726E+04 -0.24990216960E+03  0.12775963390E+04  0.10100000352E+00 0.  1.
       -3    1    3    3    0  502  0.21637537775E+03 -0.12340919726E+04 -0.11807772436E+03  0.12584687760E+04  0.10100000352E+00 0. -1.
</event>
<event>
 5   0  0.1456876E-05  0.2337505E+04  0.7818609E-02  0.8463279E-01
       -1   -1    0    0    0  501  0.00000000000E+00  0.00000000000E+00  0.14150004728E+04  0.14150004728E+04  0.50400001928E-02 0. -1.
        1   -1    0    0  501    0  0.00000000000E+00  0.00000000000E+00 -0.96535805621E+03  0.96535805622E+03  0.50400001928E-02 0.  1.
    10030    2    1    2    0    0  0.00000000000E+00  0.00000000000E+00  0.44964241663E+03  0.23803585291E+04  0.23375047431E+04 0.  0.
        1    1    3    3  502    0 -0.48461094727E+03  0.60753649065E+02  0.13060988810E+04  0.13944292966E+04  0.50400001928E-02 0. -1.
       -1    1    3    3    0  502  0.48461094727E+03 -0.60753649065E+02 -0.85645646439E+03  0.98592923250E+03  0.50400001928E-02 0.  1.
</event>
<event>
 5   0  0.1502886E-05  0.2431250E+04  0.7818609E-02  0.8427896E-01
       -1   -1    0    0    0  501  0.00000000000E+00  0.00000000000E+00  0.18919909914E+04  0.18919909914E+04  0.50400001928E-02 0.  1.
        1   -1    0    0  501    0  0.00000000000E+00  0.00000000000E+00 -0.78105248462E+03  0.78105248464E+03  0.50400001928E-02 0. -1.
    10030    2    1    2    0    0  0.00000000000E+00  0.00000000000E+00  0.11109385067E+04  0.26730434760E+04  0.24312501021E+04 0.  0.
        4    1    3    3  502    0  0.37191707517E+03  0.23980491178E+03  0.18002871444E+04  0.18538781303E+04  0.12699999809E+01 0.  1.
       -4    1    3    3    0  502 -0.37191707517E+03 -0.23980491178E+03 -0.68934863769E+03  0.81916534576E+03  0.12699999809E+01 0. -1.
</event>
<event>
 5   0  0.1492639E-05  0.1926092E+04  0.7818609E-02  0.8641977E-01
       -1   -1    0    0    0  501  0.00000000000E+00  0.00000000000E+00  0.71864271538E+03  0.71864271540E+03  0.50400001928E-02 0.  1.
        1   -1    0    0  501    0  0.00000000000E+00  0.00000000000E+00 -0.12905684714E+04  0.12905684714E+04  0.50400001928E-02 0. -1.
    10030    2    1    2    0    0  0.00000000000E+00  0.00000000000E+00 -0.57192575604E+03  0.20092111868E+04  0.19260920338E+04 0.  0.
        5    1    3    3  502    0 -0.82727501917E+03 -0.42171744978E+03 -0.55233713552E+03  0.10804295285E+04  0.46999998093E+01 0. -1.
       -5    1    3    3    0  502  0.82727501917E+03  0.42171744978E+03 -0.19588620523E+02  0.92878165833E+03  0.46999998093E+01 0.  1.
</event>
<event>
 5   0  0.3650620E-05  0.2451514E+04  0.7818609E-02  0.8420465E-01
        2   -1    0    0  501    0  0.00000000000E+00  0.00000000000E+00  0.16229835374E+04  0.16229835374E+04  0.25500000920E-02 0.  1.
       -2   -1    0    0    0  501  0.00000000000E+00  0.00000000000E+00 -0.92575195556E+03  0.92575195556E+03  0.25500000920E-02 0. -1.
    10030    2    1    2    0    0  0.00000000000E+00  0.00000000000E+00  0.69723158182E+03  0.25487354929E+04  0.24515139678E+04 0.  0.
        3    1    3    3  502    0 -0.59439111196E+03  0.56857072444E+03 -0.59621903409E+03  0.10158989170E+04  0.10100000352E+00 0. -1.
       -3    1    3    3    0  502  0.59439111196E+03 -0.56857072444E+03  0.12934506159E+04  0.15328365760E+04  0.10100000352E+00 0.  1.
</event>
<event>
 5   0  0.1456876E-05  0.2510985E+04  0.7818609E-02  0.8399083E-01
        1   -1    0    0  501    0  0.00000000000E+00  0.00000000000E+00  0.10781323918E+04  0.10781323918E+04  0.50400001928E-02 0. -1.
       -1   -1    0    0    0  501  0.00000000000E+00  0.00000000000E+00 -0.14620292214E+04  0.14620292214E+04  0.50400001928E-02 0.  1.
    10030    2    1    2    0    0  0.00000000000E+00  0.00000000000E+00 -0.38389682962E+03  0.25401616132E+04  0.25109847163E+04 0.  0.
        1    1    3    3  502    0 -0.37552123631E+03  0.43691070457E+03 -0.13204163824E+04  0.14406271501E+04  0.50400001928E-02 0.  1.
       -1    1    3    3    0  502  0.37552123631E+03 -0.43691070457E+03  0.93651955282E+03  0.10995344631E+04  0.50400001928E-02 0. -1.
</event>
<event>
 5   0  0.3581449E-05  0.2336029E+04  0.7818609E-02  0.8463849E-01
        2   -1    0    0  501    0  0.00000000000E+00  0.00000000000E+00  0.14445298964E+04  0.14445298964E+04  0.25500000920E-02 0. -1.
       -2   -1    0    0    0  501  0.00000000000E+00  0.00000000000E+00 -0.94443042350E+03  0.94443042351E+03  0.25500000920E-02 0.  1.
    10030    2    1    2    0    0  0.00000000000E+00  0.00000000000E+00  0.50009947289E+03  0.23889603199E+04  0.23360290938E+04 0.  0.
        1    1    3    3  502    0 -0.78896654597E+03 -0.39283195178E+03 -0.53378513640E+03  0.10303939659E+04  0.50400001928E-02 0.  1.
       -1    1    3    3    0  502  0.78896654597E+03  0.39283195178E+03  0.10338846093E+04  0.13585663540E+04  0.50400001928E-02 0. -1.
</event>
<event>
 5   0  0.1456876E-05  0.2645757E+04  0.7818609E-02  0.8352823E-01
        1   -1    0    0  501    0  0.00000000000E+00  0.00000000000E+00  0.23377979360E+04  0.23377979361E+04  0.50400001928E-02 0. -1.
       -1   -1    0    0    0  501  0.00000000000E+00  0.00000000000E+00 -0.74857110332E+03  0.74857110334E+03  0.50400001928E-02 0.  1.
    10030    2    1    2    0    0  0.00000000000E+00  0.00000000000E+00  0.15892268327E+04  0.30863690394E+04  0.26457573436E+04 0.  0.
        1    1    3    3  502    0  0.56475745745E+03 -0.11961578104E+04  0.77567787745E+03  0.15334342707E+04  0.50400001928E-02 0.  1.
       -1    1    3    3    0  502 -0.56475745745E+03  0.11961578104E+04  0.81354895528E+03  0.15529347687E+04  0.50400001928E-02 0. -1.
</event>
<event>
 5   0  0.1492639E-05  0.2420258E+04  0.7818609E-02  0.8431958E-01
        1   -1    0    0  501    0  0.00000000000E+00  0.00000000000E+00  0.17373620192E+04  0.17373620192E+04  0.50400001928E-02 0.  1.
       -1   -1    0    0    0  501  0.00000000000E+00  0.00000000000E+00 -0.84289394750E+03  0.84289394752E+03  0.50400001928E-02 0. -1.
    10030    2    1    2    0    0  0.00000000000E+00  0.00000000000E+00  0.89446807169E+03  0.25802559667E+04  0.24202577802E+04 0.  0.
        5    1    3    3  502    0  0.79580957982E+03  0.69857192505E+03 -0.17721242382E+03  0.10736582114E+04  0.46999998093E+01 0. -1.
       -5    1    3    3    0  502 -0.79580957982E+03 -0.69857192505E+03  0.10716804955E+04  0.15065977553E+04  0.46999998093E+01 0.  1.
</event>
<event>
 5   0  0.1429483E-05  0.2508331E+04  0.7818609E-02  0.8400024E-01
       -1   -1    0    0    0  501  0.00000000000E+00  0.00000000000E+00  0.11003418115E+04  0.11003418116E+04  0.50400001928E-02 0. -1.
        1   -1    0    0  501    0  0.00000000000E+00  0.00000000000E+00 -0.14294926029E+04  0.14294926029E+04  0.50400001928E-02 0.  1.
    10030    2    1    2    0    0  0.00000000000E+00  0.00000000000E+00 -0.32915079137E+03  0.25298344145E+04  0.25083305048E+04 0.  0.
        2    1    3    3  502    0  0.59994735424E+03  0.10952855608E+04 -0.28107842478E+03  0.12800751417E+04  0.25500000920E-02 0.  1.
       -2    1    3    3    0  502 -0.59994735424E+03 -0.10952855608E+04 -0.48072366591E+02  0.12497592728E+04  0.25500000920E-02 0. -1.
</event>
<event>
 5   0  0.1502886E-05  0.2462226E+04  0.7818609E-02  0.8416568E-01
        1   -1    0    0  501    0  0.00000000000E+00  0.00000000000E+00  0.19766343335E+04  0.19766343335E+04  0.50400001928E-02 0.  1.
       -1   -1    0    0    0  501  0.00000000000E+00  0.00000000000E+00 -0.76677761122E+03  0.76677761123E+03  0.50400001928E-02 0. -1.
    10030    2    1    2    0    0  0.00000000000E+00  0.00000000000E+00  0.12098567222E+04  0.27434119447E+04  0.24622257837E+04 0.  0.
        4    1    3    3  502    0 -0.21138391179E+03  0.30402383892E+03  0.19131166798E+04  0.19486227691E+04  0.12699999809E+01 0.  1.
       -4    1    3    3    0  502  0.21138391179E+03 -0.30402383892E+03 -0.70325995758E+03  0.79478917559E+03  0.12699999809E+01 0. -1.
</event>
<event>
 5   0  0.1492639E-05  0.2461604E+04  0.7818609E-02  0.8416793E-01
       -1   -1    0    0    0  501  0.00000000000E+00  0.00000000000E+00  0.70351280919E+03  0.70351280921E+03  0.50400001928E-02 0. -1.
        1   -1    0    0  501    0  0.00000000000E+00  0.00000000000E+00 -0.21532996085E+04  0.21532996085E+04  0.50400001928E-02 0.  1.
    10030    2    1    2    0    0  0.00000000000E+00  0.00000000000E+00 -0.14497867993E+04  0.28568124177E+04  0.24616042384E+04 0.  0.
        5    1    3    3  502    0  0.40736834049E+03  0.11494074788E+04 -0.91827461450E+03  0.15265440953E+04  0.46999998093E+01 0.  1.
       -5    1    3    3    0  502 -0.40736834049E+03 -0.11494074788E+04 -0.53151218478E+03  0.13302683224E+04  0.46999998093E+01 0. -1.
</event>
<event>
 5   0  0.3704241E-05  0.2479941E+04  0.7818609E-02  0.8410167E-01
       -2   -1    0    0    0  501  0.00000000000E+00  0.00000000000E+00  0.69461309016E+03  0.69461309016E+03  0.25500000920E-02 0. -1.
        2   -1    0    0  501    0  0.00000000000E+00  0.00000000000E+00 -0.22135005994E+04  0.22135005994E+04  0.25500000920E-02 0.  1.
    10030    2    1    2    0    0  0.00000000000E+00  0.00000000000E+00 -0.15188875093E+04  0.29081136896E+04  0.24799407182E+04 0.  0.
        2    1    3    3  502    0  0.24586357538E+03 -0.79151172469E+03 -0.18409509087E+04  0.20189204928E+04  0.25500000920E-02 0.  1.
       -2    1    3    3    0  502 -0.24586357538E+03  0.79151172469E+03  0.32206339940E+03  0.88919319682E+03  0.25500000920E-02 0. -1.
</event>
<event>
 5   0  0.1456876E-05  0.2511823E+04  0.7818609E-02  0.8398785E-01
        1   -1    0    0  501    0  0.00000000000E+00  0.00000000000E+00  0.94419930303E+03  0.94419930305E+03  0.50400001928E-02 0.  1.
       -1   -1    0    0    0  501  0.00000000000E+00  0.00000000000E+00 -0.16705310646E+04  0.16705310646E+04  0.50400001928E-02 0. -1.
    10030    2    1    2    0    0  0.00000000000E+00  0.00000000000E+00 -0.72633176155E+03  0.26147303676E+04  0.25118234547E+04 0.  0.
        1    1    3    3  502    0 -0.84153445192E+03  0.64506131571E+03 -0.10638160770E+04  0.15019950002E+04  0.50400001928E-02 0. -1.
       -1    1    3    3    0  502  0.84153445192E+03 -0.64506131571E+03  0.33748431547E+03  0.11127353675E+04  0.50400001928E-02 0.  1.
</event>
<event>
 5   0  0.1456876E-05  0.2452664E+04  0.7818609E-02  0.8420046E-01
       -1   -1    0    0    0  501  0.00000000000E+00  0.00000000000E+00  0.17985092628E+04  0.17985092628E+04  0.50400001928E-02 0. -1.
        1   -1    0    0  501    0  0.00000000000E+00  0.00000000000E+00 -0.83618685084E+03  0.83618685086E+03  0.50400001928E-02 0.  1.
    10030    2    1    2    0    0  0.00000000000E+00  0.00000000000E+00  0.96232241192E+03  0.26346961136E+04  0.24526636921E+04 0.  0.
        1    1    3    3  502    0 -0.10659356843E+04 -0.65586964663E+01  0.11324847221E+04  0.15552438862E+04  0.50400001928E-02 0. -1.
       -1    1    3    3    0  502  0.10659356843E+04  0.65586964663E+01 -0.17016231022E+03  0.10794522275E+04  0.50400001928E-02 0.  1.
</event>
<event>
 5   0  0.1421242E-05  0.2522095E+04  0.7818609E-02  0.8395156E-01
       -1   -1    0    0    0  501  0.00000000000E+00  0.00000000000E+00  0.12189076436E+04  0.12189076436E+04  0.50400001928E-02 0.  1.
        1   -1    0    0  501    0  0.00000000000E+00  0.00000000000E+00 -0.13046437623E+04  0.13046437623E+04  0.50400001928E-02 0. -1.
    10030    2    1    2    0    0  0.00000000000E+00  0.00000000000E+00 -0.85736118756E+02  0.25235514059E+04  0.25220945692E+04 0.  0.
        3    1    3    3  502    0 -0.48379214064E+03 -0.44708626342E+03  0.10330666473E+04  0.12252214780E+04  0.10100000352E+00 0.  1.
       -3    1    3    3    0  502  0.48379214064E+03  0.44708626342E+03 -0.11188027660E+04  0.12983299279E+04  0.10100000352E+00 0. -1.
</event>
<event>
 5   0  0.3578670E-05  0.2473701E+04  0.7818609E-02  0.8412415E-01
        2   -1    0    0  501    0  0.00000000000E+00  0.00000000000E+00  0.15601442779E+04  0.15601442779E+04  0.25500000920E-02 0.  1.
       -2   -1    0    0    0  501  0.00000000000E+00  0.00000000000E+00 -0.98055003167E+03  0.98055003168E+03  0.25500000920E-02 0. -1.
    10030    2    1    2    0    0  0.00000000000E+00  0.00000000000E+00  0.57959424621E+03  0.25406943096E+04  0.24737012925E+04 0.  0.
        4    1    3    3  502    0  0.22043951839E+03  0.22309197398E+03 -0.93903022552E+03  0.99002171060E+03  0.12699999809E+01 0. -1.
       -4    1    3    3    0  502 -0.22043951839E+03 -0.22309197398E+03  0.15186244717E+04  0.15506725990E+04  0.12699999809E+01 0.  1.
</event>
<event>
 5   0  0.1421242E-05  0.2546419E+04  0.7818609E-02  0.8386633E-01
       -1   -1    0    0    0  501  0.00000000000E+00  0.00000000000E+00  0.15399899224E+04  0.15399899224E+04  0.50400001928E-02 0.  1.
        1   -1    0    0  501    0  0.00000000000E+00  0.00000000000E+00 -0.10526446408E+04  0.10526446408E+04  0.50400001928E-02 0. -1.
    10030    2    1    2    0    0  0.00000000000E+00  0.00000000000E+00  0.48734528157E+03  0.25926345632E+04  0.25464187705E+04 0.  0.
        3    1    3    3  502    0 -0.62204602834E+03  0.95528294350E+03  0.82102289245E+03  0.14048435371E+04  0.10100000352E+00 0.  1.
       -3    1    3    3    0  502  0.62204602834E+03 -0.95528294350E+03 -0.33367761088E+03  0.11877910261E+04  0.10100000352E+00 0. -1.
</event>
<event>
 5   0  0.3578670E-05  0.2492101E+04  0.7818609E-02  0.8405805E-01
        2   -1    0    0  501    0  0.00000000000E+00  0.00000000000E+00  0.21084770948E+04  0.21084770948E+04  0.25500000920E-02 0.  1.
       -2   -1    0    0    0  501  0.00000000000E+00  0.00000000000E+00 -0.73638050168E+03  0.73638050169E+03  0.25500000920E-02 0. -1.
    10030    2    1    2    0    0  0.00000000000E+00  0.00000000000E+00  0.13720965931E+04  0.28448575965E+04  0.24921006568E+04 0.  0.
        4    1    3    3  502    0 -0.34144576455E+03  0.26515014127E+03  0.20201242528E+04  0.20658638429E+04  0.12699999809E+01 0.  1.
       -4    1    3    3    0  502  0.34144576455E+03 -0.26515014127E+03 -0.64802765970E+03  0.77899375362E+03  0.12699999809E+01 0. -1.
</event>
<event>
 5   0  0.3650620E-05  0.2412081E+04  0.7818609E-02  0.8434995E-01
        2   -1    0    0  501    0  0.00000000000E+00  0.00000000000E+00  0.15293009473E+04  0.15293009473E+04  0.25500000920E-02 0. -1.
       -2   -1    0    0    0  501  0.00000000000E+00  0.00000000000E+00 -0.95110980728E+03  0.95110980729E+03  0.25500000920E-02 0.  1.
    10030    2    1    2    0    0  0.00000000000E+00  0.00000000000E+00  0.57819114006E+03  0.24804107546E+04  0.24120805371E+04 0.  0.
        3    1    3    3  502    0 -0.61167998154E+02  0.11394573159E+04  0.69057662875E+03  0.13337918088E+04  0.10100000352E+00 0. -1.
       -3    1    3    3    0  502  0.61167998154E+02 -0.11394573159E+04 -0.11238548868E+03  0.11466189459E+04  0.10100000352E+00 0.  1.
</event>
<event>
 5   0  0.3581449E-05  0.2458288E+04  0.7818609E-02  0.8417998E-01
        2   -1    0    0  501    0  0.00000000000E+00  0.00000000000E+00  0.18050136170E+04  0.18050136170E+04  0.25500000920E-02 0. -1.
       -2   -1    0    0    0  501  0.00000000000E+00  0.00000000000E+00 -0.83699902951E+03  0.83699902951E+03  0.25500000920E-02 0.  1.
    10030    2    1    2    0    0  0.00000000000E+00  0.00000000000E+00  0.96801458751E+03  0.26420126465E+04  0.24582877339E+04 0.  0.
        1    1    3    3  502    0  0.10794088052E+04  0.25286334348E+03 -0.86445628933E+02  0.11119964416E+04  0.50400001928E-02 0.  1.
       -1    1    3    3    0  502 -0.10794088052E+04 -0.25286334348E+03  0.10544602164E+04  0.15300162049E+04  0.50400001928E-02 0. -1.
</event>
<event>
 5   0  0.3578670E-05  0.2481090E+04  0.7818609E-02  0.8409753E-01
        2   -1    0    0  501    0  0.00000000000E+00  0.00000000000E+00  0.22365220978E+04  0.22365220978E+04  0.25500000920E-02 0.  1.
       -2   -1    0    0    0  501  0.00000000000E+00  0.00000000000E+00 -0.68810036685E+03  0.68810036685E+03  0.25500000920E-02 0. -1.
    10030    2    1    2    0    0  0.00000000000E+00  0.00000000000E+00  0.15484217309E+04  0.29246224646E+04  0.24810898218E+04 0.  0.
        4    1    3    3  502    0  0.93265765116E+03 -0.80119724595E+03  0.57986560454E+03  0.13594164386E+04  0.12699999809E+01 0. -1.
       -4    1    3    3    0  502 -0.93265765116E+03  0.80119724595E+03  0.96855612640E+03  0.15652060261E+04  0.12699999809E+01 0.  1.
</event>
<event>
 5   0  0.1421242E-05  0.2528548E+04  0.7818609E-02  0.8392885E-01
        1   -1    0    0  501    0  0.00000000000E+00  0.00000000000E+00  0.58054283781E+03  0.58054283783E+03  0.50400001928E-02 0. -1.
       -1   -1    0    0    0  501  0.00000000000E+00  0.00000000000E+00 -0.27532663543E+04  0.27532663543E+04  0.50400001928E-02 0.  1.
    10030    2    1    2    0    0  0.00000000000E+00  0.00000000000E+00 -0.21727235165E+04  0.33338091921E+04  0.25285482496E+04 0.  0.
        3    1    3    3  502    0 -0.82832677101E+03 -0.86239318733E+03 -0.16276434186E+04  0.20196708538E+04  0.10100000352E+00 0.  1.
       -3    1    3    3    0  502  0.82832677101E+03  0.86239318733E+03 -0.54508009786E+03  0.13141383384E+04  0.10100000352E+00 0. -1.
</event>
<event>
 5   0  0.3650620E-05  0.2473807E+04  0.7818609E-02  0.8412377E-01
        2   -1    0    0  501    0  0.00000000000E+00  0.00000000000E+00  0.12428741857E+04  0.12428741857E+04  0.25500000920E-02 0. -1.
       -2   -1    0    0    0  501  0.00000000000E+00  0.00000000000E+00 -0.12309614981E+04  0.12309614981E+04  0.25500000920E-02 0.  1.
    10030    2    1    2    0    0  0.00000000000E+00  0.00000000000E+00  0.11912687673E+02  0.24738356838E+04  0.24738070010E+04 0.  0.
        3    1    3    3  502    0  0.79930744826E+03 -0.23863221993E+03  0.91925359454E+03  0.12413157997E+04  0.10100000352E+00 0. -1.
       -3    1    3    3    0  502 -0.79930744826E+03  0.23863221993E+03 -0.90734090687E+03  0.12325198841E+04  0.10100000352E+00 0.  1.
</event>
<event>
 5   0  0.1421242E-05  0.2823292E+04  0.7818609E-02  0.8296074E-01
        1   -1    0    0  501    0  0.00000000000E+00  0.00000000000E+00  0.12141149956E+04  0.12141149956E+04  0.50400001928E-02 0.  1.
       -1   -1    0    0    0  501  0.00000000000E+00  0.00000000000E+00 -0.16413140205E+04  0.16413140205E+04  0.50400001928E-02 0. -1.
    10030    2    1    2    0    0  0.00000000000E+00  0.00000000000E+00 -0.42719902486E+03  0.28554290161E+04  0.28232916710E+04 0.  0.
        3    1    3    3  502    0  0.33716453594E+03  0.11686535394E+03  0.11677461446E+04  0.12210522117E+04  0.10100000352E+00 0.  1.
       -3    1    3    3    0  502 -0.33716453594E+03 -0.11686535394E+03 -0.15949451694E+04  0.16343768045E+04  0.10100000352E+00 0. -1.
</event>
<event>
 5   0  0.3578670E-05  0.2489533E+04  0.7818609E-02  0.8406724E-01
       -2   -1    0    0    0  501  0.00000000000E+00  0.00000000000E+00  0.72018421674E+03  0.72018421675E+03  0.25500000920E-02 0. -1.
        2   -1    0    0  501    0  0.00000000000E+00  0.00000000000E+00 -0.21514549096E+04  0.21514549096E+04  0.25500000920E-02 0.  1.
    10030    2    1    2    0    0  0.00000000000E+00  0.00000000000E+00 -0.14312706928E+04  0.28716391263E+04  0.24895331843E+04 0.  0.
        4    1    3    3  502    0 -0.20243788189E+03  0.74473931957E+03 -0.18421742148E+04  0.19973044837E+04  0.12699999809E+01 0.  1.
       -4    1    3    3    0  502  0.20243788189E+03 -0.74473931957E+03  0.41090352191E+03  0.87433464265E+03  0.12699999809E+01 0. -1.
</event>
<event>
 5   0  0.3704241E-05  0.2500595E+04  0.7818609E-02  0.8402774E-01
        2   -1    0    0  501    0  0.00000000000E+00  0.00000000000E+00  0.11882341652E+04  0.11882341652E+04  0.25500000920E-02 0. -1.
       -2   -1    0    0    0  501  0.00000000000E+00  0.00000000000E+00 -0.13156023168E+04  0.13156023168E+04  0.25500000920E-02 0.  1.
    10030    2    1    2    0    0  0.00000000000E+00  0.00000000000E+00 -0.12736815164E+03  0.25038364820E+04  0.25005948257E+04 0.  0.
        2    1    3    3  502    0  0.10807640281E+04 -0.31083839349E+02 -0.69237263768E+03  0.12838991234E+04  0.25500000920E-02 0.  1.
       -2    1    3    3    0  502 -0.10807640281E+04  0.31083839349E+02  0.56500448604E+03  0.12199373586E+04  0.25500000920E-02 0. -1.
</event>
<event>
 5   0  0.3581449E-05  0.2516405E+04  0.7818609E-02  0.8397164E-01
        2   -1    0    0  501    0  0.00000000000E+00  0.00000000000E+00  0.22879325578E+04  0.22879325578E+04  0.25500000920E-02 0. -1.
       -2   -1    0    0    0  501  0.00000000000E+00  0.00000000000E+00 -0.69192335228E+03  0.69192335229E+03  0.25500000920E-02 0.  1.
    10030    2    1    2    0    0  0.00000000000E+00  0.00000000000E+00  0.15960092055E+04  0.29798559101E+04  0.25164053451E+04 0.  0.
        1    1    3    3  502    0 -0.97868997696E+03  0.25065859921E+03 -0.90053220638E+02  0.10142846676E+04  0.50400001928E-02 0.  1.
       -1    1    3    3    0  502  0.97868997696E+03 -0.25065859921E+03  0.16860624261E+04  0.19655712425E+04  0.50400001928E-02 0. -1.
</event>
<event>
 5   0  0.3650620E-05  0.2553461E+04  0.7818609E-02  0.8384183E-01
        2   -1    0    0  501    0  0.00000000000E+00  0.00000000000E+00  0.19336335462E+04  0.19336335462E+04  0.25500000920E-02 0.  1.
       -2   -1    0    0    0  501  0.00000000000E+00  0.00000000000E+00 -0.84299385605E+03  0.84299385605E+03  0.25500000920E-02 0. -1.
    10030    2    1    2    0    0  0.00000000000E+00  0.00000000000E+00  0.10906396902E+04  0.27766274023E+04  0.25534613366E+04 0.  0.
        3    1    3    3  502    0  0.72260181373E+02  0.90791017420E+03  0.15182330075E+04  0.17704671399E+04  0.10100000352E+00 0.  1.
       -3    1    3    3    0  502 -0.72260181373E+02 -0.90791017420E+03 -0.42759331738E+03  0.10061602623E+04  0.10100000352E+00 0. -1.
</event>
<event>
 5   0  0.3704241E-05  0.2509389E+04  0.7818609E-02  0.8399648E-01
        2   -1    0    0  501    0  0.00000000000E+00  0.00000000000E+00  0.12652586369E+04  0.12652586369E+04  0.25500000920E-02 0. -1.
       -2   -1    0    0    0  501  0.00000000000E+00  0.00000000000E+00 -0.12442182923E+04  0.12442182923E+04  0.25500000920E-02 0.  1.
    10030    2    1    2    0    0  0.00000000000E+00  0.00000000000E+00  0.21040344627E+02  0.25094769292E+04  0.25093887228E+04 0.  0.
        2    1    3    3  502    0  0.13815855814E+03 -0.10892563680E+04  0.61774059188E+03  0.12598296160E+04  0.25500000920E-02 0. -1.
       -2    1    3    3    0  502 -0.13815855814E+03  0.10892563680E+04 -0.59670024726E+03  0.12496473132E+04  0.25500000920E-02 0.  1.
</event>
<event>
 5   0  0.1502886E-05  0.2509983E+04  0.7818609E-02  0.8399438E-01
       -1   -1    0    0    0  501  0.00000000000E+00  0.00000000000E+00  0.93266362904E+03  0.93266362906E+03  0.50400001928E-02 0.  1.
        1   -1    0    0  501    0  0.00000000000E+00  0.00000000000E+00 -0.16887157353E+04  0.16887157353E+04  0.50400001928E-02 0. -1.
    10030    2    1    2    0    0  0.00000000000E+00  0.00000000000E+00 -0.75605210623E+03  0.26213793643E+04  0.25099830646E+04 0.  0.
        4    1    3    3  502    0  0.59555559548E+03 -0.35197723117E+03 -0.14716023378E+04  0.16260963969E+04  0.12699999809E+01 0. -1.
       -4    1    3    3    0  502 -0.59555559548E+03  0.35197723117E+03  0.71555023153E+03  0.99528296745E+03  0.12699999809E+01 0.  1.
</event>
<event>
 5   0  0.1429483E-05  0.2339779E+04  0.7818609E-02  0.8462400E-01
        1   -1    0    0  501    0  0.00000000000E+00  0.00000000000E+00  0.10648488182E+04  0.10648488183E+04  0.50400001928E-02 0. -1.
       -1   -1    0    0    0  501  0.00000000000E+00  0.00000000000E+00 -0.12852921783E+04  0.12852921783E+04  0.50400001928E-02 0.  1.
    10030    2    1    2    0    0  0.00000000000E+00  0.00000000000E+00 -0.22044336005E+03  0.23501409966E+04  0.23397793547E+04 0.  0.
        2    1    3    3  502    0 -0.84455186191E+03  0.11738162074E+03  0.69432211639E+03  0.10996042441E+04  0.25500000920E-02 0. -1.
       -2    1    3    3    0  502  0.84455186191E+03 -0.11738162074E+03 -0.91476547644E+03  0.12505367524E+04  0.25500000920E-02 0.  1.
</event>
<event>
 5   0  0.1502886E-05  0.2526536E+04  0.7818609E-02  0.8393593E-01
        1   -1    0    0  501    0  0.00000000000E+00  0.00000000000E+00  0.92122740279E+03  0.92122740280E+03  0.50400001928E-02 0. -1.
       -1   -1    0    0    0  501  0.00000000000E+00  0.00000000000E+00 -0.17323037474E+04  0.17323037474E+04  0.50400001928E-02 0.  1.
    10030    2    1    2    0    0  0.00000000000E+00  0.00000000000E+00 -0.81107634456E+03  0.26535311502E+04  0.25265357168E+04 0.  0.
        4    1    3    3  502    0 -0.10462849370E+04  0.21368923177E+03 -0.11143452904E+04  0.15434190281E+04  0.12699999809E+01 0.  1.
       -4    1    3    3    0  502  0.10462849370E+04 -0.21368923177E+03  0.30326894584E+03  0.11101121221E+04  0.12699999809E+01 0. -1.
</event>
<event>
 5   0  0.1492639E-05  0.2451103E+04  0.7818609E-02  0.8420615E-01
        1   -1    0    0  501    0  0.00000000000E+00  0.00000000000E+00  0.14606402366E+04  0.14606402366E+04  0.50400001928E-02 0.  1.
       -1   -1    0    0    0  501  0.00000000000E+00  0.00000000000E+00 -0.10283003574E+04  0.10283003574E+04  0.50400001928E-02 0. -1.
    10030    2    1    2    0    0  0.00000000000E+00  0.00000000000E+00  0.43233987919E+03  0.24889405941E+04  0.24511033250E+04 0.  0.
        5    1    3    3  502    0  0.46517375675E+03  0.68877421085E+03  0.11307162599E+04  0.14033309973E+04  0.46999998093E+01 0.  1.
       -5    1    3    3    0  502 -0.46517375675E+03 -0.68877421085E+03 -0.69837638071E+03  0.10856095968E+04  0.46999998093E+01 0. -1.
</event>
<event>
 5   0  0.1492639E-05  0.2520579E+04  0.7818609E-02  0.8395691E-01
        1   -1    0    0  501    0  0.00000000000E+00  0.00000000000E+00  0.18731581544E+04  0.18731581544E+04  0.50400001928E-02 0.  1.
       -1   -1    0    0    0  501  0.00000000000E+00  0.00000000000E+00 -0.84794223531E+03  0.84794223532E+03  0.50400001928E-02 0. -1.
    10030    2    1    2    0    0  0.00000000000E+00  0.00000000000E+00  0.10252159191E+04  0.27211003898E+04  0.25205792291E+04 0.  0.
        5    1    3    3  502    0  0.42666076436E+03 -0.78438006759E+03  0.14727532024E+04  0.17222995046E+04  0.46999998093E+01 0.  1.
       -5    1    3    3    0  502 -0.42666076436E+03  0.78438006759E+03 -0.44753728329E+03  0.99880088517E+03  0.46999998093E+01 0. -1.
</event>
<event>
 5   0  0.3650620E-05  0.2508899E+04  0.7818609E-02  0.8399822E-01
        2   -1    0    0  501    0  0.00000000000E+00  0.00000000000E+00  0.13458086614E+04  0.13458086614E+04  0.25500000920E-02 0. -1.
       -2   -1    0    0    0  501  0.00000000000E+00  0.00000000000E+00 -0.11692918666E+04  0.11692918666E+04  0.25500000920E-02 0.  1.
    10030    2    1    2    0    0  0.00000000000E+00  0.00000000000E+00  0.17651679484E+03  0.25151005279E+04  0.25088986601E+04 0.  0.
        3    1    3    3  502    0 -0.11372096697E+04 -0.38179827700E+03 -0.27956460451E+03  0.12317354162E+04  0.10100000352E+00 0.  1.
       -3    1    3    3    0  502  0.11372096697E+04  0.38179827700E+03  0.45608139935E+03  0.12833651118E+04  0.10100000352E+00 0. -1.
</event>
<event>
 5   0  0.3650620E-05  0.2491294E+04  0.7818609E-02  0.8406094E-01
        2   -1    0    0  501    0  0.00000000000E+00  0.00000000000E+00  0.13563422094E+04  0.13563422094E+04  0.25500000920E-02 0. -1.
       -2   -1    0    0    0  501  0.00000000000E+00  0.00000000000E+00 -0.11439856389E+04  0.11439856389E+04  0.25500000920E-02 0.  1.
    10030    2    1    2    0    0  0.00000000000E+00  0.00000000000E+00  0.21235657049E+03  0.25003278484E+04  0.24912936471E+04 0.  0.
        3    1    3    3  502    0  0.17917338082E+02 -0.65455476287E+03 -0.95732139313E+03  0.11598393115E+04  0.10100000352E+00 0.  1.
       -3    1    3    3    0  502 -0.17917338082E+02  0.65455476287E+03  0.11696779636E+04  0.13404885368E+04  0.10100000352E+00 0. -1.
</event>
<event>
 5   0  0.1201438E-05  0.2526289E+04  0.7818609E-02  0.8393679E-01
       -3   -1    0    0    0  501  0.00000000000E+00  0.00000000000E+00  0.97263451602E+03  0.97263452126E+03  0.10100000352E+00 0.  1.
        3   -1    0    0  501    0  0.00000000000E+00  0.00000000000E+00 -0.16404245763E+04  0.16404245794E+04  0.10100000352E+00 0. -1.
    10030    2    1    2    0    0  0.00000000000E+00  0.00000000000E+00 -0.66779006029E+03  0.26130591007E+04  0.25262886413E+04 0.  0.
        4    1    3    3  502    0 -0.63868391398E+03  0.90555119875E+03  0.29322287090E+03  0.11462640972E+04  0.12699999809E+01 0.  1.
       -4    1    3    3    0  502  0.63868391398E+03 -0.90555119875E+03 -0.96101293118E+03  0.14667950035E+04  0.12699999809E+01 0. -1.
</event>
<event>
 5   0  0.3581449E-05  0.2364234E+04  0.7818609E-02  0.8453016E-01
        2   -1    0    0  501    0  0.00000000000E+00  0.00000000000E+00  0.12750126495E+04  0.12750126495E+04  0.25500000920E-02 0.  1.
       -2   -1    0    0    0  501  0.00000000000E+00  0.00000000000E+00 -0.10959899011E+04  0.10959899011E+04  0.25500000920E-02 0. -1.
    10030    2    1    2    0    0  0.00000000000E+00  0.00000000000E+00  0.17902274832E+03  0.23710025506E+04  0.23642343265E+04 0.  0.
        1    1    3    3  502    0 -0.82821779844E+03  0.13906950444E+03 -0.74480530914E+03  0.11225061235E+04  0.50400001928E-02 0. -1.
       -1    1    3    3    0  502  0.82821779844E+03 -0.13906950444E+03  0.92382805746E+03  0.12484964271E+04  0.50400001928E-02 0.  1.
</event>
<event>
 5   0  0.1429483E-05  0.2564557E+04  0.7818609E-02  0.8380341E-01
        1   -1    0    0  501    0  0.00000000000E+00  0.00000000000E+00  0.12760364205E+04  0.12760364205E+04  0.50400001928E-02 0.  1.
       -1   -1    0    0    0  501  0.00000000000E+00  0.00000000000E+00 -0.12885510541E+04  0.12885510541E+04  0.50400001928E-02 0. -1.
    10030    2    1    2    0    0  0.00000000000E+00  0.00000000000E+00 -0.12514633543E+02  0.25645874746E+04  0.25645569401E+04 0.  0.
        2    1    3    3  502    0 -0.49067540052E+03 -0.87427701879E+03 -0.80571378188E+03  0.12861949124E+04  0.25500000920E-02 0. -1.
       -2    1    3    3    0  502  0.49067540052E+03  0.87427701879E+03  0.79319914834E+03  0.12783925622E+04  0.25500000920E-02 0.  1.
</event>
<event>
 5   0  0.3650620E-05  0.2485903E+04  0.7818609E-02  0.8408025E-01
       -2   -1    0    0    0  501  0.00000000000E+00  0.00000000000E+00  0.12136820975E+04  0.12136820975E+04  0.25500000920E-02 0. -1.
        2   -1    0    0  501    0  0.00000000000E+00  0.00000000000E+00 -0.12729269329E+04  0.12729269329E+04  0.25500000920E-02 0.  1.
    10030    2    1    2    0    0  0.00000000000E+00  0.00000000000E+00 -0.59244835357E+02  0.24866090304E+04  0.24859031597E+04 0.  0.
        3    1    3    3  502    0  0.33113757819E+02  0.47488137723E+02 -0.12715775535E+04  0.12728947831E+04  0.10100000352E+00 0.  1.
       -3    1    3    3    0  502 -0.33113757819E+02 -0.47488137723E+02  0.12123327181E+04  0.12137142472E+04  0.10100000352E+00 0. -1.
</event>
<event>
 5   0  0.3578670E-05  0.2478604E+04  0.7818609E-02  0.8410648E-01
        2   -1    0    0  501    0  0.00000000000E+00  0.00000000000E+00  0.19169704863E+04  0.19169704864E+04  0.25500000920E-02 0.  1.
       -2   -1    0    0    0  501  0.00000000000E+00  0.00000000000E+00 -0.80119621978E+03  0.80119621978E+03  0.25500000920E-02 0. -1.
    10030    2    1    2    0    0  0.00000000000E+00  0.00000000000E+00  0.11157742666E+04  0.27181667061E+04  0.24786040483E+04 0.  0.
        4    1    3    3  502    0  0.12010918974E+04  0.17678544589E+03  0.28483822096E+03  0.12470001062E+04  0.12699999809E+01 0. -1.
       -4    1    3    3    0  502 -0.12010918974E+04 -0.17678544589E+03  0.83093604561E+03  0.14711665999E+04  0.12699999809E+01 0.  1.
</event>
<event>
 5   0  0.3579097E-05  0.2496933E+04  0.7818609E-02  0.8404079E-01
        2   -1    0    0  501    0  0.00000000000E+00  0.00000000000E+00  0.20146630584E+04  0.20146630584E+04  0.25500000920E-02 0.  1.
       -2   -1    0    0    0  501  0.00000000000E+00  0.00000000000E+00 -0.77366217598E+03  0.77366217599E+03  0.25500000920E-02 0. -1.
    10030    2    1    2    0    0  0.00000000000E+00  0.00000000000E+00  0.12410008824E+04  0.27883252344E+04  0.24969330032E+04 0.  0.
        5    1    3    3  502    0  0.88890366045E+03 -0.44666565368E+03 -0.22183981334E+03  0.10192619470E+04  0.46999998093E+01 0. -1.
       -5    1    3    3    0  502 -0.88890366045E+03  0.44666565368E+03  0.14628406957E+04  0.17690632874E+04  0.46999998093E+01 0.  1.
</event>
<event>
 5   0  0.1456876E-05  0.2485925E+04  0.7818609E-02  0.8408017E-01
       -1   -1    0    0    0  501  0.00000000000E+00  0.00000000000E+00  0.72024084147E+03  0.72024084148E+03  0.50400001928E-02 0. -1.
        1   -1    0    0  501    0  0.00000000000E+00  0.00000000000E+00 -0.21450540467E+04  0.21450540467E+04  0.50400001928E-02 0.  1.
    10030    2    1    2    0    0  0.00000000000E+00  0.00000000000E+00 -0.14248132053E+04  0.28652948882E+04  0.24859248031E+04 0.  0.
        1    1    3    3  502    0  0.42933025849E+03 -0.67065832819E+03  0.38762307848E+03  0.88564028534E+03  0.50400001928E-02 0. -1.
       -1    1    3    3    0  502 -0.42933025849E+03  0.67065832819E+03 -0.18124362838E+04  0.19796546029E+04  0.50400001928E-02 0.  1.
</event>
<event>
 5   0  0.1421242E-05  0.2481176E+04  0.7818609E-02  0.8409723E-01
       -1   -1    0    0    0  501  0.00000000000E+00  0.00000000000E+00  0.10150122047E+04  0.10150122047E+04  0.50400001928E-02 0. -1.
        1   -1    0    0  501    0  0.00000000000E+00  0.00000000000E+00 -0.15162953592E+04  0.15162953592E+04  0.50400001928E-02 0.  1.
    10030    2    1    2    0    0  0.00000000000E+00  0.00000000000E+00 -0.50128315451E+03  0.25313075639E+04  0.24811757660E+04 0.  0.
        3    1    3    3  502    0  0.69768802027E+03  0.76287278443E+03 -0.95029299919E+03  0.14042080520E+04  0.10100000352E+00 0.  1.
       -3    1    3    3    0  502 -0.69768802027E+03 -0.76287278443E+03  0.44900984467E+03  0.11270995119E+04  0.10100000352E+00 0. -1.
</event>
<event>
 5   0  0.1502886E-05  0.2526021E+04  0.7818609E-02  0.8393774E-01
       -1   -1    0    0    0  501  0.00000000000E+00  0.00000000000E+00  0.12078283628E+04  0.12078283628E+04  0.50400001928E-02 0.  1.
        1   -1    0    0  501    0  0.00000000000E+00  0.00000000000E+00 -0.13207134114E+04  0.13207134114E+04  0.50400001928E-02 0. -1.
    10030    2    1    2    0    0  0.00000000000E+00  0.00000000000E+00 -0.11288504862E+03  0.25285417741E+04  0.25260206787E+04 0.  0.
        4    1    3    3  502    0 -0.21974484625E+03  0.36830427722E+03 -0.12455918354E+04  0.13173596591E+04  0.12699999809E+01 0. -1.
       -4    1    3    3    0  502  0.21974484625E+03 -0.36830427722E+03  0.11327067868E+04  0.12111821150E+04  0.12699999809E+01 0.  1.
</event>
<event>
 5   0  0.1492639E-05  0.2474889E+04  0.7818609E-02  0.8411986E-01
        1   -1    0    0  501    0  0.00000000000E+00  0.00000000000E+00  0.17938150175E+04  0.17938150175E+04  0.50400001928E-02 0.  1.
       -1   -1    0    0    0  501  0.00000000000E+00  0.00000000000E+00 -0.85363802108E+03  0.85363802109E+03  0.50400001928E-02 0. -1.
    10030    2    1    2    0    0  0.00000000000E+00  0.00000000000E+00  0.94017699644E+03  0.26474530386E+04  0.24748888474E+04 0.  0.
        5    1    3    3  502    0 -0.11482883997E+04  0.40287529052E+03  0.71017435346E+03  0.14089870301E+04  0.46999998093E+01 0. -1.
       -5    1    3    3    0  502  0.11482883997E+04 -0.40287529052E+03  0.23000264298E+03  0.12384660086E+04  0.46999998093E+01 0.  1.
</event>
<event>
 5   0  0.3650620E-05  0.2403691E+04  0.7818609E-02  0.8438123E-01
        2   -1    0    0  501    0  0.00000000000E+00  0.00000000000E+00  0.18445875548E+04  0.18445875548E+04  0.25500000920E-02 0.  1.
       -2   -1    0    0    0  501  0.00000000000E+00  0.00000000000E+00 -0.78306549104E+03  0.78306549104E+03  0.25500000920E-02 0. -1.
    10030    2    1    2    0    0  0.00000000000E+00  0.00000000000E+00  0.10615220638E+04  0.26276530459E+04  0.24036912109E+04 0.  0.
        3    1    3    3  502    0 -0.47793794567E+03  0.48388189704E+03  0.16139782680E+04  0.17514257706E+04  0.10100000352E+00 0.  1.
       -3    1    3    3    0  502  0.47793794567E+03 -0.48388189704E+03 -0.55245620419E+03  0.87622727528E+03  0.10100000352E+00 0. -1.
</event>
<event>
 5   0  0.1429483E-05  0.2472411E+04  0.7818609E-02  0.8412881E-01
       -1   -1    0    0    0  501  0.00000000000E+00  0.00000000000E+00  0.21416868141E+04  0.21416868141E+04  0.50400001928E-02 0. -1.
        1   -1    0    0  501    0  0.00000000000E+00  0.00000000000E+00 -0.71355173877E+03  0.71355173878E+03  0.50400001928E-02 0.  1.
    10030    2    1    2    0    0  0.00000000000E+00  0.00000000000E+00  0.14281350753E+04  0.28552385529E+04  0.24724112523E+04 0.  0.
        2    1    3    3  502    0  0.51573012155E+03  0.50713908503E+03  0.18718118515E+04  0.20067005799E+04  0.25500000920E-02 0. -1.
       -2    1    3    3    0  502 -0.51573012155E+03 -0.50713908503E+03 -0.44367677620E+03  0.84853797298E+03  0.25500000920E-02 0.  1.
</event>
<event>
 5   0  0.1502886E-05  0.2450962E+04  0.7818609E-02  0.8420667E-01
       -1   -1    0    0    0  501  0.00000000000E+00  0.00000000000E+00  0.11188734577E+04  0.11188734577E+04  0.50400001928E-02 0.  1.
        1   -1    0    0  501    0  0.00000000000E+00  0.00000000000E+00 -0.13422463591E+04  0.13422463591E+04  0.50400001928E-02 0. -1.
    10030    2    1    2    0    0  0.00000000000E+00  0.00000000000E+00 -0.22337290140E+03  0.24611198169E+04  0.24509621172E+04 0.  0.
        4    1    3    3  502    0  0.60489530398E+02  0.11266476854E+04 -0.59200788961E+03  0.12741542075E+04  0.12699999809E+01 0. -1.
       -4    1    3    3    0  502 -0.60489530398E+02 -0.11266476854E+04  0.36863498821E+03  0.11869656093E+04  0.12699999809E+01 0.  1.
</event>
<event>
 5   0  0.1421242E-05  0.2490779E+04  0.7818609E-02  0.8406278E-01
       -1   -1    0    0    0  501  0.00000000000E+00  0.00000000000E+00  0.11038208225E+04  0.11038208225E+04  0.50400001928E-02 0.  1.
        1   -1    0    0  501    0  0.00000000000E+00  0.00000000000E+00 -0.14051153551E+04  0.14051153551E+04  0.50400001928E-02 0. -1.
    10030    2    1    2    0    0  0.00000000000E+00  0.00000000000E+00 -0.30129453268E+03  0.25089361776E+04  0.24907794659E+04 0.  0.
        3    1    3    3  502    0  0.73796040306E+03  0.86473500047E+03 -0.66292447782E+03  0.13159867214E+04  0.10100000352E+00 0. -1.
       -3    1    3    3    0  502 -0.73796040306E+03 -0.86473500047E+03  0.36162994514E+03  0.11929494562E+04  0.10100000352E+00 0.  1.
</event>
<event>
 5   0  0.1502886E-05  0.2504958E+04  0.7818609E-02  0.8401221E-01
        1   -1    0    0  501    0  0.00000000000E+00  0.00000000000E+00  0.23100411932E+04  0.23100411932E+04  0.50400001928E-02 0.  1.
       -1   -1    0    0    0  501  0.00000000000E+00  0.00000000000E+00 -0.67908062634E+03  0.67908062636E+03  0.50400001928E-02 0. -1.
    10030    2    1    2    0    0  0.00000000000E+00  0.00000000000E+00  0.16309605669E+04  0.29891218196E+04  0.25049584591E+04 0.  0.
        4    1    3    3  502    0  0.42497728782E+03 -0.11219652633E+04  0.12445491463E+04  0.17286746188E+04  0.12699999809E+01 0.  1.
       -4    1    3    3    0  502 -0.42497728782E+03  0.11219652633E+04  0.38641142060E+03  0.12604472008E+04  0.12699999809E+01 0. -1.
</event>
<event>
 5   0  0.3704241E-05  0.2566887E+04  0.7818609E-02  0.8379537E-01
       -2   -1    0    0    0  501  0.00000000000E+00  0.00000000000E+00  0.15269055403E+04  0.15269055403E+04  0.25500000920E-02 0.  1.
        2   -1    0    0  501    0  0.00000000000E+00  0.00000000000E+00 -0.10788013304E+04  0.10788013304E+04  0.25500000920E-02 0. -1.
    10030    2    1    2    0    0  0.00000000000E+00  0.00000000000E+00  0.44810420994E+03  0.26057068707E+04  0.25668873978E+04 0.  0.
        2    1    3    3  502    0 -0.11601374580E+04  0.25844552308E+03  0.71564295713E+03  0.13873924650E+04  0.25500000920E-02 0. -1.
       -2    1    3    3    0  502  0.11601374580E+04 -0.25844552308E+03 -0.26753874719E+03  0.12183144057E+04  0.25500000920E-02 0.  1.
</event>
<event>
 5   0  0.3579097E-05  0.2481016E+04  0.7818609E-02  0.8409780E-01
        2   -1    0    0  501    0  0.00000000000E+00  0.00000000000E+00  0.10830218782E+04  0.10830218782E+04  0.25500000920E-02 0.  1.
       -2   -1    0    0    0  501  0.00000000000E+00  0.00000000000E+00 -0.14208949634E+04  0.14208949634E+04  0.25500000920E-02 0. -1.
    10030    2    1    2    0    0  0.00000000000E+00  0.00000000000E+00 -0.33787308517E+03  0.25039168417E+04  0.24810161886E+04 0.  0.
        5    1    3    3  502    0  0.28595983759E+03  0.31421985142E+03 -0.13451689074E+04  0.14106766543E+04  0.46999998093E+01 0. -1.
       -5    1    3    3    0  502 -0.28595983759E+03 -0.31421985142E+03  0.10072958222E+04  0.10932401873E+04  0.46999998093E+01 0.  1.
</event>
<event>
 5   0  0.3650620E-05  0.2513502E+04  0.7818609E-02  0.8398191E-01
       -2   -1    0    0    0  501  0.00000000000E+00  0.00000000000E+00  0.82148574539E+03  0.82148574539E+03  0.25500000920E-02 0.  1.
        2   -1    0    0  501    0  0.00000000000E+00  0.00000000000E+00 -0.19226418832E+04  0.19226418832E+04  0.25500000920E-02 0. -1.
    10030    2    1    2    0    0  0.00000000000E+00  0.00000000000E+00 -0.11011561378E+04  0.27441276286E+04  0.25135018604E+04 0.  0.
        3    1    3    3  502    0 -0.69289552783E+03 -0.13704252200E+03 -0.16854454741E+04  0.18274603475E+04  0.10100000352E+00 0. -1.
       -3    1    3    3    0  502  0.69289552783E+03  0.13704252200E+03  0.58428933636E+03  0.91666728103E+03  0.10100000352E+00 0.  1.
</event>
<event>
 5   0  0.3579097E-05  0.2626294E+04  0.7818609E-02  0.8359324E-01
        2   -1    0    0  501    0  0.00000000000E+00  0.00000000000E+00  0.16120411997E+04  0.16120411997E+04  0.25500000920E-02 0. -1.
       -2   -1    0    0    0  501  0.00000000000E+00  0.00000000000E+00 -0.10696714335E+04  0.10696714335E+04  0.25500000920E-02 0.  1.
    10030    2    1    2    0    0  0.00000000000E+00  0.00000000000E+00  0.54236976627E+03  0.26817126332E+04  0.26262935258E+04 0.  0.
        5    1    3    3  502    0 -0.12181645146E+04 -0.18419110369E+03 -0.19280575218E+03  0.12470153549E+04  0.46999998093E+01 0. -1.
       -5    1    3    3    0  502  0.12181645146E+04  0.18419110369E+03  0.73517551844E+03  0.14346972783E+04  0.46999998093E+01 0.  1.
</event>
<event>
 5   0  0.1502886E-05  0.2534880E+04  0.7818609E-02  0.8390664E-01
        1   -1    0    0  501    0  0.00000000000E+00  0.00000000000E+00  0.16488882185E+04  0.16488882185E+04  0.50400001928E-02 0. -1.
       -1   -1    0    0    0  501  0.00000000000E+00  0.00000000000E+00 -0.97423443130E+03  0.97423443131E+03  0.50400001928E-02 0.  1.
    10030    2    1    2    0    0  0.00000000000E+00  0.00000000000E+00  0.67465378719E+03  0.26231226498E+04  0.25348796231E+04 0.  0.
        4    1    3    3  502    0 -0.82163321087E+03 -0.42121452087E+03 -0.56117276176E+03  0.10804717892E+04  0.12699999809E+01 0.  1.
       -4    1    3    3    0  502  0.82163321087E+03  0.42121452087E+03  0.12358265490E+04  0.15426508606E+04  0.12699999809E+01 0. -1.
</event>
<event>
 5   0  0.1492639E-05  0.2330121E+04  0.7818609E-02  0.8466139E-01
       -1   -1    0    0    0  501  0.00000000000E+00  0.00000000000E+00  0.62976898428E+03  0.62976898430E+03  0.50400001928E-02 0.  1.
        1   -1    0    0  501    0  0.00000000000E+00  0.00000000000E+00 -0.21553400088E+04  0.21553400088E+04  0.50400001928E-02 0. -1.
    10030    2    1    2    0    0  0.00000000000E+00  0.00000000000E+00 -0.15255710245E+04  0.27851089931E+04  0.23301212742E+04 0.  0.
        5    1    3    3  502    0 -0.27002270538E+03  0.83547698634E+03  0.15251647865E+03  0.89118876922E+03  0.46999998093E+01 0.  1.
       -5    1    3    3    0  502  0.27002270538E+03 -0.83547698634E+03 -0.16780875032E+04  0.18939202239E+04  0.46999998093E+01 0. -1.
</event>
<event>
 5   0  0.1421242E-05  0.2027515E+04  0.7818609E-02  0.8593864E-01
        1   -1    0    0  501    0  0.00000000000E+00  0.00000000000E+00  0.88788530619E+03  0.88788530620E+03  0.50400001928E-02 0.  1.
       -1   -1    0    0    0  501  0.00000000000E+00  0.00000000000E+00 -0.11574739415E+04  0.11574739415E+04  0.50400001928E-02 0. -1.
    10030    2    1    2    0    0  0.00000000000E+00  0.00000000000E+00 -0.26958863533E+03  0.20453592477E+04  0.20275148384E+04 0.  0.
        3    1    3    3  502    0  0.57186167425E+03  0.43337676527E+03  0.58765302695E+03  0.92745743053E+03  0.10100000352E+00 0.  1.
       -3    1    3    3    0  502 -0.57186167425E+03 -0.43337676527E+03 -0.85724166228E+03  0.11179018172E+04  0.10100000352E+00 0. -1.
</event>
<event>
 5   0  0.1492639E-05  0.2525127E+04  0.7818609E-02  0.8394088E-01
        1   -1    0    0  501    0  0.00000000000E+00  0.00000000000E+00  0.89900808216E+03  0.89900808218E+03  0.50400001928E-02 0. -1.
       -1   -1    0    0    0  501  0.00000000000E+00  0.00000000000E+00 -0.17731395592E+04  0.17731395592E+04  0.50400001928E-02 0.  1.
    10030    2    1    2    0    0  0.00000000000E+00  0.00000000000E+00 -0.87413147700E+03  0.26721476413E+04  0.25251271608E+04 0.  0.
        5    1    3    3  502    0  0.34376489991E+03  0.79389048888E+03 -0.14101754633E+04  0.16544042257E+04  0.46999998093E+01 0.  1.
       -5    1    3    3    0  502 -0.34376489991E+03 -0.79389048888E+03  0.53604398633E+03  0.10177434156E+04  0.46999998093E+01 0. -1.
</event>
<event>
 5   0  0.3704241E-05  0.2463424E+04  0.7818609E-02  0.8416133E-01
       -2   -1    0    0    0  501  0.00000000000E+00  0.00000000000E+00  0.15624834943E+04  0.15624834943E+04  0.25500000920E-02 0.  1.
        2   -1    0    0  501    0  0.00000000000E+00  0.00000000000E+00 -0.97096314515E+03  0.97096314515E+03  0.25500000920E-02 0. -1.
    10030    2    1    2    0    0  0.00000000000E+00  0.00000000000E+00  0.59152034919E+03  0.25334466395E+04  0.24634235429E+04 0.  0.
        2    1    3    3  502    0 -0.33210167953E+03 -0.54975691604E+03 -0.78510909009E+03  0.10143571736E+04  0.25500000920E-02 0. -1.
       -2    1    3    3    0  502  0.33210167953E+03  0.54975691604E+03  0.13766294393E+04  0.15190894659E+04  0.25500000920E-02 0.  1.
</event>
<event>
 5   0  0.3650620E-05  0.2457264E+04  0.7818609E-02  0.8418371E-01
        2   -1    0    0  501    0  0.00000000000E+00  0.00000000000E+00  0.18177380876E+04  0.18177380876E+04  0.25500000920E-02 0. -1.
       -2   -1    0    0    0  501  0.00000000000E+00  0.00000000000E+00 -0.83044783223E+03  0.83044783223E+03  0.25500000920E-02 0.  1.
    10030    2    1    2    0    0  0.00000000000E+00  0.00000000000E+00  0.98729025533E+03  0.26481859198E+04  0.24572640512E+04 0.  0.
        3    1    3    3  502    0  0.63457763693E+03 -0.93262162593E+03 -0.31077936559E+02  0.11284669790E+04  0.10100000352E+00 0.  1.
       -3    1    3    3    0  502 -0.63457763693E+03  0.93262162593E+03  0.10183681919E+04  0.15197189408E+04  0.10100000352E+00 0. -1.
</event>
<event>
 5   0  0.3650620E-05  0.2455607E+04  0.7818609E-02  0.8418974E-01
        2   -1    0    0  501    0  0.00000000000E+00  0.00000000000E+00  0.26148172072E+04  0.26148172072E+04  0.25500000920E-02 0.  1.
       -2   -1    0    0    0  501  0.00000000000E+00  0.00000000000E+00 -0.57652277153E+03  0.57652277154E+03  0.25500000920E-02 0. -1.
    10030    2    1    2    0    0  0.00000000000E+00  0.00000000000E+00  0.20382944357E+04  0.31913399787E+04  0.24556071863E+04 0.  0.
        3    1    3    3  502    0 -0.79314875149E+03 -0.54102385117E+03  0.20137632626E+04  0.22309267665E+04  0.10100000352E+00 0.  1.
       -3    1    3    3    0  502  0.79314875149E+03  0.54102385117E+03  0.24531173032E+02  0.96041321220E+03  0.10100000352E+00 0. -1.
</event>
<event>
 5   0  0.1429483E-05  0.2518943E+04  0.7818609E-02  0.8396268E-01
       -1   -1    0    0    0  501  0.00000000000E+00  0.00000000000E+00  0.64499401842E+03  0.64499401844E+03  0.50400001928E-02 0. -1.
        1   -1    0    0  501    0  0.00000000000E+00  0.00000000000E+00 -0.24593528650E+04  0.24593528650E+04  0.50400001928E-02 0.  1.
    10030    2    1    2    0    0  0.00000000000E+00  0.00000000000E+00 -0.18143588466E+04  0.31043468835E+04  0.25189425457E+04 0.  0.
        2    1    3    3  502    0 -0.29104895215E+03  0.74224579275E+02  0.60020806637E+03  0.67116950441E+03  0.25500000920E-02 0. -1.
       -2    1    3    3    0  502  0.29104895215E+03 -0.74224579275E+02 -0.24145669130E+04  0.24331773791E+04  0.25500000920E-02 0.  1.
</event>
<event>
 5   0  0.3578670E-05  0.2563240E+04  0.7818609E-02  0.8380796E-01
       -2   -1    0    0    0  501  0.00000000000E+00  0.00000000000E+00  0.54520407610E+03  0.54520407611E+03  0.25500000920E-02 0. -1.
        2   -1    0    0  501    0  0.00000000000E+00  0.00000000000E+00 -0.30127247963E+04  0.30127247963E+04  0.25500000920E-02 0.  1.
    10030    2    1    2    0    0  0.00000000000E+00  0.00000000000E+00 -0.24675207202E+04  0.35579288724E+04  0.25632400115E+04 0.  0.
        4    1    3    3  502    0  0.10627538569E+04 -0.66523202586E+03 -0.86502532081E+03  0.15232366287E+04  0.12699999809E+01 0.  1.
       -4    1    3    3    0  502 -0.10627538569E+04  0.66523202586E+03 -0.16024953994E+04  0.20346922437E+04  0.12699999809E+01 0. -1.
</event>
<event>
 5   0  0.3650620E-05  0.2624149E+04  0.7818609E-02  0.8360044E-01
       -2   -1    0    0    0  501  0.00000000000E+00  0.00000000000E+00  0.10017647670E+04  0.10017647670E+04  0.25500000920E-02 0.  1.
        2   -1    0    0  501    0  0.00000000000E+00  0.00000000000E+00 -0.17185072319E+04  0.17185072319E+04  0.25500000920E-02 0. -1.
    10030    2    1    2    0    0  0.00000000000E+00  0.00000000000E+00 -0.71674246488E+03  0.27202719989E+04  0.26241493835E+04 0.  0.
        3    1    3    3  502    0  0.13062343828E+04  0.84635777104E+02 -0.45183197353E+03  0.13847612141E+04  0.10100000352E+00 0.  1.
       -3    1    3    3    0  502 -0.13062343828E+04 -0.84635777104E+02 -0.26491049135E+03  0.13355107848E+04  0.10100000352E+00 0. -1.
</event>
<event>
 5   0  0.3650620E-05  0.2500124E+04  0.7818609E-02  0.8402941E-01
       -2   -1    0    0    0  501  0.00000000000E+00  0.00000000000E+00  0.11997537252E+04  0.11997537252E+04  0.25500000920E-02 0.  1.
        2   -1    0    0  501    0  0.00000000000E+00  0.00000000000E+00 -0.13024797858E+04  0.13024797858E+04  0.25500000920E-02 0. -1.
    10030    2    1    2    0    0  0.00000000000E+00  0.00000000000E+00 -0.10272606056E+03  0.25022335110E+04  0.25001239769E+04 0.  0.
        3    1    3    3  502    0 -0.97245962775E+03 -0.40100956679E+03  0.62460937567E+03  0.12233655556E+04  0.10100000352E+00 0.  1.
       -3    1    3    3    0  502  0.97245962775E+03  0.40100956679E+03 -0.72733543623E+03  0.12788679554E+04  0.10100000352E+00 0. -1.
</event>
<event>
 5   0  0.3650620E-05  0.2483962E+04  0.7818609E-02  0.8408721E-01
        2   -1    0    0  501    0  0.00000000000E+00  0.00000000000E+00  0.12488229504E+04  0.12488229504E+04  0.25500000920E-02 0. -1.
       -2   -1    0    0    0  501  0.00000000000E+00  0.00000000000E+00 -0.12351766964E+04  0.12351766964E+04  0.25500000920E-02 0.  1.
    10030    2    1    2    0    0  0.00000000000E+00  0.00000000000E+00  0.13646253986E+02  0.24839996468E+04  0.24839621626E+04 0.  0.
        3    1    3    3  502    0  0.11081716183E+04 -0.55547263282E+03 -0.70137858510E+02  0.12415770258E+04  0.10100000352E+00 0.  1.
       -3    1    3    3    0  502 -0.11081716183E+04  0.55547263282E+03  0.83784112496E+02  0.12424226210E+04  0.10100000352E+00 0. -1.
</event>
<event>
 5   0  0.3579097E-05  0.2465223E+04  0.7818609E-02  0.8415481E-01
       -2   -1    0    0    0  501  0.00000000000E+00  0.00000000000E+00  0.10011879429E+04  0.10011879429E+04  0.25500000920E-02 0. -1.
        2   -1    0    0  501    0  0.00000000000E+00  0.00000000000E+00 -0.15175289838E+04  0.15175289838E+04  0.25500000920E-02 0.  1.
    10030    2    1    2    0    0  0.00000000000E+00  0.00000000000E+00 -0.51634104094E+03  0.25187169267E+04  0.24652234962E+04 0.  0.
        5    1    3    3  502    0 -0.38938057120E+03  0.88312926997E+03  0.52513042822E+03  0.10987805028E+04  0.46999998093E+01 0. -1.
       -5    1    3    3    0  502  0.38938057120E+03 -0.88312926997E+03 -0.10414714692E+04  0.14199364239E+04  0.46999998093E+01 0.  1.
</event>
<event>
 5   0  0.1421242E-05  0.2526732E+04  0.7818609E-02  0.8393524E-01
        1   -1    0    0  501    0  0.00000000000E+00  0.00000000000E+00  0.21481238806E+04  0.21481238806E+04  0.50400001928E-02 0. -1.
       -1   -1    0    0    0  501  0.00000000000E+00  0.00000000000E+00 -0.74301729633E+03  0.74301729635E+03  0.50400001928E-02 0.  1.
    10030    2    1    2    0    0  0.00000000000E+00  0.00000000000E+00  0.14051065843E+04  0.28911411769E+04  0.25267316422E+04 0.  0.
        3    1    3    3  502    0 -0.84210519101E+03 -0.27231836483E+03 -0.32902126754E+03  0.94422108070E+03  0.10100000352E+00 0.  1.
       -3    1    3    3    0  502  0.84210519101E+03  0.27231836483E+03  0.17341278518E+04  0.19469200962E+04  0.10100000352E+00 0. -1.
</event>
<event>
 5   0  0.1429483E-05  0.2360402E+04  0.7818609E-02  0.8454479E-01
       -1   -1    0    0    0  501  0.00000000000E+00  0.00000000000E+00  0.12198853984E+04  0.12198853984E+04  0.50400001928E-02 0.  1.
        1   -1    0    0  501    0  0.00000000000E+00  0.00000000000E+00 -0.11418075132E+04  0.11418075132E+04  0.50400001928E-02 0. -1.
    10030    2    1    2    0    0  0.00000000000E+00  0.00000000000E+00  0.78077885229E+02  0.23616929116E+04  0.23604019261E+04 0.  0.
        2    1    3    3  502    0 -0.53943268908E+03  0.48768800118E+03 -0.89101079456E+03  0.11500988864E+04  0.25500000920E-02 0. -1.
       -2    1    3    3    0  502  0.53943268908E+03 -0.48768800118E+03  0.96908867979E+03  0.12115940252E+04  0.25500000920E-02 0.  1.
</event>
<event>
 5   0  0.1502886E-05  0.2825277E+04  0.7818609E-02  0.8295463E-01
       -1   -1    0    0    0  501  0.00000000000E+00  0.00000000000E+00  0.12334703550E+04  0.12334703550E+04  0.50400001928E-02 0.  1.
        1   -1    0    0  501    0  0.00000000000E+00  0.00000000000E+00 -0.16178322255E+04  0.16178322255E+04  0.50400001928E-02 0. -1.
    10030    2    1    2    0    0  0.00000000000E+00  0.00000000000E+00 -0.38436187053E+03  0.28513025805E+04  0.28252773949E+04 0.  0.
        4    1    3    3  502    0 -0.10705058170E+03 -0.33400988416E+03  0.11888261738E+04  0.12394884890E+04  0.12699999809E+01 0.  1.
       -4    1    3    3    0  502  0.10705058170E+03  0.33400988416E+03 -0.15731880444E+04  0.16118140915E+04  0.12699999809E+01 0. -1.
</event>
<event>
 5   0  0.3650620E-05  0.2506933E+04  0.7818609E-02  0.8400520E-01
       -2   -1    0    0    0  501  0.00000000000E+00  0.00000000000E+00  0.71842276846E+03  0.71842276846E+03  0.25500000920E-02 0.  1.
        2   -1    0    0  501    0  0.00000000000E+00  0.00000000000E+00 -0.21869821351E+04  0.21869821351E+04  0.25500000920E-02 0. -1.
    10030    2    1    2    0    0  0.00000000000E+00  0.00000000000E+00 -0.14685593667E+04  0.29054049036E+04  0.25069325959E+04 0.  0.
        3    1    3    3  502    0  0.72894755793E+03  0.78011995306E+03 -0.14953355016E+04  0.18373839979E+04  0.10100000352E+00 0. -1.
       -3    1    3    3    0  502 -0.72894755793E+03 -0.78011995306E+03  0.26776134875E+02  0.10680209057E+04  0.10100000352E+00 0.  1.
</event>
<event>
 5   0  0.3650620E-05  0.2564808E+04  0.7818609E-02  0.8380254E-01
        2   -1    0    0  501    0  0.00000000000E+00  0.00000000000E+00  0.18864896179E+04  0.18864896179E+04  0.25500000920E-02 0. -1.
       -2   -1    0    0    0  501  0.00000000000E+00  0.00000000000E+00 -0.87175689782E+03  0.87175689782E+03  0.25500000920E-02 0.  1.
    10030    2    1    2    0    0  0.00000000000E+00  0.00000000000E+00  0.10147327201E+04  0.27582465157E+04  0.25648082479E+04 0.  0.
        3    1    3    3  502    0  0.62217834202E+03  0.10654125953E+04  0.88353357630E+03  0.15175116073E+04  0.10100000352E+00 0. -1.
       -3    1    3    3    0  502 -0.62217834202E+03 -0.10654125953E+04  0.13119914376E+03  0.12407349085E+04  0.10100000352E+00 0.  1.
</event>
<event>
 5   0  0.3581449E-05  0.2491718E+04  0.7818609E-02  0.8405942E-01
        2   -1    0    0  501    0  0.00000000000E+00  0.00000000000E+00  0.11922233520E+04  0.11922233520E+04  0.25500000920E-02 0.  1.
       -2   -1    0    0    0  501  0.00000000000E+00  0.00000000000E+00 -0.13019075404E+04  0.13019075404E+04  0.25500000920E-02 0. -1.
    10030    2    1    2    0    0  0.00000000000E+00  0.00000000000E+00 -0.10968418841E+03  0.24941308924E+04  0.24917179389E+04 0.  0.
        1    1    3    3  502    0 -0.81861308045E+03  0.55822949639E+03 -0.81083305462E+03  0.12803115983E+04  0.50400001928E-02 0. -1.
       -1    1    3    3    0  502  0.81861308045E+03 -0.55822949639E+03  0.70114886622E+03  0.12138192941E+04  0.50400001928E-02 0.  1.
</event>
<event>
 5   0  0.1456876E-05  0.2500722E+04  0.7818609E-02  0.8402728E-01
       -1   -1    0    0    0  501  0.00000000000E+00  0.00000000000E+00  0.14701185022E+04  0.14701185022E+04  0.50400001928E-02 0. -1.
        1   -1    0    0  501    0  0.00000000000E+00  0.00000000000E+00 -0.10634531774E+04  0.10634531775E+04  0.50400001928E-02 0.  1.
    10030    2    1    2    0    0  0.00000000000E+00  0.00000000000E+00  0.40666532473E+03  0.25335716796E+04  0.25007216498E+04 0.  0.
        1    1    3    3  502    0  0.25364076228E+03 -0.26386350511E+02  0.14434926412E+04  0.14658447670E+04  0.50400001928E-02 0. -1.
       -1    1    3    3    0  502 -0.25364076228E+03  0.26386350511E+02 -0.10368273165E+04  0.10677269126E+04  0.50400001928E-02 0.  1.
</event>
<event>
 5   0  0.3704241E-05  0.1879671E+04  0.7818609E-02  0.8665042E-01
        2   -1    0    0  501    0  0.00000000000E+00  0.00000000000E+00  0.25202916561E+04  0.25202916561E+04  0.25500000920E-02 0. -1.
       -2   -1    0    0    0  501  0.00000000000E+00  0.00000000000E+00 -0.35047150090E+03  0.35047150091E+03  0.25500000920E-02 0.  1.
    10030    2    1    2    0    0  0.00000000000E+00  0.00000000000E+00  0.21698201552E+04  0.28707631570E+04  0.18796706088E+04 0.  0.
        2    1    3    3  502    0 -0.89580747555E+03  0.18703700491E+03  0.75792987723E+03  0.11882388536E+04  0.25500000920E-02 0.  1.
       -2    1    3    3    0  502  0.89580747555E+03 -0.18703700491E+03  0.14118902780E+04  0.16825243034E+04  0.25500000920E-02 0. -1.
</event>
<event>
 5   0  0.3650620E-05  0.2481810E+04  0.7818609E-02  0.8409495E-01
       -2   -1    0    0    0  501  0.00000000000E+00  0.00000000000E+00  0.10026696479E+04  0.10026696479E+04  0.25500000920E-02 0.  1.
        2   -1    0    0  501    0  0.00000000000E+00  0.00000000000E+00 -0.15357448880E+04  0.15357448880E+04  0.25500000920E-02 0. -1.
    10030    2    1    2    0    0  0.00000000000E+00  0.00000000000E+00 -0.53307524013E+03  0.25384145360E+04  0.24818096512E+04 0.  0.
        3    1    3    3  502    0 -0.29173671317E+03 -0.11110711505E+04 -0.74655540059E+03  0.13700125502E+04  0.10100000352E+00 0. -1.
       -3    1    3    3    0  502  0.29173671317E+03  0.11110711505E+04  0.21348016046E+03  0.11684019858E+04  0.10100000352E+00 0.  1.
</event>
<event>
 5   0  0.1456876E-05  0.2579570E+04  0.7818609E-02  0.8375174E-01
       -1   -1    0    0    0  501  0.00000000000E+00  0.00000000000E+00  0.15669753828E+04  0.15669753828E+04  0.50400001928E-02 0. -1.
        1   -1    0    0  501    0  0.00000000000E+00  0.00000000000E+00 -0.10616284842E+04  0.10616284842E+04  0.50400001928E-02 0.  1.
    10030    2    1    2    0    0  0.00000000000E+00  0.00000000000E+00  0.50534689858E+03  0.26286038669E+04  0.25795702746E+04 0.  0.
        1    1    3    3  502    0  0.12455454563E+04  0.23815487895E+03  0.12731104784E+02  0.12681732181E+04  0.50400001928E-02 0.  1.
       -1    1    3    3    0  502 -0.12455454563E+04 -0.23815487895E+03  0.49261579380E+03  0.13604306489E+04  0.50400001928E-02 0. -1.
</event>
<event>
 5   0  0.3578670E-05  0.2351351E+04  0.7818609E-02  0.8457945E-01
        2   -1    0    0  501    0  0.00000000000E+00  0.00000000000E+00  0.17286408659E+04  0.17286408659E+04  0.25500000920E-02 0.  1.
       -2   -1    0    0    0  501  0.00000000000E+00  0.00000000000E+00 -0.79959519501E+03  0.79959519501E+03  0.25500000920E-02 0. -1.
    10030    2    1    2    0    0  0.00000000000E+00  0.00000000000E+00  0.92904567087E+03  0.25282360609E+04  0.23513510416E+04 0.  0.
        4    1    3    3  502    0  0.69546379881E+03 -0.47097586610E+03 -0.41999311441E+03  0.93908678564E+03  0.12699999809E+01 0. -1.
       -4    1    3    3    0  502 -0.69546379881E+03  0.47097586610E+03  0.13490387853E+04  0.15891492752E+04  0.12699999809E+01 0.  1.
</event>
<event>
 5   0  0.1201438E-05  0.2516177E+04  0.7818609E-02  0.8397245E-01
       -3   -1    0    0    0  501  0.00000000000E+00  0.00000000000E+00  0.13482330607E+04  0.13482330645E+04  0.10100000352E+00 0. -1.
        3   -1    0    0  501    0  0.00000000000E+00  0.00000000000E+00 -0.11739707696E+04  0.11739707740E+04  0.10100000352E+00 0.  1.
    10030    2    1    2    0    0  0.00000000000E+00  0.00000000000E+00  0.17426229107E+03  0.25222038385E+04  0.25161766346E+04 0.  0.
        3    1    3    3  502    0 -0.33252281340E+03  0.11080842349E+04  0.58264724392E+03  0.12953377606E+04  0.10100000352E+00 0. -1.
       -3    1    3    3    0  502  0.33252281340E+03 -0.11080842349E+04 -0.40838495285E+03  0.12268660778E+04  0.10100000352E+00 0.  1.
</event>
<event>
 5   0  0.3579097E-05  0.2530106E+04  0.7818609E-02  0.8392338E-01
        2   -1    0    0  501    0  0.00000000000E+00  0.00000000000E+00  0.12182941442E+04  0.12182941442E+04  0.25500000920E-02 0.  1.
       -2   -1    0    0    0  501  0.00000000000E+00  0.00000000000E+00 -0.13136067218E+04  0.13136067218E+04  0.25500000920E-02 0. -1.
    10030    2    1    2    0    0  0.00000000000E+00  0.00000000000E+00 -0.95312577549E+02  0.25319008660E+04  0.25301062246E+04 0.  0.
        5    1    3    3  502    0 -0.84898012157E+01 -0.10354442883E+04 -0.77489064493E+03  0.12933269318E+04  0.46999998093E+01 0. -1.
       -5    1    3    3    0  502  0.84898012157E+01  0.10354442883E+04  0.67957806738E+03  0.12385739342E+04  0.46999998093E+01 0.  1.
</event>
<event>
 5   0  0.3578670E-05  0.2499048E+04  0.7818609E-02  0.8403325E-01
       -2   -1    0    0    0  501  0.00000000000E+00  0.00000000000E+00  0.11473638884E+04  0.11473638884E+04  0.25500000920E-02 0.  1.
        2   -1    0    0  501    0  0.00000000000E+00  0.00000000000E+00 -0.13607808321E+04  0.13607808321E+04  0.25500000920E-02 0. -1.
    10030    2    1    2    0    0  0.00000000000E+00  0.00000000000E+00 -0.21341694367E+03  0.25081447205E+04  0.24990484484E+04 0.  0.
        4    1    3    3  502    0  0.10874966232E+04 -0.57500042107E+03  0.11325767026E+03  0.12353555369E+04  0.12699999809E+01 0.  1.
       -4    1    3    3    0  502 -0.10874966232E+04  0.57500042107E+03 -0.32667461393E+03  0.12727891836E+04  0.12699999809E+01 0. -1.
</event>
<event>
 5   0  0.3650620E-05  0.2479206E+04  0.7818609E-02  0.8410431E-01
       -2   -1    0    0    0  501  0.00000000000E+00  0.00000000000E+00  0.57405844598E+03  0.57405844599E+03  0.25500000920E-02 0. -1.
        2   -1    0    0  501    0  0.00000000000E+00  0.00000000000E+00 -0.26767571774E+04  0.26767571774E+04  0.25500000920E-02 0.  1.
    10030    2    1    2    0    0  0.00000000000E+00  0.00000000000E+00 -0.21026987315E+04  0.32508156234E+04  0.24792055708E+04 0.  0.
        3    1    3    3  502    0  0.59706868464E+03 -0.86807339667E+03 -0.19495009860E+03  0.10714700123E+04  0.10100000352E+00 0. -1.
       -3    1    3    3    0  502 -0.59706868464E+03  0.86807339667E+03 -0.19077486329E+04  0.21793456111E+04  0.10100000352E+00 0.  1.
</event>
<event>
 5   0  0.3579097E-05  0.2383215E+04  0.7818609E-02  0.8445814E-01
        2   -1    0    0  501    0  0.00000000000E+00  0.00000000000E+00  0.15806732713E+04  0.15806732713E+04  0.25500000920E-02 0.  1.
       -2   -1    0    0    0  501  0.00000000000E+00  0.00000000000E+00 -0.89830645438E+03  0.89830645439E+03  0.25500000920E-02 0. -1.
    10030    2    1    2    0    0  0.00000000000E+00  0.00000000000E+00  0.68236681689E+03  0.24789797257E+04  0.23832154765E+04 0.  0.
        5    1    3    3  502    0 -0.93471736071E+03 -0.64789839518E+03  0.71105292247E+03  0.13413005716E+04  0.46999998093E+01 0. -1.
       -5    1    3    3    0  502  0.93471736071E+03  0.64789839518E+03 -0.28686105577E+02  0.11376791540E+04  0.46999998093E+01 0.  1.
</event>
<event>
 5   0  0.3578670E-05  0.2065554E+04  0.7818609E-02  0.8576571E-01
        2   -1    0    0  501    0  0.00000000000E+00  0.00000000000E+00  0.15648649883E+04  0.15648649883E+04  0.25500000920E-02 0. -1.
       -2   -1    0    0    0  501  0.00000000000E+00  0.00000000000E+00 -0.68161015108E+03  0.68161015109E+03  0.25500000920E-02 0.  1.
    10030    2    1    2    0    0  0.00000000000E+00  0.00000000000E+00  0.88325483720E+03  0.22464751394E+04  0.20655535443E+04 0.  0.
        4    1    3    3  502    0 -0.93966075111E+03  0.39552732580E+03  0.26218479212E+03  0.10526854567E+04  0.12699999809E+01 0.  1.
       -4    1    3    3    0  502  0.93966075111E+03 -0.39552732580E+03  0.62107004507E+03  0.11937896827E+04  0.12699999809E+01 0. -1.
</event>
<event>
 5   0  0.3650620E-05  0.2511873E+04  0.7818609E-02  0.8398768E-01
       -2   -1    0    0    0  501  0.00000000000E+00  0.00000000000E+00  0.12708203463E+04  0.12708203463E+04  0.25500000920E-02 0. -1.
        2   -1    0    0  501    0  0.00000000000E+00  0.00000000000E+00 -0.12412267780E+04  0.12412267780E+04  0.25500000920E-02 0.  1.
    10030    2    1    2    0    0  0.00000000000E+00  0.00000000000E+00  0.29593568294E+02  0.25120471243E+04  0.25118728024E+04 0.  0.
        3    1    3    3  502    0 -0.51613453627E+03 -0.89902811035E+03  0.72388042619E+03  0.12643770341E+04  0.10100000352E+00 0. -1.
       -3    1    3    3    0  502  0.51613453627E+03  0.89902811035E+03 -0.69428685789E+03  0.12476700902E+04  0.10100000352E+00 0.  1.
</event>
<event>
 5   0  0.1492639E-05  0.2481834E+04  0.7818609E-02  0.8409486E-01
        1   -1    0    0  501    0  0.00000000000E+00  0.00000000000E+00  0.13395346774E+04  0.13395346774E+04  0.50400001928E-02 0. -1.
       -1   -1    0    0    0  501  0.00000000000E+00  0.00000000000E+00 -0.11495593653E+04  0.11495593653E+04  0.50400001928E-02 0.  1.
    10030    2    1    2    0    0  0.00000000000E+00  0.00000000000E+00  0.18997531210E+03  0.24890940428E+04  0.24818337040E+04 0.  0.
        5    1    3    3  502    0 -0.60942426968E+03 -0.59434818891E+03  0.10005158990E+04  0.13136597217E+04  0.46999998093E+01 0. -1.
       -5    1    3    3    0  502  0.60942426968E+03  0.59434818891E+03 -0.81054058692E+03  0.11754343211E+04  0.46999998093E+01 0.  1.
</event>
<event>
 5   0  0.3581449E-05  0.2501384E+04  0.7818609E-02  0.8402493E-01
        2   -1    0    0  501    0  0.00000000000E+00  0.00000000000E+00  0.12048825580E+04  0.12048825580E+04  0.25500000920E-02 0.  1.
       -2   -1    0    0    0  501  0.00000000000E+00  0.00000000000E+00 -0.12982429108E+04  0.12982429108E+04  0.25500000920E-02 0. -1.
    10030    2    1    2    0    0  0.00000000000E+00  0.00000000000E+00 -0.93360352807E+02  0.25031254689E+04  0.25013838085E+04 0.  0.
        1    1    3    3  502    0 -0.50398872105E+03 -0.71853308711E+03  0.84497098704E+03  0.12183063643E+04  0.50400001928E-02 0.  1.
       -1    1    3    3    0  502  0.50398872105E+03  0.71853308711E+03 -0.93833133984E+03  0.12848191046E+04  0.50400001928E-02 0. -1.
</event>
<event>
 5   0  0.1421242E-05  0.2472974E+04  0.7818609E-02  0.8412678E-01
        1   -1    0    0  501    0  0.00000000000E+00  0.00000000000E+00  0.17670834995E+04  0.17670834995E+04  0.50400001928E-02 0. -1.
       -1   -1    0    0    0  501  0.00000000000E+00  0.00000000000E+00 -0.86521075725E+03  0.86521075726E+03  0.50400001928E-02 0.  1.
    10030    2    1    2    0    0  0.00000000000E+00  0.00000000000E+00  0.90187274221E+03  0.26322942567E+04  0.24729736373E+04 0.  0.
        3    1    3    3  502    0 -0.25344432489E+03  0.11706259113E+04  0.77780418639E+03  0.14281380930E+04  0.10100000352E+00 0.  1.
       -3    1    3    3    0  502  0.25344432489E+03 -0.11706259113E+04  0.12406855582E+03  0.12041561638E+04  0.10100000352E+00 0. -1.
</event>
<event>
 5   0  0.3578670E-05  0.2519981E+04  0.7818609E-02  0.8395902E-01
        2   -1    0    0  501    0  0.00000000000E+00  0.00000000000E+00  0.10045555809E+04  0.10045555809E+04  0.25500000920E-02 0.  1.
       -2   -1    0    0    0  501  0.00000000000E+00  0.00000000000E+00 -0.15803767924E+04  0.15803767924E+04  0.25500000920E-02 0. -1.
    10030    2    1    2    0    0  0.00000000000E+00  0.00000000000E+00 -0.57582121145E+03  0.25849323733E+04  0.25199812116E+04 0.  0.
        4    1    3    3  502    0 -0.10287191312E+04 -0.42118490205E+03 -0.89642483180E+03  0.14280192102E+04  0.12699999809E+01 0. -1.
       -4    1    3    3    0  502  0.10287191312E+04  0.42118490205E+03  0.32060362035E+03  0.11569131631E+04  0.12699999809E+01 0.  1.
</event>
<event>
 5   0  0.3581449E-05  0.2511325E+04  0.7818609E-02  0.8398962E-01
       -2   -1    0    0    0  501  0.00000000000E+00  0.00000000000E+00  0.12020881887E+04  0.12020881887E+04  0.25500000920E-02 0. -1.
        2   -1    0    0  501    0  0.00000000000E+00  0.00000000000E+00 -0.13116248576E+04  0.13116248576E+04  0.25500000920E-02 0.  1.
    10030    2    1    2    0    0  0.00000000000E+00  0.00000000000E+00 -0.10953666885E+03  0.25137130463E+04  0.25113253468E+04 0.  0.
        1    1    3    3  502    0 -0.14118679635E+03 -0.54485190897E+02 -0.13024631696E+04  0.13112256311E+04  0.50400001928E-02 0.  1.
       -1    1    3    3    0  502  0.14118679635E+03  0.54485190897E+02  0.11929265008E+04  0.12024874152E+04  0.50400001928E-02 0. -1.
</event>
<event>
 5   0  0.3578670E-05  0.2398083E+04  0.7818609E-02  0.8440222E-01
        2   -1    0    0  501    0  0.00000000000E+00  0.00000000000E+00  0.18556426341E+04  0.18556426341E+04  0.25500000920E-02 0. -1.
       -2   -1    0    0    0  501  0.00000000000E+00  0.00000000000E+00 -0.77477233959E+03  0.77477233959E+03  0.25500000920E-02 0.  1.
    10030    2    1    2    0    0  0.00000000000E+00  0.00000000000E+00  0.10808702945E+04  0.26304149737E+04  0.23980830553E+04 0.  0.
        4    1    3    3  502    0 -0.47017876597E+03 -0.86593466680E+03  0.12898458889E+04  0.16231497002E+04  0.12699999809E+01 0. -1.
       -4    1    3    3    0  502  0.47017876597E+03  0.86593466680E+03 -0.20897559446E+03  0.10072652735E+04  0.12699999809E+01 0.  1.
</event>
<event>
 5   0  0.3581449E-05  0.2523611E+04  0.7818609E-02  0.8394622E-01
       -2   -1    0    0    0  501  0.00000000000E+00  0.00000000000E+00  0.85700485664E+03  0.85700485665E+03  0.25500000920E-02 0. -1.
        2   -1    0    0  501    0  0.00000000000E+00  0.00000000000E+00 -0.18578109941E+04  0.18578109941E+04  0.25500000920E-02 0.  1.
    10030    2    1    2    0    0  0.00000000000E+00  0.00000000000E+00 -0.10008061375E+04  0.27148158508E+04  0.25236109404E+04 0.  0.
        1    1    3    3  502    0  0.18585681301E+03  0.81791356404E+03 -0.15144963282E+04  0.17312493989E+04  0.50400001928E-02 0.  1.
       -1    1    3    3    0  502 -0.18585681301E+03 -0.81791356404E+03  0.51369019068E+03  0.98356645186E+03  0.50400001928E-02 0. -1.
</event>
<event>
 5   0  0.1456876E-05  0.2495838E+04  0.7818609E-02  0.8404470E-01
        1   -1    0    0  501    0  0.00000000000E+00  0.00000000000E+00  0.21526833965E+04  0.21526833965E+04  0.50400001928E-02 0.  1.
       -1   -1    0    0    0  501  0.00000000000E+00  0.00000000000E+00 -0.72342326680E+03  0.72342326682E+03  0.50400001928E-02 0. -1.
    10030    2    1    2    0    0  0.00000000000E+00  0.00000000000E+00  0.14292601297E+04  0.28761066633E+04  0.24958375389E+04 0.  0.
        1    1    3    3  502    0 -0.90209532648E+03  0.37008685191E+03 -0.18285228629E+03  0.99205605418E+03  0.50400001928E-02 0. -1.
       -1    1    3    3    0  502  0.90209532648E+03 -0.37008685191E+03  0.16121124160E+04  0.18840506092E+04  0.50400001928E-02 0.  1.
</event>
<event>
 5   0  0.1492639E-05  0.2421440E+04  0.7818609E-02  0.8431520E-01
       -1   -1    0    0    0  501  0.00000000000E+00  0.00000000000E+00  0.87869377165E+03  0.87869377167E+03  0.50400001928E-02 0. -1.
        1   -1    0    0  501    0  0.00000000000E+00  0.00000000000E+00 -0.16682069150E+04  0.16682069150E+04  0.50400001928E-02 0.  1.
    10030    2    1    2    0    0  0.00000000000E+00  0.00000000000E+00 -0.78951314338E+03  0.25469006867E+04  0.24214400890E+04 0.  0.
        5    1    3    3  502    0 -0.28548815051E+03 -0.11451012588E+04 -0.67905848201E+03  0.13615810255E+04  0.46999998093E+01 0.  1.
       -5    1    3    3    0  502  0.28548815051E+03  0.11451012588E+04 -0.11045466137E+03  0.11853196612E+04  0.46999998093E+01 0. -1.
</event>
<event>
 5   0  0.3578670E-05  0.1971614E+04  0.7818609E-02  0.8620008E-01
       -2   -1    0    0    0  501  0.00000000000E+00  0.00000000000E+00  0.71409294547E+03  0.71409294548E+03  0.25500000920E-02 0. -1.
        2   -1    0    0  501    0  0.00000000000E+00  0.00000000000E+00 -0.13609087739E+04  0.13609087739E+04  0.25500000920E-02 0.  1.
    10030    2    1    2    0    0  0.00000000000E+00  0.00000000000E+00 -0.64681582847E+03  0.20750017194E+04  0.19716139124E+04 0.  0.
        4    1    3    3  502    0  0.39618212891E+03  0.75120189641E+02 -0.12701404883E+04  0.13326146461E+04  0.12699999809E+01 0.  1.
       -4    1    3    3    0  502 -0.39618212891E+03 -0.75120189641E+02  0.62332465982E+03  0.74238707330E+03  0.12699999809E+01 0. -1.
</event>
<event>
 5   0  0.3581449E-05  0.2498405E+04  0.7818609E-02  0.8403554E-01
        2   -1    0    0  501    0  0.00000000000E+00  0.00000000000E+00  0.16298355258E+04  0.16298355258E+04  0.25500000920E-02 0.  1.
       -2   -1    0    0    0  501  0.00000000000E+00  0.00000000000E+00 -0.95746297953E+03  0.95746297953E+03  0.25500000920E-02 0. -1.
    10030    2    1    2    0    0  0.00000000000E+00  0.00000000000E+00  0.67237254627E+03  0.25872985053E+04  0.24984052343E+04 0.  0.
        1    1    3    3  502    0  0.80712533560E+03 -0.24179696816E+03 -0.61890267079E+03  0.10454461235E+04  0.50400001928E-02 0. -1.
       -1    1    3    3    0  502 -0.80712533560E+03  0.24179696816E+03  0.12912752171E+04  0.15418523818E+04  0.50400001928E-02 0.  1.
</event>
<event>
 5   0  0.3578670E-05  0.2499596E+04  0.7818609E-02  0.8403129E-01
       -2   -1    0    0    0  501  0.00000000000E+00  0.00000000000E+00  0.79915949359E+03  0.79915949360E+03  0.25500000920E-02 0.  1.
        2   -1    0    0  501    0  0.00000000000E+00  0.00000000000E+00 -0.19545473483E+04  0.19545473483E+04  0.25500000920E-02 0. -1.
    10030    2    1    2    0    0  0.00000000000E+00  0.00000000000E+00 -0.11553878547E+04  0.27537068419E+04  0.24995960226E+04 0.  0.
        4    1    3    3  502    0  0.48294648708E+03  0.11495131394E+04 -0.67230657203E+03  0.14165505662E+04  0.12699999809E+01 0.  1.
       -4    1    3    3    0  502 -0.48294648708E+03 -0.11495131394E+04 -0.48308128266E+03  0.13371562757E+04  0.12699999809E+01 0. -1.
</event>
<event>
 5   0  0.3579097E-05  0.2508293E+04  0.7818609E-02  0.8400037E-01
        2   -1    0    0  501    0  0.00000000000E+00  0.00000000000E+00  0.25952105712E+04  0.25952105712E+04  0.25500000920E-02 0.  1.
       -2   -1    0    0    0  501  0.00000000000E+00  0.00000000000E+00 -0.60607154339E+03  0.60607154339E+03  0.25500000920E-02 0. -1.
    10030    2    1    2    0    0  0.00000000000E+00  0.00000000000E+00  0.19891390278E+04  0.32012821146E+04  0.25082928667E+04 0.  0.
        5    1    3    3  502    0  0.12295359333E+03 -0.92698968585E+03 -0.72047004772E+02  0.93789142478E+03  0.46999998093E+01 0. -1.
       -5    1    3    3    0  502 -0.12295359333E+03  0.92698968585E+03  0.20611860326E+04  0.22633906898E+04  0.46999998093E+01 0.  1.
</event>
<event>
 5   0  0.3704241E-05  0.2310140E+04  0.7818609E-02  0.8473934E-01
       -2   -1    0    0    0  501  0.00000000000E+00  0.00000000000E+00  0.15591744999E+04  0.15591744999E+04  0.25500000920E-02 0. -1.
        2   -1    0    0  501    0  0.00000000000E+00  0.00000000000E+00 -0.85570081460E+03  0.85570081460E+03  0.25500000920E-02 0.  1.
    10030    2    1    2    0    0  0.00000000000E+00  0.00000000000E+00  0.70347368530E+03  0.24148753145E+04  0.23101401600E+04 0.  0.
        2    1    3    3  502    0 -0.38999469172E+03  0.10865321733E+04  0.31072995124E+03  0.11954920016E+04  0.25500000920E-02 0.  1.
       -2    1    3    3    0  502  0.38999469172E+03 -0.10865321733E+04  0.39274373406E+03  0.12193833129E+04  0.25500000920E-02 0. -1.
</event>
<event>
 5   0  0.1421242E-05  0.2572577E+04  0.7818609E-02  0.8377576E-01
        1   -1    0    0  501    0  0.00000000000E+00  0.00000000000E+00  0.18051450185E+04  0.18051450185E+04  0.50400001928E-02 0.  1.
       -1   -1    0    0    0  501  0.00000000000E+00  0.00000000000E+00 -0.91656770200E+03  0.91656770201E+03  0.50400001928E-02 0. -1.
    10030    2    1    2    0    0  0.00000000000E+00  0.00000000000E+00  0.88857731645E+03  0.27217127205E+04  0.25725766238E+04 0.  0.
        3    1    3    3  502    0 -0.31240206192E+03  0.29526512904E+03  0.17269066672E+04  0.17796019758E+04  0.10100000352E+00 0.  1.
       -3    1    3    3    0  502  0.31240206192E+03 -0.29526512904E+03 -0.83832935076E+03  0.94211074470E+03  0.10100000352E+00 0. -1.
</event>
<event>
 5   0  0.3581449E-05  0.2490995E+04  0.7818609E-02  0.8406201E-01
       -2   -1    0    0    0  501  0.00000000000E+00  0.00000000000E+00  0.73099970319E+03  0.73099970319E+03  0.25500000920E-02 0.  1.
        2   -1    0    0  501    0  0.00000000000E+00  0.00000000000E+00 -0.21221133758E+04  0.21221133758E+04  0.25500000920E-02 0. -1.
    10030    2    1    2    0    0  0.00000000000E+00  0.00000000000E+00 -0.13911136726E+04  0.28531130790E+04  0.24909951809E+04 0.  0.
        1    1    3    3  502    0  0.38029584236E+03 -0.11414383759E+04 -0.32661629680E+03  0.12466694426E+04  0.50400001928E-02 0. -1.
       -1    1    3    3    0  502 -0.38029584236E+03  0.11414383759E+04 -0.10644973758E+04  0.16064436364E+04  0.50400001928E-02 0.  1.
</event>
<event>
 5   0  0.1502886E-05  0.2556709E+04  0.7818609E-02  0.8383057E-01
       -1   -1    0    0    0  501  0.00000000000E+00  0.00000000000E+00  0.14007483696E+04  0.14007483696E+04  0.50400001928E-02 0. -1.
        1   -1    0    0  501    0  0.00000000000E+00  0.00000000000E+00 -0.11666551004E+04  0.11666551004E+04  0.50400001928E-02 0.  1.
    10030    2    1    2    0    0  0.00000000000E+00  0.00000000000E+00  0.23409326912E+03  0.25674034700E+04  0.25567090017E+04 0.  0.
        4    1    3    3  502    0 -0.12528397052E+03 -0.18008036630E+03 -0.11476114456E+04  0.11683914818E+04  0.12699999809E+01 0.  1.
       -4    1    3    3    0  502  0.12528397052E+03  0.18008036630E+03  0.13817047148E+04  0.13990119883E+04  0.12699999809E+01 0. -1.
</event>
<event>
 5   0  0.1502886E-05  0.2530194E+04  0.7818609E-02  0.8392307E-01
        1   -1    0    0  501    0  0.00000000000E+00  0.00000000000E+00  0.13016784901E+04  0.13016784901E+04  0.50400001928E-02 0.  1.
       -1   -1    0    0    0  501  0.00000000000E+00  0.00000000000E+00 -0.12295433570E+04  0.12295433570E+04  0.50400001928E-02 0. -1.
    10030    2    1    2    0    0  0.00000000000E+00  0.00000000000E+00  0.72135133048E+02  0.25312218471E+04  0.25301937795E+04 0.  0.
        4    1    3    3  502    0  0.56268484789E+03  0.44842061075E+03  0.10770542756E+04  0.12952771161E+04  0.12699999809E+01 0.  1.
       -4    1    3    3    0  502 -0.56268484789E+03 -0.44842061075E+03 -0.10049191425E+04  0.12359447310E+04  0.12699999809E+01 0. -1.
</event>
<event>
 5   0  0.3650620E-05  0.2471593E+04  0.7818609E-02  0.8413176E-01
        2   -1    0    0  501    0  0.00000000000E+00  0.00000000000E+00  0.89400785770E+03  0.89400785771E+03  0.25500000920E-02 0. -1.
       -2   -1    0    0    0  501  0.00000000000E+00  0.00000000000E+00 -0.17082551426E+04  0.17082551426E+04  0.25500000920E-02 0.  1.
    10030    2    1    2    0    0  0.00000000000E+00  0.00000000000E+00 -0.81424728492E+03  0.26022630003E+04  0.24715934297E+04 0.  0.
        3    1    3    3  502    0 -0.10848519984E+04 -0.11622678552E+03  0.20388582135E+03  0.11099468286E+04  0.10100000352E+00 0. -1.
       -3    1    3    3    0  502  0.10848519984E+04  0.11622678552E+03 -0.10181331063E+04  0.14923161717E+04  0.10100000352E+00 0.  1.
</event>
<event>
 5   0  0.3579097E-05  0.2376671E+04  0.7818609E-02  0.8448290E-01
       -2   -1    0    0    0  501  0.00000000000E+00  0.00000000000E+00  0.14155251727E+04  0.14155251727E+04  0.25500000920E-02 0.  1.
        2   -1    0    0  501    0  0.00000000000E+00  0.00000000000E+00 -0.99760950558E+03  0.99760950559E+03  0.25500000920E-02 0. -1.
    10030    2    1    2    0    0  0.00000000000E+00  0.00000000000E+00  0.41791566711E+03  0.24131346783E+04  0.23766710901E+04 0.  0.
        5    1    3    3  502    0 -0.78196998122E+02 -0.11338664742E+03  0.14073834993E+04  0.14141151673E+04  0.46999998093E+01 0.  1.
       -5    1    3    3    0  502  0.78196998122E+02  0.11338664742E+03 -0.98946783220E+03  0.99901951096E+03  0.46999998093E+01 0. -1.
</event>
<event>
 5   0  0.3579097E-05  0.2498395E+04  0.7818609E-02  0.8403558E-01
        2   -1    0    0  501    0  0.00000000000E+00  0.00000000000E+00  0.16973631033E+04  0.16973631033E+04  0.25500000920E-02 0. -1.
       -2   -1    0    0    0  501  0.00000000000E+00  0.00000000000E+00 -0.91936376806E+03  0.91936376807E+03  0.25500000920E-02 0.  1.
    10030    2    1    2    0    0  0.00000000000E+00  0.00000000000E+00  0.77799933524E+03  0.26167268714E+04  0.24983947954E+04 0.  0.
        5    1    3    3  502    0 -0.42571068978E+03 -0.29927743155E+03  0.15784259986E+04  0.16620009914E+04  0.46999998093E+01 0. -1.
       -5    1    3    3    0  502  0.42571068978E+03  0.29927743155E+03 -0.80042666336E+03  0.95472587995E+03  0.46999998093E+01 0.  1.
</event>
<event>
 5   0  0.3581449E-05  0.2579085E+04  0.7818609E-02  0.8375340E-01
        2   -1    0    0  501    0  0.00000000000E+00  0.00000000000E+00  0.92232914152E+03  0.92232914152E+03  0.25500000920E-02 0. -1.
       -2   -1    0    0    0  501  0.00000000000E+00  0.00000000000E+00 -0.18029576691E+04  0.18029576691E+04  0.25500000920E-02 0.  1.
    10030    2    1    2    0    0  0.00000000000E+00  0.00000000000E+00 -0.88062852756E+03  0.27252868106E+04  0.25790854186E+04 0.  0.
        1    1    3    3  502    0  0.12058798345E+03  0.93828257065E+03  0.48572295670E+03  0.10634107555E+04  0.50400001928E-02 0. -1.
       -1    1    3    3    0  502 -0.12058798345E+03 -0.93828257065E+03 -0.13663514843E+04  0.16618760552E+04  0.50400001928E-02 0.  1.
</event>
<event>
 5   0  0.1456876E-05  0.2459985E+04  0.7818609E-02  0.8417381E-01
        1   -1    0    0  501    0  0.00000000000E+00  0.00000000000E+00  0.12327902845E+04  0.12327902845E+04  0.50400001928E-02 0.  1.
       -1   -1    0    0    0  501  0.00000000000E+00  0.00000000000E+00 -0.12272013100E+04  0.12272013100E+04  0.50400001928E-02 0. -1.
    10030    2    1    2    0    0  0.00000000000E+00  0.00000000000E+00  0.55889744832E+01  0.24599915945E+04  0.24599852455E+04 0.  0.
        1    1    3    3  502    0  0.32413567140E+03 -0.76847654989E+02 -0.11812323675E+04  0.12273057491E+04  0.50400001928E-02 0. -1.
       -1    1    3    3    0  502 -0.32413567140E+03  0.76847654989E+02  0.11868213420E+04  0.12326858454E+04  0.50400001928E-02 0.  1.
</event>
<event>
 5   0  0.1201438E-05  0.2507106E+04  0.7818609E-02  0.8400458E-01
       -3   -1    0    0    0  501  0.00000000000E+00  0.00000000000E+00  0.12822205314E+04  0.12822205353E+04  0.10100000352E+00 0.  1.
        3   -1    0    0  501    0  0.00000000000E+00  0.00000000000E+00 -0.12255265593E+04  0.12255265635E+04  0.10100000352E+00 0. -1.
    10030    2    1    2    0    0  0.00000000000E+00  0.00000000000E+00  0.56693972031E+02  0.25077470988E+04  0.25071061615E+04 0.  0.
        3    1    3    3  502    0 -0.23715906616E+03  0.75571716526E+03  0.10002138529E+04  0.12758450604E+04  0.10100000352E+00 0.  1.
       -3    1    3    3    0  502  0.23715906616E+03 -0.75571716526E+03 -0.94351988083E+03  0.12319020384E+04  0.10100000352E+00 0. -1.
</event>
<event>
 5   0  0.3579097E-05  0.2552283E+04  0.7818609E-02  0.8384593E-01
        2   -1    0    0  501    0  0.00000000000E+00  0.00000000000E+00  0.85304233589E+03  0.85304233590E+03  0.25500000920E-02 0.  1.
       -2   -1    0    0    0  501  0.00000000000E+00  0.00000000000E+00 -0.19090929801E+04  0.19090929802E+04  0.25500000920E-02 0. -1.
    10030    2    1    2    0    0  0.00000000000E+00  0.00000000000E+00 -0.10560506443E+04  0.27621353160E+04  0.25522830056E+04 0.  0.
        5    1    3    3  502    0  0.92664137020E+03  0.87741134827E+03 -0.52843341778E+03  0.13812236857E+04  0.46999998093E+01 0.  1.
       -5    1    3    3    0  502 -0.92664137020E+03 -0.87741134827E+03 -0.52761722648E+03  0.13809116303E+04  0.46999998093E+01 0. -1.
</event>
<event>
 5   0  0.3704241E-05  0.2652172E+04  0.7818609E-02  0.8350692E-01
       -2   -1    0    0    0  501  0.00000000000E+00  0.00000000000E+00  0.84575088607E+03  0.84575088608E+03  0.25500000920E-02 0.  1.
        2   -1    0    0  501    0  0.00000000000E+00  0.00000000000E+00 -0.20792229695E+04  0.20792229695E+04  0.25500000920E-02 0. -1.
    10030    2    1    2    0    0  0.00000000000E+00  0.00000000000E+00 -0.12334720834E+04  0.29249738556E+04  0.26521724445E+04 0.  0.
        2    1    3    3  502    0  0.35653019770E+03  0.51416779078E+03 -0.19061965351E+04  0.20062570946E+04  0.25500000920E-02 0. -1.
       -2    1    3    3    0  502 -0.35653019770E+03 -0.51416779078E+03  0.67272445173E+03  0.91871676098E+03  0.25500000920E-02 0.  1.
</event>
<event>
 5   0  0.3650620E-05  0.2511823E+04  0.7818609E-02  0.8398786E-01
       -2   -1    0    0    0  501  0.00000000000E+00  0.00000000000E+00  0.10093268333E+04  0.10093268333E+04  0.25500000920E-02 0. -1.
        2   -1    0    0  501    0  0.00000000000E+00  0.00000000000E+00 -0.15627384121E+04  0.15627384121E+04  0.25500000920E-02 0.  1.
    10030    2    1    2    0    0  0.00000000000E+00  0.00000000000E+00 -0.55341157880E+03  0.25720652453E+04  0.25118230930E+04 0.  0.
        3    1    3    3  502    0 -0.81091620584E+03 -0.73421020094E+03 -0.90848289985E+03  0.14219672646E+04  0.10100000352E+00 0.  1.
       -3    1    3    3    0  502  0.81091620584E+03  0.73421020094E+03  0.35507132104E+03  0.11500979807E+04  0.10100000352E+00 0. -1.
</event>
<event>
 5   0  0.1456876E-05  0.2484508E+04  0.7818609E-02  0.8408526E-01
       -1   -1    0    0    0  501  0.00000000000E+00  0.00000000000E+00  0.88366069470E+03  0.88366069471E+03  0.50400001928E-02 0.  1.
        1   -1    0    0  501    0  0.00000000000E+00  0.00000000000E+00 -0.17463657981E+04  0.17463657981E+04  0.50400001928E-02 0. -1.
    10030    2    1    2    0    0  0.00000000000E+00  0.00000000000E+00 -0.86270510337E+03  0.26300264928E+04  0.24845078501E+04 0.  0.
        1    1    3    3  502    0 -0.31646820194E+03 -0.34650249623E+03  0.78622372557E+03  0.91562211060E+03  0.50400001928E-02 0.  1.
       -1    1    3    3    0  502  0.31646820194E+03  0.34650249623E+03 -0.16489288289E+04  0.17144043822E+04  0.50400001928E-02 0. -1.
</event>
<event>
 5   0  0.3650620E-05  0.2517737E+04  0.7818609E-02  0.8396694E-01
        2   -1    0    0  501    0  0.00000000000E+00  0.00000000000E+00  0.24606684148E+04  0.24606684148E+04  0.25500000920E-02 0.  1.
       -2   -1    0    0    0  501  0.00000000000E+00  0.00000000000E+00 -0.64403229067E+03  0.64403229068E+03  0.25500000920E-02 0. -1.
    10030    2    1    2    0    0  0.00000000000E+00  0.00000000000E+00  0.18166361241E+04  0.31047007055E+04  0.25177370123E+04 0.  0.
        3    1    3    3  502    0  0.36998183411E+03  0.62866567084E+03  0.21734909969E+04  0.22926339017E+04  0.10100000352E+00 0.  1.
       -3    1    3    3    0  502 -0.36998183411E+03 -0.62866567084E+03 -0.35685487284E+03  0.81206680374E+03  0.10100000352E+00 0. -1.
</event>
<event>
 5   0  0.1201438E-05  0.2466449E+04  0.7818609E-02  0.8415037E-01
       -4   -1    0    0    0  501  0.00000000000E+00  0.00000000000E+00  0.12766025492E+04  0.12766031809E+04  0.12699999809E+01 0.  1.
        4   -1    0    0  501    0  0.00000000000E+00  0.00000000000E+00 -0.11913192187E+04  0.11913198956E+04  0.12699999809E+01 0. -1.
    10030    2    1    2    0    0  0.00000000000E+00  0.00000000000E+00  0.85283330472E+02  0.24679230765E+04  0.24664490802E+04 0.  0.
        1    1    3    3  502    0 -0.11510722571E+04 -0.44172835177E+03  0.70071338271E+02  0.12349094178E+04  0.50400001928E-02 0.  1.
       -1    1    3    3    0  502  0.11510722571E+04  0.44172835177E+03  0.15211992201E+02  0.12330136587E+04  0.50400001928E-02 0. -1.
</event>
<event>
 5   0  0.1456876E-05  0.2442825E+04  0.7818609E-02  0.8423642E-01
       -1   -1    0    0    0  501  0.00000000000E+00  0.00000000000E+00  0.71216950052E+03  0.71216950054E+03  0.50400001928E-02 0. -1.
        1   -1    0    0  501    0  0.00000000000E+00  0.00000000000E+00 -0.20947949595E+04  0.20947949596E+04  0.50400001928E-02 0.  1.
    10030    2    1    2    0    0  0.00000000000E+00  0.00000000000E+00 -0.13826254590E+04  0.28069644601E+04  0.24428254789E+04 0.  0.
        1    1    3    3  502    0 -0.94901478659E+03 -0.40222220220E+02  0.19100298855E+03  0.96888029902E+03  0.50400001928E-02 0. -1.
       -1    1    3    3    0  502  0.94901478659E+03  0.40222220220E+02 -0.15736284476E+04  0.18380841611E+04  0.50400001928E-02 0.  1.
</event>
<event>
 5   0  0.1429483E-05  0.2506843E+04  0.7818609E-02  0.8400552E-01
        1   -1    0    0  501    0  0.00000000000E+00  0.00000000000E+00  0.15532525604E+04  0.15532525605E+04  0.50400001928E-02 0.  1.
       -1   -1    0    0    0  501  0.00000000000E+00  0.00000000000E+00 -0.10114682406E+04  0.10114682407E+04  0.50400001928E-02 0. -1.
    10030    2    1    2    0    0  0.00000000000E+00  0.00000000000E+00  0.54178431980E+03  0.25647208011E+04  0.25068431420E+04 0.  0.
        2    1    3    3  502    0 -0.45573220349E+03  0.74796760179E+03 -0.64642365419E+03  0.10885820664E+04  0.25500000920E-02 0. -1.
       -2    1    3    3    0  502  0.45573220349E+03 -0.74796760179E+03  0.11882079740E+04  0.14761387347E+04  0.25500000920E-02 0.  1.
</event>
<event>
 5   0  0.3578670E-05  0.2476144E+04  0.7818609E-02  0.8411534E-01
        2   -1    0    0  501    0  0.00000000000E+00  0.00000000000E+00  0.18070260841E+04  0.18070260841E+04  0.25500000920E-02 0. -1.
       -2   -1    0    0    0  501  0.00000000000E+00  0.00000000000E+00 -0.84825683122E+03  0.84825683122E+03  0.25500000920E-02 0.  1.
    10030    2    1    2    0    0  0.00000000000E+00  0.00000000000E+00  0.95876925292E+03  0.26552829154E+04  0.24761439539E+04 0.  0.
        4    1    3    3  502    0  0.29188995839E+03  0.11164954406E+04 -0.14507855922E+01  0.11540214618E+04  0.12699999809E+01 0. -1.
       -4    1    3    3    0  502 -0.29188995839E+03 -0.11164954406E+04  0.96022003851E+03  0.15012614535E+04  0.12699999809E+01 0.  1.
</event>
<event>
 5   0  0.3578670E-05  0.2160817E+04  0.7818609E-02  0.8534916E-01
       -2   -1    0    0    0  501  0.00000000000E+00  0.00000000000E+00  0.11827921314E+04  0.11827921314E+04  0.25500000920E-02 0.  1.
        2   -1    0    0  501    0  0.00000000000E+00  0.00000000000E+00 -0.98688702004E+03  0.98688702004E+03  0.25500000920E-02 0. -1.
    10030    2    1    2    0    0  0.00000000000E+00  0.00000000000E+00  0.19590511137E+03  0.21696791515E+04  0.21608166992E+04 0.  0.
        4    1    3    3  502    0 -0.35199352215E+03  0.95970898925E+03 -0.25325308373E+03  0.10531284447E+04  0.12699999809E+01 0. -1.
       -4    1    3    3    0  502  0.35199352215E+03 -0.95970898925E+03  0.44915819510E+03  0.11165507068E+04  0.12699999809E+01 0.  1.
</event>
<event>
 5   0  0.3704241E-05  0.2527807E+04  0.7818609E-02  0.8393145E-01
       -2   -1    0    0    0  501  0.00000000000E+00  0.00000000000E+00  0.12744374836E+04  0.12744374836E+04  0.25500000920E-02 0. -1.
        2   -1    0    0  501    0  0.00000000000E+00  0.00000000000E+00 -0.12534570281E+04  0.12534570281E+04  0.25500000920E-02 0.  1.
    10030    2    1    2    0    0  0.00000000000E+00  0.00000000000E+00  0.20980455532E+02  0.25278945117E+04  0.25278074457E+04 0.  0.
        2    1    3    3  502    0  0.11552431836E+04  0.49105282752E+03  0.15791622678E+03  0.12651708293E+04  0.25500000920E-02 0. -1.
       -2    1    3    3    0  502 -0.11552431836E+04 -0.49105282752E+03 -0.13693577125E+03  0.12627236824E+04  0.25500000920E-02 0.  1.
</event>
<event>
 5   0  0.3581449E-05  0.2414940E+04  0.7818609E-02  0.8433931E-01
        2   -1    0    0  501    0  0.00000000000E+00  0.00000000000E+00  0.21757034846E+04  0.21757034846E+04  0.25500000920E-02 0. -1.
       -2   -1    0    0    0  501  0.00000000000E+00  0.00000000000E+00 -0.67012087652E+03  0.67012087652E+03  0.25500000920E-02 0.  1.
    10030    2    1    2    0    0  0.00000000000E+00  0.00000000000E+00  0.15055826081E+04  0.28458243611E+04  0.24149404350E+04 0.  0.
        1    1    3    3  502    0  0.88990617146E+03 -0.13965395352E+03 -0.19475859830E+03  0.92161116116E+03  0.50400001928E-02 0.  1.
       -1    1    3    3    0  502 -0.88990617146E+03  0.13965395352E+03  0.17003412064E+04  0.19242132000E+04  0.50400001928E-02 0. -1.
</event>
<event>
 5   0  0.3578670E-05  0.2487786E+04  0.7818609E-02  0.8407350E-01
        2   -1    0    0  501    0  0.00000000000E+00  0.00000000000E+00  0.18788579892E+04  0.18788579892E+04  0.25500000920E-02 0. -1.
       -2   -1    0    0    0  501  0.00000000000E+00  0.00000000000E+00 -0.82351617153E+03  0.82351617154E+03  0.25500000920E-02 0.  1.
    10030    2    1    2    0    0  0.00000000000E+00  0.00000000000E+00  0.10553418177E+04  0.27023741607E+04  0.24877861147E+04 0.  0.
        4    1    3    3  502    0 -0.25464634971E+03  0.17341571691E+03 -0.78141505712E+03  0.83995766482E+03  0.12699999809E+01 0.  1.
       -4    1    3    3    0  502  0.25464634971E+03 -0.17341571691E+03  0.18367568748E+04  0.18624164959E+04  0.12699999809E+01 0. -1.
</event>
<event>
 5   0  0.3579097E-05  0.2651107E+04  0.7818609E-02  0.8351046E-01
       -2   -1    0    0    0  501  0.00000000000E+00  0.00000000000E+00  0.89889229504E+03  0.89889229504E+03  0.25500000920E-02 0.  1.
        2   -1    0    0  501    0  0.00000000000E+00  0.00000000000E+00 -0.19547305379E+04  0.19547305379E+04  0.25500000920E-02 0. -1.
    10030    2    1    2    0    0  0.00000000000E+00  0.00000000000E+00 -0.10558382428E+04  0.28536228329E+04  0.26511071041E+04 0.  0.
        5    1    3    3  502    0 -0.10640107268E+04 -0.48161626301E+03 -0.12027018505E+04  0.16764805047E+04  0.46999998093E+01 0. -1.
       -5    1    3    3    0  502  0.10640107268E+04  0.48161626301E+03  0.14686360771E+03  0.11771423282E+04  0.46999998093E+01 0.  1.
</event>
<event>
 5   0  0.1421242E-05  0.2470741E+04  0.7818609E-02  0.8413484E-01
        1   -1    0    0  501    0  0.00000000000E+00  0.00000000000E+00  0.14107499388E+04  0.14107499388E+04  0.50400001928E-02 0.  1.
       -1   -1    0    0    0  501  0.00000000000E+00  0.00000000000E+00 -0.10817940459E+04  0.10817940459E+04  0.50400001928E-02 0. -1.
    10030    2    1    2    0    0  0.00000000000E+00  0.00000000000E+00  0.32895589291E+03  0.24925439847E+04  0.24707414952E+04 0.  0.
        3    1    3    3  502    0  0.85099633475E+03 -0.82051935750E+03 -0.19742726209E+03  0.11985092039E+04  0.10100000352E+00 0. -1.
       -3    1    3    3    0  502 -0.85099633475E+03  0.82051935750E+03  0.52638315501E+03  0.12940347808E+04  0.10100000352E+00 0.  1.
</event>
<event>
 5   0  0.1421242E-05  0.2396520E+04  0.7818609E-02  0.8440808E-01
        1   -1    0    0  501    0  0.00000000000E+00  0.00000000000E+00  0.11499107631E+04  0.11499107631E+04  0.50400001928E-02 0.  1.
       -1   -1    0    0    0  501  0.00000000000E+00  0.00000000000E+00 -0.12486420557E+04  0.12486420557E+04  0.50400001928E-02 0. -1.
    10030    2    1    2    0    0  0.00000000000E+00  0.00000000000E+00 -0.98731292582E+02  0.23985528188E+04  0.23965199262E+04 0.  0.
        3    1    3    3  502    0 -0.81608109085E+03  0.87737690681E+03 -0.56324635424E+02  0.11995628613E+04  0.10100000352E+00 0.  1.
       -3    1    3    3    0  502  0.81608109085E+03 -0.87737690681E+03 -0.42406657158E+02  0.11989899575E+04  0.10100000352E+00 0. -1.
</event>
<event>
 5   0  0.1502886E-05  0.2549585E+04  0.7818609E-02  0.8385531E-01
       -1   -1    0    0    0  501  0.00000000000E+00  0.00000000000E+00  0.13531311173E+04  0.13531311173E+04  0.50400001928E-02 0. -1.
        1   -1    0    0  501    0  0.00000000000E+00  0.00000000000E+00 -0.12009892119E+04  0.12009892119E+04  0.50400001928E-02 0.  1.
    10030    2    1    2    0    0  0.00000000000E+00  0.00000000000E+00  0.15214190542E+03  0.25541203292E+04  0.25495849656E+04 0.  0.
        4    1    3    3  502    0  0.27735122224E+03 -0.86471857746E+03 -0.82018938625E+03  0.12236724075E+04  0.12699999809E+01 0.  1.
       -4    1    3    3    0  502 -0.27735122224E+03  0.86471857746E+03  0.97233129168E+03  0.13304479217E+04  0.12699999809E+01 0. -1.
</event>
<event>
 5   0  0.1456876E-05  0.2530488E+04  0.7818609E-02  0.8392204E-01
       -1   -1    0    0    0  501  0.00000000000E+00  0.00000000000E+00  0.24546323759E+04  0.24546323759E+04  0.50400001928E-02 0. -1.
        1   -1    0    0  501    0  0.00000000000E+00  0.00000000000E+00 -0.65217207195E+03  0.65217207197E+03  0.50400001928E-02 0.  1.
    10030    2    1    2    0    0  0.00000000000E+00  0.00000000000E+00  0.18024603039E+04  0.31068044478E+04  0.25304882394E+04 0.  0.
        1    1    3    3  502    0  0.10259797288E+04 -0.42682545735E+02 -0.62968733827E+01  0.10268864855E+04  0.50400001928E-02 0.  1.
       -1    1    3    3    0  502 -0.10259797288E+04  0.42682545735E+02  0.18087571773E+04  0.20799179623E+04  0.50400001928E-02 0. -1.
</event>
<event>
 5   0  0.3581449E-05  0.2532295E+04  0.7818609E-02  0.8391570E-01
       -2   -1    0    0    0  501  0.00000000000E+00  0.00000000000E+00  0.74443874396E+03  0.74443874397E+03  0.25500000920E-02 0. -1.
        2   -1    0    0  501    0  0.00000000000E+00  0.00000000000E+00 -0.21534741601E+04  0.21534741601E+04  0.25500000920E-02 0.  1.
    10030    2    1    2    0    0  0.00000000000E+00  0.00000000000E+00 -0.14090354162E+04  0.28979129041E+04  0.25322950846E+04 0.  0.
        1    1    3    3  502    0  0.90123245816E+03  0.25700647062E+03  0.26979257013E+03  0.97522320548E+03  0.50400001928E-02 0. -1.
       -1    1    3    3    0  502 -0.90123245816E+03 -0.25700647062E+03 -0.16788279863E+04  0.19226896986E+04  0.50400001928E-02 0.  1.
</event>
<event>
 5   0  0.3578670E-05  0.2373187E+04  0.7818609E-02  0.8449611E-01
       -2   -1    0    0    0  501  0.00000000000E+00  0.00000000000E+00  0.96470691458E+03  0.96470691458E+03  0.25500000920E-02 0.  1.
        2   -1    0    0  501    0  0.00000000000E+00  0.00000000000E+00 -0.14595146813E+04  0.14595146813E+04  0.25500000920E-02 0. -1.
    10030    2    1    2    0    0  0.00000000000E+00  0.00000000000E+00 -0.49480776669E+03  0.24242215959E+04  0.23731868068E+04 0.  0.
        4    1    3    3  502    0 -0.78859676497E+03 -0.56974127575E+03  0.44655227900E+03  0.10704674352E+04  0.12699999809E+01 0.  1.
       -4    1    3    3    0  502  0.78859676497E+03  0.56974127575E+03 -0.94136004570E+03  0.13537541607E+04  0.12699999809E+01 0. -1.
</event>
<event>
 5   0  0.3704241E-05  0.2511224E+04  0.7818609E-02  0.8398998E-01
       -2   -1    0    0    0  501  0.00000000000E+00  0.00000000000E+00  0.12638881365E+04  0.12638881365E+04  0.25500000920E-02 0.  1.
        2   -1    0    0  501    0  0.00000000000E+00  0.00000000000E+00 -0.12473903428E+04  0.12473903428E+04  0.25500000920E-02 0. -1.
    10030    2    1    2    0    0  0.00000000000E+00  0.00000000000E+00  0.16497793682E+02  0.25112784794E+04  0.25112242878E+04 0.  0.
        2    1    3    3  502    0 -0.10735324729E+04 -0.59864042683E+03  0.26461262535E+03  0.12573234161E+04  0.25500000920E-02 0. -1.
       -2    1    3    3    0  502  0.10735324729E+04  0.59864042683E+03 -0.24811483167E+03  0.12539550633E+04  0.25500000920E-02 0.  1.
</event>
<event>
 5   0  0.1201438E-05  0.2518046E+04  0.7818609E-02  0.8396585E-01
        3   -1    0    0  501    0  0.00000000000E+00  0.00000000000E+00  0.14987177635E+04  0.14987177669E+04  0.10100000352E+00 0.  1.
       -3   -1    0    0    0  501  0.00000000000E+00  0.00000000000E+00 -0.10576634911E+04  0.10576634959E+04  0.10100000352E+00 0. -1.
    10030    2    1    2    0    0  0.00000000000E+00  0.00000000000E+00  0.44105427237E+03  0.25563812628E+04  0.25180461254E+04 0.  0.
        2    1    3    3  502    0  0.86868721917E+03 -0.20831042544E+03 -0.68018232154E+03  0.11227905898E+04  0.25500000920E-02 0. -1.
       -2    1    3    3    0  502 -0.86868721917E+03  0.20831042544E+03  0.11212365939E+04  0.14335906730E+04  0.25500000920E-02 0.  1.
</event>
<event>
 5   0  0.1421242E-05  0.2499913E+04  0.7818609E-02  0.8403017E-01
       -1   -1    0    0    0  501  0.00000000000E+00  0.00000000000E+00  0.77425359628E+03  0.77425359629E+03  0.50400001928E-02 0. -1.
        1   -1    0    0  501    0  0.00000000000E+00  0.00000000000E+00 -0.20179315263E+04  0.20179315263E+04  0.50400001928E-02 0.  1.
    10030    2    1    2    0    0  0.00000000000E+00  0.00000000000E+00 -0.12436779300E+04  0.27921851226E+04  0.24999125915E+04 0.  0.
        3    1    3    3  502    0 -0.83966264119E+03  0.80986093609E+03 -0.11231857170E+04  0.16193993491E+04  0.10100000352E+00 0.  1.
       -3    1    3    3    0  502  0.83966264119E+03 -0.80986093609E+03 -0.12049221297E+03  0.11727857734E+04  0.10100000352E+00 0. -1.
</event>
<event>
 5   0  0.3581449E-05  0.2496813E+04  0.7818609E-02  0.8404122E-01
        2   -1    0    0  501    0  0.00000000000E+00  0.00000000000E+00  0.12636563007E+04  0.12636563007E+04  0.25500000920E-02 0.  1.
       -2   -1    0    0    0  501  0.00000000000E+00  0.00000000000E+00 -0.12333409463E+04  0.12333409463E+04  0.25500000920E-02 0. -1.
    10030    2    1    2    0    0  0.00000000000E+00  0.00000000000E+00  0.30315354389E+02  0.24969972471E+04  0.24968132151E+04 0.  0.
        1    1    3    3  502    0  0.16988207276E+03  0.39385627088E+03  0.11876503252E+04  0.12627335332E+04  0.50400001928E-02 0.  1.
       -1    1    3    3    0  502 -0.16988207276E+03 -0.39385627088E+03 -0.11573349708E+04  0.12342637139E+04  0.50400001928E-02 0. -1.
</event>
<event>
 5   0  0.1502886E-05  0.2488558E+04  0.7818609E-02  0.8407073E-01
       -1   -1    0    0    0  501  0.00000000000E+00  0.00000000000E+00  0.83808299441E+03  0.83808299443E+03  0.50400001928E-02 0. -1.
        1   -1    0    0  501    0  0.00000000000E+00  0.00000000000E+00 -0.18473467297E+04  0.18473467297E+04  0.50400001928E-02 0.  1.
    10030    2    1    2    0    0  0.00000000000E+00  0.00000000000E+00 -0.10092637352E+04  0.26854297241E+04  0.24885577180E+04 0.  0.
        4    1    3    3  502    0  0.36440350732E+03  0.10487452510E+04  0.10156701521E+03  0.11148874334E+04  0.12699999809E+01 0. -1.
       -4    1    3    3    0  502 -0.36440350732E+03 -0.10487452510E+04 -0.11108307505E+04  0.15705422907E+04  0.12699999809E+01 0.  1.
</event>
<event>
 5   0  0.1421242E-05  0.2504406E+04  0.7818609E-02  0.8401417E-01
       -1   -1    0    0    0  501  0.00000000000E+00  0.00000000000E+00  0.77417179479E+03  0.77417179480E+03  0.50400001928E-02 0. -1.
        1   -1    0    0  501    0  0.00000000000E+00  0.00000000000E+00 -0.20254065401E+04  0.20254065401E+04  0.50400001928E-02 0.  1.
    10030    2    1    2    0    0  0.00000000000E+00  0.00000000000E+00 -0.12512347453E+04  0.27995783349E+04  0.25044062102E+04 0.  0.
        3    1    3    3  502    0 -0.62699048581E+03  0.94807007606E+03 -0.12129559756E+04  0.16622924374E+04  0.10100000352E+00 0.  1.
       -3    1    3    3    0  502  0.62699048581E+03 -0.94807007606E+03 -0.38278769763E+02  0.11372858976E+04  0.10100000352E+00 0. -1.
</event>
<event>
 5   0  0.1456876E-05  0.2376543E+04  0.7818609E-02  0.8448338E-01
        1   -1    0    0  501    0  0.00000000000E+00  0.00000000000E+00  0.12956702048E+04  0.12956702049E+04  0.50400001928E-02 0. -1.
       -1   -1    0    0    0  501  0.00000000000E+00  0.00000000000E+00 -0.10897754818E+04  0.10897754818E+04  0.50400001928E-02 0.  1.
    10030    2    1    2    0    0  0.00000000000E+00  0.00000000000E+00  0.20589472309E+03  0.23854456866E+04  0.23765433905E+04 0.  0.
        1    1    3    3  502    0 -0.10099680001E+04 -0.62025098791E+03  0.18837181387E+03  0.12000960751E+04  0.50400001928E-02 0. -1.
       -1    1    3    3    0  502  0.10099680001E+04  0.62025098791E+03  0.17522909221E+02  0.11853496115E+04  0.50400001928E-02 0.  1.
</event>
<event>
 5   0  0.1201438E-05  0.2520218E+04  0.7818609E-02  0.8395818E-01
        3   -1    0    0  501    0  0.00000000000E+00  0.00000000000E+00  0.71708929811E+03  0.71708930522E+03  0.10100000352E+00 0.  1.
       -3   -1    0    0    0  501  0.00000000000E+00  0.00000000000E+00 -0.22143329587E+04  0.22143329610E+04  0.10100000352E+00 0. -1.
    10030    2    1    2    0    0  0.00000000000E+00  0.00000000000E+00 -0.14972436606E+04  0.29314222662E+04  0.25202178326E+04 0.  0.
        2    1    3    3  502    0 -0.68596979387E+03 -0.92689229537E+03 -0.13396531722E+04  0.17675843706E+04  0.25500000920E-02 0. -1.
       -2    1    3    3    0  502  0.68596979387E+03  0.92689229537E+03 -0.15759048839E+03  0.11638378957E+04  0.25500000920E-02 0.  1.
</event>
<event>
 5   0  0.1421242E-05  0.2179772E+04  0.7818609E-02  0.8526895E-01
        1   -1    0    0  501    0  0.00000000000E+00  0.00000000000E+00  0.77370604096E+03  0.77370604098E+03  0.50400001928E-02 0.  1.
       -1   -1    0    0    0  501  0.00000000000E+00  0.00000000000E+00 -0.15352752649E+04  0.15352752649E+04  0.50400001928E-02 0. -1.
    10030    2    1    2    0    0  0.00000000000E+00  0.00000000000E+00 -0.76156922389E+03  0.23089813058E+04  0.21797722330E+04 0.  0.
        3    1    3    3  502    0 -0.85590345991E+03  0.55216274480E+03  0.30014344028E+02  0.10189972034E+04  0.10100000352E+00 0.  1.
       -3    1    3    3    0  502  0.85590345991E+03 -0.55216274480E+03 -0.79158356792E+03  0.12899841025E+04  0.10100000352E+00 0. -1.
</event>
<event>
 5   0  0.3578670E-05  0.2488411E+04  0.7818609E-02  0.8407126E-01
        2   -1    0    0  501    0  0.00000000000E+00  0.00000000000E+00  0.10086388062E+04  0.10086388062E+04  0.25500000920E-02 0. -1.
       -2   -1    0    0    0  501  0.00000000000E+00  0.00000000000E+00 -0.15347882431E+04  0.15347882431E+04  0.25500000920E-02 0.  1.
    10030    2    1    2    0    0  0.00000000000E+00  0.00000000000E+00 -0.52614943688E+03  0.25434270493E+04  0.24884107228E+04 0.  0.
        4    1    3    3  502    0 -0.44349939522E+03 -0.62565369446E+03  0.73833714165E+03  0.10645551214E+04  0.12699999809E+01 0. -1.
       -4    1    3    3    0  502  0.44349939522E+03  0.62565369446E+03 -0.12644865785E+04  0.14788719279E+04  0.12699999809E+01 0.  1.
</event>
<event>
 5   0  0.3581449E-05  0.2481075E+04  0.7818609E-02  0.8409759E-01
       -2   -1    0    0    0  501  0.00000000000E+00  0.00000000000E+00  0.98341525817E+03  0.98341525817E+03  0.25500000920E-02 0. -1.
        2   -1    0    0  501    0  0.00000000000E+00  0.00000000000E+00 -0.15648868336E+04  0.15648868336E+04  0.25500000920E-02 0.  1.
    10030    2    1    2    0    0  0.00000000000E+00  0.00000000000E+00 -0.58147157544E+03  0.25483020918E+04  0.24810752423E+04 0.  0.
        1    1    3    3  502    0  0.41220878744E+03 -0.11397318939E+04 -0.56253553846E+03  0.13361703135E+04  0.50400001928E-02 0.  1.
       -1    1    3    3    0  502 -0.41220878744E+03  0.11397318939E+04 -0.18936036978E+02  0.12121317783E+04  0.50400001928E-02 0. -1.
</event>
<event>
 5   0  0.1502886E-05  0.2532160E+04  0.7818609E-02  0.8391617E-01
        1   -1    0    0  501    0  0.00000000000E+00  0.00000000000E+00  0.16018883249E+04  0.16018883249E+04  0.50400001928E-02 0.  1.
       -1   -1    0    0    0  501  0.00000000000E+00  0.00000000000E+00 -0.10006684779E+04  0.10006684779E+04  0.50400001928E-02 0. -1.
    10030    2    1    2    0    0  0.00000000000E+00  0.00000000000E+00  0.60121984694E+03  0.26025568028E+04  0.25321604624E+04 0.  0.
        4    1    3    3  502    0  0.84350937779E+03  0.66659332026E+03 -0.38663682751E+03  0.11425166845E+04  0.12699999809E+01 0. -1.
       -4    1    3    3    0  502 -0.84350937779E+03 -0.66659332026E+03  0.98785667445E+03  0.14600401183E+04  0.12699999809E+01 0.  1.
</event>
<event>
 5   0  0.3579097E-05  0.2424223E+04  0.7818609E-02  0.8430490E-01
        2   -1    0    0  501    0  0.00000000000E+00  0.00000000000E+00  0.22692600606E+04  0.22692600606E+04  0.25500000920E-02 0. -1.
       -2   -1    0    0    0  501  0.00000000000E+00  0.00000000000E+00 -0.64744194290E+03  0.64744194291E+03  0.25500000920E-02 0.  1.
    10030    2    1    2    0    0  0.00000000000E+00  0.00000000000E+00  0.16218181176E+04  0.29167020035E+04  0.24242228797E+04 0.  0.
        5    1    3    3  502    0  0.16710728203E+01 -0.96707100101E+03  0.16900835356E+04  0.19472117401E+04  0.46999998093E+01 0. -1.
       -5    1    3    3    0  502 -0.16710728203E+01  0.96707100101E+03 -0.68265417947E+02  0.96949026336E+03  0.46999998093E+01 0.  1.
</event>
<event>
 5   0  0.1502886E-05  0.2510973E+04  0.7818609E-02  0.8399087E-01
        1   -1    0    0  501    0  0.00000000000E+00  0.00000000000E+00  0.23956879926E+04  0.23956879926E+04  0.50400001928E-02 0.  1.
       -1   -1    0    0    0  501  0.00000000000E+00  0.00000000000E+00 -0.65795149046E+03  0.65795149048E+03  0.50400001928E-02 0. -1.
    10030    2    1    2    0    0  0.00000000000E+00  0.00000000000E+00  0.17377365022E+04  0.30536394831E+04  0.25109731065E+04 0.  0.
        4    1    3    3  502    0  0.77646295263E+03 -0.53378216416E+03 -0.14016289483E+03  0.95260976563E+03  0.12699999809E+01 0.  1.
       -4    1    3    3    0  502 -0.77646295263E+03  0.53378216416E+03  0.18778993970E+04  0.21010297175E+04  0.12699999809E+01 0. -1.
</event>
<event>
 5   0  0.1456876E-05  0.2578760E+04  0.7818609E-02  0.8375452E-01
       -1   -1    0    0    0  501  0.00000000000E+00  0.00000000000E+00  0.89730535808E+03  0.89730535810E+03  0.50400001928E-02 0. -1.
        1   -1    0    0  501    0  0.00000000000E+00  0.00000000000E+00 -0.18527698261E+04  0.18527698261E+04  0.50400001928E-02 0.  1.
    10030    2    1    2    0    0  0.00000000000E+00  0.00000000000E+00 -0.95546446798E+03  0.27500751842E+04  0.25787596183E+04 0.  0.
        1    1    3    3  502    0 -0.85543303158E+03 -0.39443837049E+02  0.55024466124E+03  0.10178853939E+04  0.50400001928E-02 0. -1.
       -1    1    3    3    0  502  0.85543303158E+03  0.39443837049E+02 -0.15057091292E+04  0.17321897903E+04  0.50400001928E-02 0.  1.
</event>
<event>
 5   0  0.1421242E-05  0.2498062E+04  0.7818609E-02  0.8403676E-01
        1   -1    0    0  501    0  0.00000000000E+00  0.00000000000E+00  0.11161846576E+04  0.11161846576E+04  0.50400001928E-02 0. -1.
       -1   -1    0    0    0  501  0.00000000000E+00  0.00000000000E+00 -0.13976885111E+04  0.13976885112E+04  0.50400001928E-02 0.  1.
    10030    2    1    2    0    0  0.00000000000E+00  0.00000000000E+00 -0.28150385357E+03  0.25138731687E+04  0.24980620266E+04 0.  0.
        3    1    3    3  502    0 -0.94892003568E+03  0.25856488215E+03 -0.91554282337E+03  0.13436977726E+04  0.10100000352E+00 0.  1.
       -3    1    3    3    0  502  0.94892003568E+03 -0.25856488215E+03  0.63403896979E+03  0.11701753962E+04  0.10100000352E+00 0. -1.
</event>
<event>
 5   0  0.1421242E-05  0.2511749E+04  0.7818609E-02  0.8398812E-01
        1   -1    0    0  501    0  0.00000000000E+00  0.00000000000E+00  0.18441577679E+04  0.18441577679E+04  0.50400001928E-02 0. -1.
       -1   -1    0    0    0  501  0.00000000000E+00  0.00000000000E+00 -0.85525272354E+03  0.85525272355E+03  0.50400001928E-02 0.  1.
    10030    2    1    2    0    0  0.00000000000E+00  0.00000000000E+00  0.98890504436E+03  0.26994104915E+04  0.25117491544E+04 0.  0.
        3    1    3    3  502    0  0.11121379479E+04  0.37884119619E+03  0.97127838004E+03  0.15243861613E+04  0.10100000352E+00 0.  1.
       -3    1    3    3    0  502 -0.11121379479E+04 -0.37884119619E+03  0.17626664314E+02  0.11750243302E+04  0.10100000352E+00 0. -1.
</event>
<event>
 5   0  0.3579097E-05  0.2736034E+04  0.7818609E-02  0.8323407E-01
       -2   -1    0    0    0  501  0.00000000000E+00  0.00000000000E+00  0.81739505970E+03  0.81739505970E+03  0.25500000920E-02 0.  1.
        2   -1    0    0  501    0  0.00000000000E+00  0.00000000000E+00 -0.22895540868E+04  0.22895540868E+04  0.25500000920E-02 0. -1.
    10030    2    1    2    0    0  0.00000000000E+00  0.00000000000E+00 -0.14721590271E+04  0.31069491465E+04  0.27360337713E+04 0.  0.
        5    1    3    3  502    0  0.33522147575E+02  0.10448854253E+04  0.26588612578E+03  0.10787153509E+04  0.46999998093E+01 0.  1.
       -5    1    3    3    0  502 -0.33522147575E+02 -0.10448854253E+04 -0.17380451528E+04  0.20282337956E+04  0.46999998093E+01 0. -1.
</event>
<event>
 5   0  0.3581449E-05  0.2498183E+04  0.7818609E-02  0.8403633E-01
        2   -1    0    0  501    0  0.00000000000E+00  0.00000000000E+00  0.15437090197E+04  0.15437090197E+04  0.25500000920E-02 0. -1.
       -2   -1    0    0    0  501  0.00000000000E+00  0.00000000000E+00 -0.10107016159E+04  0.10107016159E+04  0.25500000920E-02 0.  1.
    10030    2    1    2    0    0  0.00000000000E+00  0.00000000000E+00  0.53300740375E+03  0.25544106356E+04  0.24981827000E+04 0.  0.
        1    1    3    3  502    0 -0.95831496632E+03 -0.16634365787E+03 -0.53483918738E+03  0.11099958304E+04  0.50400001928E-02 0.  1.
       -1    1    3    3    0  502  0.95831496632E+03  0.16634365787E+03  0.10678465911E+04  0.14444148052E+04  0.50400001928E-02 0. -1.
</event>
<event>
 5   0  0.1502886E-05  0.2445618E+04  0.7818609E-02  0.8422619E-01
        1   -1    0    0  501    0  0.00000000000E+00  0.00000000000E+00  0.91745618889E+03  0.91745618890E+03  0.50400001928E-02 0.  1.
       -1   -1    0    0    0  501  0.00000000000E+00  0.00000000000E+00 -0.16297915754E+04  0.16297915754E+04  0.50400001928E-02 0. -1.
    10030    2    1    2    0    0  0.00000000000E+00  0.00000000000E+00 -0.71233538651E+03  0.25472477643E+04  0.24456184228E+04 0.  0.
        4    1    3    3  502    0 -0.70076609345E+03  0.99972810430E+03 -0.42781093492E+03  0.12936588458E+04  0.12699999809E+01 0.  1.
       -4    1    3    3    0  502  0.70076609345E+03 -0.99972810430E+03 -0.28452445159E+03  0.12535889186E+04  0.12699999809E+01 0. -1.
</event>
<event>
 5   0  0.1421242E-05  0.2514411E+04  0.7818609E-02  0.8397870E-01
        1   -1    0    0  501    0  0.00000000000E+00  0.00000000000E+00  0.20524698574E+04  0.20524698574E+04  0.50400001928E-02 0. -1.
       -1   -1    0    0    0  501  0.00000000000E+00  0.00000000000E+00 -0.77007978998E+03  0.77007979000E+03  0.50400001928E-02 0.  1.
    10030    2    1    2    0    0  0.00000000000E+00  0.00000000000E+00  0.12823900674E+04  0.28225496474E+04  0.25144109106E+04 0.  0.
        3    1    3    3  502    0 -0.13698935793E+03 -0.12772395925E+01  0.20440660572E+04  0.20486516961E+04  0.10100000352E+00 0. -1.
       -3    1    3    3    0  502  0.13698935793E+03  0.12772395925E+01 -0.76167598975E+03  0.77389795134E+03  0.10100000352E+00 0.  1.
</event>
<event>
 5   0  0.3579097E-05  0.2525728E+04  0.7818609E-02  0.8393877E-01
        2   -1    0    0  501    0  0.00000000000E+00  0.00000000000E+00  0.13434303735E+04  0.13434303735E+04  0.25500000920E-02 0.  1.
       -2   -1    0    0    0  501  0.00000000000E+00  0.00000000000E+00 -0.11871295607E+04  0.11871295607E+04  0.25500000920E-02 0. -1.
    10030    2    1    2    0    0  0.00000000000E+00  0.00000000000E+00  0.15630081283E+03  0.25305599342E+04  0.25257283378E+04 0.  0.
        5    1    3    3  502    0 -0.59019217573E+02 -0.59484993706E+03  0.11926965420E+04  0.13341202520E+04  0.46999998093E+01 0.  1.
       -5    1    3    3    0  502  0.59019217573E+02  0.59484993706E+03 -0.10363957291E+04  0.11964396821E+04  0.46999998093E+01 0. -1.
</event>
<event>
 5   0  0.1492639E-05  0.2463362E+04  0.7818609E-02  0.8416155E-01
        1   -1    0    0  501    0  0.00000000000E+00  0.00000000000E+00  0.17065575810E+04  0.17065575810E+04  0.50400001928E-02 0. -1.
       -1   -1    0    0    0  501  0.00000000000E+00  0.00000000000E+00 -0.88894634968E+03  0.88894634970E+03  0.50400001928E-02 0.  1.
    10030    2    1    2    0    0  0.00000000000E+00  0.00000000000E+00  0.81761123134E+03  0.25955039307E+04  0.24633620377E+04 0.  0.
        5    1    3    3  502    0  0.85729084307E+03 -0.67318523195E+03  0.10130586563E+04  0.14880980738E+04  0.46999998093E+01 0.  1.
       -5    1    3    3    0  502 -0.85729084307E+03  0.67318523195E+03 -0.19544742492E+03  0.11074058570E+04  0.46999998093E+01 0. -1.
</event>
<event>
 5   0  0.1421242E-05  0.2651080E+04  0.7818609E-02  0.8351054E-01
        1   -1    0    0  501    0  0.00000000000E+00  0.00000000000E+00  0.24051556557E+04  0.24051556557E+04  0.50400001928E-02 0. -1.
       -1   -1    0    0    0  501  0.00000000000E+00  0.00000000000E+00 -0.73053764120E+03  0.73053764121E+03  0.50400001928E-02 0.  1.
    10030    2    1    2    0    0  0.00000000000E+00  0.00000000000E+00  0.16746180145E+04  0.31356932969E+04  0.26510803379E+04 0.  0.
        3    1    3    3  502    0 -0.11272332931E+03  0.12310545965E+04  0.14031451239E+04  0.18700316087E+04  0.10100000352E+00 0. -1.
       -3    1    3    3    0  502  0.11272332931E+03 -0.12310545965E+04  0.27147289060E+03  0.12656616882E+04  0.10100000352E+00 0.  1.
</event>
<event>
 5   0  0.3578670E-05  0.2616738E+04  0.7818609E-02  0.8362538E-01
        2   -1    0    0  501    0  0.00000000000E+00  0.00000000000E+00  0.27096054536E+04  0.27096054536E+04  0.25500000920E-02 0.  1.
       -2   -1    0    0    0  501  0.00000000000E+00  0.00000000000E+00 -0.63176346554E+03  0.63176346554E+03  0.25500000920E-02 0. -1.
    10030    2    1    2    0    0  0.00000000000E+00  0.00000000000E+00  0.20778419880E+04  0.33413689191E+04  0.26167382227E+04 0.  0.
        4    1    3    3  502    0 -0.11944913544E+04 -0.33840830690E+03  0.15661802698E+04  0.19985624905E+04  0.12699999809E+01 0.  1.
       -4    1    3    3    0  502  0.11944913544E+04  0.33840830690E+03  0.51166171829E+03  0.13428064287E+04  0.12699999809E+01 0. -1.
</event>
<event>
 5   0  0.3704241E-05  0.2452544E+04  0.7818609E-02  0.8420090E-01
        2   -1    0    0  501    0  0.00000000000E+00  0.00000000000E+00  0.22810571285E+04  0.22810571285E+04  0.25500000920E-02 0. -1.
       -2   -1    0    0    0  501  0.00000000000E+00  0.00000000000E+00 -0.65923076693E+03  0.65923076693E+03  0.25500000920E-02 0.  1.
    10030    2    1    2    0    0  0.00000000000E+00  0.00000000000E+00  0.16218263616E+04  0.29402878955E+04  0.24525440182E+04 0.  0.
        2    1    3    3  502    0  0.76196384780E+03  0.34333202511E+03  0.18867484102E+04  0.20635613265E+04  0.25500000920E-02 0. -1.
       -2    1    3    3    0  502 -0.76196384780E+03 -0.34333202511E+03 -0.26492204863E+03  0.87672656894E+03  0.25500000920E-02 0.  1.
</event>
<event>
 5   0  0.1429483E-05  0.2512828E+04  0.7818609E-02  0.8398430E-01
        1   -1    0    0  501    0  0.00000000000E+00  0.00000000000E+00  0.97613679381E+03  0.97613679382E+03  0.50400001928E-02 0.  1.
       -1   -1    0    0    0  501  0.00000000000E+00  0.00000000000E+00 -0.16171673559E+04  0.16171673559E+04  0.50400001928E-02 0. -1.
    10030    2    1    2    0    0  0.00000000000E+00  0.00000000000E+00 -0.64103056213E+03  0.25933041498E+04  0.25128283331E+04 0.  0.
        2    1    3    3  502    0 -0.41992489770E+03 -0.34312481428E+03 -0.14901723081E+04  0.15857758561E+04  0.25500000920E-02 0. -1.
       -2    1    3    3    0  502  0.41992489770E+03  0.34312481428E+03  0.84914174596E+03  0.10075282937E+04  0.25500000920E-02 0.  1.
</event>
<event>
 5   0  0.3704241E-05  0.2408908E+04  0.7818609E-02  0.8436176E-01
       -2   -1    0    0    0  501  0.00000000000E+00  0.00000000000E+00  0.65381241273E+03  0.65381241274E+03  0.25500000920E-02 0.  1.
        2   -1    0    0  501    0  0.00000000000E+00  0.00000000000E+00 -0.22188461211E+04  0.22188461211E+04  0.25500000920E-02 0. -1.
    10030    2    1    2    0    0  0.00000000000E+00  0.00000000000E+00 -0.15650337083E+04  0.28726585338E+04  0.24089077491E+04 0.  0.
        2    1    3    3  502    0  0.41035718939E+03  0.10297269435E+04 -0.13443654852E+04  0.17424262277E+04  0.25500000920E-02 0. -1.
       -2    1    3    3    0  502 -0.41035718939E+03 -0.10297269435E+04 -0.22066822309E+03  0.11302323061E+04  0.25500000920E-02 0.  1.
</event>
<event>
 5   0  0.1429483E-05  0.2487175E+04  0.7818609E-02  0.8407569E-01
        1   -1    0    0  501    0  0.00000000000E+00  0.00000000000E+00  0.15351014367E+04  0.15351014367E+04  0.50400001928E-02 0.  1.
       -1   -1    0    0    0  501  0.00000000000E+00  0.00000000000E+00 -0.10074315361E+04  0.10074315361E+04  0.50400001928E-02 0. -1.
    10030    2    1    2    0    0  0.00000000000E+00  0.00000000000E+00  0.52766990057E+03  0.25425329728E+04  0.24871747815E+04 0.  0.
        2    1    3    3  502    0  0.43682295155E+03  0.24458806999E+03  0.14275357654E+04  0.15127775700E+04  0.25500000920E-02 0.  1.
       -2    1    3    3    0  502 -0.43682295155E+03 -0.24458806999E+03 -0.89986586479E+03  0.10297554028E+04  0.25500000920E-02 0. -1.
</event>
<event>
 5   0  0.1456876E-05  0.2519011E+04  0.7818609E-02  0.8396244E-01
       -1   -1    0    0    0  501  0.00000000000E+00  0.00000000000E+00  0.15238309992E+04  0.15238309992E+04  0.50400001928E-02 0.  1.
        1   -1    0    0  501    0  0.00000000000E+00  0.00000000000E+00 -0.10410305596E+04  0.10410305596E+04  0.50400001928E-02 0. -1.
    10030    2    1    2    0    0  0.00000000000E+00  0.00000000000E+00  0.48280043958E+03  0.25648615588E+04  0.25190114234E+04 0.  0.
        1    1    3    3  502    0 -0.54270492970E+03  0.78391491573E+02 -0.91311686975E+03  0.10651085787E+04  0.50400001928E-02 0. -1.
       -1    1    3    3    0  502  0.54270492970E+03 -0.78391491573E+02  0.13959173093E+04  0.14997529801E+04  0.50400001928E-02 0.  1.
</event>
<event>
 5   0  0.3704241E-05  0.2508096E+04  0.7818609E-02  0.8400107E-01
       -2   -1    0    0    0  501  0.00000000000E+00  0.00000000000E+00  0.90740194177E+03  0.90740194178E+03  0.25500000920E-02 0.  1.
        2   -1    0    0  501    0  0.00000000000E+00  0.00000000000E+00 -0.17331203268E+04  0.17331203268E+04  0.25500000920E-02 0. -1.
    10030    2    1    2    0    0  0.00000000000E+00  0.00000000000E+00 -0.82571838507E+03  0.26405222686E+04  0.25080962899E+04 0.  0.
        2    1    3    3  502    0  0.70025012368E+02 -0.83197617241E+03 -0.13979716953E+04  0.16283159137E+04  0.25500000920E-02 0. -1.
       -2    1    3    3    0  502 -0.70025012368E+02  0.83197617241E+03  0.57225331028E+03  0.10122063549E+04  0.25500000920E-02 0.  1.
</event>
<event>
 5   0  0.3578670E-05  0.2402463E+04  0.7818609E-02  0.8438582E-01
       -2   -1    0    0    0  501  0.00000000000E+00  0.00000000000E+00  0.11967385403E+04  0.11967385403E+04  0.25500000920E-02 0. -1.
        2   -1    0    0  501    0  0.00000000000E+00  0.00000000000E+00 -0.12057410292E+04  0.12057410292E+04  0.25500000920E-02 0.  1.
    10030    2    1    2    0    0  0.00000000000E+00  0.00000000000E+00 -0.90024889310E+01  0.24024795695E+04  0.24024627025E+04 0.  0.
        4    1    3    3  502    0  0.29844130477E+03 -0.11631022603E+04 -0.37381044423E+02  0.12013629908E+04  0.12699999809E+01 0.  1.
       -4    1    3    3    0  502 -0.29844130477E+03  0.11631022603E+04  0.28378555492E+02  0.12011165787E+04  0.12699999809E+01 0. -1.
</event>
<event>
 5   0  0.3581449E-05  0.2535265E+04  0.7818609E-02  0.8390529E-01
        2   -1    0    0  501    0  0.00000000000E+00  0.00000000000E+00  0.93638082142E+03  0.93638082142E+03  0.25500000920E-02 0.  1.
       -2   -1    0    0    0  501  0.00000000000E+00  0.00000000000E+00 -0.17160670679E+04  0.17160670679E+04  0.25500000920E-02 0. -1.
    10030    2    1    2    0    0  0.00000000000E+00  0.00000000000E+00 -0.77968624644E+03  0.26524478893E+04  0.25352651069E+04 0.  0.
        1    1    3    3  502    0  0.44857565758E+03 -0.11046559608E+04  0.60648777901E+02  0.11938019880E+04  0.50400001928E-02 0.  1.
       -1    1    3    3    0  502 -0.44857565758E+03  0.11046559608E+04 -0.84033502434E+03  0.14586459013E+04  0.50400001928E-02 0. -1.
</event>
<event>
 5   0  0.3581449E-05  0.2480618E+04  0.7818609E-02  0.8409923E-01
        2   -1    0    0  501    0  0.00000000000E+00  0.00000000000E+00  0.18684924039E+04  0.18684924039E+04  0.25500000920E-02 0. -1.
       -2   -1    0    0    0  501  0.00000000000E+00  0.00000000000E+00 -0.82331977890E+03  0.82331977891E+03  0.25500000920E-02 0.  1.
    10030    2    1    2    0    0  0.00000000000E+00  0.00000000000E+00  0.10451726249E+04  0.26918121828E+04  0.24806182720E+04 0.  0.
        1    1    3    3  502    0 -0.46552343525E+03 -0.76703058634E+03  0.14518334133E+04  0.17067127025E+04  0.50400001928E-02 0. -1.
       -1    1    3    3    0  502  0.46552343525E+03  0.76703058634E+03 -0.40666078831E+03  0.98509948022E+03  0.50400001928E-02 0.  1.
</event>
<event>
 5   0  0.1429483E-05  0.2279112E+04  0.7818609E-02  0.8486203E-01
        1   -1    0    0  501    0  0.00000000000E+00  0.00000000000E+00  0.94125565337E+03  0.94125565339E+03  0.50400001928E-02 0. -1.
       -1   -1    0    0    0  501  0.00000000000E+00  0.00000000000E+00 -0.13796332634E+04  0.13796332634E+04  0.50400001928E-02 0.  1.
    10030    2    1    2    0    0  0.00000000000E+00  0.00000000000E+00 -0.43837761006E+03  0.23208889168E+04  0.22791117645E+04 0.  0.
        2    1    3    3  502    0  0.11299972292E+04 -0.31279349034E+02 -0.36575579174E+03  0.11881285431E+04  0.25500000920E-02 0. -1.
       -2    1    3    3    0  502 -0.11299972292E+04  0.31279349034E+02 -0.72621818319E+02  0.11327603737E+04  0.25500000920E-02 0.  1.
</event>
<event>
 5   0  0.1429483E-05  0.2356120E+04  0.7818609E-02  0.8456117E-01
        1   -1    0    0  501    0  0.00000000000E+00  0.00000000000E+00  0.91242915618E+03  0.91242915620E+03  0.50400001928E-02 0.  1.
       -1   -1    0    0    0  501  0.00000000000E+00  0.00000000000E+00 -0.15210228241E+04  0.15210228241E+04  0.50400001928E-02 0. -1.
    10030    2    1    2    0    0  0.00000000000E+00  0.00000000000E+00 -0.60859366791E+03  0.24334519803E+04  0.23561201769E+04 0.  0.
        2    1    3    3  502    0 -0.58229234288E+03  0.52002421211E+03 -0.12154867532E+04  0.14446098439E+04  0.25500000920E-02 0. -1.
       -2    1    3    3    0  502  0.58229234288E+03 -0.52002421211E+03  0.60689308531E+03  0.98884213642E+03  0.25500000920E-02 0.  1.
</event>
<event>
 5   0  0.3581449E-05  0.2519015E+04  0.7818609E-02  0.8396242E-01
        2   -1    0    0  501    0  0.00000000000E+00  0.00000000000E+00  0.17778558607E+04  0.17778558607E+04  0.25500000920E-02 0.  1.
       -2   -1    0    0    0  501  0.00000000000E+00  0.00000000000E+00 -0.89228805304E+03  0.89228805305E+03  0.25500000920E-02 0. -1.
    10030    2    1    2    0    0  0.00000000000E+00  0.00000000000E+00  0.88556780764E+03  0.26701439137E+04  0.25190153191E+04 0.  0.
        1    1    3    3  502    0  0.54316920624E+03 -0.41427164454E+03  0.15644299178E+04  0.17070719815E+04  0.50400001928E-02 0.  1.
       -1    1    3    3    0  502 -0.54316920624E+03  0.41427164454E+03 -0.67886211018E+03  0.96307193228E+03  0.50400001928E-02 0. -1.
</event>
<event>
 5   0  0.3579097E-05  0.2397282E+04  0.7818609E-02  0.8440522E-01
        2   -1    0    0  501    0  0.00000000000E+00  0.00000000000E+00  0.14590631957E+04  0.14590631957E+04  0.25500000920E-02 0. -1.
       -2   -1    0    0    0  501  0.00000000000E+00  0.00000000000E+00 -0.98470011160E+03  0.98470011160E+03  0.25500000920E-02 0.  1.
    10030    2    1    2    0    0  0.00000000000E+00  0.00000000000E+00  0.47436308411E+03  0.24437633073E+04  0.23972815368E+04 0.  0.
        5    1    3    3  502    0  0.92946364232E+03  0.38283480901E+03 -0.42835750772E+03  0.10926927280E+04  0.46999998093E+01 0.  1.
       -5    1    3    3    0  502 -0.92946364232E+03 -0.38283480901E+03  0.90272059184E+03  0.13510705793E+04  0.46999998093E+01 0. -1.
</event>
<event>
 5   0  0.3578670E-05  0.2438851E+04  0.7818609E-02  0.8425100E-01
        2   -1    0    0  501    0  0.00000000000E+00  0.00000000000E+00  0.20039420418E+04  0.20039420418E+04  0.25500000920E-02 0. -1.
       -2   -1    0    0    0  501  0.00000000000E+00  0.00000000000E+00 -0.74203695372E+03  0.74203695372E+03  0.25500000920E-02 0.  1.
    10030    2    1    2    0    0  0.00000000000E+00  0.00000000000E+00  0.12619050881E+04  0.27459789955E+04  0.24388514085E+04 0.  0.
        4    1    3    3  502    0 -0.10867824573E+04 -0.47237548919E+03  0.95486619811E+03  0.15218428899E+04  0.12699999809E+01 0. -1.
       -4    1    3    3    0  502  0.10867824573E+04  0.47237548919E+03  0.30703888998E+03  0.12241361056E+04  0.12699999809E+01 0.  1.
</event>
<event>
 5   0  0.1456876E-05  0.2556564E+04  0.7818609E-02  0.8383107E-01
       -1   -1    0    0    0  501  0.00000000000E+00  0.00000000000E+00  0.10992720415E+04  0.10992720415E+04  0.50400001928E-02 0.  1.
        1   -1    0    0  501    0  0.00000000000E+00  0.00000000000E+00 -0.14864430094E+04  0.14864430094E+04  0.50400001928E-02 0. -1.
    10030    2    1    2    0    0  0.00000000000E+00  0.00000000000E+00 -0.38717096796E+03  0.25857150509E+04  0.25565642894E+04 0.  0.
        1    1    3    3  502    0  0.24314340150E+03 -0.11156134876E+04 -0.77484982172E+03  0.13798928994E+04  0.50400001928E-02 0. -1.
       -1    1    3    3    0  502 -0.24314340150E+03  0.11156134876E+04  0.38767885376E+03  0.12058221515E+04  0.50400001928E-02 0.  1.
</event>
<event>
 5   0  0.3650620E-05  0.2488767E+04  0.7818609E-02  0.8406998E-01
       -2   -1    0    0    0  501  0.00000000000E+00  0.00000000000E+00  0.97233356666E+03  0.97233356666E+03  0.25500000920E-02 0. -1.
        2   -1    0    0  501    0  0.00000000000E+00  0.00000000000E+00 -0.15925504981E+04  0.15925504981E+04  0.25500000920E-02 0.  1.
    10030    2    1    2    0    0  0.00000000000E+00  0.00000000000E+00 -0.62021693143E+03  0.25648840648E+04  0.24887670087E+04 0.  0.
        3    1    3    3  502    0  0.25990514523E+02  0.89889410978E+03 -0.11965332395E+04  0.14967892072E+04  0.10100000352E+00 0.  1.
       -3    1    3    3    0  502 -0.25990514523E+02 -0.89889410978E+03  0.57631630810E+03  0.10680948575E+04  0.10100000352E+00 0. -1.
</event>
<event>
 5   0  0.3581449E-05  0.2524645E+04  0.7818609E-02  0.8394258E-01
        2   -1    0    0  501    0  0.00000000000E+00  0.00000000000E+00  0.85852184535E+03  0.85852184535E+03  0.25500000920E-02 0.  1.
       -2   -1    0    0    0  501  0.00000000000E+00  0.00000000000E+00 -0.18560478210E+04  0.18560478210E+04  0.25500000920E-02 0. -1.
    10030    2    1    2    0    0  0.00000000000E+00  0.00000000000E+00 -0.99752597560E+03  0.27145696663E+04  0.25246446089E+04 0.  0.
        1    1    3    3  502    0  0.85460377527E+03  0.91000502608E+03 -0.29760375328E+03  0.12833646225E+04  0.50400001928E-02 0.  1.
       -1    1    3    3    0  502 -0.85460377527E+03 -0.91000502608E+03 -0.69992222232E+03  0.14312050438E+04  0.50400001928E-02 0. -1.
</event>
<event>
 5   0  0.1502886E-05  0.2538703E+04  0.7818609E-02  0.8389326E-01
        1   -1    0    0  501    0  0.00000000000E+00  0.00000000000E+00  0.16876965165E+04  0.16876965165E+04  0.50400001928E-02 0. -1.
       -1   -1    0    0    0  501  0.00000000000E+00  0.00000000000E+00 -0.95470549674E+03  0.95470549676E+03  0.50400001928E-02 0.  1.
    10030    2    1    2    0    0  0.00000000000E+00  0.00000000000E+00  0.73299101976E+03  0.26424020133E+04  0.25387029296E+04 0.  0.
        4    1    3    3  502    0 -0.11909962562E+04 -0.24730695512E+03  0.74410754898E+03  0.14259489716E+04  0.12699999809E+01 0.  1.
       -4    1    3    3    0  502  0.11909962562E+04  0.24730695512E+03 -0.11116529212E+02  0.12164530416E+04  0.12699999809E+01 0. -1.
</event>
<event>
 5   0  0.3650620E-05  0.2529714E+04  0.7818609E-02  0.8392476E-01
       -2   -1    0    0    0  501  0.00000000000E+00  0.00000000000E+00  0.10260238413E+04  0.10260238413E+04  0.25500000920E-02 0.  1.
        2   -1    0    0  501    0  0.00000000000E+00  0.00000000000E+00 -0.15592844899E+04  0.15592844899E+04  0.25500000920E-02 0. -1.
    10030    2    1    2    0    0  0.00000000000E+00  0.00000000000E+00 -0.53326064860E+03  0.25853083312E+04  0.25297138668E+04 0.  0.
        3    1    3    3  502    0  0.98835526610E+03  0.38654180187E+03  0.43668142237E+03  0.11475850171E+04  0.10100000352E+00 0.  1.
       -3    1    3    3    0  502 -0.98835526610E+03 -0.38654180187E+03 -0.96994207097E+03  0.14377233141E+04  0.10100000352E+00 0. -1.
</event>
<event>
 5   0  0.3581449E-05  0.2523561E+04  0.7818609E-02  0.8394640E-01
        2   -1    0    0  501    0  0.00000000000E+00  0.00000000000E+00  0.12979548210E+04  0.12979548210E+04  0.25500000920E-02 0. -1.
       -2   -1    0    0    0  501  0.00000000000E+00  0.00000000000E+00 -0.12266140124E+04  0.12266140124E+04  0.25500000920E-02 0.  1.
    10030    2    1    2    0    0  0.00000000000E+00  0.00000000000E+00  0.71340808598E+02  0.25245688334E+04  0.25235606360E+04 0.  0.
        1    1    3    3  502    0 -0.63166586463E+03  0.52550776274E+03 -0.92227646060E+03  0.12352141689E+04  0.50400001928E-02 0.  1.
       -1    1    3    3    0  502  0.63166586463E+03 -0.52550776274E+03  0.99361726920E+03  0.12893546645E+04  0.50400001928E-02 0. -1.
</event>
<event>
 5   0  0.1429483E-05  0.2459671E+04  0.7818609E-02  0.8417496E-01
       -1   -1    0    0    0  501  0.00000000000E+00  0.00000000000E+00  0.14324383855E+04  0.14324383855E+04  0.50400001928E-02 0.  1.
        1   -1    0    0  501    0  0.00000000000E+00  0.00000000000E+00 -0.10558882903E+04  0.10558882903E+04  0.50400001928E-02 0. -1.
    10030    2    1    2    0    0  0.00000000000E+00  0.00000000000E+00  0.37655009520E+03  0.24883266758E+04  0.24596706428E+04 0.  0.
        2    1    3    3  502    0 -0.18052281922E+03 -0.53847418176E+03  0.12918330303E+04  0.14111610507E+04  0.25500000920E-02 0.  1.
       -2    1    3    3    0  502  0.18052281922E+03  0.53847418176E+03 -0.91528293511E+03  0.10771656251E+04  0.25500000920E-02 0. -1.
</event>
<event>
 5   0  0.3579097E-05  0.2517791E+04  0.7818609E-02  0.8396675E-01
       -2   -1    0    0    0  501  0.00000000000E+00  0.00000000000E+00  0.10898286482E+04  0.10898286482E+04  0.25500000920E-02 0.  1.
        2   -1    0    0  501    0  0.00000000000E+00  0.00000000000E+00 -0.14541902948E+04  0.14541902948E+04  0.25500000920E-02 0. -1.
    10030    2    1    2    0    0  0.00000000000E+00  0.00000000000E+00 -0.36436164660E+03  0.25440189429E+04  0.25177912885E+04 0.  0.
        5    1    3    3  502    0 -0.10392388470E+04  0.55670916193E+03 -0.62820142738E+03  0.13358898141E+04  0.46999998093E+01 0. -1.
       -5    1    3    3    0  502  0.10392388470E+04 -0.55670916193E+03  0.26383978078E+03  0.12081291288E+04  0.46999998093E+01 0.  1.
</event>
<event>
 5   0  0.1456876E-05  0.2487614E+04  0.7818609E-02  0.8407411E-01
        1   -1    0    0  501    0  0.00000000000E+00  0.00000000000E+00  0.16855118075E+04  0.16855118075E+04  0.50400001928E-02 0. -1.
       -1   -1    0    0    0  501  0.00000000000E+00  0.00000000000E+00 -0.91785521955E+03  0.91785521957E+03  0.50400001928E-02 0.  1.
    10030    2    1    2    0    0  0.00000000000E+00  0.00000000000E+00  0.76765658793E+03  0.26033670271E+04  0.24876139653E+04 0.  0.
        1    1    3    3  502    0 -0.23117404600E+03  0.64329582217E+03 -0.70365108316E+03  0.98101773747E+03  0.50400001928E-02 0.  1.
       -1    1    3    3    0  502  0.23117404600E+03 -0.64329582217E+03  0.14713076711E+04  0.16223492896E+04  0.50400001928E-02 0. -1.
</event>
<event>
 5   0  0.3581449E-05  0.2489204E+04  0.7818609E-02  0.8406842E-01
        2   -1    0    0  501    0  0.00000000000E+00  0.00000000000E+00  0.16607815014E+04  0.16607815014E+04  0.25500000920E-02 0.  1.
       -2   -1    0    0    0  501  0.00000000000E+00  0.00000000000E+00 -0.93271386933E+03  0.93271386933E+03  0.25500000920E-02 0. -1.
    10030    2    1    2    0    0  0.00000000000E+00  0.00000000000E+00  0.72806763210E+03  0.25934953708E+04  0.24892038408E+04 0.  0.
        1    1    3    3  502    0 -0.81595004139E+03 -0.15325849844E+02  0.13430985629E+04  0.15715988997E+04  0.50400001928E-02 0.  1.
       -1    1    3    3    0  502  0.81595004139E+03  0.15325849844E+02 -0.61503093082E+03  0.10218964711E+04  0.50400001928E-02 0. -1.
</event>
<event>
 5   0  0.3704241E-05  0.2513599E+04  0.7818609E-02  0.8398157E-01
        2   -1    0    0  501    0  0.00000000000E+00  0.00000000000E+00  0.24905114318E+04  0.24905114318E+04  0.25500000920E-02 0. -1.
       -2   -1    0    0    0  501  0.00000000000E+00  0.00000000000E+00 -0.63422491755E+03  0.63422491756E+03  0.25500000920E-02 0.  1.
    10030    2    1    2    0    0  0.00000000000E+00  0.00000000000E+00  0.18562865143E+04  0.31247363494E+04  0.25135985419E+04 0.  0.
        2    1    3    3  502    0  0.49189774271E+03 -0.37944281492E+03 -0.43000639624E+03  0.75554334084E+03  0.25500000920E-02 0.  1.
       -2    1    3    3    0  502 -0.49189774271E+03  0.37944281492E+03  0.22862929105E+04  0.23691930085E+04  0.25500000920E-02 0. -1.
</event>
<event>
 5   0  0.1201438E-05  0.2475290E+04  0.7818609E-02  0.8411842E-01
        3   -1    0    0  501    0  0.00000000000E+00  0.00000000000E+00  0.65955843130E+03  0.65955843903E+03  0.10100000352E+00 0.  1.
       -3   -1    0    0    0  501  0.00000000000E+00  0.00000000000E+00 -0.23224102792E+04  0.23224102814E+04  0.10100000352E+00 0. -1.
    10030    2    1    2    0    0  0.00000000000E+00  0.00000000000E+00 -0.16628518479E+04  0.29819687204E+04  0.24752901207E+04 0.  0.
        4    1    3    3  502    0 -0.29994143824E+03  0.83680509991E+03 -0.18688324212E+04  0.20694791308E+04  0.12699999809E+01 0. -1.
       -4    1    3    3    0  502  0.29994143824E+03 -0.83680509991E+03  0.20598057330E+03  0.91248958957E+03  0.12699999809E+01 0.  1.
</event>
<event>
 5   0  0.1421242E-05  0.2513209E+04  0.7818609E-02  0.8398295E-01
       -1   -1    0    0    0  501  0.00000000000E+00  0.00000000000E+00  0.94004419238E+03  0.94004419239E+03  0.50400001928E-02 0.  1.
        1   -1    0    0  501    0  0.00000000000E+00  0.00000000000E+00 -0.16797662854E+04  0.16797662854E+04  0.50400001928E-02 0. -1.
    10030    2    1    2    0    0  0.00000000000E+00  0.00000000000E+00 -0.73972209302E+03  0.26198104778E+04  0.25132087388E+04 0.  0.
        3    1    3    3  502    0  0.52128882776E+03 -0.27620644037E+03 -0.15264373965E+04  0.16364727848E+04  0.10100000352E+00 0. -1.
       -3    1    3    3    0  502 -0.52128882776E+03  0.27620644037E+03  0.78671530347E+03  0.98333769304E+03  0.10100000352E+00 0.  1.
</event>
<event>
 5   0  0.3650620E-05  0.2503145E+04  0.7818609E-02  0.8401866E-01
       -2   -1    0    0    0  501  0.00000000000E+00  0.00000000000E+00  0.62816369445E+03  0.62816369446E+03  0.25500000920E-02 0. -1.
        2   -1    0    0  501    0  0.00000000000E+00  0.00000000000E+00 -0.24936705309E+04  0.24936705309E+04  0.25500000920E-02 0.  1.
    10030    2    1    2    0    0  0.00000000000E+00  0.00000000000E+00 -0.18655068365E+04  0.31218342254E+04  0.25031446570E+04 0.  0.
        3    1    3    3  502    0 -0.10087515098E+04 -0.62825567146E+02 -0.12123821756E+02  0.10107787382E+04  0.10100000352E+00 0. -1.
       -3    1    3    3    0  502  0.10087515098E+04  0.62825567146E+02 -0.18533830147E+04  0.21110554871E+04  0.10100000352E+00 0.  1.
</event>
<event>
 5   0  0.3579097E-05  0.2502049E+04  0.7818609E-02  0.8402256E-01
        2   -1    0    0  501    0  0.00000000000E+00  0.00000000000E+00  0.18431378854E+04  0.18431378854E+04  0.25500000920E-02 0.  1.
       -2   -1    0    0    0  501  0.00000000000E+00  0.00000000000E+00 -0.84912912101E+03  0.84912912101E+03  0.25500000920E-02 0. -1.
    10030    2    1    2    0    0  0.00000000000E+00  0.00000000000E+00  0.99400876441E+03  0.26922670064E+04  0.25020488025E+04 0.  0.
        5    1    3    3  502    0  0.11819825624E+04  0.36774021771E+03  0.69165583430E+03  0.14180005390E+04  0.46999998093E+01 0.  1.
       -5    1    3    3    0  502 -0.11819825624E+04 -0.36774021771E+03  0.30235293011E+03  0.12742664674E+04  0.46999998093E+01 0. -1.
</event>
<event>
 5   0  0.1201438E-05  0.2246624E+04  0.7818609E-02  0.8499269E-01
       -3   -1    0    0    0  501  0.00000000000E+00  0.00000000000E+00  0.12124611751E+04  0.12124611793E+04  0.10100000352E+00 0.  1.
        3   -1    0    0  501    0  0.00000000000E+00  0.00000000000E+00 -0.10407173754E+04  0.10407173803E+04  0.10100000352E+00 0. -1.
    10030    2    1    2    0    0  0.00000000000E+00  0.00000000000E+00  0.17174379966E+03  0.22531785596E+04  0.22466236198E+04 0.  0.
        4    1    3    3  502    0  0.10336357887E+04  0.38591982524E+03 -0.12567183762E+03  0.11104648031E+04  0.12699999809E+01 0.  1.
       -4    1    3    3    0  502 -0.10336357887E+04 -0.38591982524E+03  0.29741563728E+03  0.11427137565E+04  0.12699999809E+01 0. -1.
</event>
<event>
 5   0  0.3581449E-05  0.2514939E+04  0.7818609E-02  0.8397683E-01
       -2   -1    0    0    0  501  0.00000000000E+00  0.00000000000E+00  0.87169019741E+03  0.87169019741E+03  0.25500000920E-02 0.  1.
        2   -1    0    0  501    0  0.00000000000E+00  0.00000000000E+00 -0.18139814383E+04  0.18139814383E+04  0.25500000920E-02 0. -1.
    10030    2    1    2    0    0  0.00000000000E+00  0.00000000000E+00 -0.94229124092E+03  0.26856716357E+04  0.25149392343E+04 0.  0.
        1    1    3    3  502    0  0.48483647835E+03 -0.29607388580E+03  0.72684291369E+03  0.92251112611E+03  0.50400001928E-02 0.  1.
       -1    1    3    3    0  502 -0.48483647835E+03  0.29607388580E+03 -0.16691341546E+04  0.17631605096E+04  0.50400001928E-02 0. -1.
</event>
<event>
 5   0  0.1456876E-05  0.2431066E+04  0.7818609E-02  0.8427964E-01
        1   -1    0    0  501    0  0.00000000000E+00  0.00000000000E+00  0.15456757618E+04  0.15456757618E+04  0.50400001928E-02 0.  1.
       -1   -1    0    0    0  501  0.00000000000E+00  0.00000000000E+00 -0.95590611854E+03  0.95590611856E+03  0.50400001928E-02 0. -1.
    10030    2    1    2    0    0  0.00000000000E+00  0.00000000000E+00  0.58976964325E+03  0.25015818804E+04  0.24310663652E+04 0.  0.
        1    1    3    3  502    0  0.35231581974E+03 -0.95078499422E+03  0.98470451685E+03  0.14134219213E+04  0.50400001928E-02 0.  1.
       -1    1    3    3    0  502 -0.35231581974E+03  0.95078499422E+03 -0.39493487360E+03  0.10881599591E+04  0.50400001928E-02 0. -1.
</event>
<event>
 5   0  0.3650620E-05  0.2500296E+04  0.7818609E-02  0.8402880E-01
        2   -1    0    0  501    0  0.00000000000E+00  0.00000000000E+00  0.25736920623E+04  0.25736920623E+04  0.25500000920E-02 0. -1.
       -2   -1    0    0    0  501  0.00000000000E+00  0.00000000000E+00 -0.60724822147E+03  0.60724822148E+03  0.25500000920E-02 0.  1.
    10030    2    1    2    0    0  0.00000000000E+00  0.00000000000E+00  0.19664438408E+04  0.31809402838E+04  0.25002959245E+04 0.  0.
        3    1    3    3  502    0  0.52922258336E+03  0.10000731962E+04  0.16595949402E+04  0.20086010844E+04  0.10100000352E+00 0. -1.
       -3    1    3    3    0  502 -0.52922258336E+03 -0.10000731962E+04  0.30684890059E+03  0.11723391994E+04  0.10100000352E+00 0.  1.
</event>
<event>
 5   0  0.3578670E-05  0.2634931E+04  0.7818609E-02  0.8356432E-01
        2   -1    0    0  501    0  0.00000000000E+00  0.00000000000E+00  0.24860161289E+04  0.24860161289E+04  0.25500000920E-02 0.  1.
       -2   -1    0    0    0  501  0.00000000000E+00  0.00000000000E+00 -0.69819167296E+03  0.69819167297E+03  0.25500000920E-02 0. -1.
    10030    2    1    2    0    0  0.00000000000E+00  0.00000000000E+00  0.17878244560E+04  0.31842078019E+04  0.26349313160E+04 0.  0.
        4    1    3    3  502    0  0.54080804418E+03 -0.23274883058E+03 -0.53036319277E+03  0.79242166044E+03  0.12699999809E+01 0. -1.
       -4    1    3    3    0  502 -0.54080804418E+03  0.23274883058E+03  0.23181876487E+04  0.23917861414E+04  0.12699999809E+01 0.  1.
</event>
<event>
 5   0  0.3704241E-05  0.2484992E+04  0.7818609E-02  0.8408352E-01
       -2   -1    0    0    0  501  0.00000000000E+00  0.00000000000E+00  0.11003885521E+04  0.11003885521E+04  0.25500000920E-02 0.  1.
        2   -1    0    0  501    0  0.00000000000E+00  0.00000000000E+00 -0.14029559048E+04  0.14029559048E+04  0.25500000920E-02 0. -1.
    10030    2    1    2    0    0  0.00000000000E+00  0.00000000000E+00 -0.30256735277E+03  0.25033444569E+04  0.24849922469E+04 0.  0.
        2    1    3    3  502    0  0.87672793025E+03 -0.87839399180E+03 -0.21146386281E+03  0.12589459217E+04  0.25500000920E-02 0.  1.
       -2    1    3    3    0  502 -0.87672793025E+03  0.87839399180E+03 -0.91103489958E+02  0.12443985352E+04  0.25500000920E-02 0. -1.
</event>
<event>
 5   0  0.3578670E-05  0.2507946E+04  0.7818609E-02  0.8400160E-01
       -2   -1    0    0    0  501  0.00000000000E+00  0.00000000000E+00  0.55643575366E+03  0.55643575366E+03  0.25500000920E-02 0.  1.
        2   -1    0    0  501    0  0.00000000000E+00  0.00000000000E+00 -0.28259291042E+04  0.28259291042E+04  0.25500000920E-02 0. -1.
    10030    2    1    2    0    0  0.00000000000E+00  0.00000000000E+00 -0.22694933506E+04  0.33823648579E+04  0.25079457657E+04 0.  0.
        4    1    3    3  502    0  0.14359138879E+03  0.31656146160E+03  0.49015952369E+03  0.60090566437E+03  0.12699999809E+01 0.  1.
       -4    1    3    3    0  502 -0.14359138879E+03 -0.31656146160E+03 -0.27596528743E+04  0.27814591935E+04  0.12699999809E+01 0. -1.
</event>
<event>
 5   0  0.3581449E-05  0.2492903E+04  0.7818609E-02  0.8405518E-01
       -2   -1    0    0    0  501  0.00000000000E+00  0.00000000000E+00  0.13205153390E+04  0.13205153391E+04  0.25500000920E-02 0. -1.
        2   -1    0    0  501    0  0.00000000000E+00  0.00000000000E+00 -0.11765419485E+04  0.11765419485E+04  0.25500000920E-02 0.  1.
    10030    2    1    2    0    0  0.00000000000E+00  0.00000000000E+00  0.14397339056E+03  0.24970572875E+04  0.24929032793E+04 0.  0.
        1    1    3    3  502    0  0.64602449507E+03  0.10518367006E+04  0.24528827870E+03  0.12585207319E+04  0.50400001928E-02 0.  1.
       -1    1    3    3    0  502 -0.64602449507E+03 -0.10518367006E+04 -0.10131488814E+03  0.12385365556E+04  0.50400001928E-02 0. -1.
</event>
<event>
 5   0  0.1201438E-05  0.2463318E+04  0.7818609E-02  0.8416171E-01
        3   -1    0    0  501    0  0.00000000000E+00  0.00000000000E+00  0.11057213585E+04  0.11057213631E+04  0.10100000352E+00 0.  1.
       -3   -1    0    0    0  501  0.00000000000E+00  0.00000000000E+00 -0.13719407550E+04  0.13719407587E+04  0.10100000352E+00 0. -1.
    10030    2    1    2    0    0  0.00000000000E+00  0.00000000000E+00 -0.26621939651E+03  0.24776621218E+04  0.24633182545E+04 0.  0.
        4    1    3    3  502    0  0.24903283424E+03  0.56631137535E+02  0.10787956256E+04  0.11086144744E+04  0.12699999809E+01 0.  1.
       -4    1    3    3    0  502 -0.24903283424E+03 -0.56631137535E+02 -0.13450150221E+04  0.13690476474E+04  0.12699999809E+01 0. -1.
</event>
<event>
 5   0  0.1456876E-05  0.2510770E+04  0.7818609E-02  0.8399159E-01
       -1   -1    0    0    0  501  0.00000000000E+00  0.00000000000E+00  0.61005677731E+03  0.61005677733E+03  0.50400001928E-02 0.  1.
        1   -1    0    0  501    0  0.00000000000E+00  0.00000000000E+00 -0.25833513484E+04  0.25833513484E+04  0.50400001928E-02 0. -1.
    10030    2    1    2    0    0  0.00000000000E+00  0.00000000000E+00 -0.19732945711E+04  0.31934081258E+04  0.25107696018E+04 0.  0.
        1    1    3    3  502    0 -0.10833487743E+04  0.63196870326E+03 -0.91742605167E+03  0.15539303617E+04  0.50400001928E-02 0.  1.
       -1    1    3    3    0  502  0.10833487743E+04 -0.63196870326E+03 -0.10558685195E+04  0.16394777641E+04  0.50400001928E-02 0. -1.
</event>
<event>
 5   0  0.3581449E-05  0.2567351E+04  0.7818609E-02  0.8379377E-01
       -2   -1    0    0    0  501  0.00000000000E+00  0.00000000000E+00  0.14657289493E+04  0.14657289493E+04  0.25500000920E-02 0. -1.
        2   -1    0    0  501    0  0.00000000000E+00  0.00000000000E+00 -0.11242342548E+04  0.11242342548E+04  0.25500000920E-02 0.  1.
    10030    2    1    2    0    0  0.00000000000E+00  0.00000000000E+00  0.34149469452E+03  0.25899632041E+04  0.25673509250E+04 0.  0.
        1    1    3    3  502    0  0.32709363447E+03  0.10785745298E+04  0.79057687487E+03  0.13767080508E+04  0.50400001928E-02 0. -1.
       -1    1    3    3    0  502 -0.32709363447E+03 -0.10785745298E+04 -0.44908218035E+03  0.12132551532E+04  0.50400001928E-02 0.  1.
</event>
<event>
 5   0  0.1429483E-05  0.2493073E+04  0.7818609E-02  0.8405457E-01
       -1   -1    0    0    0  501  0.00000000000E+00  0.00000000000E+00  0.12945429284E+04  0.12945429284E+04  0.50400001928E-02 0.  1.
        1   -1    0    0  501    0  0.00000000000E+00  0.00000000000E+00 -0.12003105424E+04  0.12003105424E+04  0.50400001928E-02 0. -1.
    10030    2    1    2    0    0  0.00000000000E+00  0.00000000000E+00  0.94232386001E+02  0.24948534708E+04  0.24930732236E+04 0.  0.
        2    1    3    3  502    0 -0.36629930808E+02 -0.75931956474E+03 -0.94148881924E+03  0.12100864225E+04  0.25500000920E-02 0. -1.
       -2    1    3    3    0  502  0.36629930808E+02  0.75931956474E+03  0.10357212052E+04  0.12847670482E+04  0.25500000920E-02 0.  1.
</event>
<event>
 5   0  0.1421242E-05  0.2499693E+04  0.7818609E-02  0.8403095E-01
        1   -1    0    0  501    0  0.00000000000E+00  0.00000000000E+00  0.10365034940E+04  0.10365034940E+04  0.50400001928E-02 0.  1.
       -1   -1    0    0    0  501  0.00000000000E+00  0.00000000000E+00 -0.15071020713E+04  0.15071020713E+04  0.50400001928E-02 0. -1.
    10030    2    1    2    0    0  0.00000000000E+00  0.00000000000E+00 -0.47059857724E+03  0.25436055653E+04  0.24996932314E+04 0.  0.
        3    1    3    3  502    0  0.10885022170E+04 -0.53235254043E+03 -0.54708066378E+03  0.13294862040E+04  0.10100000352E+00 0. -1.
       -3    1    3    3    0  502 -0.10885022170E+04  0.53235254043E+03  0.76482086539E+02  0.12141193613E+04  0.10100000352E+00 0.  1.
</event>
<event>
 5   0  0.1502886E-05  0.2508399E+04  0.7818609E-02  0.8399999E-01
       -1   -1    0    0    0  501  0.00000000000E+00  0.00000000000E+00  0.14631792568E+04  0.14631792568E+04  0.50400001928E-02 0. -1.
        1   -1    0    0  501    0  0.00000000000E+00  0.00000000000E+00 -0.10750676824E+04  0.10750676824E+04  0.50400001928E-02 0.  1.
    10030    2    1    2    0    0  0.00000000000E+00  0.00000000000E+00  0.38811157440E+03  0.25382469392E+04  0.25083992765E+04 0.  0.
        4    1    3    3  502    0  0.80973638388E+03 -0.65738749527E+03  0.89889546720E+03  0.13768972381E+04  0.12699999809E+01 0. -1.
       -4    1    3    3    0  502 -0.80973638388E+03  0.65738749527E+03 -0.51078389280E+03  0.11613497012E+04  0.12699999809E+01 0.  1.
</event>
<event>
 5   0  0.3581449E-05  0.2469079E+04  0.7818609E-02  0.8414085E-01
        2   -1    0    0  501    0  0.00000000000E+00  0.00000000000E+00  0.16015310052E+04  0.16015310052E+04  0.25500000920E-02 0. -1.
       -2   -1    0    0    0  501  0.00000000000E+00  0.00000000000E+00 -0.95164396800E+03  0.95164396800E+03  0.25500000920E-02 0.  1.
    10030    2    1    2    0    0  0.00000000000E+00  0.00000000000E+00  0.64988703715E+03  0.25531749732E+04  0.24690786303E+04 0.  0.
        1    1    3    3  502    0 -0.11378631947E+04 -0.10659220514E+03 -0.15785586337E+03  0.11536953765E+04  0.50400001928E-02 0.  1.
       -1    1    3    3    0  502  0.11378631947E+04  0.10659220514E+03  0.80774290053E+03  0.13994795967E+04  0.50400001928E-02 0. -1.
</event>
<event>
 5   0  0.1429483E-05  0.2495283E+04  0.7818609E-02  0.8404668E-01
       -1   -1    0    0    0  501  0.00000000000E+00  0.00000000000E+00  0.65387329158E+03  0.65387329159E+03  0.50400001928E-02 0. -1.
        1   -1    0    0  501    0  0.00000000000E+00  0.00000000000E+00 -0.23805977122E+04  0.23805977122E+04  0.50400001928E-02 0.  1.
    10030    2    1    2    0    0  0.00000000000E+00  0.00000000000E+00 -0.17267244206E+04  0.30344710038E+04  0.24952829595E+04 0.  0.
        2    1    3    3  502    0 -0.81550834657E+03  0.49512256195E+03 -0.18410876251E+04  0.20735968408E+04  0.25500000920E-02 0.  1.
       -2    1    3    3    0  502  0.81550834657E+03 -0.49512256195E+03  0.11436320447E+03  0.96087416306E+03  0.25500000920E-02 0. -1.
</event>
<event>
 5   0  0.1492639E-05  0.2510818E+04  0.7818609E-02  0.8399142E-01
       -1   -1    0    0    0  501  0.00000000000E+00  0.00000000000E+00  0.84713677527E+03  0.84713677528E+03  0.50400001928E-02 0.  1.
        1   -1    0    0  501    0  0.00000000000E+00  0.00000000000E+00 -0.18604460053E+04  0.18604460053E+04  0.50400001928E-02 0. -1.
    10030    2    1    2    0    0  0.00000000000E+00  0.00000000000E+00 -0.10133092301E+04  0.27075827806E+04  0.25108183762E+04 0.  0.
        5    1    3    3  502    0 -0.73553120873E+03 -0.16097818158E+03 -0.15899220836E+04  0.17592027899E+04  0.46999998093E+01 0. -1.
       -5    1    3    3    0  502  0.73553120873E+03  0.16097818158E+03  0.57661285355E+03  0.94837999074E+03  0.46999998093E+01 0.  1.
</event>
<event>
 5   0  0.1492639E-05  0.2489015E+04  0.7818609E-02  0.8406909E-01
        1   -1    0    0  501    0  0.00000000000E+00  0.00000000000E+00  0.28526596427E+04  0.28526596427E+04  0.50400001928E-02 0. -1.
       -1   -1    0    0    0  501  0.00000000000E+00  0.00000000000E+00 -0.54293169177E+03  0.54293169180E+03  0.50400001928E-02 0.  1.
    10030    2    1    2    0    0  0.00000000000E+00  0.00000000000E+00  0.23097279509E+04  0.33955913345E+04  0.24890153281E+04 0.  0.
        5    1    3    3  502    0 -0.39726449828E+03  0.88210973631E+03  0.22228402345E+04  0.24242478146E+04  0.46999998093E+01 0. -1.
       -5    1    3    3    0  502  0.39726449828E+03 -0.88210973631E+03  0.86887716481E+02  0.97134351995E+03  0.46999998093E+01 0.  1.
</event>
<event>
 5   0  0.3581449E-05  0.2482078E+04  0.7818609E-02  0.8409398E-01
       -2   -1    0    0    0  501  0.00000000000E+00  0.00000000000E+00  0.17458702958E+04  0.17458702958E+04  0.25500000920E-02 0.  1.
        2   -1    0    0  501    0  0.00000000000E+00  0.00000000000E+00 -0.88218361222E+03  0.88218361223E+03  0.25500000920E-02 0. -1.
    10030    2    1    2    0    0  0.00000000000E+00  0.00000000000E+00  0.86368668353E+03  0.26280539080E+04  0.24820782937E+04 0.  0.
        1    1    3    3  502    0 -0.35552299518E+02 -0.60176587002E+03 -0.71675623814E+03  0.93654985626E+03  0.50400001928E-02 0. -1.
       -1    1    3    3    0  502  0.35552299518E+02  0.60176587002E+03  0.15804429217E+04  0.16915040517E+04  0.50400001928E-02 0.  1.
</event>
<event>
 5   0  0.1492639E-05  0.2515958E+04  0.7818609E-02  0.8397322E-01
       -1   -1    0    0    0  501  0.00000000000E+00  0.00000000000E+00  0.13380666970E+04  0.13380666970E+04  0.50400001928E-02 0.  1.
        1   -1    0    0  501    0  0.00000000000E+00  0.00000000000E+00 -0.11826845398E+04  0.11826845398E+04  0.50400001928E-02 0. -1.
    10030    2    1    2    0    0  0.00000000000E+00  0.00000000000E+00  0.15538215723E+03  0.25207512368E+04  0.25159577070E+04 0.  0.
        5    1    3    3  502    0 -0.12835783807E+03 -0.40521903594E+03  0.12639276457E+04  0.13334966762E+04  0.46999998093E+01 0.  1.
       -5    1    3    3    0  502  0.12835783807E+03  0.40521903594E+03 -0.11085454885E+04  0.11872545607E+04  0.46999998093E+01 0. -1.
</event>
<event>
 5   0  0.3704241E-05  0.2381054E+04  0.7818609E-02  0.8446631E-01
       -2   -1    0    0    0  501  0.00000000000E+00  0.00000000000E+00  0.96256381432E+03  0.96256381432E+03  0.25500000920E-02 0.  1.
        2   -1    0    0  501    0  0.00000000000E+00  0.00000000000E+00 -0.14724783499E+04  0.14724783499E+04  0.25500000920E-02 0. -1.
    10030    2    1    2    0    0  0.00000000000E+00  0.00000000000E+00 -0.50991453558E+03  0.24350421642E+04  0.23810538650E+04 0.  0.
        2    1    3    3  502    0 -0.17788435163E+03  0.10798593264E+04 -0.73421445078E+03  0.13178808243E+04  0.25500000920E-02 0. -1.
       -2    1    3    3    0  502  0.17788435163E+03 -0.10798593264E+04  0.22429991520E+03  0.11171613399E+04  0.25500000920E-02 0.  1.
</event>
<event>
 5   0  0.1429483E-05  0.2575202E+04  0.7818609E-02  0.8376674E-01
       -1   -1    0    0    0  501  0.00000000000E+00  0.00000000000E+00  0.81028395501E+03  0.81028395503E+03  0.50400001928E-02 0. -1.
        1   -1    0    0  501    0  0.00000000000E+00  0.00000000000E+00 -0.20460931654E+04  0.20460931654E+04  0.50400001928E-02 0.  1.
    10030    2    1    2    0    0  0.00000000000E+00  0.00000000000E+00 -0.12358092104E+04  0.28563771204E+04  0.25752020988E+04 0.  0.
        2    1    3    3  502    0 -0.11819732265E+03 -0.12074280962E+04 -0.13945684389E+03  0.12211885300E+04  0.25500000920E-02 0. -1.
       -2    1    3    3    0  502  0.11819732265E+03  0.12074280962E+04 -0.10963523665E+04  0.16351885904E+04  0.25500000920E-02 0.  1.
</event>
<event>
 5   0  0.3579097E-05  0.2504096E+04  0.7818609E-02  0.8401528E-01
        2   -1    0    0  501    0  0.00000000000E+00  0.00000000000E+00  0.16048440219E+04  0.16048440219E+04  0.25500000920E-02 0.  1.
       -2   -1    0    0    0  501  0.00000000000E+00  0.00000000000E+00 -0.97680807270E+03  0.97680807271E+03  0.25500000920E-02 0. -1.
    10030    2    1    2    0    0  0.00000000000E+00  0.00000000000E+00  0.62803594916E+03  0.25816520946E+04  0.25040963208E+04 0.  0.
        5    1    3    3  502    0 -0.86789710136E+03 -0.86029665698E+03  0.33096121035E+02  0.12224864661E+04  0.46999998093E+01 0. -1.
       -5    1    3    3    0  502  0.86789710136E+03  0.86029665698E+03  0.59493982812E+03  0.13591656285E+04  0.46999998093E+01 0.  1.
</event>
<event>
 5   0  0.3578670E-05  0.2454604E+04  0.7818609E-02  0.8419339E-01
        2   -1    0    0  501    0  0.00000000000E+00  0.00000000000E+00  0.49313367169E+03  0.49313367170E+03  0.25500000920E-02 0. -1.
       -2   -1    0    0    0  501  0.00000000000E+00  0.00000000000E+00 -0.30544862773E+04  0.30544862773E+04  0.25500000920E-02 0.  1.
    10030    2    1    2    0    0  0.00000000000E+00  0.00000000000E+00 -0.25613526056E+04  0.35476199490E+04  0.24546038646E+04 0.  0.
        4    1    3    3  502    0  0.49738750176E+02  0.11691294904E+04 -0.18154944155E+04  0.21599442804E+04  0.12699999809E+01 0.  1.
       -4    1    3    3    0  502 -0.49738750176E+02 -0.11691294904E+04 -0.74585819014E+03  0.13876756687E+04  0.12699999809E+01 0. -1.
</event>
<event>
 5   0  0.3578670E-05  0.2530327E+04  0.7818609E-02  0.8392260E-01
        2   -1    0    0  501    0  0.00000000000E+00  0.00000000000E+00  0.14642167944E+04  0.14642167944E+04  0.25500000920E-02 0.  1.
       -2   -1    0    0    0  501  0.00000000000E+00  0.00000000000E+00 -0.10931705782E+04  0.10931705782E+04  0.25500000920E-02 0. -1.
    10030    2    1    2    0    0  0.00000000000E+00  0.00000000000E+00  0.37104621620E+03  0.25573873725E+04  0.25303270300E+04 0.  0.
        4    1    3    3  502    0  0.23793022509E+03  0.25856890816E+03  0.14139091444E+04  0.14569177581E+04  0.12699999809E+01 0.  1.
       -4    1    3    3    0  502 -0.23793022509E+03 -0.25856890816E+03 -0.10428629282E+04  0.11004696144E+04  0.12699999809E+01 0. -1.
</event>
<event>
 5   0  0.1201438E-05  0.2511743E+04  0.7818609E-02  0.8398814E-01
       -3   -1    0    0    0  501  0.00000000000E+00  0.00000000000E+00  0.10175807944E+04  0.10175807994E+04  0.10100000352E+00 0.  1.
        3   -1    0    0  501    0  0.00000000000E+00  0.00000000000E+00 -0.15499630792E+04  0.15499630825E+04  0.10100000352E+00 0. -1.
    10030    2    1    2    0    0  0.00000000000E+00  0.00000000000E+00 -0.53238228478E+03  0.25675438818E+04  0.25117425601E+04 0.  0.
        4    1    3    3  502    0  0.41476900798E+02 -0.78901477581E+03 -0.12640680886E+04  0.14906825267E+04  0.12699999809E+01 0. -1.
       -4    1    3    3    0  502 -0.41476900798E+02  0.78901477581E+03  0.73168580387E+03  0.10768613552E+04  0.12699999809E+01 0.  1.
</event>
<event>
 5   0  0.1201438E-05  0.2460429E+04  0.7818609E-02  0.8417220E-01
       -3   -1    0    0    0  501  0.00000000000E+00  0.00000000000E+00  0.21737192431E+04  0.21737192455E+04  0.10100000352E+00 0.  1.
        3   -1    0    0  501    0  0.00000000000E+00  0.00000000000E+00 -0.69623874159E+03  0.69623874891E+03  0.10100000352E+00 0. -1.
    10030    2    1    2    0    0  0.00000000000E+00  0.00000000000E+00  0.14774805016E+04  0.28699579944E+04  0.24604288767E+04 0.  0.
        5    1    3    3  502    0  0.36751265847E+03  0.31291581662E+03  0.20586418710E+04  0.21144763667E+04  0.46999998093E+01 0.  1.
       -5    1    3    3    0  502 -0.36751265847E+03 -0.31291581662E+03 -0.58116136944E+03  0.75548162768E+03  0.46999998093E+01 0. -1.
</event>
<event>
 5   0  0.1492639E-05  0.2412649E+04  0.7818609E-02  0.8434783E-01
        1   -1    0    0  501    0  0.00000000000E+00  0.00000000000E+00  0.13269823928E+04  0.13269823928E+04  0.50400001928E-02 0.  1.
       -1   -1    0    0    0  501  0.00000000000E+00  0.00000000000E+00 -0.10966371661E+04  0.10966371661E+04  0.50400001928E-02 0. -1.
    10030    2    1    2    0    0  0.00000000000E+00  0.00000000000E+00  0.23034522669E+03  0.24236195589E+04  0.24126485121E+04 0.  0.
        5    1    3    3  502    0  0.37049282295E+03 -0.28261003029E+03 -0.10025697793E+04  0.11055775022E+04  0.46999998093E+01 0. -1.
       -5    1    3    3    0  502 -0.37049282295E+03  0.28261003029E+03  0.12329150060E+04  0.13180420567E+04  0.46999998093E+01 0.  1.
</event>
<event>
 5   0  0.3581449E-05  0.2498942E+04  0.7818609E-02  0.8403363E-01
        2   -1    0    0  501    0  0.00000000000E+00  0.00000000000E+00  0.13438951715E+04  0.13438951715E+04  0.25500000920E-02 0. -1.
       -2   -1    0    0    0  501  0.00000000000E+00  0.00000000000E+00 -0.11616810658E+04  0.11616810658E+04  0.25500000920E-02 0.  1.
    10030    2    1    2    0    0  0.00000000000E+00  0.00000000000E+00  0.18221410578E+03  0.25055762373E+04  0.24989418362E+04 0.  0.
        1    1    3    3  502    0  0.96915780901E+03  0.60048726967E+03  0.60366453892E+03  0.12900630587E+04  0.50400001928E-02 0. -1.
       -1    1    3    3    0  502 -0.96915780901E+03 -0.60048726967E+03 -0.42145043315E+03  0.12155131786E+04  0.50400001928E-02 0.  1.
</event>
<event>
 5   0  0.3579097E-05  0.2556360E+04  0.7818609E-02  0.8383177E-01
        2   -1    0    0  501    0  0.00000000000E+00  0.00000000000E+00  0.15813271618E+04  0.15813271618E+04  0.25500000920E-02 0. -1.
       -2   -1    0    0    0  501  0.00000000000E+00  0.00000000000E+00 -0.10331477597E+04  0.10331477597E+04  0.25500000920E-02 0.  1.
    10030    2    1    2    0    0  0.00000000000E+00  0.00000000000E+00  0.54817940216E+03  0.26144749215E+04  0.25563603928E+04 0.  0.
        5    1    3    3  502    0 -0.10531167098E+04  0.44019478786E+03  0.86240255213E+03  0.14305895665E+04  0.46999998093E+01 0. -1.
       -5    1    3    3    0  502  0.10531167098E+04 -0.44019478786E+03 -0.31422314997E+03  0.11838853550E+04  0.46999998093E+01 0.  1.
</event>
<event>
 5   0  0.1492639E-05  0.2506488E+04  0.7818609E-02  0.8400678E-01
       -1   -1    0    0    0  501  0.00000000000E+00  0.00000000000E+00  0.95821745793E+03  0.95821745794E+03  0.50400001928E-02 0. -1.
        1   -1    0    0  501    0  0.00000000000E+00  0.00000000000E+00 -0.16391061493E+04  0.16391061493E+04  0.50400001928E-02 0.  1.
    10030    2    1    2    0    0  0.00000000000E+00  0.00000000000E+00 -0.68088869137E+03  0.25973236072E+04  0.25064876841E+04 0.  0.
        5    1    3    3  502    0  0.25652959150E+03 -0.12251395631E+04 -0.27636767111E+03  0.12818640958E+04  0.46999998093E+01 0. -1.
       -5    1    3    3    0  502 -0.25652959150E+03  0.12251395631E+04 -0.40452102025E+03  0.13154595114E+04  0.46999998093E+01 0.  1.
</event>
<event>
 5   0  0.3578670E-05  0.2327953E+04  0.7818609E-02  0.8466981E-01
        2   -1    0    0  501    0  0.00000000000E+00  0.00000000000E+00  0.12440509691E+04  0.12440509691E+04  0.25500000920E-02 0. -1.
       -2   -1    0    0    0  501  0.00000000000E+00  0.00000000000E+00 -0.10890557903E+04  0.10890557903E+04  0.25500000920E-02 0.  1.
    10030    2    1    2    0    0  0.00000000000E+00  0.00000000000E+00  0.15499517885E+03  0.23331067594E+04  0.23279526725E+04 0.  0.
        4    1    3    3  502    0  0.49475801568E+02 -0.95404018621E+03 -0.58895495213E+03  0.11222789673E+04  0.12699999809E+01 0.  1.
       -4    1    3    3    0  502 -0.49475801568E+02  0.95404018621E+03  0.74395013098E+03  0.12108277921E+04  0.12699999809E+01 0. -1.
</event>
<event>
 5   0  0.3581449E-05  0.2465400E+04  0.7818609E-02  0.8415417E-01
        2   -1    0    0  501    0  0.00000000000E+00  0.00000000000E+00  0.23431651429E+04  0.23431651429E+04  0.25500000920E-02 0. -1.
       -2   -1    0    0    0  501  0.00000000000E+00  0.00000000000E+00 -0.64850297440E+03  0.64850297441E+03  0.25500000920E-02 0.  1.
    10030    2    1    2    0    0  0.00000000000E+00  0.00000000000E+00  0.16946621685E+04  0.29916681173E+04  0.24654002228E+04 0.  0.
        1    1    3    3  502    0  0.94835080371E+03 -0.36417718247E+03  0.16946324804E+04  0.19757969305E+04  0.50400001928E-02 0. -1.
       -1    1    3    3    0  502 -0.94835080371E+03  0.36417718247E+03  0.29688077664E-01  0.10158711867E+04  0.50400001928E-02 0.  1.
</event>
<event>
 5   0  0.1421242E-05  0.2493208E+04  0.7818609E-02  0.8405409E-01
       -1   -1    0    0    0  501  0.00000000000E+00  0.00000000000E+00  0.64704378347E+03  0.64704378349E+03  0.50400001928E-02 0.  1.
        1   -1    0    0  501    0  0.00000000000E+00  0.00000000000E+00 -0.24017258512E+04  0.24017258512E+04  0.50400001928E-02 0. -1.
    10030    2    1    2    0    0  0.00000000000E+00  0.00000000000E+00 -0.17546820678E+04  0.30487696347E+04  0.24932081996E+04 0.  0.
        3    1    3    3  502    0 -0.10310840816E+03 -0.89071743109E+03 -0.19363519242E+04  0.21338855804E+04  0.10100000352E+00 0. -1.
       -3    1    3    3    0  502  0.10310840816E+03  0.89071743109E+03  0.18166985642E+03  0.91488405430E+03  0.10100000352E+00 0.  1.
</event>
<event>
 5   0  0.3650620E-05  0.2473686E+04  0.7818609E-02  0.8412421E-01
        2   -1    0    0  501    0  0.00000000000E+00  0.00000000000E+00  0.11399547691E+04  0.11399547691E+04  0.25500000920E-02 0.  1.
       -2   -1    0    0    0  501  0.00000000000E+00  0.00000000000E+00 -0.13419656333E+04  0.13419656333E+04  0.25500000920E-02 0. -1.
    10030    2    1    2    0    0  0.00000000000E+00  0.00000000000E+00 -0.20201086417E+03  0.24819204024E+04  0.24736856095E+04 0.  0.
        3    1    3    3  502    0 -0.87459084755E+03  0.53154086411E+03  0.59581015656E+03  0.11842443134E+04  0.10100000352E+00 0.  1.
       -3    1    3    3    0  502  0.87459084755E+03 -0.53154086411E+03 -0.79782102074E+03  0.12976760891E+04  0.10100000352E+00 0. -1.
</event>
<event>
 5   0  0.1421242E-05  0.2483250E+04  0.7818609E-02  0.8408977E-01
       -1   -1    0    0    0  501  0.00000000000E+00  0.00000000000E+00  0.87015874178E+03  0.87015874179E+03  0.50400001928E-02 0. -1.
        1   -1    0    0  501    0  0.00000000000E+00  0.00000000000E+00 -0.17716682303E+04  0.17716682303E+04  0.50400001928E-02 0.  1.
    10030    2    1    2    0    0  0.00000000000E+00  0.00000000000E+00 -0.90150948856E+03  0.26418269721E+04  0.24832499658E+04 0.  0.
        3    1    3    3  502    0 -0.10738288582E+03  0.29914550879E+03  0.82614754930E+03  0.88517732857E+03  0.10100000352E+00 0. -1.
       -3    1    3    3    0  502  0.10738288582E+03 -0.29914550879E+03 -0.17276570379E+04  0.17566496436E+04  0.10100000352E+00 0.  1.
</event>
<event>
 5   0  0.1492639E-05  0.2777589E+04  0.7818609E-02  0.8310260E-01
        1   -1    0    0  501    0  0.00000000000E+00  0.00000000000E+00  0.13078320988E+04  0.13078320988E+04  0.50400001928E-02 0.  1.
       -1   -1    0    0    0  501  0.00000000000E+00  0.00000000000E+00 -0.14747685910E+04  0.14747685910E+04  0.50400001928E-02 0. -1.
    10030    2    1    2    0    0  0.00000000000E+00  0.00000000000E+00 -0.16693649225E+03  0.27826006898E+04  0.27775886676E+04 0.  0.
        5    1    3    3  502    0  0.11646194918E+04  0.25694039031E+03  0.62941307462E+03  0.13485324740E+04  0.46999998093E+01 0.  1.
       -5    1    3    3    0  502 -0.11646194918E+04 -0.25694039031E+03 -0.79634956687E+03  0.14340682158E+04  0.46999998093E+01 0. -1.
</event>
<event>
 5   0  0.1456876E-05  0.2467315E+04  0.7818609E-02  0.8414723E-01
        1   -1    0    0  501    0  0.00000000000E+00  0.00000000000E+00  0.75714511071E+03  0.75714511073E+03  0.50400001928E-02 0.  1.
       -1   -1    0    0    0  501  0.00000000000E+00  0.00000000000E+00 -0.20100648749E+04  0.20100648749E+04  0.50400001928E-02 0. -1.
    10030    2    1    2    0    0  0.00000000000E+00  0.00000000000E+00 -0.12529197642E+04  0.27672099856E+04  0.24673149716E+04 0.  0.
        1    1    3    3  502    0 -0.99057502367E+02  0.14489982681E+03 -0.19959889772E+04  0.20036916793E+04  0.50400001928E-02 0. -1.
       -1    1    3    3    0  502  0.99057502367E+02 -0.14489982681E+03  0.74306921306E+03  0.76351830627E+03  0.50400001928E-02 0.  1.
</event>
<event>
 5   0  0.1456876E-05  0.2484834E+04  0.7818609E-02  0.8408409E-01
       -1   -1    0    0    0  501  0.00000000000E+00  0.00000000000E+00  0.12541334192E+04  0.12541334192E+04  0.50400001928E-02 0.  1.
        1   -1    0    0  501    0  0.00000000000E+00  0.00000000000E+00 -0.12308099155E+04  0.12308099155E+04  0.50400001928E-02 0. -1.
    10030    2    1    2    0    0  0.00000000000E+00  0.00000000000E+00  0.23323503729E+02  0.24849433348E+04  0.24848338760E+04 0.  0.
        1    1    3    3  502    0  0.11158824184E+04 -0.33024636541E+03 -0.42349373295E+03  0.12383873285E+04  0.50400001928E-02 0. -1.
       -1    1    3    3    0  502 -0.11158824184E+04  0.33024636541E+03  0.44681723668E+03  0.12465560062E+04  0.50400001928E-02 0.  1.
</event>
<event>
 5   0  0.3650620E-05  0.2504340E+04  0.7818609E-02  0.8401441E-01
        2   -1    0    0  501    0  0.00000000000E+00  0.00000000000E+00  0.11518972786E+04  0.11518972786E+04  0.25500000920E-02 0.  1.
       -2   -1    0    0    0  501  0.00000000000E+00  0.00000000000E+00 -0.13611713476E+04  0.13611713476E+04  0.25500000920E-02 0. -1.
    10030    2    1    2    0    0  0.00000000000E+00  0.00000000000E+00 -0.20927406899E+03  0.25130686262E+04  0.25043398898E+04 0.  0.
        3    1    3    3  502    0 -0.26775281137E+03  0.94338868934E+03  0.67670109948E+03  0.11914689150E+04  0.10100000352E+00 0.  1.
       -3    1    3    3    0  502  0.26775281137E+03 -0.94338868934E+03 -0.88597516848E+03  0.13215997112E+04  0.10100000352E+00 0. -1.
</event>
<event>
 5   0  0.1456876E-05  0.2522977E+04  0.7818609E-02  0.8394845E-01
        1   -1    0    0  501    0  0.00000000000E+00  0.00000000000E+00  0.15298123851E+04  0.15298123851E+04  0.50400001928E-02 0. -1.
       -1   -1    0    0    0  501  0.00000000000E+00  0.00000000000E+00 -0.10402279802E+04  0.10402279803E+04  0.50400001928E-02 0.  1.
    10030    2    1    2    0    0  0.00000000000E+00  0.00000000000E+00  0.48958440484E+03  0.25700403653E+04  0.25229773265E+04 0.  0.
        1    1    3    3  502    0 -0.95793788130E+03 -0.37594941535E+03 -0.49845566119E+03  0.11434338606E+04  0.50400001928E-02 0.  1.
       -1    1    3    3    0  502  0.95793788130E+03  0.37594941535E+03  0.98804006602E+03  0.14266065048E+04  0.50400001928E-02 0. -1.
</event>
<event>
 5   0  0.1429483E-05  0.2521172E+04  0.7818609E-02  0.8395482E-01
       -1   -1    0    0    0  501  0.00000000000E+00  0.00000000000E+00  0.12323649899E+04  0.12323649899E+04  0.50400001928E-02 0. -1.
        1   -1    0    0  501    0  0.00000000000E+00  0.00000000000E+00 -0.12894532173E+04  0.12894532173E+04  0.50400001928E-02 0.  1.
    10030    2    1    2    0    0  0.00000000000E+00  0.00000000000E+00 -0.57088227385E+02  0.25218182072E+04  0.25211719506E+04 0.  0.
        2    1    3    3  502    0  0.79158465979E+03  0.70083640520E+03  0.65814410488E+03  0.12453640445E+04  0.25500000920E-02 0. -1.
       -2    1    3    3    0  502 -0.79158465979E+03 -0.70083640520E+03 -0.71523233226E+03  0.12764541627E+04  0.25500000920E-02 0.  1.
</event>
<event>
 5   0  0.1492639E-05  0.2508881E+04  0.7818609E-02  0.8399828E-01
       -1   -1    0    0    0  501  0.00000000000E+00  0.00000000000E+00  0.80476249552E+03  0.80476249554E+03  0.50400001928E-02 0. -1.
        1   -1    0    0  501    0  0.00000000000E+00  0.00000000000E+00 -0.19553858830E+04  0.19553858831E+04  0.50400001928E-02 0.  1.
    10030    2    1    2    0    0  0.00000000000E+00  0.00000000000E+00 -0.11506233875E+04  0.27601483786E+04  0.25088812032E+04 0.  0.
        5    1    3    3  502    0  0.81892634721E+03 -0.25289304923E+03  0.43239539871E+03  0.95999121211E+03  0.46999998093E+01 0. -1.
       -5    1    3    3    0  502 -0.81892634721E+03  0.25289304923E+03 -0.15830187862E+04  0.18001571665E+04  0.46999998093E+01 0.  1.
</event>
<event>
 5   0  0.3581449E-05  0.2492441E+04  0.7818609E-02  0.8405683E-01
       -2   -1    0    0    0  501  0.00000000000E+00  0.00000000000E+00  0.15709607020E+04  0.15709607020E+04  0.25500000920E-02 0.  1.
        2   -1    0    0  501    0  0.00000000000E+00  0.00000000000E+00 -0.98860886737E+03  0.98860886737E+03  0.25500000920E-02 0. -1.
    10030    2    1    2    0    0  0.00000000000E+00  0.00000000000E+00  0.58235183460E+03  0.25595695693E+04  0.24924411169E+04 0.  0.
        1    1    3    3  502    0 -0.70032913101E+03 -0.13852546273E+03  0.13401642793E+04  0.15184500292E+04  0.50400001928E-02 0.  1.
       -1    1    3    3    0  502  0.70032913101E+03  0.13852546273E+03 -0.75781244469E+03  0.10411195402E+04  0.50400001928E-02 0. -1.
</event>
<event>
 5   0  0.3650620E-05  0.2515208E+04  0.7818609E-02  0.8397587E-01
       -2   -1    0    0    0  501  0.00000000000E+00  0.00000000000E+00  0.12764731954E+04  0.12764731954E+04  0.25500000920E-02 0.  1.
        2   -1    0    0  501    0  0.00000000000E+00  0.00000000000E+00 -0.12390142042E+04  0.12390142042E+04  0.25500000920E-02 0. -1.
    10030    2    1    2    0    0  0.00000000000E+00  0.00000000000E+00  0.37458991226E+02  0.25154873996E+04  0.25152084768E+04 0.  0.
        3    1    3    3  502    0 -0.88489838003E+03 -0.67339231515E+03 -0.56875888150E+03  0.12489952076E+04  0.10100000352E+00 0. -1.
       -3    1    3    3    0  502  0.88489838003E+03  0.67339231515E+03  0.60621787273E+03  0.12664921920E+04  0.10100000352E+00 0.  1.
</event>
<event>
 5   0  0.1456876E-05  0.2490828E+04  0.7818609E-02  0.8406260E-01
        1   -1    0    0  501    0  0.00000000000E+00  0.00000000000E+00  0.93068021942E+03  0.93068021943E+03  0.50400001928E-02 0.  1.
       -1   -1    0    0    0  501  0.00000000000E+00  0.00000000000E+00 -0.16665836818E+04  0.16665836818E+04  0.50400001928E-02 0. -1.
    10030    2    1    2    0    0  0.00000000000E+00  0.00000000000E+00 -0.73590346241E+03  0.25972639013E+04  0.24908283495E+04 0.  0.
        1    1    3    3  502    0 -0.21010858565E+03  0.86760418442E+03  0.53758903814E+03  0.10420578739E+04  0.50400001928E-02 0.  1.
       -1    1    3    3    0  502  0.21010858565E+03 -0.86760418442E+03 -0.12734925006E+04  0.15552060274E+04  0.50400001928E-02 0. -1.
</event>
<event>
 5   0  0.1429483E-05  0.2182681E+04  0.7818609E-02  0.8525671E-01
        1   -1    0    0  501    0  0.00000000000E+00  0.00000000000E+00  0.17543166015E+04  0.17543166015E+04  0.50400001928E-02 0. -1.
       -1   -1    0    0    0  501  0.00000000000E+00  0.00000000000E+00 -0.67891068880E+03  0.67891068882E+03  0.50400001928E-02 0.  1.
    10030    2    1    2    0    0  0.00000000000E+00  0.00000000000E+00  0.10754059127E+04  0.24332272903E+04  0.21826811882E+04 0.  0.
        2    1    3    3  502    0 -0.11841857199E+02 -0.41099872397E+03 -0.58926143992E+03  0.71853268907E+03  0.25500000920E-02 0.  1.
       -2    1    3    3    0  502  0.11841857199E+02  0.41099872397E+03  0.16646673526E+04  0.17146946012E+04  0.25500000920E-02 0. -1.
</event>
<event>
 5   0  0.1502886E-05  0.2792150E+04  0.7818609E-02  0.8305709E-01
        1   -1    0    0  501    0  0.00000000000E+00  0.00000000000E+00  0.24708772952E+04  0.24708772953E+04  0.50400001928E-02 0.  1.
       -1   -1    0    0    0  501  0.00000000000E+00  0.00000000000E+00 -0.78879920457E+03  0.78879920459E+03  0.50400001928E-02 0. -1.
    10030    2    1    2    0    0  0.00000000000E+00  0.00000000000E+00  0.16820780907E+04  0.32596764998E+04  0.27921504581E+04 0.  0.
        4    1    3    3  502    0  0.13447580271E+04  0.15749614075E+02  0.40359481988E+03  0.14041056204E+04  0.12699999809E+01 0.  1.
       -4    1    3    3    0  502 -0.13447580271E+04 -0.15749614075E+02  0.12784832708E+04  0.18555708794E+04  0.12699999809E+01 0. -1.
</event>
<event>
 5   0  0.1421242E-05  0.2581899E+04  0.7818609E-02  0.8374376E-01
       -1   -1    0    0    0  501  0.00000000000E+00  0.00000000000E+00  0.20131918330E+04  0.20131918330E+04  0.50400001928E-02 0.  1.
        1   -1    0    0  501    0  0.00000000000E+00  0.00000000000E+00 -0.82781485594E+03  0.82781485595E+03  0.50400001928E-02 0. -1.
    10030    2    1    2    0    0  0.00000000000E+00  0.00000000000E+00  0.11853769770E+04  0.28410066889E+04  0.25818986093E+04 0.  0.
        3    1    3    3  502    0 -0.11005488767E+01 -0.83116544699E+03  0.16795997609E+04  0.18740044233E+04  0.10100000352E+00 0.  1.
       -3    1    3    3    0  502  0.11005488767E+01  0.83116544699E+03 -0.49422278386E+03  0.96700226565E+03  0.10100000352E+00 0. -1.
</event>
<event>
 5   0  0.1456876E-05  0.2513623E+04  0.7818609E-02  0.8398148E-01
       -1   -1    0    0    0  501  0.00000000000E+00  0.00000000000E+00  0.83090752353E+03  0.83090752354E+03  0.50400001928E-02 0. -1.
        1   -1    0    0  501    0  0.00000000000E+00  0.00000000000E+00 -0.19010242915E+04  0.19010242915E+04  0.50400001928E-02 0.  1.
    10030    2    1    2    0    0  0.00000000000E+00  0.00000000000E+00 -0.10701167680E+04  0.27319318151E+04  0.25136231907E+04 0.  0.
        1    1    3    3  502    0 -0.91627757570E+03  0.85248727765E+03 -0.40982875422E+03  0.13169125871E+04  0.50400001928E-02 0. -1.
       -1    1    3    3    0  502  0.91627757570E+03 -0.85248727765E+03 -0.66028801375E+03  0.14150192279E+04  0.50400001928E-02 0.  1.
</event>
<event>
 5   0  0.3578670E-05  0.2492288E+04  0.7818609E-02  0.8405738E-01
        2   -1    0    0  501    0  0.00000000000E+00  0.00000000000E+00  0.12777473280E+04  0.12777473280E+04  0.25500000920E-02 0. -1.
       -2   -1    0    0    0  501  0.00000000000E+00  0.00000000000E+00 -0.12153218548E+04  0.12153218548E+04  0.25500000920E-02 0.  1.
    10030    2    1    2    0    0  0.00000000000E+00  0.00000000000E+00  0.62425473254E+02  0.24930691828E+04  0.24922875056E+04 0.  0.
        4    1    3    3  502    0  0.18261192130E+03 -0.49717093731E+03 -0.10971244576E+04  0.12182814712E+04  0.12699999809E+01 0.  1.
       -4    1    3    3    0  502 -0.18261192130E+03  0.49717093731E+03  0.11595499308E+04  0.12747877116E+04  0.12699999809E+01 0. -1.
</event>
<event>
 5   0  0.3578670E-05  0.2473071E+04  0.7818609E-02  0.8412642E-01
       -2   -1    0    0    0  501  0.00000000000E+00  0.00000000000E+00  0.58963829040E+03  0.58963829041E+03  0.25500000920E-02 0. -1.
        2   -1    0    0  501    0  0.00000000000E+00  0.00000000000E+00 -0.25931490745E+04  0.25931490745E+04  0.25500000920E-02 0.  1.
    10030    2    1    2    0    0  0.00000000000E+00  0.00000000000E+00 -0.20035107841E+04  0.31827873649E+04  0.24730709550E+04 0.  0.
        4    1    3    3  502    0 -0.24194838609E+03 -0.88927892584E+03  0.59250151754E+02  0.92350864796E+03  0.12699999809E+01 0. -1.
       -4    1    3    3    0  502  0.24194838609E+03  0.88927892584E+03 -0.20627609359E+04  0.22592787170E+04  0.12699999809E+01 0.  1.
</event>
<event>
 5   0  0.1421242E-05  0.2505369E+04  0.7818609E-02  0.8401075E-01
        1   -1    0    0  501    0  0.00000000000E+00  0.00000000000E+00  0.10753021169E+04  0.10753021169E+04  0.50400001928E-02 0.  1.
       -1   -1    0    0    0  501  0.00000000000E+00  0.00000000000E+00 -0.14593283740E+04  0.14593283740E+04  0.50400001928E-02 0. -1.
    10030    2    1    2    0    0  0.00000000000E+00  0.00000000000E+00 -0.38402625712E+03  0.25346304909E+04  0.25053693459E+04 0.  0.
        3    1    3    3  502    0 -0.11258671190E+03 -0.72855266003E+03 -0.12166371504E+04  0.14225578063E+04  0.10100000352E+00 0. -1.
       -3    1    3    3    0  502  0.11258671190E+03  0.72855266003E+03  0.83261089331E+03  0.11120726847E+04  0.10100000352E+00 0.  1.
</event>
<event>
 5   0  0.1502886E-05  0.2269395E+04  0.7818609E-02  0.8490087E-01
        1   -1    0    0  501    0  0.00000000000E+00  0.00000000000E+00  0.11518014865E+04  0.11518014865E+04  0.50400001928E-02 0. -1.
       -1   -1    0    0    0  501  0.00000000000E+00  0.00000000000E+00 -0.11178476322E+04  0.11178476322E+04  0.50400001928E-02 0.  1.
    10030    2    1    2    0    0  0.00000000000E+00  0.00000000000E+00  0.33953854294E+02  0.22696491187E+04  0.22693951304E+04 0.  0.
        4    1    3    3  502    0 -0.13246215754E+03  0.21767133712E+03 -0.10888637481E+04  0.11182812299E+04  0.12699999809E+01 0.  1.
       -4    1    3    3    0  502  0.13246215754E+03 -0.21767133712E+03  0.11228176024E+04  0.11513678888E+04  0.12699999809E+01 0. -1.
</event>
<event>
 5   0  0.3578670E-05  0.2521722E+04  0.7818609E-02  0.8395287E-01
        2   -1    0    0  501    0  0.00000000000E+00  0.00000000000E+00  0.18008755581E+04  0.18008755581E+04  0.25500000920E-02 0.  1.
       -2   -1    0    0    0  501  0.00000000000E+00  0.00000000000E+00 -0.88277674199E+03  0.88277674199E+03  0.25500000920E-02 0. -1.
    10030    2    1    2    0    0  0.00000000000E+00  0.00000000000E+00  0.91809881612E+03  0.26836523001E+04  0.25217224732E+04 0.  0.
        4    1    3    3  502    0 -0.47851774871E+03  0.80463126715E+03 -0.43979174741E+03  0.10343254352E+04  0.12699999809E+01 0. -1.
       -4    1    3    3    0  502  0.47851774871E+03 -0.80463126715E+03  0.13578905635E+04  0.16493268649E+04  0.12699999809E+01 0.  1.
</event>
<event>
 5   0  0.3578670E-05  0.2478843E+04  0.7818609E-02  0.8410562E-01
       -2   -1    0    0    0  501  0.00000000000E+00  0.00000000000E+00  0.10948207925E+04  0.10948207925E+04  0.25500000920E-02 0. -1.
        2   -1    0    0  501    0  0.00000000000E+00  0.00000000000E+00 -0.14031202807E+04  0.14031202807E+04  0.25500000920E-02 0.  1.
    10030    2    1    2    0    0  0.00000000000E+00  0.00000000000E+00 -0.30829948818E+03  0.24979410731E+04  0.24788426796E+04 0.  0.
        4    1    3    3  502    0 -0.11755688412E+04  0.38784369278E+03 -0.21609541983E+03  0.12566159612E+04  0.12699999809E+01 0.  1.
       -4    1    3    3    0  502  0.11755688412E+04 -0.38784369278E+03 -0.92204068347E+02  0.12413251120E+04  0.12699999809E+01 0. -1.
</event>
<event>
 5   0  0.3579097E-05  0.2517692E+04  0.7818609E-02  0.8396710E-01
        2   -1    0    0  501    0  0.00000000000E+00  0.00000000000E+00  0.17513553743E+04  0.17513553743E+04  0.25500000920E-02 0. -1.
       -2   -1    0    0    0  501  0.00000000000E+00  0.00000000000E+00 -0.90483837726E+03  0.90483837727E+03  0.25500000920E-02 0.  1.
    10030    2    1    2    0    0  0.00000000000E+00  0.00000000000E+00  0.84651699708E+03  0.26561937516E+04  0.25176922409E+04 0.  0.
        5    1    3    3  502    0  0.57940007115E+03 -0.11139009034E+03 -0.74992130539E+03  0.95420975102E+03  0.46999998093E+01 0.  1.
       -5    1    3    3    0  502 -0.57940007115E+03  0.11139009034E+03  0.15964383025E+04  0.17019840006E+04  0.46999998093E+01 0. -1.
</event>
<event>
 5   0  0.3581449E-05  0.2480998E+04  0.7818609E-02  0.8409786E-01
       -2   -1    0    0    0  501  0.00000000000E+00  0.00000000000E+00  0.93661461183E+03  0.93661461183E+03  0.25500000920E-02 0. -1.
        2   -1    0    0  501    0  0.00000000000E+00  0.00000000000E+00 -0.16429787362E+04  0.16429787362E+04  0.25500000920E-02 0.  1.
    10030    2    1    2    0    0  0.00000000000E+00  0.00000000000E+00 -0.70636412435E+03  0.25795933480E+04  0.24809980985E+04 0.  0.
        1    1    3    3  502    0 -0.77899576278E+03  0.45875240748E+02  0.64945255891E+03  0.10152475375E+04  0.50400001928E-02 0. -1.
       -1    1    3    3    0  502  0.77899576278E+03 -0.45875240748E+02 -0.13558166833E+04  0.15643458105E+04  0.50400001928E-02 0.  1.
</event>
<event>
 5   0  0.1201438E-05  0.2483209E+04  0.7818609E-02  0.8408992E-01
       -3   -1    0    0    0  501  0.00000000000E+00  0.00000000000E+00  0.13524802507E+04  0.13524802545E+04  0.10100000352E+00 0. -1.
        3   -1    0    0  501    0  0.00000000000E+00  0.00000000000E+00 -0.11398178315E+04  0.11398178360E+04  0.10100000352E+00 0.  1.
    10030    2    1    2    0    0  0.00000000000E+00  0.00000000000E+00  0.21266241918E+03  0.24922980905E+04  0.24832085026E+04 0.  0.
        4    1    3    3  502    0 -0.35987116053E+03 -0.81766557763E+03  0.97174915928E+03  0.13199932918E+04  0.12699999809E+01 0.  1.
       -4    1    3    3    0  502  0.35987116053E+03  0.81766557763E+03 -0.75908674009E+03  0.11723047986E+04  0.12699999809E+01 0. -1.
</event>
<event>
 5   0  0.3579097E-05  0.2545811E+04  0.7818609E-02  0.8386845E-01
       -2   -1    0    0    0  501  0.00000000000E+00  0.00000000000E+00  0.12330909457E+04  0.12330909457E+04  0.25500000920E-02 0. -1.
        2   -1    0    0  501    0  0.00000000000E+00  0.00000000000E+00 -0.13140054537E+04  0.13140054537E+04  0.25500000920E-02 0.  1.
    10030    2    1    2    0    0  0.00000000000E+00  0.00000000000E+00 -0.80914508018E+02  0.25470963994E+04  0.25458108552E+04 0.  0.
        5    1    3    3  502    0 -0.34719354501E+03  0.97352436261E+03  0.70286682722E+03  0.12499347619E+04  0.46999998093E+01 0. -1.
       -5    1    3    3    0  502  0.34719354501E+03 -0.97352436261E+03 -0.78378133524E+03  0.12971616375E+04  0.46999998093E+01 0.  1.
</event>
<event>
 5   0  0.1429483E-05  0.2733202E+04  0.7818609E-02  0.8324312E-01
        1   -1    0    0  501    0  0.00000000000E+00  0.00000000000E+00  0.12187345235E+04  0.12187345235E+04  0.50400001928E-02 0.  1.
       -1   -1    0    0    0  501  0.00000000000E+00  0.00000000000E+00 -0.15324081991E+04  0.15324081991E+04  0.50400001928E-02 0. -1.
    10030    2    1    2    0    0  0.00000000000E+00  0.00000000000E+00 -0.31367367559E+03  0.27511427226E+04  0.27332023535E+04 0.  0.
        2    1    3    3  502    0  0.96460103215E+03 -0.86862415352E+03  0.27332727697E+03  0.13265258654E+04  0.25500000920E-02 0.  1.
       -2    1    3    3    0  502 -0.96460103215E+03  0.86862415352E+03 -0.58700095257E+03  0.14246168571E+04  0.25500000920E-02 0. -1.
</event>
<event>
 5   0  0.3579097E-05  0.2501145E+04  0.7818609E-02  0.8402578E-01
       -2   -1    0    0    0  501  0.00000000000E+00  0.00000000000E+00  0.69133260875E+03  0.69133260875E+03  0.25500000920E-02 0.  1.
        2   -1    0    0  501    0  0.00000000000E+00  0.00000000000E+00 -0.22621993105E+04  0.22621993105E+04  0.25500000920E-02 0. -1.
    10030    2    1    2    0    0  0.00000000000E+00  0.00000000000E+00 -0.15708667018E+04  0.29535319193E+04  0.25011454583E+04 0.  0.
        5    1    3    3  502    0 -0.17068646975E+03  0.72494302693E+03 -0.19717445003E+04  0.21077178957E+04  0.46999998093E+01 0. -1.
       -5    1    3    3    0  502  0.17068646975E+03 -0.72494302693E+03  0.40087779849E+03  0.84581402363E+03  0.46999998093E+01 0.  1.
</event>
<event>
 5   0  0.1421242E-05  0.2523885E+04  0.7818609E-02  0.8394526E-01
       -1   -1    0    0    0  501  0.00000000000E+00  0.00000000000E+00  0.89919267785E+03  0.89919267786E+03  0.50400001928E-02 0.  1.
        1   -1    0    0  501    0  0.00000000000E+00  0.00000000000E+00 -0.17710314357E+04  0.17710314357E+04  0.50400001928E-02 0. -1.
    10030    2    1    2    0    0  0.00000000000E+00  0.00000000000E+00 -0.87183875782E+03  0.26702241135E+04  0.25238847036E+04 0.  0.
        3    1    3    3  502    0  0.11061203251E+04 -0.31065172881E+03 -0.98819380863E+03  0.15154318473E+04  0.10100000352E+00 0. -1.
       -3    1    3    3    0  502 -0.11061203251E+04  0.31065172881E+03  0.11635505082E+03  0.11547922663E+04  0.10100000352E+00 0.  1.
</event>
<event>
 5   0  0.1502886E-05  0.2492470E+04  0.7818609E-02  0.8405673E-01
        1   -1    0    0  501    0  0.00000000000E+00  0.00000000000E+00  0.16848421419E+04  0.16848421419E+04  0.50400001928E-02 0. -1.
       -1   -1    0    0    0  501  0.00000000000E+00  0.00000000000E+00 -0.92180835654E+03  0.92180835655E+03  0.50400001928E-02 0.  1.
    10030    2    1    2    0    0  0.00000000000E+00  0.00000000000E+00  0.76303378535E+03  0.26066504984E+04  0.24924699122E+04 0.  0.
        4    1    3    3  502    0  0.84517203128E+03  0.18238150614E+03  0.13201402586E+04  0.15780845007E+04  0.12699999809E+01 0. -1.
       -4    1    3    3    0  502 -0.84517203128E+03 -0.18238150614E+03 -0.55710647323E+03  0.10285659977E+04  0.12699999809E+01 0.  1.
</event>
<event>
 5   0  0.1421242E-05  0.2493363E+04  0.7818609E-02  0.8405354E-01
       -1   -1    0    0    0  501  0.00000000000E+00  0.00000000000E+00  0.10093036525E+04  0.10093036525E+04  0.50400001928E-02 0.  1.
        1   -1    0    0  501    0  0.00000000000E+00  0.00000000000E+00 -0.15398887109E+04  0.15398887109E+04  0.50400001928E-02 0. -1.
    10030    2    1    2    0    0  0.00000000000E+00  0.00000000000E+00 -0.53058505838E+03  0.25491923634E+04  0.24933634315E+04 0.  0.
        3    1    3    3  502    0  0.87928364555E+03 -0.22039997249E+03 -0.11403179369E+04  0.14567226519E+04  0.10100000352E+00 0. -1.
       -3    1    3    3    0  502 -0.87928364555E+03  0.22039997249E+03  0.60973287852E+03  0.10924697115E+04  0.10100000352E+00 0.  1.
</event>
<event>
 5   0  0.1421242E-05  0.2488968E+04  0.7818609E-02  0.8406926E-01
       -1   -1    0    0    0  501  0.00000000000E+00  0.00000000000E+00  0.86938052028E+03  0.86938052030E+03  0.50400001928E-02 0. -1.
        1   -1    0    0  501    0  0.00000000000E+00  0.00000000000E+00 -0.17814295393E+04  0.17814295393E+04  0.50400001928E-02 0.  1.
    10030    2    1    2    0    0  0.00000000000E+00  0.00000000000E+00 -0.91204901897E+03  0.26508100596E+04  0.24889677697E+04 0.  0.
        3    1    3    3  502    0  0.24257139621E+03 -0.83836198090E+03 -0.14008684177E+04  0.16504920561E+04  0.10100000352E+00 0.  1.
       -3    1    3    3    0  502 -0.24257139621E+03  0.83836198090E+03  0.48881939873E+03  0.10003180035E+04  0.10100000352E+00 0. -1.
</event>
<event>
 5   0  0.3704241E-05  0.2503019E+04  0.7818609E-02  0.8401911E-01
        2   -1    0    0  501    0  0.00000000000E+00  0.00000000000E+00  0.94571374776E+03  0.94571374776E+03  0.25500000920E-02 0. -1.
       -2   -1    0    0    0  501  0.00000000000E+00  0.00000000000E+00 -0.16561844188E+04  0.16561844188E+04  0.25500000920E-02 0.  1.
    10030    2    1    2    0    0  0.00000000000E+00  0.00000000000E+00 -0.71047067106E+03  0.26018981666E+04  0.25030192758E+04 0.  0.
        2    1    3    3  502    0 -0.22857914106E+03 -0.92231377638E+03  0.49141183053E+03  0.10697647933E+04  0.25500000920E-02 0. -1.
       -2    1    3    3    0  502  0.22857914106E+03  0.92231377638E+03 -0.12018825016E+04  0.15321333733E+04  0.25500000920E-02 0.  1.
</event>
<event>
 5   0  0.1492639E-05  0.2507513E+04  0.7818609E-02  0.8400314E-01
       -1   -1    0    0    0  501  0.00000000000E+00  0.00000000000E+00  0.77402277296E+03  0.77402277297E+03  0.50400001928E-02 0.  1.
        1   -1    0    0  501    0  0.00000000000E+00  0.00000000000E+00 -0.20308257984E+04  0.20308257984E+04  0.50400001928E-02 0. -1.
    10030    2    1    2    0    0  0.00000000000E+00  0.00000000000E+00 -0.12568030254E+04  0.28048485714E+04  0.25075130435E+04 0.  0.
        5    1    3    3  502    0 -0.13408335431E+03 -0.79551894018E+02 -0.20199305667E+04  0.20259438378E+04  0.46999998093E+01 0. -1.
       -5    1    3    3    0  502  0.13408335431E+03  0.79551894018E+02  0.76312754125E+03  0.77890473356E+03  0.46999998093E+01 0.  1.
</event>
<event>
 5   0  0.1429483E-05  0.2474524E+04  0.7818609E-02  0.8412118E-01
        1   -1    0    0  501    0  0.00000000000E+00  0.00000000000E+00  0.16531818305E+04  0.16531818305E+04  0.50400001928E-02 0. -1.
       -1   -1    0    0    0  501  0.00000000000E+00  0.00000000000E+00 -0.92598211789E+03  0.92598211790E+03  0.50400001928E-02 0.  1.
    10030    2    1    2    0    0  0.00000000000E+00  0.00000000000E+00  0.72719971260E+03  0.25791639484E+04  0.24745236412E+04 0.  0.
        2    1    3    3  502    0  0.10611829160E+04 -0.38658506584E+03 -0.16299716726E+03  0.11411070374E+04  0.25500000920E-02 0.  1.
       -2    1    3    3    0  502 -0.10611829160E+04  0.38658506584E+03  0.89019687986E+03  0.14380569110E+04  0.25500000920E-02 0. -1.
</event>
<event>
 5   0  0.1421242E-05  0.2370761E+04  0.7818609E-02  0.8450532E-01
        1   -1    0    0  501    0  0.00000000000E+00  0.00000000000E+00  0.15868105311E+04  0.15868105311E+04  0.50400001928E-02 0.  1.
       -1   -1    0    0    0  501  0.00000000000E+00  0.00000000000E+00 -0.88550379908E+03  0.88550379910E+03  0.50400001928E-02 0. -1.
    10030    2    1    2    0    0  0.00000000000E+00  0.00000000000E+00  0.70130673205E+03  0.24723143302E+04  0.23707608515E+04 0.  0.
        3    1    3    3  502    0 -0.64540617013E+03  0.33016735508E+03 -0.62737271504E+03  0.95872631161E+03  0.10100000352E+00 0. -1.
       -3    1    3    3    0  502  0.64540617013E+03 -0.33016735508E+03  0.13286794471E+04  0.15135880186E+04  0.10100000352E+00 0.  1.
</event>
<event>
 5   0  0.3581449E-05  0.2525874E+04  0.7818609E-02  0.8393825E-01
       -2   -1    0    0    0  501  0.00000000000E+00  0.00000000000E+00  0.13546471564E+04  0.13546471564E+04  0.25500000920E-02 0. -1.
        2   -1    0    0  501    0  0.00000000000E+00  0.00000000000E+00 -0.11774358221E+04  0.11774358221E+04  0.25500000920E-02 0.  1.
    10030    2    1    2    0    0  0.00000000000E+00  0.00000000000E+00  0.17721133428E+03  0.25320829785E+04  0.25258741760E+04 0.  0.
        1    1    3    3  502    0 -0.24918859311E+03  0.62566701859E+03  0.11596212568E+04  0.13409979987E+04  0.50400001928E-02 0. -1.
       -1    1    3    3    0  502  0.24918859311E+03 -0.62566701859E+03 -0.98240992257E+03  0.11910849798E+04  0.50400001928E-02 0.  1.
</event>
<event>
 5   0  0.3704241E-05  0.2467858E+04  0.7818609E-02  0.8414527E-01
        2   -1    0    0  501    0  0.00000000000E+00  0.00000000000E+00  0.73608937974E+03  0.73608937974E+03  0.25500000920E-02 0. -1.
       -2   -1    0    0    0  501  0.00000000000E+00  0.00000000000E+00 -0.20684722877E+04  0.20684722877E+04  0.25500000920E-02 0.  1.
    10030    2    1    2    0    0  0.00000000000E+00  0.00000000000E+00 -0.13323829079E+04  0.28045616674E+04  0.24678577619E+04 0.  0.
        2    1    3    3  502    0 -0.23248165395E+03 -0.10401928636E+04  0.40349522829E+02  0.10666194246E+04  0.25500000920E-02 0. -1.
       -2    1    3    3    0  502  0.23248165395E+03  0.10401928636E+04 -0.13727324307E+04  0.17379422428E+04  0.25500000920E-02 0.  1.
</event>
<event>
 5   0  0.1421242E-05  0.2488886E+04  0.7818609E-02  0.8406956E-01
       -1   -1    0    0    0  501  0.00000000000E+00  0.00000000000E+00  0.17580283036E+04  0.17580283036E+04  0.50400001928E-02 0. -1.
        1   -1    0    0  501    0  0.00000000000E+00  0.00000000000E+00 -0.88089489421E+03  0.88089489423E+03  0.50400001928E-02 0.  1.
    10030    2    1    2    0    0  0.00000000000E+00  0.00000000000E+00  0.87713340940E+03  0.26389231979E+04  0.24888858203E+04 0.  0.
        3    1    3    3  502    0  0.73339983970E+03  0.60995166223E+03 -0.40881219200E+03  0.10378071948E+04  0.10100000352E+00 0.  1.
       -3    1    3    3    0  502 -0.73339983970E+03 -0.60995166223E+03  0.12859456014E+04  0.16011160030E+04  0.10100000352E+00 0. -1.
</event>
<event>
 5   0  0.3581449E-05  0.2462193E+04  0.7818609E-02  0.8416579E-01
        2   -1    0    0  501    0  0.00000000000E+00  0.00000000000E+00  0.10725024759E+04  0.10725024759E+04  0.25500000920E-02 0.  1.
       -2   -1    0    0    0  501  0.00000000000E+00  0.00000000000E+00 -0.14131427256E+04  0.14131427256E+04  0.25500000920E-02 0. -1.
    10030    2    1    2    0    0  0.00000000000E+00  0.00000000000E+00 -0.34064024968E+03  0.24856452015E+04  0.24621933896E+04 0.  0.
        1    1    3    3  502    0  0.11673448819E+04 -0.30219560305E+02  0.22325443905E+03  0.11888859658E+04  0.50400001928E-02 0.  1.
       -1    1    3    3    0  502 -0.11673448819E+04  0.30219560305E+02 -0.56389468873E+03  0.12967592356E+04  0.50400001928E-02 0. -1.
</event>
<event>
 5   0  0.1456876E-05  0.2489559E+04  0.7818609E-02  0.8406714E-01
        1   -1    0    0  501    0  0.00000000000E+00  0.00000000000E+00  0.10070177551E+04  0.10070177551E+04  0.50400001928E-02 0. -1.
       -1   -1    0    0    0  501  0.00000000000E+00  0.00000000000E+00 -0.15386784486E+04  0.15386784486E+04  0.50400001928E-02 0.  1.
    10030    2    1    2    0    0  0.00000000000E+00  0.00000000000E+00 -0.53166069343E+03  0.25456962037E+04  0.24895594126E+04 0.  0.
        1    1    3    3  502    0 -0.42157293692E+03  0.11711304729E+04 -0.28051350589E+03  0.12759146337E+04  0.50400001928E-02 0.  1.
       -1    1    3    3    0  502  0.42157293692E+03 -0.11711304729E+04 -0.25114718754E+03  0.12697815700E+04  0.50400001928E-02 0. -1.
</event>
<event>
 5   0  0.1421242E-05  0.2505228E+04  0.7818609E-02  0.8401126E-01
        1   -1    0    0  501    0  0.00000000000E+00  0.00000000000E+00  0.13141332846E+04  0.13141332846E+04  0.50400001928E-02 0.  1.
       -1   -1    0    0    0  501  0.00000000000E+00  0.00000000000E+00 -0.11939741942E+04  0.11939741942E+04  0.50400001928E-02 0. -1.
    10030    2    1    2    0    0  0.00000000000E+00  0.00000000000E+00  0.12015909040E+03  0.25081074788E+04  0.25052275182E+04 0.  0.
        3    1    3    3  502    0 -0.70210961948E+03  0.15605793837E+03 -0.96663789693E+03  0.12048654829E+04  0.10100000352E+00 0. -1.
       -3    1    3    3    0  502  0.70210961948E+03 -0.15605793837E+03  0.10867969873E+04  0.13032419959E+04  0.10100000352E+00 0.  1.
</event>
<event>
 5   0  0.3578670E-05  0.2520756E+04  0.7818609E-02  0.8395628E-01
       -2   -1    0    0    0  501  0.00000000000E+00  0.00000000000E+00  0.88917372652E+03  0.88917372652E+03  0.25500000920E-02 0.  1.
        2   -1    0    0  501    0  0.00000000000E+00  0.00000000000E+00 -0.17865496080E+04  0.17865496080E+04  0.25500000920E-02 0. -1.
    10030    2    1    2    0    0  0.00000000000E+00  0.00000000000E+00 -0.89737588148E+03  0.26757233345E+04  0.25207562140E+04 0.  0.
        4    1    3    3  502    0  0.26629061261E+03 -0.27678302368E+03  0.82554006508E+03  0.91051498863E+03  0.12699999809E+01 0.  1.
       -4    1    3    3    0  502 -0.26629061261E+03  0.27678302368E+03 -0.17229159466E+04  0.17652083459E+04  0.12699999809E+01 0. -1.
</event>
<event>
 5   0  0.1429483E-05  0.2503945E+04  0.7818609E-02  0.8401581E-01
        1   -1    0    0  501    0  0.00000000000E+00  0.00000000000E+00  0.28045710381E+04  0.28045710381E+04  0.50400001928E-02 0. -1.
       -1   -1    0    0    0  501  0.00000000000E+00  0.00000000000E+00 -0.55888601689E+03  0.55888601691E+03  0.50400001928E-02 0.  1.
    10030    2    1    2    0    0  0.00000000000E+00  0.00000000000E+00  0.22456850212E+04  0.33634570550E+04  0.25039453162E+04 0.  0.
        2    1    3    3  502    0 -0.57136188457E+03  0.59122048913E+03  0.23910986569E+04  0.25285072389E+04  0.25500000920E-02 0. -1.
       -2    1    3    3    0  502  0.57136188457E+03 -0.59122048913E+03 -0.14541363577E+03  0.83494981608E+03  0.25500000920E-02 0.  1.
</event>
<event>
 5   0  0.3581449E-05  0.2481774E+04  0.7818609E-02  0.8409508E-01
        2   -1    0    0  501    0  0.00000000000E+00  0.00000000000E+00  0.19902857003E+04  0.19902857003E+04  0.25500000920E-02 0.  1.
       -2   -1    0    0    0  501  0.00000000000E+00  0.00000000000E+00 -0.77365778501E+03  0.77365778501E+03  0.25500000920E-02 0. -1.
    10030    2    1    2    0    0  0.00000000000E+00  0.00000000000E+00  0.12166279152E+04  0.27639434853E+04  0.24817735807E+04 0.  0.
        1    1    3    3  502    0 -0.54934319777E+03 -0.11564436923E+03 -0.62414572620E+03  0.83946974730E+03  0.50400001928E-02 0. -1.
       -1    1    3    3    0  502  0.54934319777E+03  0.11564436923E+03  0.18407736415E+04  0.19244737380E+04  0.50400001928E-02 0.  1.
</event>
<event>
 5   0  0.3579097E-05  0.2503599E+04  0.7818609E-02  0.8401704E-01
       -2   -1    0    0    0  501  0.00000000000E+00  0.00000000000E+00  0.97270913690E+03  0.97270913691E+03  0.25500000920E-02 0.  1.
        2   -1    0    0  501    0  0.00000000000E+00  0.00000000000E+00 -0.16109666972E+04  0.16109666972E+04  0.25500000920E-02 0. -1.
    10030    2    1    2    0    0  0.00000000000E+00  0.00000000000E+00 -0.63825756032E+03  0.25836758341E+04  0.25035990299E+04 0.  0.
        5    1    3    3  502    0  0.45833585800E+03 -0.24896794776E+03  0.85521497871E+03  0.10017342699E+04  0.46999998093E+01 0.  1.
       -5    1    3    3    0  502 -0.45833585800E+03  0.24896794776E+03 -0.14934725390E+04  0.15819415642E+04  0.46999998093E+01 0. -1.
</event>
<event>
 5   0  0.3578670E-05  0.2482260E+04  0.7818609E-02  0.8409333E-01
       -2   -1    0    0    0  501  0.00000000000E+00  0.00000000000E+00  0.12539867412E+04  0.12539867412E+04  0.25500000920E-02 0.  1.
        2   -1    0    0  501    0  0.00000000000E+00  0.00000000000E+00 -0.12284051604E+04  0.12284051604E+04  0.25500000920E-02 0. -1.
    10030    2    1    2    0    0  0.00000000000E+00  0.00000000000E+00  0.25581580804E+02  0.24823919015E+04  0.24822600862E+04 0.  0.
        4    1    3    3  502    0  0.69450883457E+03 -0.10122391761E+04  0.19564332863E+03  0.12430802854E+04  0.12699999809E+01 0. -1.
       -4    1    3    3    0  502 -0.69450883457E+03  0.10122391761E+04 -0.17006174782E+03  0.12393116162E+04  0.12699999809E+01 0.  1.
</event>
<event>
 5   0  0.1421242E-05  0.2480791E+04  0.7818609E-02  0.8409861E-01
        1   -1    0    0  501    0  0.00000000000E+00  0.00000000000E+00  0.20622844150E+04  0.20622844150E+04  0.50400001928E-02 0.  1.
       -1   -1    0    0    0  501  0.00000000000E+00  0.00000000000E+00 -0.74605663231E+03  0.74605663233E+03  0.50400001928E-02 0. -1.
    10030    2    1    2    0    0  0.00000000000E+00  0.00000000000E+00  0.13162277827E+04  0.28083410473E+04  0.24807909751E+04 0.  0.
        3    1    3    3  502    0  0.31091452604E+03  0.57666805290E+03 -0.53421840996E+03  0.84534206418E+03  0.10100000352E+00 0. -1.
       -3    1    3    3    0  502 -0.31091452604E+03 -0.57666805290E+03  0.18504461926E+04  0.19629989831E+04  0.10100000352E+00 0.  1.
</event>
<event>
 5   0  0.1421242E-05  0.2488045E+04  0.7818609E-02  0.8407257E-01
        1   -1    0    0  501    0  0.00000000000E+00  0.00000000000E+00  0.18689603658E+04  0.18689603658E+04  0.50400001928E-02 0. -1.
       -1   -1    0    0    0  501  0.00000000000E+00  0.00000000000E+00 -0.82804964418E+03  0.82804964420E+03  0.50400001928E-02 0.  1.
    10030    2    1    2    0    0  0.00000000000E+00  0.00000000000E+00  0.10409107216E+04  0.26970100100E+04  0.24880449883E+04 0.  0.
        3    1    3    3  502    0 -0.73567802493E+03  0.82128687227E+02 -0.56332883592E+03  0.93021861151E+03  0.10100000352E+00 0.  1.
       -3    1    3    3    0  502  0.73567802493E+03 -0.82128687227E+02  0.16042395575E+04  0.17667913985E+04  0.10100000352E+00 0. -1.
</event>
<event>
 5   0  0.3650620E-05  0.2491803E+04  0.7818609E-02  0.8405912E-01
        2   -1    0    0  501    0  0.00000000000E+00  0.00000000000E+00  0.19267630135E+04  0.19267630135E+04  0.25500000920E-02 0.  1.
       -2   -1    0    0    0  501  0.00000000000E+00  0.00000000000E+00 -0.80563643374E+03  0.80563643374E+03  0.25500000920E-02 0. -1.
    10030    2    1    2    0    0  0.00000000000E+00  0.00000000000E+00  0.11211265797E+04  0.27323994472E+04  0.24918029480E+04 0.  0.
        3    1    3    3  502    0 -0.51617888102E+02 -0.12185195954E+04  0.28139131817E+03  0.12516531049E+04  0.10100000352E+00 0. -1.
       -3    1    3    3    0  502  0.51617888102E+02  0.12185195954E+04  0.83973526157E+03  0.14807463424E+04  0.10100000352E+00 0.  1.
</event>
<event>
 5   0  0.3578670E-05  0.2537234E+04  0.7818609E-02  0.8389840E-01
        2   -1    0    0  501    0  0.00000000000E+00  0.00000000000E+00  0.17128601348E+04  0.17128601348E+04  0.25500000920E-02 0.  1.
       -2   -1    0    0    0  501  0.00000000000E+00  0.00000000000E+00 -0.93959133367E+03  0.93959133368E+03  0.25500000920E-02 0. -1.
    10030    2    1    2    0    0  0.00000000000E+00  0.00000000000E+00  0.77326880114E+03  0.26524514685E+04  0.25372335631E+04 0.  0.
        4    1    3    3  502    0 -0.37761356665E+02  0.75847576310E+03 -0.67571882339E+03  0.10165180492E+04  0.12699999809E+01 0. -1.
       -4    1    3    3    0  502  0.37761356665E+02 -0.75847576310E+03  0.14489876245E+04  0.16359334192E+04  0.12699999809E+01 0.  1.
</event>
<event>
 5   0  0.1502886E-05  0.2484894E+04  0.7818609E-02  0.8408387E-01
       -1   -1    0    0    0  501  0.00000000000E+00  0.00000000000E+00  0.59984713473E+03  0.59984713475E+03  0.50400001928E-02 0.  1.
        1   -1    0    0  501    0  0.00000000000E+00  0.00000000000E+00 -0.25734458127E+04  0.25734458127E+04  0.50400001928E-02 0. -1.
    10030    2    1    2    0    0  0.00000000000E+00  0.00000000000E+00 -0.19735986779E+04  0.31732929474E+04  0.24848936373E+04 0.  0.
        4    1    3    3  502    0  0.12183646123E+03 -0.39552197302E+03  0.50923392608E+03  0.65620313836E+03  0.12699999809E+01 0.  1.
       -4    1    3    3    0  502 -0.12183646123E+03  0.39552197302E+03 -0.24828326040E+04  0.25170898090E+04  0.12699999809E+01 0. -1.
</event>
<event>
 5   0  0.1456876E-05  0.2359086E+04  0.7818609E-02  0.8454982E-01
       -1   -1    0    0    0  501  0.00000000000E+00  0.00000000000E+00  0.14004341187E+04  0.14004341187E+04  0.50400001928E-02 0.  1.
        1   -1    0    0  501    0  0.00000000000E+00  0.00000000000E+00 -0.99349305566E+03  0.99349305568E+03  0.50400001928E-02 0. -1.
    10030    2    1    2    0    0  0.00000000000E+00  0.00000000000E+00  0.40694106304E+03  0.23939271744E+04  0.23590859008E+04 0.  0.
        1    1    3    3  502    0 -0.16445740248E+03  0.69745817846E+03  0.11542323919E+04  0.13585825563E+04  0.50400001928E-02 0.  1.
       -1    1    3    3    0  502  0.16445740248E+03 -0.69745817846E+03 -0.74729132884E+03  0.10353446180E+04  0.50400001928E-02 0. -1.
</event>
<event>
 5   0  0.1429483E-05  0.2496246E+04  0.7818609E-02  0.8404324E-01
        1   -1    0    0  501    0  0.00000000000E+00  0.00000000000E+00  0.25266428765E+04  0.25266428765E+04  0.50400001928E-02 0. -1.
       -1   -1    0    0    0  501  0.00000000000E+00  0.00000000000E+00 -0.61655357783E+03  0.61655357785E+03  0.50400001928E-02 0.  1.
    10030    2    1    2    0    0  0.00000000000E+00  0.00000000000E+00  0.19100892987E+04  0.31431964544E+04  0.24962457455E+04 0.  0.
        2    1    3    3  502    0  0.10622414008E+04  0.59701172879E+03  0.12953255214E+04  0.17783835369E+04  0.25500000920E-02 0.  1.
       -2    1    3    3    0  502 -0.10622414008E+04 -0.59701172879E+03  0.61476377733E+03  0.13648129175E+04  0.25500000920E-02 0. -1.
</event>
<event>
 5   0  0.3578670E-05  0.2492619E+04  0.7818609E-02  0.8405620E-01
       -2   -1    0    0    0  501  0.00000000000E+00  0.00000000000E+00  0.68165009767E+03  0.68165009767E+03  0.25500000920E-02 0.  1.
        2   -1    0    0  501    0  0.00000000000E+00  0.00000000000E+00 -0.22787163653E+04  0.22787163653E+04  0.25500000920E-02 0. -1.
    10030    2    1    2    0    0  0.00000000000E+00  0.00000000000E+00 -0.15970662676E+04  0.29603664630E+04  0.24926188902E+04 0.  0.
        4    1    3    3  502    0  0.29901999144E+03 -0.78101345239E+03 -0.18959982460E+04  0.20722465900E+04  0.12699999809E+01 0. -1.
       -4    1    3    3    0  502 -0.29901999144E+03  0.78101345239E+03  0.29893197840E+03  0.88811987293E+03  0.12699999809E+01 0.  1.
</event>
<event>
 5   0  0.3578670E-05  0.2502327E+04  0.7818609E-02  0.8402157E-01
        2   -1    0    0  501    0  0.00000000000E+00  0.00000000000E+00  0.95667773928E+03  0.95667773929E+03  0.25500000920E-02 0. -1.
       -2   -1    0    0    0  501  0.00000000000E+00  0.00000000000E+00 -0.16362988804E+04  0.16362988804E+04  0.25500000920E-02 0.  1.
    10030    2    1    2    0    0  0.00000000000E+00  0.00000000000E+00 -0.67962114109E+03  0.25929766197E+04  0.25023274875E+04 0.  0.
        4    1    3    3  502    0  0.58123087891E+03 -0.55908539208E+03 -0.13310208156E+04  0.15562852678E+04  0.12699999809E+01 0.  1.
       -4    1    3    3    0  502 -0.58123087891E+03  0.55908539208E+03  0.65139967451E+03  0.10366913519E+04  0.12699999809E+01 0. -1.
</event>
<event>
 5   0  0.3579097E-05  0.2518211E+04  0.7818609E-02  0.8396526E-01
        2   -1    0    0  501    0  0.00000000000E+00  0.00000000000E+00  0.13372167753E+04  0.13372167753E+04  0.25500000920E-02 0. -1.
       -2   -1    0    0    0  501  0.00000000000E+00  0.00000000000E+00 -0.11855570495E+04  0.11855570496E+04  0.25500000920E-02 0.  1.
    10030    2    1    2    0    0  0.00000000000E+00  0.00000000000E+00  0.15165972572E+03  0.25227738248E+04  0.25182110910E+04 0.  0.
        5    1    3    3  502    0  0.50220450254E+03 -0.11544288876E+04  0.96096834715E+02  0.12626052869E+04  0.46999998093E+01 0.  1.
       -5    1    3    3    0  502 -0.50220450254E+03  0.11544288876E+04  0.55562891001E+02  0.12601685379E+04  0.46999998093E+01 0. -1.
</event>
<event>
 5   0  0.1421242E-05  0.2499602E+04  0.7818609E-02  0.8403127E-01
       -1   -1    0    0    0  501  0.00000000000E+00  0.00000000000E+00  0.96259594155E+03  0.96259594156E+03  0.50400001928E-02 0.  1.
        1   -1    0    0  501    0  0.00000000000E+00  0.00000000000E+00 -0.16226977824E+04  0.16226977824E+04  0.50400001928E-02 0. -1.
    10030    2    1    2    0    0  0.00000000000E+00  0.00000000000E+00 -0.66010184084E+03  0.25852937240E+04  0.24996018081E+04 0.  0.
        3    1    3    3  502    0  0.11098757466E+04 -0.16429409326E+03  0.23944854878E+03  0.11472368281E+04  0.10100000352E+00 0.  1.
       -3    1    3    3    0  502 -0.11098757466E+04  0.16429409326E+03 -0.89955038962E+03  0.14380568959E+04  0.10100000352E+00 0. -1.
</event>
<event>
 5   0  0.1429483E-05  0.2473664E+04  0.7818609E-02  0.8412428E-01
        1   -1    0    0  501    0  0.00000000000E+00  0.00000000000E+00  0.17942447871E+04  0.17942447871E+04  0.50400001928E-02 0. -1.
       -1   -1    0    0    0  501  0.00000000000E+00  0.00000000000E+00 -0.85258934874E+03  0.85258934875E+03  0.50400001928E-02 0.  1.
    10030    2    1    2    0    0  0.00000000000E+00  0.00000000000E+00  0.94165543839E+03  0.26468341359E+04  0.24736644838E+04 0.  0.
        2    1    3    3  502    0  0.11364281723E+04  0.45520937609E+03  0.28222299808E+03  0.12563177892E+04  0.25500000920E-02 0. -1.
       -2    1    3    3    0  502 -0.11364281723E+04 -0.45520937609E+03  0.65943244030E+03  0.13905163466E+04  0.25500000920E-02 0.  1.
</event>
<event>
 5   0  0.3581449E-05  0.2675343E+04  0.7818609E-02  0.8343050E-01
       -2   -1    0    0    0  501  0.00000000000E+00  0.00000000000E+00  0.17228328337E+04  0.17228328337E+04  0.25500000920E-02 0. -1.
        2   -1    0    0  501    0  0.00000000000E+00  0.00000000000E+00 -0.10386177782E+04  0.10386177782E+04  0.25500000920E-02 0.  1.
    10030    2    1    2    0    0  0.00000000000E+00  0.00000000000E+00  0.68421505543E+03  0.27614506119E+04  0.26753428266E+04 0.  0.
        1    1    3    3  502    0  0.11356342278E+04  0.41684831285E+03 -0.24717667679E+03  0.12347161313E+04  0.50400001928E-02 0.  1.
       -1    1    3    3    0  502 -0.11356342278E+04 -0.41684831285E+03  0.93139173222E+03  0.15267344806E+04  0.50400001928E-02 0. -1.
</event>
<event>
 5   0  0.1502886E-05  0.2496285E+04  0.7818609E-02  0.8404310E-01
       -1   -1    0    0    0  501  0.00000000000E+00  0.00000000000E+00  0.10749927005E+04  0.10749927006E+04  0.50400001928E-02 0. -1.
        1   -1    0    0  501    0  0.00000000000E+00  0.00000000000E+00 -0.14491815494E+04  0.14491815494E+04  0.50400001928E-02 0.  1.
    10030    2    1    2    0    0  0.00000000000E+00  0.00000000000E+00 -0.37418884882E+03  0.25241742499E+04  0.24962849095E+04 0.  0.
        4    1    3    3  502    0  0.11893091623E+04 -0.33258845272E+03 -0.37018814593E+03  0.12892293196E+04  0.12699999809E+01 0.  1.
       -4    1    3    3    0  502 -0.11893091623E+04  0.33258845272E+03 -0.40007028992E+01  0.12349449303E+04  0.12699999809E+01 0. -1.
</event>
<event>
 5   0  0.3581449E-05  0.2608441E+04  0.7818609E-02  0.8365340E-01
       -2   -1    0    0    0  501  0.00000000000E+00  0.00000000000E+00  0.15451043658E+04  0.15451043658E+04  0.25500000920E-02 0.  1.
        2   -1    0    0  501    0  0.00000000000E+00  0.00000000000E+00 -0.11008909058E+04  0.11008909058E+04  0.25500000920E-02 0. -1.
    10030    2    1    2    0    0  0.00000000000E+00  0.00000000000E+00  0.44421346000E+03  0.26459952716E+04  0.26084411780E+04 0.  0.
        1    1    3    3  502    0 -0.45923896232E+03  0.41176528058E+03 -0.94358533895E+03  0.11272995887E+04  0.50400001928E-02 0. -1.
       -1    1    3    3    0  502  0.45923896232E+03 -0.41176528058E+03  0.13877987989E+04  0.15186956829E+04  0.50400001928E-02 0.  1.
</event>
<event>
 5   0  0.3704241E-05  0.2593351E+04  0.7818609E-02  0.8370463E-01
       -2   -1    0    0    0  501  0.00000000000E+00  0.00000000000E+00  0.67878457715E+03  0.67878457715E+03  0.25500000920E-02 0.  1.
        2   -1    0    0  501    0  0.00000000000E+00  0.00000000000E+00 -0.24770257000E+04  0.24770257000E+04  0.25500000920E-02 0. -1.
    10030    2    1    2    0    0  0.00000000000E+00  0.00000000000E+00 -0.17982411228E+04  0.31558102771E+04  0.25933506067E+04 0.  0.
        2    1    3    3  502    0  0.10781795735E+04  0.42357478015E+02 -0.17741799875E+04  0.20765307550E+04  0.25500000920E-02 0. -1.
       -2    1    3    3    0  502 -0.10781795735E+04 -0.42357478015E+02 -0.24061135334E+02  0.10792795221E+04  0.25500000920E-02 0.  1.
</event>
<event>
 5   0  0.1456876E-05  0.2444477E+04  0.7818609E-02  0.8423037E-01
       -1   -1    0    0    0  501  0.00000000000E+00  0.00000000000E+00  0.13238891053E+04  0.13238891053E+04  0.50400001928E-02 0. -1.
        1   -1    0    0  501    0  0.00000000000E+00  0.00000000000E+00 -0.11283928687E+04  0.11283928687E+04  0.50400001928E-02 0.  1.
    10030    2    1    2    0    0  0.00000000000E+00  0.00000000000E+00  0.19549623658E+03  0.24522819741E+04  0.24444770610E+04 0.  0.
        1    1    3    3  502    0 -0.12344165057E+03 -0.51650526836E+03 -0.10066079974E+04  0.11381015745E+04  0.50400001928E-02 0.  1.
       -1    1    3    3    0  502  0.12344165057E+03  0.51650526836E+03  0.12021042340E+04  0.13141803996E+04  0.50400001928E-02 0. -1.
</event>
<event>
 5   0  0.3578670E-05  0.2399438E+04  0.7818609E-02  0.8439714E-01
        2   -1    0    0  501    0  0.00000000000E+00  0.00000000000E+00  0.13605465225E+04  0.13605465225E+04  0.25500000920E-02 0. -1.
       -2   -1    0    0    0  501  0.00000000000E+00  0.00000000000E+00 -0.10579024956E+04  0.10579024956E+04  0.25500000920E-02 0.  1.
    10030    2    1    2    0    0  0.00000000000E+00  0.00000000000E+00  0.30264402692E+03  0.24184490181E+04  0.23994379021E+04 0.  0.
        4    1    3    3  502    0  0.11511883881E+04  0.33062616905E+03  0.81668907692E+02  0.12005081390E+04  0.12699999809E+01 0.  1.
       -4    1    3    3    0  502 -0.11511883881E+04 -0.33062616905E+03  0.22097511922E+03  0.12179408790E+04  0.12699999809E+01 0. -1.
</event>
<event>
 5   0  0.1421242E-05  0.2503554E+04  0.7818609E-02  0.8401721E-01
        1   -1    0    0  501    0  0.00000000000E+00  0.00000000000E+00  0.24212144596E+04  0.24212144596E+04  0.50400001928E-02 0. -1.
       -1   -1    0    0    0  501  0.00000000000E+00  0.00000000000E+00 -0.64717326585E+03  0.64717326587E+03  0.50400001928E-02 0.  1.
    10030    2    1    2    0    0  0.00000000000E+00  0.00000000000E+00  0.17740411938E+04  0.30683877255E+04  0.25035536896E+04 0.  0.
        3    1    3    3  502    0  0.89554355224E+03  0.43304289163E+03 -0.44300758606E+02  0.99573438595E+03  0.10100000352E+00 0.  1.
       -3    1    3    3    0  502 -0.89554355224E+03 -0.43304289163E+03  0.18183419524E+04  0.20726533395E+04  0.10100000352E+00 0. -1.
</event>
<event>
 5   0  0.3579097E-05  0.2448246E+04  0.7818609E-02  0.8421659E-01
        2   -1    0    0  501    0  0.00000000000E+00  0.00000000000E+00  0.27875593565E+04  0.27875593565E+04  0.25500000920E-02 0.  1.
       -2   -1    0    0    0  501  0.00000000000E+00  0.00000000000E+00 -0.53755889165E+03  0.53755889166E+03  0.25500000920E-02 0. -1.
    10030    2    1    2    0    0  0.00000000000E+00  0.00000000000E+00  0.22500004649E+04  0.33251182482E+04  0.24482461625E+04 0.  0.
        5    1    3    3  502    0  0.96187895372E+03  0.31868850507E+03  0.20577744756E+04  0.22937374233E+04  0.46999998093E+01 0.  1.
       -5    1    3    3    0  502 -0.96187895372E+03 -0.31868850507E+03  0.19222598928E+03  0.10313808248E+04  0.46999998093E+01 0. -1.
</event>
<event>
 5   0  0.3579097E-05  0.2502515E+04  0.7818609E-02  0.8402090E-01
        2   -1    0    0  501    0  0.00000000000E+00  0.00000000000E+00  0.23479724998E+04  0.23479724998E+04  0.25500000920E-02 0.  1.
       -2   -1    0    0    0  501  0.00000000000E+00  0.00000000000E+00 -0.66680733221E+03  0.66680733222E+03  0.25500000920E-02 0. -1.
    10030    2    1    2    0    0  0.00000000000E+00  0.00000000000E+00  0.16811651676E+04  0.30147798320E+04  0.25025149580E+04 0.  0.
        5    1    3    3  502    0 -0.17752382193E+03  0.12895167323E+03  0.23246047904E+04  0.23349417044E+04  0.46999998093E+01 0.  1.
       -5    1    3    3    0  502  0.17752382193E+03 -0.12895167323E+03 -0.64343962288E+03  0.67983812755E+03  0.46999998093E+01 0. -1.
</event>
<event>
 5   0  0.3581449E-05  0.2427906E+04  0.7818609E-02  0.8429129E-01
        2   -1    0    0  501    0  0.00000000000E+00  0.00000000000E+00  0.16838225702E+04  0.16838225702E+04  0.25500000920E-02 0. -1.
       -2   -1    0    0    0  501  0.00000000000E+00  0.00000000000E+00 -0.87520039128E+03  0.87520039128E+03  0.25500000920E-02 0.  1.
    10030    2    1    2    0    0  0.00000000000E+00  0.00000000000E+00  0.80862217894E+03  0.25590229615E+04  0.24279062357E+04 0.  0.
        1    1    3    3  502    0  0.33374502976E+03  0.38486692765E+03 -0.75709129755E+03  0.91252152289E+03  0.50400001928E-02 0.  1.
       -1    1    3    3    0  502 -0.33374502976E+03 -0.38486692765E+03  0.15657134765E+04  0.16465014386E+04  0.50400001928E-02 0. -1.
</event>
<event>
 5   0  0.1502886E-05  0.2484953E+04  0.7818609E-02  0.8408366E-01
       -1   -1    0    0    0  501  0.00000000000E+00  0.00000000000E+00  0.14323333997E+04  0.14323333997E+04  0.50400001928E-02 0.  1.
        1   -1    0    0  501    0  0.00000000000E+00  0.00000000000E+00 -0.10777849445E+04  0.10777849445E+04  0.50400001928E-02 0. -1.
    10030    2    1    2    0    0  0.00000000000E+00  0.00000000000E+00  0.35454845515E+03  0.25101183442E+04  0.24849526142E+04 0.  0.
        4    1    3    3  502    0  0.79491686360E+03  0.94391464654E+03  0.31318422163E+02  0.12344432496E+04  0.12699999809E+01 0. -1.
       -4    1    3    3    0  502 -0.79491686360E+03 -0.94391464654E+03  0.32323003298E+03  0.12756750946E+04  0.12699999809E+01 0.  1.
</event>
<event>
 5   0  0.1421242E-05  0.2499131E+04  0.7818609E-02  0.8403295E-01
        1   -1    0    0  501    0  0.00000000000E+00  0.00000000000E+00  0.17751445062E+04  0.17751445062E+04  0.50400001928E-02 0.  1.
       -1   -1    0    0    0  501  0.00000000000E+00  0.00000000000E+00 -0.87959826312E+03  0.87959826314E+03  0.50400001928E-02 0. -1.
    10030    2    1    2    0    0  0.00000000000E+00  0.00000000000E+00  0.89554624312E+03  0.26547427694E+04  0.24991310686E+04 0.  0.
        3    1    3    3  502    0  0.10642248594E+04 -0.40487741413E+03  0.99451917514E+03  0.15118097340E+04  0.10100000352E+00 0.  1.
       -3    1    3    3    0  502 -0.10642248594E+04  0.40487741413E+03 -0.98972932021E+02  0.11429330354E+04  0.10100000352E+00 0. -1.
</event>
<event>
 5   0  0.1421242E-05  0.2435720E+04  0.7818609E-02  0.8426250E-01
       -1   -1    0    0    0  501  0.00000000000E+00  0.00000000000E+00  0.83117556854E+03  0.83117556856E+03  0.50400001928E-02 0.  1.
        1   -1    0    0  501    0  0.00000000000E+00  0.00000000000E+00 -0.17844400214E+04  0.17844400214E+04  0.50400001928E-02 0. -1.
    10030    2    1    2    0    0  0.00000000000E+00  0.00000000000E+00 -0.95326445286E+03  0.26156155900E+04  0.24357199752E+04 0.  0.
        3    1    3    3  502    0 -0.57687416973E+03  0.53928306959E+03 -0.14722391716E+04  0.16706580217E+04  0.10100000352E+00 0. -1.
       -3    1    3    3    0  502  0.57687416973E+03 -0.53928306959E+03  0.51897471877E+03  0.94495756824E+03  0.10100000352E+00 0.  1.
</event>
<event>
 5   0  0.3578670E-05  0.2528126E+04  0.7818609E-02  0.8393034E-01
        2   -1    0    0  501    0  0.00000000000E+00  0.00000000000E+00  0.19733562775E+04  0.19733562775E+04  0.25500000920E-02 0. -1.
       -2   -1    0    0    0  501  0.00000000000E+00  0.00000000000E+00 -0.80971434848E+03  0.80971434848E+03  0.25500000920E-02 0.  1.
    10030    2    1    2    0    0  0.00000000000E+00  0.00000000000E+00  0.11636419290E+04  0.27830706260E+04  0.25281257030E+04 0.  0.
        4    1    3    3  502    0  0.74517542958E+03 -0.63861907775E+03 -0.29522214835E+03  0.10248309505E+04  0.12699999809E+01 0.  1.
       -4    1    3    3    0  502 -0.74517542958E+03  0.63861907775E+03  0.14588640774E+04  0.17582396755E+04  0.12699999809E+01 0. -1.
</event>
<event>
 5   0  0.1492639E-05  0.2491329E+04  0.7818609E-02  0.8406081E-01
       -1   -1    0    0    0  501  0.00000000000E+00  0.00000000000E+00  0.60428011184E+03  0.60428011186E+03  0.50400001928E-02 0. -1.
        1   -1    0    0  501    0  0.00000000000E+00  0.00000000000E+00 -0.25678158843E+04  0.25678158843E+04  0.50400001928E-02 0.  1.
    10030    2    1    2    0    0  0.00000000000E+00  0.00000000000E+00 -0.19635357725E+04  0.31720959962E+04  0.24913290187E+04 0.  0.
        5    1    3    3  502    0  0.86806162434E+03 -0.25727513665E+03 -0.20710790078E+04  0.22603344500E+04  0.46999998093E+01 0.  1.
       -5    1    3    3    0  502 -0.86806162434E+03  0.25727513665E+03  0.10754323530E+03  0.91176154615E+03  0.46999998093E+01 0. -1.
</event>
<event>
 5   0  0.1456876E-05  0.2488466E+04  0.7818609E-02  0.8407106E-01
        1   -1    0    0  501    0  0.00000000000E+00  0.00000000000E+00  0.16123457594E+04  0.16123457594E+04  0.50400001928E-02 0. -1.
       -1   -1    0    0    0  501  0.00000000000E+00  0.00000000000E+00 -0.96016378050E+03  0.96016378051E+03  0.50400001928E-02 0.  1.
    10030    2    1    2    0    0  0.00000000000E+00  0.00000000000E+00  0.65218197890E+03  0.25725095399E+04  0.24884661941E+04 0.  0.
        1    1    3    3  502    0 -0.10373318676E+04  0.62453549367E+03  0.30038115539E+02  0.12111995190E+04  0.50400001928E-02 0. -1.
       -1    1    3    3    0  502  0.10373318676E+04 -0.62453549367E+03  0.62214386336E+03  0.13613100209E+04  0.50400001928E-02 0.  1.
</event>
<event>
 5   0  0.1429483E-05  0.2520433E+04  0.7818609E-02  0.8395742E-01
        1   -1    0    0  501    0  0.00000000000E+00  0.00000000000E+00  0.22753538214E+04  0.22753538214E+04  0.50400001928E-02 0. -1.
       -1   -1    0    0    0  501  0.00000000000E+00  0.00000000000E+00 -0.69797764464E+03  0.69797764466E+03  0.50400001928E-02 0.  1.
    10030    2    1    2    0    0  0.00000000000E+00  0.00000000000E+00  0.15773761767E+04  0.29733314660E+04  0.25204333762E+04 0.  0.
        2    1    3    3  502    0  0.13389762459E+02  0.12521342661E+04  0.95604870103E+03  0.15754518796E+04  0.25500000920E-02 0. -1.
       -2    1    3    3    0  502 -0.13389762459E+02 -0.12521342661E+04  0.62132747569E+03  0.13978795864E+04  0.25500000920E-02 0.  1.
</event>
<event>
 5   0  0.3650620E-05  0.2513753E+04  0.7818609E-02  0.8398102E-01
       -2   -1    0    0    0  501  0.00000000000E+00  0.00000000000E+00  0.12453000046E+04  0.12453000046E+04  0.25500000920E-02 0. -1.
        2   -1    0    0  501    0  0.00000000000E+00  0.00000000000E+00 -0.12685604678E+04  0.12685604678E+04  0.25500000920E-02 0.  1.
    10030    2    1    2    0    0  0.00000000000E+00  0.00000000000E+00 -0.23260463210E+02  0.25138604725E+04  0.25137528570E+04 0.  0.
        3    1    3    3  502    0 -0.10580433271E+04  0.67827993724E+03  0.31687465910E+01  0.12567933030E+04  0.10100000352E+00 0.  1.
       -3    1    3    3    0  502  0.10580433271E+04 -0.67827993724E+03 -0.26429209801E+02  0.12570671695E+04  0.10100000352E+00 0. -1.
</event>
<event>
 5   0  0.3578670E-05  0.2429541E+04  0.7818609E-02  0.8428526E-01
        2   -1    0    0  501    0  0.00000000000E+00  0.00000000000E+00  0.13119481623E+04  0.13119481623E+04  0.25500000920E-02 0.  1.
       -2   -1    0    0    0  501  0.00000000000E+00  0.00000000000E+00 -0.11247911590E+04  0.11247911590E+04  0.25500000920E-02 0. -1.
    10030    2    1    2    0    0  0.00000000000E+00  0.00000000000E+00  0.18715700330E+03  0.24367393214E+04  0.24295412687E+04 0.  0.
        4    1    3    3  502    0  0.15019658654E+03 -0.38047709443E+03  0.12407961136E+04  0.13064832346E+04  0.12699999809E+01 0.  1.
       -4    1    3    3    0  502 -0.15019658654E+03  0.38047709443E+03 -0.10536391103E+04  0.11302560867E+04  0.12699999809E+01 0. -1.
</event>
<event>
 5   0  0.3650620E-05  0.2501139E+04  0.7818609E-02  0.8402580E-01
        2   -1    0    0  501    0  0.00000000000E+00  0.00000000000E+00  0.15259976372E+04  0.15259976372E+04  0.25500000920E-02 0.  1.
       -2   -1    0    0    0  501  0.00000000000E+00  0.00000000000E+00 -0.10248534950E+04  0.10248534950E+04  0.25500000920E-02 0. -1.
    10030    2    1    2    0    0  0.00000000000E+00  0.00000000000E+00  0.50114414212E+03  0.25508511322E+04  0.25011389500E+04 0.  0.
        3    1    3    3  502    0  0.40461774934E+03  0.10632310033E+04  0.78026803327E+03  0.13794904506E+04  0.10100000352E+00 0.  1.
       -3    1    3    3    0  502 -0.40461774934E+03 -0.10632310033E+04 -0.27912389114E+03  0.11713606815E+04  0.10100000352E+00 0. -1.
</event>
<event>
 5   0  0.3650620E-05  0.2428021E+04  0.7818609E-02  0.8429087E-01
       -2   -1    0    0    0  501  0.00000000000E+00  0.00000000000E+00  0.22934900551E+04  0.22934900551E+04  0.25500000920E-02 0.  1.
        2   -1    0    0  501    0  0.00000000000E+00  0.00000000000E+00 -0.64261092618E+03  0.64261092619E+03  0.25500000920E-02 0. -1.
    10030    2    1    2    0    0  0.00000000000E+00  0.00000000000E+00  0.16508791289E+04  0.29361009813E+04  0.24280212260E+04 0.  0.
        3    1    3    3  502    0 -0.28295951177E+03 -0.11794899308E+04  0.88661380680E+03  0.15024468825E+04  0.10100000352E+00 0.  1.
       -3    1    3    3    0  502  0.28295951177E+03  0.11794899308E+04  0.76426532212E+03  0.14336540988E+04  0.10100000352E+00 0. -1.
</event>
<event>
 5   0  0.1492639E-05  0.2541550E+04  0.7818609E-02  0.8388331E-01
       -1   -1    0    0    0  501  0.00000000000E+00  0.00000000000E+00  0.10580913049E+04  0.10580913049E+04  0.50400001928E-02 0. -1.
        1   -1    0    0  501    0  0.00000000000E+00  0.00000000000E+00 -0.15262101611E+04  0.15262101612E+04  0.50400001928E-02 0.  1.
    10030    2    1    2    0    0  0.00000000000E+00  0.00000000000E+00 -0.46811885621E+03  0.25843014661E+04  0.25415504725E+04 0.  0.
        5    1    3    3  502    0 -0.76549171572E+03 -0.10116615552E+04 -0.15926299705E+03  0.12786021513E+04  0.46999998093E+01 0.  1.
       -5    1    3    3    0  502  0.76549171572E+03  0.10116615552E+04 -0.30885585916E+03  0.13056993148E+04  0.46999998093E+01 0. -1.
</event>
<event>
 5   0  0.1502886E-05  0.2471516E+04  0.7818609E-02  0.8413204E-01
        1   -1    0    0  501    0  0.00000000000E+00  0.00000000000E+00  0.18052701188E+04  0.18052701188E+04  0.50400001928E-02 0. -1.
       -1   -1    0    0    0  501  0.00000000000E+00  0.00000000000E+00 -0.84591121986E+03  0.84591121988E+03  0.50400001928E-02 0.  1.
    10030    2    1    2    0    0  0.00000000000E+00  0.00000000000E+00  0.95935889898E+03  0.26511813387E+04  0.24715163349E+04 0.  0.
        4    1    3    3  502    0 -0.84834631259E+03 -0.62996438635E+03  0.11669994775E+04  0.15743049220E+04  0.12699999809E+01 0. -1.
       -4    1    3    3    0  502  0.84834631259E+03  0.62996438635E+03 -0.20764057848E+03  0.10768764167E+04  0.12699999809E+01 0.  1.
</event>
<event>
 5   0  0.1492639E-05  0.2530638E+04  0.7818609E-02  0.8392151E-01
        1   -1    0    0  501    0  0.00000000000E+00  0.00000000000E+00  0.14273277039E+04  0.14273277039E+04  0.50400001928E-02 0.  1.
       -1   -1    0    0    0  501  0.00000000000E+00  0.00000000000E+00 -0.11216988763E+04  0.11216988763E+04  0.50400001928E-02 0. -1.
    10030    2    1    2    0    0  0.00000000000E+00  0.00000000000E+00  0.30562882767E+03  0.25490265802E+04  0.25306377707E+04 0.  0.
        5    1    3    3  502    0 -0.11940487939E+04  0.21483603495E+02  0.57393820831E+03  0.13250061224E+04  0.46999998093E+01 0.  1.
       -5    1    3    3    0  502  0.11940487939E+04 -0.21483603495E+02 -0.26830938064E+03  0.12240204578E+04  0.46999998093E+01 0. -1.
</event>
<event>
 5   0  0.1421242E-05  0.2549527E+04  0.7818609E-02  0.8385551E-01
        1   -1    0    0  501    0  0.00000000000E+00  0.00000000000E+00  0.14436053077E+04  0.14436053077E+04  0.50400001928E-02 0.  1.
       -1   -1    0    0    0  501  0.00000000000E+00  0.00000000000E+00 -0.11256688886E+04  0.11256688886E+04  0.50400001928E-02 0. -1.
    10030    2    1    2    0    0  0.00000000000E+00  0.00000000000E+00  0.31793641917E+03  0.25692741963E+04  0.25495266873E+04 0.  0.
        3    1    3    3  502    0 -0.16341471479E+03 -0.11690196661E+04 -0.32612309605E+03  0.12246091755E+04  0.10100000352E+00 0. -1.
       -3    1    3    3    0  502  0.16341471479E+03  0.11690196661E+04  0.64405951522E+03  0.13446650208E+04  0.10100000352E+00 0.  1.
</event>
<event>
 5   0  0.3578670E-05  0.2483892E+04  0.7818609E-02  0.8408747E-01
       -2   -1    0    0    0  501  0.00000000000E+00  0.00000000000E+00  0.95812674510E+03  0.95812674511E+03  0.25500000920E-02 0.  1.
        2   -1    0    0  501    0  0.00000000000E+00  0.00000000000E+00 -0.16098393850E+04  0.16098393850E+04  0.25500000920E-02 0. -1.
    10030    2    1    2    0    0  0.00000000000E+00  0.00000000000E+00 -0.65171263989E+03  0.25679661301E+04  0.24838922441E+04 0.  0.
        4    1    3    3  502    0 -0.95400761143E+02 -0.94297308987E+02  0.95061491940E+03  0.96003313776E+03  0.12699999809E+01 0.  1.
       -4    1    3    3    0  502  0.95400761143E+02  0.94297308987E+02 -0.16023275593E+04  0.16079329923E+04  0.12699999809E+01 0. -1.
</event>
<event>
 5   0  0.3581449E-05  0.2478028E+04  0.7818609E-02  0.8410855E-01
        2   -1    0    0  501    0  0.00000000000E+00  0.00000000000E+00  0.95516418298E+03  0.95516418298E+03  0.25500000920E-02 0.  1.
       -2   -1    0    0    0  501  0.00000000000E+00  0.00000000000E+00 -0.16072163376E+04  0.16072163376E+04  0.25500000920E-02 0. -1.
    10030    2    1    2    0    0  0.00000000000E+00  0.00000000000E+00 -0.65205215462E+03  0.25623805206E+04  0.24780278287E+04 0.  0.
        1    1    3    3  502    0  0.68732450072E+03  0.46647521802E+03 -0.12766355297E+04  0.15230930287E+04  0.50400001928E-02 0. -1.
       -1    1    3    3    0  502 -0.68732450072E+03 -0.46647521802E+03  0.62458337510E+03  0.10392874919E+04  0.50400001928E-02 0.  1.
</event>
<event>
 5   0  0.3704241E-05  0.2025008E+04  0.7818609E-02  0.8595017E-01
       -2   -1    0    0    0  501  0.00000000000E+00  0.00000000000E+00  0.99127440973E+03  0.99127440974E+03  0.25500000920E-02 0. -1.
        2   -1    0    0  501    0  0.00000000000E+00  0.00000000000E+00 -0.10341882884E+04  0.10341882884E+04  0.25500000920E-02 0.  1.
    10030    2    1    2    0    0  0.00000000000E+00  0.00000000000E+00 -0.42913878676E+02  0.20254626982E+04  0.20250080347E+04 0.  0.
        2    1    3    3  502    0 -0.65128567872E+03 -0.66590432358E+03 -0.41848784867E+03  0.10211433215E+04  0.25500000920E-02 0.  1.
       -2    1    3    3    0  502  0.65128567872E+03  0.66590432358E+03  0.37557396999E+03  0.10043193767E+04  0.25500000920E-02 0. -1.
</event>
<event>
 5   0  0.1421242E-05  0.2520989E+04  0.7818609E-02  0.8395546E-01
        1   -1    0    0  501    0  0.00000000000E+00  0.00000000000E+00  0.20285405110E+04  0.20285405110E+04  0.50400001928E-02 0. -1.
       -1   -1    0    0    0  501  0.00000000000E+00  0.00000000000E+00 -0.78324580464E+03  0.78324580466E+03  0.50400001928E-02 0.  1.
    10030    2    1    2    0    0  0.00000000000E+00  0.00000000000E+00  0.12452947064E+04  0.28117863157E+04  0.25209885718E+04 0.  0.
        3    1    3    3  502    0 -0.21836073279E+02  0.50211416108E+03 -0.66665673130E+03  0.83488122056E+03  0.10100000352E+00 0.  1.
       -3    1    3    3    0  502  0.21836073279E+02 -0.50211416108E+03  0.19119514377E+04  0.19769050951E+04  0.10100000352E+00 0. -1.
</event>
<event>
 5   0  0.3650620E-05  0.2516265E+04  0.7818609E-02  0.8397214E-01
       -2   -1    0    0    0  501  0.00000000000E+00  0.00000000000E+00  0.84821594162E+03  0.84821594163E+03  0.25500000920E-02 0. -1.
        2   -1    0    0  501    0  0.00000000000E+00  0.00000000000E+00 -0.18661486898E+04  0.18661486898E+04  0.25500000920E-02 0.  1.
    10030    2    1    2    0    0  0.00000000000E+00  0.00000000000E+00 -0.10179327482E+04  0.27143646315E+04  0.25162647461E+04 0.  0.
        3    1    3    3  502    0 -0.45565906596E+03  0.75710966153E+02  0.75343997889E+03  0.88375853420E+03  0.10100000352E+00 0. -1.
       -3    1    3    3    0  502  0.45565906596E+03 -0.75710966153E+02 -0.17713727271E+04  0.18306060973E+04  0.10100000352E+00 0.  1.
</event>
<event>
 5   0  0.3579097E-05  0.2384509E+04  0.7818609E-02  0.8445326E-01
       -2   -1    0    0    0  501  0.00000000000E+00  0.00000000000E+00  0.83692239151E+03  0.83692239151E+03  0.25500000920E-02 0. -1.
        2   -1    0    0  501    0  0.00000000000E+00  0.00000000000E+00 -0.16984494180E+04  0.16984494180E+04  0.25500000920E-02 0.  1.
    10030    2    1    2    0    0  0.00000000000E+00  0.00000000000E+00 -0.86152702652E+03  0.25353718095E+04  0.23845086276E+04 0.  0.
        5    1    3    3  502    0  0.10359294383E+04  0.49594285920E+03 -0.77090815691E+03  0.13832680858E+04  0.46999998093E+01 0.  1.
       -5    1    3    3    0  502 -0.10359294383E+04 -0.49594285920E+03 -0.90618869611E+02  0.11521037238E+04  0.46999998093E+01 0. -1.
</event>
<event>
 5   0  0.3581449E-05  0.2523516E+04  0.7818609E-02  0.8394655E-01
       -2   -1    0    0    0  501  0.00000000000E+00  0.00000000000E+00  0.92957167132E+03  0.92957167132E+03  0.25500000920E-02 0.  1.
        2   -1    0    0  501    0  0.00000000000E+00  0.00000000000E+00 -0.17126528864E+04  0.17126528864E+04  0.25500000920E-02 0. -1.
    10030    2    1    2    0    0  0.00000000000E+00  0.00000000000E+00 -0.78308121505E+03  0.26422245577E+04  0.25235162817E+04 0.  0.
        1    1    3    3  502    0 -0.73825743769E+03  0.65696031547E+03 -0.12129257496E+04  0.15645477860E+04  0.50400001928E-02 0. -1.
       -1    1    3    3    0  502  0.73825743769E+03 -0.65696031547E+03  0.42984453457E+03  0.10776767717E+04  0.50400001928E-02 0.  1.
</event>
<event>
 5   0  0.1421242E-05  0.2344570E+04  0.7818609E-02  0.8460552E-01
        1   -1    0    0  501    0  0.00000000000E+00  0.00000000000E+00  0.19343481733E+04  0.19343481733E+04  0.50400001928E-02 0. -1.
       -1   -1    0    0    0  501  0.00000000000E+00  0.00000000000E+00 -0.71044711862E+03  0.71044711864E+03  0.50400001928E-02 0.  1.
    10030    2    1    2    0    0  0.00000000000E+00  0.00000000000E+00  0.12239010547E+04  0.26447952920E+04  0.23445699701E+04 0.  0.
        3    1    3    3  502    0  0.11688808346E+03  0.11627483546E+04  0.71659524692E+03  0.13708228617E+04  0.10100000352E+00 0.  1.
       -3    1    3    3    0  502 -0.11688808346E+03 -0.11627483546E+04  0.50730580778E+03  0.12739724302E+04  0.10100000352E+00 0. -1.
</event>
<event>
 5   0  0.1502886E-05  0.2471194E+04  0.7818609E-02  0.8413320E-01
        1   -1    0    0  501    0  0.00000000000E+00  0.00000000000E+00  0.16785395940E+04  0.16785395940E+04  0.50400001928E-02 0.  1.
       -1   -1    0    0    0  501  0.00000000000E+00  0.00000000000E+00 -0.90954046025E+03  0.90954046026E+03  0.50400001928E-02 0. -1.
    10030    2    1    2    0    0  0.00000000000E+00  0.00000000000E+00  0.76899913376E+03  0.25880800543E+04  0.24711937803E+04 0.  0.
        4    1    3    3  502    0  0.89792408105E+03 -0.58030186723E+03 -0.26421786613E+03  0.11012858876E+04  0.12699999809E+01 0.  1.
       -4    1    3    3    0  502 -0.89792408105E+03  0.58030186723E+03  0.10332169999E+04  0.14867941667E+04  0.12699999809E+01 0. -1.
</event>
<event>
 5   0  0.1421242E-05  0.2500311E+04  0.7818609E-02  0.8402875E-01
        1   -1    0    0  501    0  0.00000000000E+00  0.00000000000E+00  0.16249430957E+04  0.16249430957E+04  0.50400001928E-02 0. -1.
       -1   -1    0    0    0  501  0.00000000000E+00  0.00000000000E+00 -0.96181152404E+03  0.96181152405E+03  0.50400001928E-02 0.  1.
    10030    2    1    2    0    0  0.00000000000E+00  0.00000000000E+00  0.66313157167E+03  0.25867546198E+04  0.25003111769E+04 0.  0.
        3    1    3    3  502    0  0.64765997218E+03  0.51244771308E+03 -0.63940344213E+03  0.10444629578E+04  0.10100000352E+00 0.  1.
       -3    1    3    3    0  502 -0.64765997218E+03 -0.51244771308E+03  0.13025350138E+04  0.15422916620E+04  0.10100000352E+00 0. -1.
</event>
<event>
 5   0  0.3581449E-05  0.2563127E+04  0.7818609E-02  0.8380835E-01
        2   -1    0    0  501    0  0.00000000000E+00  0.00000000000E+00  0.32743101094E+04  0.32743101094E+04  0.25500000920E-02 0.  1.
       -2   -1    0    0    0  501  0.00000000000E+00  0.00000000000E+00 -0.50160336038E+03  0.50160336039E+03  0.25500000920E-02 0. -1.
    10030    2    1    2    0    0  0.00000000000E+00  0.00000000000E+00  0.27727067490E+04  0.37759134698E+04  0.25631269604E+04 0.  0.
        1    1    3    3  502    0  0.87993349841E+03 -0.27468596167E+03  0.26979431421E+04  0.28510756807E+04  0.50400001928E-02 0.  1.
       -1    1    3    3    0  502 -0.87993349841E+03  0.27468596167E+03  0.74763606931E+02  0.92483778908E+03  0.50400001928E-02 0. -1.
</event>
<event>
 5   0  0.1201438E-05  0.2445317E+04  0.7818609E-02  0.8422730E-01
        4   -1    0    0  501    0  0.00000000000E+00  0.00000000000E+00  0.99397735343E+03  0.99397816476E+03  0.12699999809E+01 0.  1.
       -4   -1    0    0    0  501  0.00000000000E+00  0.00000000000E+00 -0.15039499993E+04  0.15039505355E+04  0.12699999809E+01 0. -1.
    10030    2    1    2    0    0  0.00000000000E+00  0.00000000000E+00 -0.50997264587E+03  0.24979287003E+04  0.24453170944E+04 0.  0.
        4    1    3    3  502    0 -0.11292723279E+04 -0.43894534984E+03 -0.87248357156E+02  0.12147192677E+04  0.12699999809E+01 0. -1.
       -4    1    3    3    0  502  0.11292723279E+04  0.43894534984E+03 -0.42272428871E+03  0.12832094326E+04  0.12699999809E+01 0.  1.
</event>
<event>
 5   0  0.3704241E-05  0.2491413E+04  0.7818609E-02  0.8406051E-01
        2   -1    0    0  501    0  0.00000000000E+00  0.00000000000E+00  0.11842229410E+04  0.11842229410E+04  0.25500000920E-02 0. -1.
       -2   -1    0    0    0  501  0.00000000000E+00  0.00000000000E+00 -0.13103824404E+04  0.13103824404E+04  0.25500000920E-02 0.  1.
    10030    2    1    2    0    0  0.00000000000E+00  0.00000000000E+00 -0.12615949939E+03  0.24946053815E+04  0.24914132114E+04 0.  0.
        2    1    3    3  502    0 -0.10881454038E+03 -0.99842864242E+03 -0.80096670276E+03  0.12846197948E+04  0.25500000920E-02 0.  1.
       -2    1    3    3    0  502  0.10881454038E+03  0.99842864242E+03  0.67480720338E+03  0.12099855867E+04  0.25500000920E-02 0. -1.
</event>
<event>
 5   0  0.3650620E-05  0.2500385E+04  0.7818609E-02  0.8402848E-01
       -2   -1    0    0    0  501  0.00000000000E+00  0.00000000000E+00  0.92612136200E+03  0.92612136201E+03  0.25500000920E-02 0.  1.
        2   -1    0    0  501    0  0.00000000000E+00  0.00000000000E+00 -0.16876641706E+04  0.16876641706E+04  0.25500000920E-02 0. -1.
    10030    2    1    2    0    0  0.00000000000E+00  0.00000000000E+00 -0.76154280859E+03  0.26137855326E+04  0.25003854425E+04 0.  0.
        3    1    3    3  502    0  0.13840452045E+03  0.74547664182E+03  0.65833822861E+03  0.10041416575E+04  0.10100000352E+00 0.  1.
       -3    1    3    3    0  502 -0.13840452045E+03 -0.74547664182E+03 -0.14198810372E+04  0.16096438751E+04  0.10100000352E+00 0. -1.
</event>
<event>
 5   0  0.3704241E-05  0.2571685E+04  0.7818609E-02  0.8377883E-01
        2   -1    0    0  501    0  0.00000000000E+00  0.00000000000E+00  0.12127887875E+04  0.12127887875E+04  0.25500000920E-02 0. -1.
       -2   -1    0    0    0  501  0.00000000000E+00  0.00000000000E+00 -0.13632963772E+04  0.13632963772E+04  0.25500000920E-02 0.  1.
    10030    2    1    2    0    0  0.00000000000E+00  0.00000000000E+00 -0.15050758971E+03  0.25760851647E+04  0.25716847088E+04 0.  0.
        2    1    3    3  502    0 -0.19417712251E+03 -0.10153681320E+04  0.69072016100E+03  0.12432906093E+04  0.25500000920E-02 0. -1.
       -2    1    3    3    0  502  0.19417712251E+03  0.10153681320E+04 -0.84122775070E+03  0.13327945554E+04  0.25500000920E-02 0.  1.
</event>
<event>
 5   0  0.3650620E-05  0.2492266E+04  0.7818609E-02  0.8405746E-01
       -2   -1    0    0    0  501  0.00000000000E+00  0.00000000000E+00  0.14686234699E+04  0.14686234699E+04  0.25500000920E-02 0.  1.
        2   -1    0    0  501    0  0.00000000000E+00  0.00000000000E+00 -0.10573486017E+04  0.10573486017E+04  0.25500000920E-02 0. -1.
    10030    2    1    2    0    0  0.00000000000E+00  0.00000000000E+00  0.41127486825E+03  0.25259720716E+04  0.24922656137E+04 0.  0.
        3    1    3    3  502    0 -0.26886592599E+03  0.64225310834E+03  0.12530888262E+04  0.14335304524E+04  0.10100000352E+00 0.  1.
       -3    1    3    3    0  502  0.26886592599E+03 -0.64225310834E+03 -0.84181395796E+03  0.10924416192E+04  0.10100000352E+00 0. -1.
</event>
<event>
 5   0  0.3650620E-05  0.2504425E+04  0.7818609E-02  0.8401411E-01
       -2   -1    0    0    0  501  0.00000000000E+00  0.00000000000E+00  0.17800855976E+04  0.17800855976E+04  0.25500000920E-02 0.  1.
        2   -1    0    0  501    0  0.00000000000E+00  0.00000000000E+00 -0.88087701954E+03  0.88087701955E+03  0.25500000920E-02 0. -1.
    10030    2    1    2    0    0  0.00000000000E+00  0.00000000000E+00  0.89920857807E+03  0.26609626172E+04  0.25044252800E+04 0.  0.
        3    1    3    3  502    0  0.51852788270E+03  0.10189200974E+04 -0.93175440641E+02  0.11470619002E+04  0.10100000352E+00 0.  1.
       -3    1    3    3    0  502 -0.51852788270E+03 -0.10189200974E+04  0.99238401871E+03  0.15139007169E+04  0.10100000352E+00 0. -1.
</event>
<event>
 5   0  0.3578670E-05  0.2490742E+04  0.7818609E-02  0.8406291E-01
        2   -1    0    0  501    0  0.00000000000E+00  0.00000000000E+00  0.10137164345E+04  0.10137164345E+04  0.25500000920E-02 0. -1.
       -2   -1    0    0    0  501  0.00000000000E+00  0.00000000000E+00 -0.15299630048E+04  0.15299630048E+04  0.25500000920E-02 0.  1.
    10030    2    1    2    0    0  0.00000000000E+00  0.00000000000E+00 -0.51624657031E+03  0.25436794394E+04  0.24907417708E+04 0.  0.
        4    1    3    3  502    0 -0.63573466415E+03 -0.15866830868E+03 -0.13396945999E+04  0.14913475213E+04  0.12699999809E+01 0.  1.
       -4    1    3    3    0  502  0.63573466415E+03  0.15866830868E+03  0.82344802961E+03  0.10523319180E+04  0.12699999809E+01 0. -1.
</event>
<event>
 5   0  0.1492639E-05  0.2468744E+04  0.7818609E-02  0.8414206E-01
        1   -1    0    0  501    0  0.00000000000E+00  0.00000000000E+00  0.15805284405E+04  0.15805284405E+04  0.50400001928E-02 0.  1.
       -1   -1    0    0    0  501  0.00000000000E+00  0.00000000000E+00 -0.96402856439E+03  0.96402856440E+03  0.50400001928E-02 0. -1.
    10030    2    1    2    0    0  0.00000000000E+00  0.00000000000E+00  0.61649987610E+03  0.25445570049E+04  0.24687442666E+04 0.  0.
        5    1    3    3  502    0  0.16593693373E+03  0.12225104214E+04  0.34929334952E+03  0.12822225745E+04  0.46999998093E+01 0.  1.
       -5    1    3    3    0  502 -0.16593693373E+03 -0.12225104214E+04  0.26720652658E+03  0.12623344304E+04  0.46999998093E+01 0. -1.
</event>
<event>
 5   0  0.1502886E-05  0.2425742E+04  0.7818609E-02  0.8429928E-01
       -1   -1    0    0    0  501  0.00000000000E+00  0.00000000000E+00  0.13741163381E+04  0.13741163381E+04  0.50400001928E-02 0. -1.
        1   -1    0    0  501    0  0.00000000000E+00  0.00000000000E+00 -0.10705472397E+04  0.10705472397E+04  0.50400001928E-02 0.  1.
    10030    2    1    2    0    0  0.00000000000E+00  0.00000000000E+00  0.30356909841E+03  0.24446635778E+04  0.24257423217E+04 0.  0.
        4    1    3    3  502    0  0.12898830199E+03 -0.10588384663E+04 -0.43002083228E+03  0.11500853920E+04  0.12699999809E+01 0.  1.
       -4    1    3    3    0  502 -0.12898830199E+03  0.10588384663E+04  0.73358993069E+03  0.12945781858E+04  0.12699999809E+01 0. -1.
</event>
<event>
 5   0  0.1429483E-05  0.2538757E+04  0.7818609E-02  0.8389307E-01
        1   -1    0    0  501    0  0.00000000000E+00  0.00000000000E+00  0.16986434688E+04  0.16986434688E+04  0.50400001928E-02 0.  1.
       -1   -1    0    0    0  501  0.00000000000E+00  0.00000000000E+00 -0.94859364368E+03  0.94859364370E+03  0.50400001928E-02 0. -1.
    10030    2    1    2    0    0  0.00000000000E+00  0.00000000000E+00  0.75004982507E+03  0.26472371125E+04  0.25387574893E+04 0.  0.
        2    1    3    3  502    0 -0.23464221274E+03 -0.37691267681E+03 -0.86499137356E+03  0.97228093177E+03  0.25500000920E-02 0. -1.
       -2    1    3    3    0  502  0.23464221274E+03  0.37691267681E+03  0.16150411986E+04  0.16749561807E+04  0.25500000920E-02 0.  1.
</event>
<event>
 5   0  0.1421242E-05  0.2571517E+04  0.7818609E-02  0.8377941E-01
        1   -1    0    0  501    0  0.00000000000E+00  0.00000000000E+00  0.14867612550E+04  0.14867612550E+04  0.50400001928E-02 0. -1.
       -1   -1    0    0    0  501  0.00000000000E+00  0.00000000000E+00 -0.11119299273E+04  0.11119299273E+04  0.50400001928E-02 0.  1.
    10030    2    1    2    0    0  0.00000000000E+00  0.00000000000E+00  0.37483132777E+03  0.25986911823E+04  0.25715165441E+04 0.  0.
        3    1    3    3  502    0 -0.89044340666E+03  0.20580874062E+03 -0.72653507548E+03  0.11675187040E+04  0.10100000352E+00 0.  1.
       -3    1    3    3    0  502  0.89044340666E+03 -0.20580874062E+03  0.11013664032E+04  0.14311724783E+04  0.10100000352E+00 0. -1.
</event>
<event>
 5   0  0.3581449E-05  0.2506670E+04  0.7818609E-02  0.8400613E-01
       -2   -1    0    0    0  501  0.00000000000E+00  0.00000000000E+00  0.90291837110E+03  0.90291837111E+03  0.25500000920E-02 0. -1.
        2   -1    0    0  501    0  0.00000000000E+00  0.00000000000E+00 -0.17397456194E+04  0.17397456194E+04  0.25500000920E-02 0.  1.
    10030    2    1    2    0    0  0.00000000000E+00  0.00000000000E+00 -0.83682724826E+03  0.26426639905E+04  0.25066697276E+04 0.  0.
        1    1    3    3  502    0  0.91791577079E+03  0.78225509947E+03 -0.58797633909E+02  0.12074558231E+04  0.50400001928E-02 0. -1.
       -1    1    3    3    0  502 -0.91791577079E+03 -0.78225509947E+03 -0.77802961435E+03  0.14352081674E+04  0.50400001928E-02 0.  1.
</event>
<event>
 5   0  0.1421242E-05  0.2565304E+04  0.7818609E-02  0.8380083E-01
        1   -1    0    0  501    0  0.00000000000E+00  0.00000000000E+00  0.11421474367E+04  0.11421474367E+04  0.50400001928E-02 0. -1.
       -1   -1    0    0    0  501  0.00000000000E+00  0.00000000000E+00 -0.14404407859E+04  0.14404407859E+04  0.50400001928E-02 0.  1.
    10030    2    1    2    0    0  0.00000000000E+00  0.00000000000E+00 -0.29829334922E+03  0.25825882226E+04  0.25653036868E+04 0.  0.
        3    1    3    3  502    0 -0.41538121281E+03 -0.16252134124E+03 -0.13598471584E+04  0.14311320843E+04  0.10100000352E+00 0.  1.
       -3    1    3    3    0  502  0.41538121281E+03  0.16252134124E+03  0.10615538092E+04  0.11514561383E+04  0.10100000352E+00 0. -1.
</event>
<event>
 5   0  0.3650620E-05  0.2494738E+04  0.7818609E-02  0.8404863E-01
       -2   -1    0    0    0  501  0.00000000000E+00  0.00000000000E+00  0.92176174487E+03  0.92176174487E+03  0.25500000920E-02 0. -1.
        2   -1    0    0  501    0  0.00000000000E+00  0.00000000000E+00 -0.16879952822E+04  0.16879952822E+04  0.25500000920E-02 0.  1.
    10030    2    1    2    0    0  0.00000000000E+00  0.00000000000E+00 -0.76623353733E+03  0.26097570271E+04  0.24947380437E+04 0.  0.
        3    1    3    3  502    0 -0.51614799050E+03  0.11156578055E+04 -0.60460550486E+03  0.13699083596E+04  0.10100000352E+00 0. -1.
       -3    1    3    3    0  502  0.51614799050E+03 -0.11156578055E+04 -0.16162803247E+03  0.12398486674E+04  0.10100000352E+00 0.  1.
</event>
<event>
 5   0  0.1456876E-05  0.2454996E+04  0.7818609E-02  0.8419196E-01
       -1   -1    0    0    0  501  0.00000000000E+00  0.00000000000E+00  0.11167933247E+04  0.11167933247E+04  0.50400001928E-02 0. -1.
        1   -1    0    0  501    0  0.00000000000E+00  0.00000000000E+00 -0.13491760839E+04  0.13491760839E+04  0.50400001928E-02 0.  1.
    10030    2    1    2    0    0  0.00000000000E+00  0.00000000000E+00 -0.23238275915E+03  0.24659694086E+04  0.24549955962E+04 0.  0.
        1    1    3    3  502    0 -0.91891441100E+03 -0.72536493289E+03  0.25450141389E+03  0.11980521484E+04  0.50400001928E-02 0.  1.
       -1    1    3    3    0  502  0.91891441100E+03  0.72536493289E+03 -0.48688417304E+03  0.12679172602E+04  0.50400001928E-02 0. -1.
</event>
<event>
 5   0  0.3578670E-05  0.2518363E+04  0.7818609E-02  0.8396473E-01
       -2   -1    0    0    0  501  0.00000000000E+00  0.00000000000E+00  0.78846799332E+03  0.78846799333E+03  0.25500000920E-02 0. -1.
        2   -1    0    0  501    0  0.00000000000E+00  0.00000000000E+00 -0.20109101531E+04  0.20109101531E+04  0.25500000920E-02 0.  1.
    10030    2    1    2    0    0  0.00000000000E+00  0.00000000000E+00 -0.12224421597E+04  0.27993781464E+04  0.25183631931E+04 0.  0.
        4    1    3    3  502    0  0.50728699700E+03  0.82228270448E+03 -0.15088211968E+04  0.17916562060E+04  0.12699999809E+01 0.  1.
       -4    1    3    3    0  502 -0.50728699700E+03 -0.82228270448E+03  0.28637903712E+03  0.10077219404E+04  0.12699999809E+01 0. -1.
</event>
<event>
 5   0  0.3578670E-05  0.1821443E+04  0.7818609E-02  0.8694979E-01
        2   -1    0    0  501    0  0.00000000000E+00  0.00000000000E+00  0.12382777048E+04  0.12382777048E+04  0.25500000920E-02 0.  1.
       -2   -1    0    0    0  501  0.00000000000E+00  0.00000000000E+00 -0.66981259370E+03  0.66981259370E+03  0.25500000920E-02 0. -1.
    10030    2    1    2    0    0  0.00000000000E+00  0.00000000000E+00  0.56846511109E+03  0.19080902985E+04  0.18214433850E+04 0.  0.
        4    1    3    3  502    0 -0.50136913231E+03 -0.73263443109E+03  0.71371567719E+02  0.89062883966E+03  0.12699999809E+01 0.  1.
       -4    1    3    3    0  502  0.50136913231E+03  0.73263443109E+03  0.49709354337E+03  0.10174614588E+04  0.12699999809E+01 0. -1.
</event>
<event>
 5   0  0.1492639E-05  0.2496367E+04  0.7818609E-02  0.8404281E-01
       -1   -1    0    0    0  501  0.00000000000E+00  0.00000000000E+00  0.97101100617E+03  0.97101100618E+03  0.50400001928E-02 0. -1.
        1   -1    0    0  501    0  0.00000000000E+00  0.00000000000E+00 -0.16044740748E+04  0.16044740748E+04  0.50400001928E-02 0.  1.
    10030    2    1    2    0    0  0.00000000000E+00  0.00000000000E+00 -0.63346306860E+03  0.25754850810E+04  0.24963669488E+04 0.  0.
        5    1    3    3  502    0 -0.71865057445E+03  0.51362229409E+03 -0.12265384483E+04  0.15115175038E+04  0.46999998093E+01 0.  1.
       -5    1    3    3    0  502  0.71865057445E+03 -0.51362229409E+03  0.59307537973E+03  0.10639675771E+04  0.46999998093E+01 0. -1.
</event>
<event>
 5   0  0.1421242E-05  0.2524187E+04  0.7818609E-02  0.8394419E-01
        1   -1    0    0  501    0  0.00000000000E+00  0.00000000000E+00  0.13006139385E+04  0.13006139385E+04  0.50400001928E-02 0.  1.
       -1   -1    0    0    0  501  0.00000000000E+00  0.00000000000E+00 -0.12247134947E+04  0.12247134947E+04  0.50400001928E-02 0. -1.
    10030    2    1    2    0    0  0.00000000000E+00  0.00000000000E+00  0.75900443798E+02  0.25253274332E+04  0.25241865556E+04 0.  0.
        3    1    3    3  502    0 -0.79801156245E+03  0.46644294119E+03  0.89769185310E+03  0.12885038395E+04  0.10100000352E+00 0.  1.
       -3    1    3    3    0  502  0.79801156245E+03 -0.46644294119E+03 -0.82179140930E+03  0.12368235936E+04  0.10100000352E+00 0. -1.
</event>
<event>
 5   0  0.1429483E-05  0.2501608E+04  0.7818609E-02  0.8402413E-01
       -1   -1    0    0    0  501  0.00000000000E+00  0.00000000000E+00  0.79894971904E+03  0.79894971906E+03  0.50400001928E-02 0. -1.
        1   -1    0    0  501    0  0.00000000000E+00  0.00000000000E+00 -0.19582090221E+04  0.19582090221E+04  0.50400001928E-02 0.  1.
    10030    2    1    2    0    0  0.00000000000E+00  0.00000000000E+00 -0.11592593030E+04  0.27571587411E+04  0.25016079213E+04 0.  0.
        2    1    3    3  502    0  0.11110501151E+04  0.91913213648E+02 -0.12046884961E+04  0.16413880619E+04  0.25500000920E-02 0. -1.
       -2    1    3    3    0  502 -0.11110501151E+04 -0.91913213648E+02  0.45429193074E+02  0.11157706792E+04  0.25500000920E-02 0.  1.
</event>
<event>
 5   0  0.3578670E-05  0.2507658E+04  0.7818609E-02  0.8400262E-01
       -2   -1    0    0    0  501  0.00000000000E+00  0.00000000000E+00  0.10781718610E+04  0.10781718610E+04  0.25500000920E-02 0.  1.
        2   -1    0    0  501    0  0.00000000000E+00  0.00000000000E+00 -0.14581048060E+04  0.14581048060E+04  0.25500000920E-02 0. -1.
    10030    2    1    2    0    0  0.00000000000E+00  0.00000000000E+00 -0.37993294497E+03  0.25362766670E+04  0.25076583277E+04 0.  0.
        4    1    3    3  502    0 -0.96237191991E+03  0.76742732804E+03 -0.43139876980E+03  0.13043047679E+04  0.12699999809E+01 0. -1.
       -4    1    3    3    0  502  0.96237191991E+03 -0.76742732804E+03  0.51465824832E+02  0.12319718991E+04  0.12699999809E+01 0.  1.
</event>
<event>
 5   0  0.1421242E-05  0.2505498E+04  0.7818609E-02  0.8401029E-01
        1   -1    0    0  501    0  0.00000000000E+00  0.00000000000E+00  0.10229447344E+04  0.10229447344E+04  0.50400001928E-02 0. -1.
       -1   -1    0    0    0  501  0.00000000000E+00  0.00000000000E+00 -0.15341789949E+04  0.15341789949E+04  0.50400001928E-02 0.  1.
    10030    2    1    2    0    0  0.00000000000E+00  0.00000000000E+00 -0.51123426052E+03  0.25571237294E+04  0.25054982136E+04 0.  0.
        3    1    3    3  502    0 -0.11047848035E+04  0.56653708190E+03 -0.42598964610E+03  0.13126236765E+04  0.10100000352E+00 0.  1.
       -3    1    3    3    0  502  0.11047848035E+04 -0.56653708190E+03 -0.85244614420E+02  0.12445000529E+04  0.10100000352E+00 0. -1.
</event>
<event>
 5   0  0.3704241E-05  0.2424945E+04  0.7818609E-02  0.8430223E-01
        2   -1    0    0  501    0  0.00000000000E+00  0.00000000000E+00  0.14463251810E+04  0.14463251810E+04  0.25500000920E-02 0.  1.
       -2   -1    0    0    0  501  0.00000000000E+00  0.00000000000E+00 -0.10164306583E+04  0.10164306583E+04  0.25500000920E-02 0. -1.
    10030    2    1    2    0    0  0.00000000000E+00  0.00000000000E+00  0.42989452264E+03  0.24627558393E+04  0.24249447465E+04 0.  0.
        2    1    3    3  502    0 -0.10200493355E+03  0.81204264124E+03  0.11234747023E+04  0.13899689437E+04  0.25500000920E-02 0.  1.
       -2    1    3    3    0  502  0.10200493355E+03 -0.81204264124E+03 -0.69358017971E+03  0.10727868956E+04  0.25500000920E-02 0. -1.
</event>
<event>
 5   0  0.3578670E-05  0.2480401E+04  0.7818609E-02  0.8410001E-01
        2   -1    0    0  501    0  0.00000000000E+00  0.00000000000E+00  0.20003896080E+04  0.20003896080E+04  0.25500000920E-02 0. -1.
       -2   -1    0    0    0  501  0.00000000000E+00  0.00000000000E+00 -0.76889894333E+03  0.76889894333E+03  0.25500000920E-02 0.  1.
    10030    2    1    2    0    0  0.00000000000E+00  0.00000000000E+00  0.12314906646E+04  0.27692885513E+04  0.24804011416E+04 0.  0.
        4    1    3    3  502    0  0.91165022145E+03  0.29593664162E+03 -0.26294494690E+03  0.99389450151E+03  0.12699999809E+01 0.  1.
       -4    1    3    3    0  502 -0.91165022145E+03 -0.29593664162E+03  0.14944356115E+04  0.17753940498E+04  0.12699999809E+01 0. -1.
</event>
<event>
 5   0  0.1492639E-05  0.2508171E+04  0.7818609E-02  0.8400081E-01
       -1   -1    0    0    0  501  0.00000000000E+00  0.00000000000E+00  0.10611452385E+04  0.10611452385E+04  0.50400001928E-02 0. -1.
        1   -1    0    0  501    0  0.00000000000E+00  0.00000000000E+00 -0.14821061159E+04  0.14821061159E+04  0.50400001928E-02 0.  1.
    10030    2    1    2    0    0  0.00000000000E+00  0.00000000000E+00 -0.42096087740E+03  0.25432513544E+04  0.25081705268E+04 0.  0.
        5    1    3    3  502    0  0.12164261483E+04  0.29938432855E+03 -0.26946803584E+03  0.12813893486E+04  0.46999998093E+01 0.  1.
       -5    1    3    3    0  502 -0.12164261483E+04 -0.29938432855E+03 -0.15149284156E+03  0.12618620057E+04  0.46999998093E+01 0. -1.
</event>
<event>
 5   0  0.1429483E-05  0.2514350E+04  0.7818609E-02  0.8397891E-01
        1   -1    0    0  501    0  0.00000000000E+00  0.00000000000E+00  0.20177726276E+04  0.20177726276E+04  0.50400001928E-02 0. -1.
       -1   -1    0    0    0  501  0.00000000000E+00  0.00000000000E+00 -0.78328399279E+03  0.78328399281E+03  0.50400001928E-02 0.  1.
    10030    2    1    2    0    0  0.00000000000E+00  0.00000000000E+00  0.12344886348E+04  0.28010566204E+04  0.25143500156E+04 0.  0.
        2    1    3    3  502    0 -0.24930803070E+02  0.59469216604E+03 -0.61636700501E+03  0.85684806248E+03  0.25500000920E-02 0.  1.
       -2    1    3    3    0  502  0.24930803070E+02 -0.59469216604E+03  0.18508556398E+04  0.19442085579E+04  0.25500000920E-02 0. -1.
</event>
<event>
 5   0  0.3704241E-05  0.2368677E+04  0.7818609E-02  0.8451324E-01
        2   -1    0    0  501    0  0.00000000000E+00  0.00000000000E+00  0.17691046775E+04  0.17691046775E+04  0.25500000920E-02 0.  1.
       -2   -1    0    0    0  501  0.00000000000E+00  0.00000000000E+00 -0.79286311469E+03  0.79286311469E+03  0.25500000920E-02 0. -1.
    10030    2    1    2    0    0  0.00000000000E+00  0.00000000000E+00  0.97624156277E+03  0.25619677921E+04  0.23686771370E+04 0.  0.
        2    1    3    3  502    0 -0.30234169843E+02  0.12003963224E+03  0.17620882784E+04  0.17664310684E+04  0.25500000920E-02 0.  1.
       -2    1    3    3    0  502  0.30234169843E+02 -0.12003963224E+03 -0.78584671567E+03  0.79553672377E+03  0.25500000920E-02 0. -1.
</event>
<event>
 5   0  0.3650620E-05  0.2536109E+04  0.7818609E-02  0.8390233E-01
       -2   -1    0    0    0  501  0.00000000000E+00  0.00000000000E+00  0.13159307479E+04  0.13159307480E+04  0.25500000920E-02 0. -1.
        2   -1    0    0  501    0  0.00000000000E+00  0.00000000000E+00 -0.12219200262E+04  0.12219200262E+04  0.25500000920E-02 0.  1.
    10030    2    1    2    0    0  0.00000000000E+00  0.00000000000E+00  0.94010721788E+02  0.25378507741E+04  0.25361089361E+04 0.  0.
        3    1    3    3  502    0  0.44834029766E+03  0.11771447531E+04  0.19299363805E+03  0.12743332950E+04  0.10100000352E+00 0. -1.
       -3    1    3    3    0  502 -0.44834029766E+03 -0.11771447531E+04 -0.98982916266E+02  0.12635174791E+04  0.10100000352E+00 0.  1.
</event>
<event>
 5   0  0.3579097E-05  0.2525118E+04  0.7818609E-02  0.8394091E-01
        2   -1    0    0  501    0  0.00000000000E+00  0.00000000000E+00  0.24724867396E+04  0.24724867396E+04  0.25500000920E-02 0. -1.
       -2   -1    0    0    0  501  0.00000000000E+00  0.00000000000E+00 -0.64471757097E+03  0.64471757098E+03  0.25500000920E-02 0.  1.
    10030    2    1    2    0    0  0.00000000000E+00  0.00000000000E+00  0.18277691686E+04  0.31172043106E+04  0.25251183299E+04 0.  0.
        5    1    3    3  502    0 -0.11207485227E+04 -0.19499407644E+03  0.23780767412E+03  0.11621852352E+04  0.46999998093E+01 0.  1.
       -5    1    3    3    0  502  0.11207485227E+04  0.19499407644E+03  0.15899614945E+04  0.19550190754E+04  0.46999998093E+01 0. -1.
</event>
<event>
 5   0  0.1429483E-05  0.2165001E+04  0.7818609E-02  0.8533138E-01
       -1   -1    0    0    0  501  0.00000000000E+00  0.00000000000E+00  0.12451210895E+04  0.12451210895E+04  0.50400001928E-02 0. -1.
        1   -1    0    0  501    0  0.00000000000E+00  0.00000000000E+00 -0.94111884915E+03  0.94111884917E+03  0.50400001928E-02 0.  1.
    10030    2    1    2    0    0  0.00000000000E+00  0.00000000000E+00  0.30400224032E+03  0.21862399386E+04  0.21650006252E+04 0.  0.
        2    1    3    3  502    0  0.36045137970E+03  0.58360173902E+03  0.99764760876E+03  0.12107092707E+04  0.25500000920E-02 0. -1.
       -2    1    3    3    0  502 -0.36045137970E+03 -0.58360173902E+03 -0.69364536845E+03  0.97553066794E+03  0.25500000920E-02 0.  1.
</event>
<event>
 5   0  0.3704241E-05  0.2476489E+04  0.7818609E-02  0.8411410E-01
       -2   -1    0    0    0  501  0.00000000000E+00  0.00000000000E+00  0.99838915982E+03  0.99838915982E+03  0.25500000920E-02 0.  1.
        2   -1    0    0  501    0  0.00000000000E+00  0.00000000000E+00 -0.15357232564E+04  0.15357232564E+04  0.25500000920E-02 0. -1.
    10030    2    1    2    0    0  0.00000000000E+00  0.00000000000E+00 -0.53733409655E+03  0.25341124162E+04  0.24764890080E+04 0.  0.
        2    1    3    3  502    0 -0.59070530339E+03 -0.61109326767E+03 -0.11901095189E+04  0.14624391967E+04  0.25500000920E-02 0. -1.
       -2    1    3    3    0  502  0.59070530339E+03  0.61109326767E+03  0.65277542234E+03  0.10716732194E+04  0.25500000920E-02 0.  1.
</event>
<event>
 5   0  0.1429483E-05  0.2488051E+04  0.7818609E-02  0.8407255E-01
       -1   -1    0    0    0  501  0.00000000000E+00  0.00000000000E+00  0.13937381703E+04  0.13937381703E+04  0.50400001928E-02 0. -1.
        1   -1    0    0  501    0  0.00000000000E+00  0.00000000000E+00 -0.11103948415E+04  0.11103948415E+04  0.50400001928E-02 0.  1.
    10030    2    1    2    0    0  0.00000000000E+00  0.00000000000E+00  0.28334332880E+03  0.25041330118E+04  0.24880511850E+04 0.  0.
        2    1    3    3  502    0  0.11477568033E+04  0.47240489746E+03  0.22640375707E+03  0.12616539652E+04  0.25500000920E-02 0. -1.
       -2    1    3    3    0  502 -0.11477568033E+04 -0.47240489746E+03  0.56939571733E+02  0.12424790467E+04  0.25500000920E-02 0.  1.
</event>
<event>
 5   0  0.3579097E-05  0.2500447E+04  0.7818609E-02  0.8402826E-01
       -2   -1    0    0    0  501  0.00000000000E+00  0.00000000000E+00  0.13665655863E+04  0.13665655863E+04  0.25500000920E-02 0. -1.
        2   -1    0    0  501    0  0.00000000000E+00  0.00000000000E+00 -0.11437857746E+04  0.11437857746E+04  0.25500000920E-02 0.  1.
    10030    2    1    2    0    0  0.00000000000E+00  0.00000000000E+00  0.22277981177E+03  0.25103513609E+04  0.25004465822E+04 0.  0.
        5    1    3    3  502    0  0.12004665847E+04 -0.15834939656E+03  0.42381649525E+03  0.12829018139E+04  0.46999998093E+01 0. -1.
       -5    1    3    3    0  502 -0.12004665847E+04  0.15834939656E+03 -0.20103668348E+03  0.12274495470E+04  0.46999998093E+01 0.  1.
</event>
<event>
 5   0  0.1456876E-05  0.2520817E+04  0.7818609E-02  0.8395607E-01
       -1   -1    0    0    0  501  0.00000000000E+00  0.00000000000E+00  0.11072342925E+04  0.11072342925E+04  0.50400001928E-02 0.  1.
        1   -1    0    0  501    0  0.00000000000E+00  0.00000000000E+00 -0.14347724971E+04  0.14347724971E+04  0.50400001928E-02 0. -1.
    10030    2    1    2    0    0  0.00000000000E+00  0.00000000000E+00 -0.32753820457E+03  0.25420067896E+04  0.25208167809E+04 0.  0.
        1    1    3    3  502    0  0.60074356116E+03  0.91850186903E+03  0.46119112265E+03  0.11904771150E+04  0.50400001928E-02 0.  1.
       -1    1    3    3    0  502 -0.60074356116E+03 -0.91850186903E+03 -0.78872932722E+03  0.13515296746E+04  0.50400001928E-02 0. -1.
</event>
<event>
 5   0  0.1502886E-05  0.2476555E+04  0.7818609E-02  0.8411386E-01
       -1   -1    0    0    0  501  0.00000000000E+00  0.00000000000E+00  0.90179522616E+03  0.90179522618E+03  0.50400001928E-02 0.  1.
        1   -1    0    0  501    0  0.00000000000E+00  0.00000000000E+00 -0.17003092247E+04  0.17003092247E+04  0.50400001928E-02 0. -1.
    10030    2    1    2    0    0  0.00000000000E+00  0.00000000000E+00 -0.79851399853E+03  0.26021044509E+04  0.24765546567E+04 0.  0.
        4    1    3    3  502    0 -0.44343279579E+03  0.48952768616E+03  0.70124750968E+03  0.96333778221E+03  0.12699999809E+01 0.  1.
       -4    1    3    3    0  502  0.44343279579E+03 -0.48952768616E+03 -0.14997615082E+04  0.16387666687E+04  0.12699999809E+01 0. -1.
</event>
<event>
 5   0  0.1456876E-05  0.2370497E+04  0.7818609E-02  0.8450632E-01
        1   -1    0    0  501    0  0.00000000000E+00  0.00000000000E+00  0.21565429193E+04  0.21565429193E+04  0.50400001928E-02 0. -1.
       -1   -1    0    0    0  501  0.00000000000E+00  0.00000000000E+00 -0.65141923794E+03  0.65141923796E+03  0.50400001928E-02 0.  1.
    10030    2    1    2    0    0  0.00000000000E+00  0.00000000000E+00  0.15051236814E+04  0.28079621573E+04  0.23704966105E+04 0.  0.
        1    1    3    3  502    0  0.10608252621E+04 -0.18146567329E+03  0.13407142741E+04  0.17192425053E+04  0.50400001928E-02 0.  1.
       -1    1    3    3    0  502 -0.10608252621E+04  0.18146567329E+03  0.16440940727E+03  0.10887196519E+04  0.50400001928E-02 0. -1.
</event>
<event>
 5   0  0.3579097E-05  0.2535313E+04  0.7818609E-02  0.8390512E-01
        2   -1    0    0  501    0  0.00000000000E+00  0.00000000000E+00  0.21492445182E+04  0.21492445182E+04  0.25500000920E-02 0.  1.
       -2   -1    0    0    0  501  0.00000000000E+00  0.00000000000E+00 -0.74768294939E+03  0.74768294939E+03  0.25500000920E-02 0. -1.
    10030    2    1    2    0    0  0.00000000000E+00  0.00000000000E+00  0.14015615688E+04  0.28969274676E+04  0.25353133773E+04 0.  0.
        5    1    3    3  502    0  0.84315320625E+03 -0.42271376548E+03  0.16685407009E+04  0.19166753552E+04  0.46999998093E+01 0.  1.
       -5    1    3    3    0  502 -0.84315320625E+03  0.42271376548E+03 -0.26697913213E+03  0.98025211233E+03  0.46999998093E+01 0. -1.
</event>
<event>
 5   0  0.1492639E-05  0.2472634E+04  0.7818609E-02  0.8412800E-01
        1   -1    0    0  501    0  0.00000000000E+00  0.00000000000E+00  0.10812051131E+04  0.10812051131E+04  0.50400001928E-02 0. -1.
       -1   -1    0    0    0  501  0.00000000000E+00  0.00000000000E+00 -0.14136814502E+04  0.14136814502E+04  0.50400001928E-02 0.  1.
    10030    2    1    2    0    0  0.00000000000E+00  0.00000000000E+00 -0.33247633707E+03  0.24948865633E+04  0.24726339092E+04 0.  0.
        5    1    3    3  502    0  0.13125163618E+03 -0.11452520107E+04 -0.61705705848E+03  0.13075208080E+04  0.46999998093E+01 0.  1.
       -5    1    3    3    0  502 -0.13125163618E+03  0.11452520107E+04  0.28458072141E+03  0.11873657553E+04  0.46999998093E+01 0. -1.
</event>
<event>
 5   0  0.1421242E-05  0.2489765E+04  0.7818609E-02  0.8406641E-01
        1   -1    0    0  501    0  0.00000000000E+00  0.00000000000E+00  0.19891364727E+04  0.19891364727E+04  0.50400001928E-02 0. -1.
       -1   -1    0    0    0  501  0.00000000000E+00  0.00000000000E+00 -0.77909799788E+03  0.77909799790E+03  0.50400001928E-02 0.  1.
    10030    2    1    2    0    0  0.00000000000E+00  0.00000000000E+00  0.12100384749E+04  0.27682344706E+04  0.24897648431E+04 0.  0.
        3    1    3    3  502    0 -0.18947318638E+03 -0.10716179262E+04 -0.67134664935E+02  0.10903082782E+04  0.10100000352E+00 0.  1.
       -3    1    3    3    0  502  0.18947318638E+03  0.10716179262E+04  0.12771731398E+04  0.16779261924E+04  0.10100000352E+00 0. -1.
</event>
<event>
 5   0  0.3581449E-05  0.2578587E+04  0.7818609E-02  0.8375511E-01
       -2   -1    0    0    0  501  0.00000000000E+00  0.00000000000E+00  0.14854293296E+04  0.14854293296E+04  0.25500000920E-02 0.  1.
        2   -1    0    0  501    0  0.00000000000E+00  0.00000000000E+00 -0.11190556720E+04  0.11190556720E+04  0.25500000920E-02 0. -1.
    10030    2    1    2    0    0  0.00000000000E+00  0.00000000000E+00  0.36637365761E+03  0.26044850015E+04  0.25785873005E+04 0.  0.
        1    1    3    3  502    0  0.21904286697E+03 -0.11399573361E+04 -0.38351466252E+03  0.12225244383E+04  0.50400001928E-02 0. -1.
       -1    1    3    3    0  502 -0.21904286697E+03  0.11399573361E+04  0.74988832013E+03  0.13819605633E+04  0.50400001928E-02 0.  1.
</event>
<event>
 5   0  0.1421242E-05  0.2530148E+04  0.7818609E-02  0.8392323E-01
       -1   -1    0    0    0  501  0.00000000000E+00  0.00000000000E+00  0.20661958130E+04  0.20661958130E+04  0.50400001928E-02 0. -1.
        1   -1    0    0  501    0  0.00000000000E+00  0.00000000000E+00 -0.77456932711E+03  0.77456932713E+03  0.50400001928E-02 0.  1.
    10030    2    1    2    0    0  0.00000000000E+00  0.00000000000E+00  0.12916264859E+04  0.28407651401E+04  0.25301477432E+04 0.  0.
        3    1    3    3  502    0 -0.97378400954E+03 -0.45958608990E+03  0.13913650508E+04  0.17593667571E+04  0.10100000352E+00 0. -1.
       -3    1    3    3    0  502  0.97378400954E+03  0.45958608990E+03 -0.99738564898E+02  0.10813983830E+04  0.10100000352E+00 0.  1.
</event>
<event>
 5   0  0.3650620E-05  0.2540276E+04  0.7818609E-02  0.8388776E-01
       -2   -1    0    0    0  501  0.00000000000E+00  0.00000000000E+00  0.16349262779E+04  0.16349262779E+04  0.25500000920E-02 0. -1.
        2   -1    0    0  501    0  0.00000000000E+00  0.00000000000E+00 -0.98674210459E+03  0.98674210460E+03  0.25500000920E-02 0.  1.
    10030    2    1    2    0    0  0.00000000000E+00  0.00000000000E+00  0.64818417331E+03  0.26216683825E+04  0.25402760451E+04 0.  0.
        3    1    3    3  502    0  0.57496443609E+03  0.83804348350E+03  0.11103077459E+04  0.15052190153E+04  0.10100000352E+00 0. -1.
       -3    1    3    3    0  502 -0.57496443609E+03 -0.83804348350E+03 -0.46212357264E+03  0.11164493672E+04  0.10100000352E+00 0.  1.
</event>
<event>
 5   0  0.1421242E-05  0.2445400E+04  0.7818609E-02  0.8422699E-01
        1   -1    0    0  501    0  0.00000000000E+00  0.00000000000E+00  0.17323961164E+04  0.17323961164E+04  0.50400001928E-02 0. -1.
       -1   -1    0    0    0  501  0.00000000000E+00  0.00000000000E+00 -0.86296398554E+03  0.86296398556E+03  0.50400001928E-02 0.  1.
    10030    2    1    2    0    0  0.00000000000E+00  0.00000000000E+00  0.86943213088E+03  0.25953601020E+04  0.24454001367E+04 0.  0.
        3    1    3    3  502    0  0.26669993893E+03 -0.42331142310E+03  0.16187809612E+04  0.16943356306E+04  0.10100000352E+00 0. -1.
       -3    1    3    3    0  502 -0.26669993893E+03  0.42331142310E+03 -0.74934883035E+03  0.90102447143E+03  0.10100000352E+00 0.  1.
</event>
<event>
 5   0  0.1456876E-05  0.2543524E+04  0.7818609E-02  0.8387642E-01
        1   -1    0    0  501    0  0.00000000000E+00  0.00000000000E+00  0.20759297885E+04  0.20759297885E+04  0.50400001928E-02 0.  1.
       -1   -1    0    0    0  501  0.00000000000E+00  0.00000000000E+00 -0.77911040448E+03  0.77911040450E+03  0.50400001928E-02 0. -1.
    10030    2    1    2    0    0  0.00000000000E+00  0.00000000000E+00  0.12968193841E+04  0.28550401930E+04  0.25435239313E+04 0.  0.
        1    1    3    3  502    0 -0.74858451065E+03 -0.99615224909E+03  0.36293814507E+03  0.12978529077E+04  0.50400001928E-02 0. -1.
       -1    1    3    3    0  502  0.74858451065E+03  0.99615224909E+03  0.93388123898E+03  0.15571872853E+04  0.50400001928E-02 0.  1.
</event>
<event>
 5   0  0.3581449E-05  0.2456370E+04  0.7818609E-02  0.8418696E-01
       -2   -1    0    0    0  501  0.00000000000E+00  0.00000000000E+00  0.14174922001E+04  0.14174922001E+04  0.25500000920E-02 0.  1.
        2   -1    0    0  501    0  0.00000000000E+00  0.00000000000E+00 -0.10641596799E+04  0.10641596799E+04  0.25500000920E-02 0. -1.
    10030    2    1    2    0    0  0.00000000000E+00  0.00000000000E+00  0.35333252015E+03  0.24816518800E+04  0.24563697164E+04 0.  0.
        1    1    3    3  502    0 -0.39435463516E+03 -0.97173961234E+03  0.82249892039E+03  0.13327782736E+04  0.50400001928E-02 0.  1.
       -1    1    3    3    0  502  0.39435463516E+03  0.97173961234E+03 -0.46916640024E+03  0.11488736065E+04  0.50400001928E-02 0. -1.
</event>
<event>
 5   0  0.1421242E-05  0.2381414E+04  0.7818609E-02  0.8446495E-01
       -1   -1    0    0    0  501  0.00000000000E+00  0.00000000000E+00  0.69841584600E+03  0.69841584602E+03  0.50400001928E-02 0.  1.
        1   -1    0    0  501    0  0.00000000000E+00  0.00000000000E+00 -0.20299991376E+04  0.20299991376E+04  0.50400001928E-02 0. -1.
    10030    2    1    2    0    0  0.00000000000E+00  0.00000000000E+00 -0.13315832916E+04  0.27284149836E+04  0.23814143403E+04 0.  0.
        3    1    3    3  502    0 -0.31191035592E+03 -0.32991620811E+03  0.59535095017E+03  0.74871592649E+03  0.10100000352E+00 0.  1.
       -3    1    3    3    0  502  0.31191035592E+03  0.32991620811E+03 -0.19269342418E+04  0.19796990571E+04  0.10100000352E+00 0. -1.
</event>
<event>
 5   0  0.1421242E-05  0.2501463E+04  0.7818609E-02  0.8402465E-01
        1   -1    0    0  501    0  0.00000000000E+00  0.00000000000E+00  0.14074759528E+04  0.14074759528E+04  0.50400001928E-02 0. -1.
       -1   -1    0    0    0  501  0.00000000000E+00  0.00000000000E+00 -0.11114427751E+04  0.11114427751E+04  0.50400001928E-02 0.  1.
    10030    2    1    2    0    0  0.00000000000E+00  0.00000000000E+00  0.29603317765E+03  0.25189187279E+04  0.25014627552E+04 0.  0.
        3    1    3    3  502    0  0.54452114249E+03 -0.22461449385E+03 -0.96302963995E+03  0.11288848671E+04  0.10100000352E+00 0.  1.
       -3    1    3    3    0  502 -0.54452114249E+03  0.22461449385E+03  0.12590628176E+04  0.13900338609E+04  0.10100000352E+00 0. -1.
</event>
<event>
 5   0  0.3650620E-05  0.2524238E+04  0.7818609E-02  0.8394401E-01
       -2   -1    0    0    0  501  0.00000000000E+00  0.00000000000E+00  0.13272341416E+04  0.13272341416E+04  0.25500000920E-02 0.  1.
        2   -1    0    0  501    0  0.00000000000E+00  0.00000000000E+00 -0.12001983395E+04  0.12001983395E+04  0.25500000920E-02 0. -1.
    10030    2    1    2    0    0  0.00000000000E+00  0.00000000000E+00  0.12703580206E+03  0.25274324811E+04  0.25242378754E+04 0.  0.
        3    1    3    3  502    0 -0.14433781021E+03 -0.11701555052E+04  0.51447316783E+03  0.12863825094E+04  0.10100000352E+00 0.  1.
       -3    1    3    3    0  502  0.14433781021E+03  0.11701555052E+04 -0.38743736577E+03  0.12410499718E+04  0.10100000352E+00 0. -1.
</event>
<event>
 5   0  0.3579097E-05  0.2843119E+04  0.7818609E-02  0.8290005E-01
        2   -1    0    0  501    0  0.00000000000E+00  0.00000000000E+00  0.22416423463E+04  0.22416423463E+04  0.25500000920E-02 0.  1.
       -2   -1    0    0    0  501  0.00000000000E+00  0.00000000000E+00 -0.90149578361E+03  0.90149578361E+03  0.25500000920E-02 0. -1.
    10030    2    1    2    0    0  0.00000000000E+00  0.00000000000E+00  0.13401465627E+04  0.31431381299E+04  0.28431187971E+04 0.  0.
        5    1    3    3  502    0 -0.12148825374E+04 -0.44235923413E+03  0.16795379497E+02  0.12930295613E+04  0.46999998093E+01 0. -1.
       -5    1    3    3    0  502  0.12148825374E+04  0.44235923413E+03  0.13233511832E+04  0.18501085686E+04  0.46999998093E+01 0.  1.
</event>
<event>
 5   0  0.3704241E-05  0.2511726E+04  0.7818609E-02  0.8398820E-01
        2   -1    0    0  501    0  0.00000000000E+00  0.00000000000E+00  0.78948580869E+03  0.78948580870E+03  0.25500000920E-02 0.  1.
       -2   -1    0    0    0  501  0.00000000000E+00  0.00000000000E+00 -0.19977460267E+04  0.19977460267E+04  0.25500000920E-02 0. -1.
    10030    2    1    2    0    0  0.00000000000E+00  0.00000000000E+00 -0.12082602180E+04  0.27872318354E+04  0.25117262092E+04 0.  0.
        2    1    3    3  502    0 -0.71193707490E+03 -0.10343929792E+04 -0.62544372486E+03  0.14028553336E+04  0.25500000920E-02 0.  1.
       -2    1    3    3    0  502  0.71193707490E+03  0.10343929792E+04 -0.58281649313E+03  0.13843765018E+04  0.25500000920E-02 0. -1.
</event>
<event>
 5   0  0.3704241E-05  0.2521835E+04  0.7818609E-02  0.8395248E-01
       -2   -1    0    0    0  501  0.00000000000E+00  0.00000000000E+00  0.88032980384E+03  0.88032980385E+03  0.25500000920E-02 0.  1.
        2   -1    0    0  501    0  0.00000000000E+00  0.00000000000E+00 -0.18060421565E+04  0.18060421565E+04  0.25500000920E-02 0. -1.
    10030    2    1    2    0    0  0.00000000000E+00  0.00000000000E+00 -0.92571235261E+03  0.26863719603E+04  0.25218348378E+04 0.  0.
        2    1    3    3  502    0  0.93036519282E+03  0.15851508110E+03  0.42788632841E+03  0.10362399013E+04  0.25500000920E-02 0.  1.
       -2    1    3    3    0  502 -0.93036519282E+03 -0.15851508110E+03 -0.13535986810E+04  0.16501320590E+04  0.25500000920E-02 0. -1.
</event>
<event>
 5   0  0.3650620E-05  0.2475280E+04  0.7818609E-02  0.8411845E-01
        2   -1    0    0  501    0  0.00000000000E+00  0.00000000000E+00  0.12979050716E+04  0.12979050716E+04  0.25500000920E-02 0. -1.
       -2   -1    0    0    0  501  0.00000000000E+00  0.00000000000E+00 -0.11801734733E+04  0.11801734733E+04  0.25500000920E-02 0.  1.
    10030    2    1    2    0    0  0.00000000000E+00  0.00000000000E+00  0.11773159835E+03  0.24780785449E+04  0.24752802963E+04 0.  0.
        3    1    3    3  502    0 -0.89699463348E+03  0.57332403988E+02  0.91063120366E+03  0.12795059892E+04  0.10100000352E+00 0. -1.
       -3    1    3    3    0  502  0.89699463348E+03 -0.57332403988E+02 -0.79289960531E+03  0.11985725557E+04  0.10100000352E+00 0.  1.
</event>
<event>
 5   0  0.1429483E-05  0.2539351E+04  0.7818609E-02  0.8389099E-01
        1   -1    0    0  501    0  0.00000000000E+00  0.00000000000E+00  0.14422083309E+04  0.14422083309E+04  0.50400001928E-02 0.  1.
       -1   -1    0    0    0  501  0.00000000000E+00  0.00000000000E+00 -0.11177831758E+04  0.11177831758E+04  0.50400001928E-02 0. -1.
    10030    2    1    2    0    0  0.00000000000E+00  0.00000000000E+00  0.32442515506E+03  0.25599915067E+04  0.25393512623E+04 0.  0.
        2    1    3    3  502    0  0.68974221563E+03 -0.13874649764E+03 -0.90329890480E+03  0.11449645523E+04  0.25500000920E-02 0. -1.
       -2    1    3    3    0  502 -0.68974221563E+03  0.13874649764E+03  0.12277240599E+04  0.14150269544E+04  0.25500000920E-02 0.  1.
</event>
<event>
 5   0  0.3581449E-05  0.2433673E+04  0.7818609E-02  0.8427004E-01
        2   -1    0    0  501    0  0.00000000000E+00  0.00000000000E+00  0.95130335914E+03  0.95130335914E+03  0.25500000920E-02 0.  1.
       -2   -1    0    0    0  501  0.00000000000E+00  0.00000000000E+00 -0.15564863317E+04  0.15564863317E+04  0.25500000920E-02 0. -1.
    10030    2    1    2    0    0  0.00000000000E+00  0.00000000000E+00 -0.60518297252E+03  0.25077896908E+04  0.24336726779E+04 0.  0.
        1    1    3    3  502    0 -0.54204939787E+03 -0.20719365694E+03 -0.14047176502E+04  0.15198613219E+04  0.50400001928E-02 0. -1.
       -1    1    3    3    0  502  0.54204939787E+03  0.20719365694E+03  0.79953467765E+03  0.98792836886E+03  0.50400001928E-02 0.  1.
</event>
<event>
 5   0  0.1421242E-05  0.2042253E+04  0.7818609E-02  0.8587117E-01
        1   -1    0    0  501    0  0.00000000000E+00  0.00000000000E+00  0.14956237780E+04  0.14956237781E+04  0.50400001928E-02 0. -1.
       -1   -1    0    0    0  501  0.00000000000E+00  0.00000000000E+00 -0.69716701546E+03  0.69716701548E+03  0.50400001928E-02 0.  1.
    10030    2    1    2    0    0  0.00000000000E+00  0.00000000000E+00  0.79845676259E+03  0.21927907935E+04  0.20422532317E+04 0.  0.
        3    1    3    3  502    0 -0.48481780454E+03  0.86987883920E+03  0.64161636246E+03  0.11846556737E+04  0.10100000352E+00 0. -1.
       -3    1    3    3    0  502  0.48481780454E+03 -0.86987883920E+03  0.15684040012E+03  0.10081351198E+04  0.10100000352E+00 0.  1.
</event>
<event>
 5   0  0.1421242E-05  0.2463284E+04  0.7818609E-02  0.8416184E-01
        1   -1    0    0  501    0  0.00000000000E+00  0.00000000000E+00  0.18509319001E+04  0.18509319001E+04  0.50400001928E-02 0.  1.
       -1   -1    0    0    0  501  0.00000000000E+00  0.00000000000E+00 -0.81955568624E+03  0.81955568626E+03  0.50400001928E-02 0. -1.
    10030    2    1    2    0    0  0.00000000000E+00  0.00000000000E+00  0.10313762139E+04  0.26704875864E+04  0.24632837949E+04 0.  0.
        3    1    3    3  502    0 -0.60773835705E+03 -0.41089312600E+03 -0.55685514511E+03  0.92101397083E+03  0.10100000352E+00 0. -1.
       -3    1    3    3    0  502  0.60773835705E+03  0.41089312600E+03  0.15882313590E+04  0.17494736155E+04  0.10100000352E+00 0.  1.
</event>
<event>
 5   0  0.1502886E-05  0.2595416E+04  0.7818609E-02  0.8369760E-01
        1   -1    0    0  501    0  0.00000000000E+00  0.00000000000E+00  0.13602309781E+04  0.13602309781E+04  0.50400001928E-02 0.  1.
       -1   -1    0    0    0  501  0.00000000000E+00  0.00000000000E+00 -0.12380588422E+04  0.12380588422E+04  0.50400001928E-02 0. -1.
    10030    2    1    2    0    0  0.00000000000E+00  0.00000000000E+00  0.12217213590E+03  0.25982898203E+04  0.25954159512E+04 0.  0.
        4    1    3    3  502    0  0.74223515284E+03 -0.13798818904E+03  0.11177597241E+04  0.13488299285E+04  0.12699999809E+01 0.  1.
       -4    1    3    3    0  502 -0.74223515284E+03  0.13798818904E+03 -0.99558758820E+03  0.12494598918E+04  0.12699999809E+01 0. -1.
</event>
<event>
 5   0  0.3578670E-05  0.2514674E+04  0.7818609E-02  0.8397776E-01
       -2   -1    0    0    0  501  0.00000000000E+00  0.00000000000E+00  0.11701532193E+04  0.11701532193E+04  0.25500000920E-02 0. -1.
        2   -1    0    0  501    0  0.00000000000E+00  0.00000000000E+00 -0.13510164631E+04  0.13510164631E+04  0.25500000920E-02 0.  1.
    10030    2    1    2    0    0  0.00000000000E+00  0.00000000000E+00 -0.18086324373E+03  0.25211696824E+04  0.25146739459E+04 0.  0.
        4    1    3    3  502    0 -0.58635104730E+02 -0.43597093977E+03 -0.12713476968E+04  0.13453011986E+04  0.12699999809E+01 0.  1.
       -4    1    3    3    0  502  0.58635104730E+02  0.43597093977E+03  0.10904844531E+04  0.11758684838E+04  0.12699999809E+01 0. -1.
</event>
<event>
 5   0  0.1421242E-05  0.2478045E+04  0.7818609E-02  0.8410849E-01
        1   -1    0    0  501    0  0.00000000000E+00  0.00000000000E+00  0.18911938600E+04  0.18911938600E+04  0.50400001928E-02 0. -1.
       -1   -1    0    0    0  501  0.00000000000E+00  0.00000000000E+00 -0.81175039816E+03  0.81175039817E+03  0.50400001928E-02 0.  1.
    10030    2    1    2    0    0  0.00000000000E+00  0.00000000000E+00  0.10794434618E+04  0.27029442582E+04  0.24780454950E+04 0.  0.
        3    1    3    3  502    0  0.35162957488E+03  0.51222889310E+03 -0.62955478086E+03  0.88451174620E+03  0.10100000352E+00 0.  1.
       -3    1    3    3    0  502 -0.35162957488E+03 -0.51222889310E+03  0.17089982427E+04  0.18184325120E+04  0.10100000352E+00 0. -1.
</event>
<event>
 5   0  0.3579097E-05  0.2445416E+04  0.7818609E-02  0.8422693E-01
        2   -1    0    0  501    0  0.00000000000E+00  0.00000000000E+00  0.14890745310E+04  0.14890745310E+04  0.25500000920E-02 0. -1.
       -2   -1    0    0    0  501  0.00000000000E+00  0.00000000000E+00 -0.10039894873E+04  0.10039894873E+04  0.25500000920E-02 0.  1.
    10030    2    1    2    0    0  0.00000000000E+00  0.00000000000E+00  0.48508504369E+03  0.24930640184E+04  0.24454162631E+04 0.  0.
        5    1    3    3  502    0  0.44008685001E+03 -0.52634847642E+02 -0.91919854357E+03  0.10204875870E+04  0.46999998093E+01 0.  1.
       -5    1    3    3    0  502 -0.44008685001E+03  0.52634847642E+02  0.14042835873E+04  0.14725764314E+04  0.46999998093E+01 0. -1.
</event>
<event>
 5   0  0.1421242E-05  0.2557731E+04  0.7818609E-02  0.8382702E-01
       -1   -1    0    0    0  501  0.00000000000E+00  0.00000000000E+00  0.17612814380E+04  0.17612814380E+04  0.50400001928E-02 0. -1.
        1   -1    0    0  501    0  0.00000000000E+00  0.00000000000E+00 -0.92858364932E+03  0.92858364933E+03  0.50400001928E-02 0.  1.
    10030    2    1    2    0    0  0.00000000000E+00  0.00000000000E+00  0.83269778865E+03  0.26898650873E+04  0.25577311393E+04 0.  0.
        3    1    3    3  502    0  0.51470641244E+03  0.16475047379E+03 -0.80259413253E+03  0.96758604857E+03  0.10100000352E+00 0.  1.
       -3    1    3    3    0  502 -0.51470641244E+03 -0.16475047379E+03  0.16352919212E+04  0.17222790387E+04  0.10100000352E+00 0. -1.
</event>
<event>
 5   0  0.3581449E-05  0.2493777E+04  0.7818609E-02  0.8405206E-01
        2   -1    0    0  501    0  0.00000000000E+00  0.00000000000E+00  0.18988899625E+04  0.18988899625E+04  0.25500000920E-02 0. -1.
       -2   -1    0    0    0  501  0.00000000000E+00  0.00000000000E+00 -0.81875765906E+03  0.81875765906E+03  0.25500000920E-02 0.  1.
    10030    2    1    2    0    0  0.00000000000E+00  0.00000000000E+00  0.10801323035E+04  0.27176476216E+04  0.24937768148E+04 0.  0.
        1    1    3    3  502    0  0.60473827275E+02 -0.61367541232E+03 -0.64095494058E+03  0.88942556257E+03  0.50400001928E-02 0.  1.
       -1    1    3    3    0  502 -0.60473827275E+02  0.61367541232E+03  0.17210872440E+04  0.18282220590E+04  0.50400001928E-02 0. -1.
</event>
<event>
 5   0  0.1421242E-05  0.2447085E+04  0.7818609E-02  0.8422083E-01
        1   -1    0    0  501    0  0.00000000000E+00  0.00000000000E+00  0.15918557102E+04  0.15918557102E+04  0.50400001928E-02 0. -1.
       -1   -1    0    0    0  501  0.00000000000E+00  0.00000000000E+00 -0.94044735069E+03  0.94044735070E+03  0.50400001928E-02 0.  1.
    10030    2    1    2    0    0  0.00000000000E+00  0.00000000000E+00  0.65140835947E+03  0.25323030609E+04  0.24470851929E+04 0.  0.
        3    1    3    3  502    0  0.42503926517E+03  0.34372855760E+03  0.14584698740E+04  0.15575436051E+04  0.10100000352E+00 0. -1.
       -3    1    3    3    0  502 -0.42503926517E+03 -0.34372855760E+03 -0.80706151450E+03  0.97475945578E+03  0.10100000352E+00 0.  1.
</event>
<event>
 5   0  0.3579097E-05  0.2512116E+04  0.7818609E-02  0.8398682E-01
       -2   -1    0    0    0  501  0.00000000000E+00  0.00000000000E+00  0.93806348814E+03  0.93806348814E+03  0.25500000920E-02 0.  1.
        2   -1    0    0  501    0  0.00000000000E+00  0.00000000000E+00 -0.16818501909E+04  0.16818501909E+04  0.25500000920E-02 0. -1.
    10030    2    1    2    0    0  0.00000000000E+00  0.00000000000E+00 -0.74378670281E+03  0.26199136791E+04  0.25121164437E+04 0.  0.
        5    1    3    3  502    0  0.10824711830E+04  0.28179975669E+03 -0.96781926154E+03  0.14791386608E+04  0.46999998093E+01 0. -1.
       -5    1    3    3    0  502 -0.10824711830E+04 -0.28179975669E+03  0.22403255873E+03  0.11407750183E+04  0.46999998093E+01 0.  1.
</event>
<event>
 5   0  0.3650620E-05  0.2381869E+04  0.7818609E-02  0.8446323E-01
        2   -1    0    0  501    0  0.00000000000E+00  0.00000000000E+00  0.16386380807E+04  0.16386380807E+04  0.25500000920E-02 0. -1.
       -2   -1    0    0    0  501  0.00000000000E+00  0.00000000000E+00 -0.86555100988E+03  0.86555100988E+03  0.25500000920E-02 0.  1.
    10030    2    1    2    0    0  0.00000000000E+00  0.00000000000E+00  0.77308707077E+03  0.25041890905E+04  0.23818688843E+04 0.  0.
        3    1    3    3  502    0 -0.10330038818E+04  0.26685905088E+03 -0.16979505961E+03  0.10803430684E+04  0.10100000352E+00 0.  1.
       -3    1    3    3    0  502  0.10330038818E+04 -0.26685905088E+03  0.94288213038E+03  0.14238460222E+04  0.10100000352E+00 0. -1.
</event>
<event>
 5   0  0.3650620E-05  0.2538260E+04  0.7818609E-02  0.8389481E-01
        2   -1    0    0  501    0  0.00000000000E+00  0.00000000000E+00  0.11556683065E+04  0.11556683065E+04  0.25500000920E-02 0.  1.
       -2   -1    0    0    0  501  0.00000000000E+00  0.00000000000E+00 -0.13937314170E+04  0.13937314170E+04  0.25500000920E-02 0. -1.
    10030    2    1    2    0    0  0.00000000000E+00  0.00000000000E+00 -0.23806311050E+03  0.25493997236E+04  0.25382602124E+04 0.  0.
        3    1    3    3  502    0  0.80539626828E+03 -0.14094735859E+03 -0.10939416409E+04  0.13657370284E+04  0.10100000352E+00 0. -1.
       -3    1    3    3    0  502 -0.80539626828E+03  0.14094735859E+03  0.85587853042E+03  0.11836626951E+04  0.10100000352E+00 0.  1.
</event>
<event>
 5   0  0.1456876E-05  0.2508897E+04  0.7818609E-02  0.8399823E-01
       -1   -1    0    0    0  501  0.00000000000E+00  0.00000000000E+00  0.16076788351E+04  0.16076788351E+04  0.50400001928E-02 0. -1.
        1   -1    0    0  501    0  0.00000000000E+00  0.00000000000E+00 -0.97882769608E+03  0.97882769609E+03  0.50400001928E-02 0.  1.
    10030    2    1    2    0    0  0.00000000000E+00  0.00000000000E+00  0.62885113903E+03  0.25865065312E+04  0.25088966262E+04 0.  0.
        1    1    3    3  502    0 -0.56234285359E+03 -0.67909722535E+03 -0.60549911797E+03  0.10695941793E+04  0.50400001928E-02 0.  1.
       -1    1    3    3    0  502  0.56234285359E+03  0.67909722535E+03  0.12343502570E+04  0.15169123519E+04  0.50400001928E-02 0. -1.
</event>
<event>
 5   0  0.1502886E-05  0.1829458E+04  0.7818609E-02  0.8690789E-01
       -1   -1    0    0    0  501  0.00000000000E+00  0.00000000000E+00  0.69026848651E+03  0.69026848653E+03  0.50400001928E-02 0.  1.
        1   -1    0    0  501    0  0.00000000000E+00  0.00000000000E+00 -0.12121794361E+04  0.12121794361E+04  0.50400001928E-02 0. -1.
    10030    2    1    2    0    0  0.00000000000E+00  0.00000000000E+00 -0.52191094962E+03  0.19024479227E+04  0.18294581327E+04 0.  0.
        4    1    3    3  502    0  0.81458855451E+02 -0.91104831236E+03 -0.27043391188E+03  0.95382424281E+03  0.12699999809E+01 0.  1.
       -4    1    3    3    0  502 -0.81458855451E+02  0.91104831236E+03 -0.25147703775E+03  0.94862367986E+03  0.12699999809E+01 0. -1.
</event>
<event>
 5   0  0.1456876E-05  0.2505346E+04  0.7818609E-02  0.8401083E-01
       -1   -1    0    0    0  501  0.00000000000E+00  0.00000000000E+00  0.10137691165E+04  0.10137691165E+04  0.50400001928E-02 0.  1.
        1   -1    0    0  501    0  0.00000000000E+00  0.00000000000E+00 -0.15478771736E+04  0.15478771736E+04  0.50400001928E-02 0. -1.
    10030    2    1    2    0    0  0.00000000000E+00  0.00000000000E+00 -0.53410805704E+03  0.25616462901E+04  0.25053463431E+04 0.  0.
        1    1    3    3  502    0 -0.11717012520E+04  0.21085361296E+03 -0.66548629814E+03  0.13638970207E+04  0.50400001928E-02 0. -1.
       -1    1    3    3    0  502  0.11717012520E+04 -0.21085361296E+03  0.13137824110E+03  0.11977492694E+04  0.50400001928E-02 0.  1.
</event>
<event>
 5   0  0.1201438E-05  0.2404521E+04  0.7818609E-02  0.8437813E-01
       -3   -1    0    0    0  501  0.00000000000E+00  0.00000000000E+00  0.17845964019E+04  0.17845964048E+04  0.10100000352E+00 0.  1.
        3   -1    0    0  501    0  0.00000000000E+00  0.00000000000E+00 -0.80994778712E+03  0.80994779342E+03  0.10100000352E+00 0. -1.
    10030    2    1    2    0    0  0.00000000000E+00  0.00000000000E+00  0.97464861478E+03  0.25945441982E+04  0.24045206745E+04 0.  0.
        5    1    3    3  502    0 -0.27101701128E+03 -0.11034164266E+04  0.91135579632E+03  0.14565608495E+04  0.46999998093E+01 0.  1.
       -5    1    3    3    0  502  0.27101701128E+03  0.11034164266E+04  0.63292818466E+02  0.11379833486E+04  0.46999998093E+01 0. -1.
</event>
<event>
 5   0  0.1492639E-05  0.2518695E+04  0.7818609E-02  0.8396356E-01
        1   -1    0    0  501    0  0.00000000000E+00  0.00000000000E+00  0.13105261541E+04  0.13105261541E+04  0.50400001928E-02 0.  1.
       -1   -1    0    0    0  501  0.00000000000E+00  0.00000000000E+00 -0.12101673286E+04  0.12101673287E+04  0.50400001928E-02 0. -1.
    10030    2    1    2    0    0  0.00000000000E+00  0.00000000000E+00  0.10035882547E+03  0.25206934828E+04  0.25186948486E+04 0.  0.
        5    1    3    3  502    0 -0.94158377945E+03 -0.49107777709E+03  0.72761864440E+03  0.12873182895E+04  0.46999998093E+01 0. -1.
       -5    1    3    3    0  502  0.94158377945E+03  0.49107777709E+03 -0.62725981893E+03  0.12333751932E+04  0.46999998093E+01 0.  1.
</event>
<event>
 5   0  0.1502886E-05  0.2474014E+04  0.7818609E-02  0.8412302E-01
       -1   -1    0    0    0  501  0.00000000000E+00  0.00000000000E+00  0.95023501648E+03  0.95023501650E+03  0.50400001928E-02 0.  1.
        1   -1    0    0  501    0  0.00000000000E+00  0.00000000000E+00 -0.16103237020E+04  0.16103237020E+04  0.50400001928E-02 0. -1.
    10030    2    1    2    0    0  0.00000000000E+00  0.00000000000E+00 -0.66008868550E+03  0.25605587185E+04  0.24740137183E+04 0.  0.
        4    1    3    3  502    0 -0.15924719865E+03 -0.63271479178E+03  0.75766996975E+03  0.99987652936E+03  0.12699999809E+01 0.  1.
       -4    1    3    3    0  502  0.15924719865E+03  0.63271479178E+03 -0.14177586552E+04  0.15606821891E+04  0.12699999809E+01 0. -1.
</event>
<event>
 5   0  0.1429483E-05  0.2452526E+04  0.7818609E-02  0.8420096E-01
       -1   -1    0    0    0  501  0.00000000000E+00  0.00000000000E+00  0.11584325207E+04  0.11584325207E+04  0.50400001928E-02 0. -1.
        1   -1    0    0  501    0  0.00000000000E+00  0.00000000000E+00 -0.12980655501E+04  0.12980655501E+04  0.50400001928E-02 0.  1.
    10030    2    1    2    0    0  0.00000000000E+00  0.00000000000E+00 -0.13963302940E+03  0.24564980708E+04  0.24525263278E+04 0.  0.
        2    1    3    3  502    0  0.62527223995E+03 -0.72488358880E+03  0.69777940819E+03  0.11846171086E+04  0.25500000920E-02 0. -1.
       -2    1    3    3    0  502 -0.62527223995E+03  0.72488358880E+03 -0.83741243759E+03  0.12718809622E+04  0.25500000920E-02 0.  1.
</event>
<event>
 5   0  0.3704241E-05  0.2499845E+04  0.7818609E-02  0.8403041E-01
       -2   -1    0    0    0  501  0.00000000000E+00  0.00000000000E+00  0.13872358808E+04  0.13872358808E+04  0.25500000920E-02 0.  1.
        2   -1    0    0  501    0  0.00000000000E+00  0.00000000000E+00 -0.11262006525E+04  0.11262006525E+04  0.25500000920E-02 0. -1.
    10030    2    1    2    0    0  0.00000000000E+00  0.00000000000E+00  0.26103522830E+03  0.25134365332E+04  0.24998447584E+04 0.  0.
        2    1    3    3  502    0 -0.20840996655E+03 -0.56898183277E+02 -0.11072868080E+04  0.11281649669E+04  0.25500000920E-02 0. -1.
       -2    1    3    3    0  502  0.20840996655E+03  0.56898183277E+02  0.13683220363E+04  0.13852715663E+04  0.25500000920E-02 0.  1.
</event>
<event>
 5   0  0.1492639E-05  0.2500106E+04  0.7818609E-02  0.8402948E-01
       -1   -1    0    0    0  501  0.00000000000E+00  0.00000000000E+00  0.97731888587E+03  0.97731888588E+03  0.50400001928E-02 0.  1.
        1   -1    0    0  501    0  0.00000000000E+00  0.00000000000E+00 -0.15988969928E+04  0.15988969928E+04  0.50400001928E-02 0. -1.
    10030    2    1    2    0    0  0.00000000000E+00  0.00000000000E+00 -0.62157810691E+03  0.25762158787E+04  0.25001057799E+04 0.  0.
        5    1    3    3  502    0 -0.10976801938E+04  0.13498632841E+03  0.28960371983E+03  0.11432477952E+04  0.46999998093E+01 0.  1.
       -5    1    3    3    0  502  0.10976801938E+04 -0.13498632841E+03 -0.91118182674E+03  0.14329680834E+04  0.46999998093E+01 0. -1.
</event>
<event>
 5   0  0.1421242E-05  0.2538904E+04  0.7818609E-02  0.8389256E-01
       -1   -1    0    0    0  501  0.00000000000E+00  0.00000000000E+00  0.11946827154E+04  0.11946827154E+04  0.50400001928E-02 0.  1.
        1   -1    0    0  501    0  0.00000000000E+00  0.00000000000E+00 -0.13489003758E+04  0.13489003758E+04  0.50400001928E-02 0. -1.
    10030    2    1    2    0    0  0.00000000000E+00  0.00000000000E+00 -0.15421766041E+03  0.25435830912E+04  0.25389036719E+04 0.  0.
        3    1    3    3  502    0  0.40244645326E+02 -0.12220051566E+04  0.26497579770E+03  0.12510509254E+04  0.10100000352E+00 0. -1.
       -3    1    3    3    0  502 -0.40244645326E+02  0.12220051566E+04 -0.41919345811E+03  0.12925321659E+04  0.10100000352E+00 0.  1.
</event>
<event>
 5   0  0.3704241E-05  0.2511329E+04  0.7818609E-02  0.8398961E-01
       -2   -1    0    0    0  501  0.00000000000E+00  0.00000000000E+00  0.91206174519E+03  0.91206174519E+03  0.25500000920E-02 0. -1.
        2   -1    0    0  501    0  0.00000000000E+00  0.00000000000E+00 -0.17287131144E+04  0.17287131144E+04  0.25500000920E-02 0.  1.
    10030    2    1    2    0    0  0.00000000000E+00  0.00000000000E+00 -0.81665136926E+03  0.26407748596E+04  0.25113288117E+04 0.  0.
        2    1    3    3  502    0 -0.22125488083E+03  0.12329208949E+04 -0.50027090789E+03  0.13488212027E+04  0.25500000920E-02 0.  1.
       -2    1    3    3    0  502  0.22125488083E+03 -0.12329208949E+04 -0.31638046137E+03  0.12919536570E+04  0.25500000920E-02 0. -1.
</event>
<event>
 5   0  0.1429483E-05  0.2494372E+04  0.7818609E-02  0.8404993E-01
        1   -1    0    0  501    0  0.00000000000E+00  0.00000000000E+00  0.22797891419E+04  0.22797891419E+04  0.50400001928E-02 0. -1.
       -1   -1    0    0    0  501  0.00000000000E+00  0.00000000000E+00 -0.68228808694E+03  0.68228808696E+03  0.50400001928E-02 0.  1.
    10030    2    1    2    0    0  0.00000000000E+00  0.00000000000E+00  0.15975010550E+04  0.29620772289E+04  0.24943720431E+04 0.  0.
        2    1    3    3  502    0 -0.14178134358E+03  0.12387551978E+04  0.76399532341E+03  0.14622945133E+04  0.25500000920E-02 0.  1.
       -2    1    3    3    0  502  0.14178134358E+03 -0.12387551978E+04  0.83350573158E+03  0.14997827156E+04  0.25500000920E-02 0. -1.
</event>
<event>
 5   0  0.1492639E-05  0.2507697E+04  0.7818609E-02  0.8400248E-01
        1   -1    0    0  501    0  0.00000000000E+00  0.00000000000E+00  0.22824928399E+04  0.22824928399E+04  0.50400001928E-02 0. -1.
       -1   -1    0    0    0  501  0.00000000000E+00  0.00000000000E+00 -0.68878045142E+03  0.68878045143E+03  0.50400001928E-02 0.  1.
    10030    2    1    2    0    0  0.00000000000E+00  0.00000000000E+00  0.15937123885E+04  0.29712732914E+04  0.25076973092E+04 0.  0.
        5    1    3    3  502    0 -0.57441779295E+03 -0.59749342316E+03  0.19116085947E+04  0.20835603425E+04  0.46999998093E+01 0. -1.
       -5    1    3    3    0  502  0.57441779295E+03  0.59749342316E+03 -0.31789620622E+03  0.88771294882E+03  0.46999998093E+01 0.  1.
</event>
<event>
 5   0  0.3581449E-05  0.2454318E+04  0.7818609E-02  0.8419443E-01
        2   -1    0    0  501    0  0.00000000000E+00  0.00000000000E+00  0.11380157665E+04  0.11380157665E+04  0.25500000920E-02 0. -1.
       -2   -1    0    0    0  501  0.00000000000E+00  0.00000000000E+00 -0.13232850153E+04  0.13232850153E+04  0.25500000920E-02 0.  1.
    10030    2    1    2    0    0  0.00000000000E+00  0.00000000000E+00 -0.18526924878E+03  0.24613007817E+04  0.24543179997E+04 0.  0.
        1    1    3    3  502    0  0.11843200333E+04 -0.70891898473E+02  0.22175308962E+03  0.12069855158E+04  0.50400001928E-02 0. -1.
       -1    1    3    3    0  502 -0.11843200333E+04  0.70891898473E+02 -0.40702233840E+03  0.12543152660E+04  0.50400001928E-02 0.  1.
</event>
<event>
 5   0  0.3704241E-05  0.2521454E+04  0.7818609E-02  0.8395382E-01
        2   -1    0    0  501    0  0.00000000000E+00  0.00000000000E+00  0.15135209710E+04  0.15135209710E+04  0.25500000920E-02 0. -1.
       -2   -1    0    0    0  501  0.00000000000E+00  0.00000000000E+00 -0.10501554553E+04  0.10501554553E+04  0.25500000920E-02 0.  1.
    10030    2    1    2    0    0  0.00000000000E+00  0.00000000000E+00  0.46336551567E+03  0.25636764263E+04  0.25214537905E+04 0.  0.
        2    1    3    3  502    0 -0.89144175160E+03 -0.32677409381E+03  0.10750193091E+04  0.14342650452E+04  0.25500000920E-02 0. -1.
       -2    1    3    3    0  502  0.89144175160E+03  0.32677409381E+03 -0.61165379340E+03  0.11294113811E+04  0.25500000920E-02 0.  1.
</event>
<event>
 5   0  0.3581449E-05  0.2509014E+04  0.7818609E-02  0.8399781E-01
        2   -1    0    0  501    0  0.00000000000E+00  0.00000000000E+00  0.13509409739E+04  0.13509409739E+04  0.25500000920E-02 0. -1.
       -2   -1    0    0    0  501  0.00000000000E+00  0.00000000000E+00 -0.11649570404E+04  0.11649570404E+04  0.25500000920E-02 0.  1.
    10030    2    1    2    0    0  0.00000000000E+00  0.00000000000E+00  0.18598393348E+03  0.25158980143E+04  0.25090143074E+04 0.  0.
        1    1    3    3  502    0  0.81832387134E+03 -0.72493929678E+03  0.70998267777E+03  0.13035591069E+04  0.50400001928E-02 0. -1.
       -1    1    3    3    0  502 -0.81832387134E+03  0.72493929678E+03 -0.52399874429E+03  0.12123389074E+04  0.50400001928E-02 0.  1.
</event>
<event>
 5   0  0.3579097E-05  0.2487610E+04  0.7818609E-02  0.8407413E-01
       -2   -1    0    0    0  501  0.00000000000E+00  0.00000000000E+00  0.11004700929E+04  0.11004700929E+04  0.25500000920E-02 0. -1.
        2   -1    0    0  501    0  0.00000000000E+00  0.00000000000E+00 -0.14058095483E+04  0.14058095483E+04  0.25500000920E-02 0.  1.
    10030    2    1    2    0    0  0.00000000000E+00  0.00000000000E+00 -0.30533945537E+03  0.25062796413E+04  0.24876103910E+04 0.  0.
        5    1    3    3  502    0 -0.78635951165E+03  0.96243484683E+03 -0.20189496045E+03  0.12591369191E+04  0.46999998093E+01 0. -1.
       -5    1    3    3    0  502  0.78635951165E+03 -0.96243484683E+03 -0.10344449492E+03  0.12471427222E+04  0.46999998093E+01 0.  1.
</event>
<event>
 5   0  0.3578670E-05  0.2497658E+04  0.7818609E-02  0.8403820E-01
       -2   -1    0    0    0  501  0.00000000000E+00  0.00000000000E+00  0.22531582222E+04  0.22531582222E+04  0.25500000920E-02 0.  1.
        2   -1    0    0  501    0  0.00000000000E+00  0.00000000000E+00 -0.69217229406E+03  0.69217229406E+03  0.25500000920E-02 0. -1.
    10030    2    1    2    0    0  0.00000000000E+00  0.00000000000E+00  0.15609859282E+04  0.29453305163E+04  0.24976578593E+04 0.  0.
        4    1    3    3  502    0  0.51580514005E+03 -0.10552673984E+04  0.28028535286E+03  0.12075618893E+04  0.12699999809E+01 0. -1.
       -4    1    3    3    0  502 -0.51580514005E+03  0.10552673984E+04  0.12807005753E+04  0.17377686270E+04  0.12699999809E+01 0.  1.
</event>
<event>
 5   0  0.3581449E-05  0.2468077E+04  0.7818609E-02  0.8414447E-01
       -2   -1    0    0    0  501  0.00000000000E+00  0.00000000000E+00  0.11404646772E+04  0.11404646772E+04  0.25500000920E-02 0. -1.
        2   -1    0    0  501    0  0.00000000000E+00  0.00000000000E+00 -0.13352902781E+04  0.13352902781E+04  0.25500000920E-02 0.  1.
    10030    2    1    2    0    0  0.00000000000E+00  0.00000000000E+00 -0.19482560082E+03  0.24757549553E+04  0.24680773051E+04 0.  0.
        1    1    3    3  502    0 -0.75803278836E+03 -0.44810735368E+03 -0.96464688083E+03  0.13061230851E+04  0.50400001928E-02 0.  1.
       -1    1    3    3    0  502  0.75803278836E+03  0.44810735368E+03  0.76982128002E+03  0.11696318702E+04  0.50400001928E-02 0. -1.
</event>
<event>
 5   0  0.1502886E-05  0.2465598E+04  0.7818609E-02  0.8415345E-01
       -1   -1    0    0    0  501  0.00000000000E+00  0.00000000000E+00  0.61397295002E+03  0.61397295004E+03  0.50400001928E-02 0.  1.
        1   -1    0    0  501    0  0.00000000000E+00  0.00000000000E+00 -0.24753422565E+04  0.24753422565E+04  0.50400001928E-02 0. -1.
    10030    2    1    2    0    0  0.00000000000E+00  0.00000000000E+00 -0.18613693065E+04  0.30893152065E+04  0.24655978484E+04 0.  0.
        4    1    3    3  502    0  0.20665475088E+03 -0.26574343584E+03  0.55526662590E+03  0.64934459148E+03  0.12699999809E+01 0.  1.
       -4    1    3    3    0  502 -0.20665475088E+03  0.26574343584E+03 -0.24166359324E+04  0.24399706151E+04  0.12699999809E+01 0. -1.
</event>
<event>
 5   0  0.3704241E-05  0.2489151E+04  0.7818609E-02  0.8406861E-01
       -2   -1    0    0    0  501  0.00000000000E+00  0.00000000000E+00  0.11630375521E+04  0.11630375521E+04  0.25500000920E-02 0.  1.
        2   -1    0    0  501    0  0.00000000000E+00  0.00000000000E+00 -0.13318299093E+04  0.13318299093E+04  0.25500000920E-02 0. -1.
    10030    2    1    2    0    0  0.00000000000E+00  0.00000000000E+00 -0.16879235717E+03  0.24948674614E+04  0.24891510179E+04 0.  0.
        2    1    3    3  502    0  0.68168087123E+02  0.12307751393E+04  0.87794358996E+02  0.12357840350E+04  0.25500000920E-02 0. -1.
       -2    1    3    3    0  502 -0.68168087123E+02 -0.12307751393E+04 -0.25658671616E+03  0.12590834264E+04  0.25500000920E-02 0.  1.
</event>
<event>
 5   0  0.3650620E-05  0.2507584E+04  0.7818609E-02  0.8400289E-01
        2   -1    0    0  501    0  0.00000000000E+00  0.00000000000E+00  0.11526439105E+04  0.11526439105E+04  0.25500000920E-02 0.  1.
       -2   -1    0    0    0  501  0.00000000000E+00  0.00000000000E+00 -0.13638164950E+04  0.13638164950E+04  0.25500000920E-02 0. -1.
    10030    2    1    2    0    0  0.00000000000E+00  0.00000000000E+00 -0.21117258451E+03  0.25164604054E+04  0.25075843180E+04 0.  0.
        3    1    3    3  502    0 -0.60249466187E+03  0.84016442584E+03  0.60623304327E+03  0.11984968056E+04  0.10100000352E+00 0.  1.
       -3    1    3    3    0  502  0.60249466187E+03 -0.84016442584E+03 -0.81740562778E+03  0.13179635999E+04  0.10100000352E+00 0. -1.
</event>
<event>
 5   0  0.1429483E-05  0.2472391E+04  0.7818609E-02  0.8412888E-01
        1   -1    0    0  501    0  0.00000000000E+00  0.00000000000E+00  0.12167564574E+04  0.12167564574E+04  0.50400001928E-02 0. -1.
       -1   -1    0    0    0  501  0.00000000000E+00  0.00000000000E+00 -0.12559453078E+04  0.12559453078E+04  0.50400001928E-02 0.  1.
    10030    2    1    2    0    0  0.00000000000E+00  0.00000000000E+00 -0.39188850473E+02  0.24727017652E+04  0.24723912016E+04 0.  0.
        2    1    3    3  502    0  0.86147641777E+01  0.11848702796E+04 -0.37204154311E+03  0.12419366745E+04  0.25500000920E-02 0.  1.
       -2    1    3    3    0  502 -0.86147641777E+01 -0.11848702796E+04  0.33285269264E+03  0.12307650907E+04  0.25500000920E-02 0. -1.
</event>
<event>
 5   0  0.3581449E-05  0.2508549E+04  0.7818609E-02  0.8399946E-01
       -2   -1    0    0    0  501  0.00000000000E+00  0.00000000000E+00  0.97233909400E+03  0.97233909401E+03  0.25500000920E-02 0.  1.
        2   -1    0    0  501    0  0.00000000000E+00  0.00000000000E+00 -0.16179591443E+04  0.16179591443E+04  0.25500000920E-02 0. -1.
    10030    2    1    2    0    0  0.00000000000E+00  0.00000000000E+00 -0.64562005030E+03  0.25902982383E+04  0.25085493246E+04 0.  0.
        1    1    3    3  502    0 -0.32521552257E+02  0.22996332465E+03  0.94994192113E+03  0.97792148744E+03  0.50400001928E-02 0.  1.
       -1    1    3    3    0  502  0.32521552257E+02 -0.22996332465E+03 -0.15955619714E+04  0.16123767509E+04  0.50400001928E-02 0. -1.
</event>
<event>
 5   0  0.1456876E-05  0.2456768E+04  0.7818609E-02  0.8418551E-01
       -1   -1    0    0    0  501  0.00000000000E+00  0.00000000000E+00  0.91537691620E+03  0.91537691621E+03  0.50400001928E-02 0.  1.
        1   -1    0    0  501    0  0.00000000000E+00  0.00000000000E+00 -0.16484221321E+04  0.16484221321E+04  0.50400001928E-02 0. -1.
    10030    2    1    2    0    0  0.00000000000E+00  0.00000000000E+00 -0.73304521587E+03  0.25637990483E+04  0.24567682576E+04 0.  0.
        1    1    3    3  502    0  0.11685706349E+04  0.24922669464E+03 -0.69049100134E+02  0.11968454588E+04  0.50400001928E-02 0. -1.
       -1    1    3    3    0  502 -0.11685706349E+04 -0.24922669464E+03 -0.66399611574E+03  0.13669535895E+04  0.50400001928E-02 0.  1.
</event>
<event>
 5   0  0.3704241E-05  0.2626814E+04  0.7818609E-02  0.8359150E-01
       -2   -1    0    0    0  501  0.00000000000E+00  0.00000000000E+00  0.88992671291E+03  0.88992671291E+03  0.25500000920E-02 0. -1.
        2   -1    0    0  501    0  0.00000000000E+00  0.00000000000E+00 -0.19384047863E+04  0.19384047863E+04  0.25500000920E-02 0.  1.
    10030    2    1    2    0    0  0.00000000000E+00  0.00000000000E+00 -0.10484780734E+04  0.28283314992E+04  0.26268141920E+04 0.  0.
        2    1    3    3  502    0  0.88678080760E+03  0.70002442386E+02  0.51620336855E+03  0.10284680162E+04  0.25500000920E-02 0. -1.
       -2    1    3    3    0  502 -0.88678080760E+03 -0.70002442386E+02 -0.15646814420E+04  0.17998634830E+04  0.25500000920E-02 0.  1.
</event>
<event>
 5   0  0.1492639E-05  0.2476737E+04  0.7818609E-02  0.8411320E-01
        1   -1    0    0  501    0  0.00000000000E+00  0.00000000000E+00  0.21933217129E+04  0.21933217129E+04  0.50400001928E-02 0. -1.
       -1   -1    0    0    0  501  0.00000000000E+00  0.00000000000E+00 -0.69919345065E+03  0.69919345067E+03  0.50400001928E-02 0.  1.
    10030    2    1    2    0    0  0.00000000000E+00  0.00000000000E+00  0.14941282622E+04  0.28925151635E+04  0.24767367053E+04 0.  0.
        5    1    3    3  502    0  0.12351894720E+04  0.63136500513E+02  0.67455397598E+03  0.14088024723E+04  0.46999998093E+01 0.  1.
       -5    1    3    3    0  502 -0.12351894720E+04 -0.63136500513E+02  0.81957428622E+03  0.14837126912E+04  0.46999998093E+01 0. -1.
</event>
<event>
 5   0  0.3579097E-05  0.2428080E+04  0.7818609E-02  0.8429065E-01
       -2   -1    0    0    0  501  0.00000000000E+00  0.00000000000E+00  0.12885793664E+04  0.12885793664E+04  0.25500000920E-02 0.  1.
        2   -1    0    0  501    0  0.00000000000E+00  0.00000000000E+00 -0.11438125149E+04  0.11438125149E+04  0.25500000920E-02 0. -1.
    10030    2    1    2    0    0  0.00000000000E+00  0.00000000000E+00  0.14476685150E+03  0.24323918813E+04  0.24280800693E+04 0.  0.
        5    1    3    3  502    0  0.44943734884E+03 -0.82193976496E+03 -0.70118744573E+03  0.11701559006E+04  0.46999998093E+01 0. -1.
       -5    1    3    3    0  502 -0.44943734884E+03  0.82193976496E+03  0.84595429724E+03  0.12622359806E+04  0.46999998093E+01 0.  1.
</event>
<event>
 5   0  0.1502886E-05  0.2619582E+04  0.7818609E-02  0.8361580E-01
       -1   -1    0    0    0  501  0.00000000000E+00  0.00000000000E+00  0.17508715357E+04  0.17508715357E+04  0.50400001928E-02 0.  1.
        1   -1    0    0  501    0  0.00000000000E+00  0.00000000000E+00 -0.97982753133E+03  0.97982753135E+03  0.50400001928E-02 0. -1.
    10030    2    1    2    0    0  0.00000000000E+00  0.00000000000E+00  0.77104400436E+03  0.27306990671E+04  0.26195817487E+04 0.  0.
        4    1    3    3  502    0 -0.17392208064E+03 -0.12441655722E+04  0.77185517861E+03  0.14744351091E+04  0.12699999809E+01 0. -1.
       -4    1    3    3    0  502  0.17392208064E+03  0.12441655722E+04 -0.81117424382E+00  0.12562639580E+04  0.12699999809E+01 0.  1.
</event>
<event>
 5   0  0.3578670E-05  0.2511294E+04  0.7818609E-02  0.8398973E-01
       -2   -1    0    0    0  501  0.00000000000E+00  0.00000000000E+00  0.76908655543E+03  0.76908655544E+03  0.25500000920E-02 0.  1.
        2   -1    0    0  501    0  0.00000000000E+00  0.00000000000E+00 -0.20500293029E+04  0.20500293029E+04  0.25500000920E-02 0. -1.
    10030    2    1    2    0    0  0.00000000000E+00  0.00000000000E+00 -0.12809427474E+04  0.28191158583E+04  0.25112944671E+04 0.  0.
        4    1    3    3  502    0  0.80495683880E+03  0.80043689981E+03 -0.38041197802E+02  0.11358272265E+04  0.12699999809E+01 0.  1.
       -4    1    3    3    0  502 -0.80495683880E+03 -0.80043689981E+03 -0.12429015496E+04  0.16832886318E+04  0.12699999809E+01 0. -1.
</event>
<event>
 5   0  0.1456876E-05  0.2457306E+04  0.7818609E-02  0.8418355E-01
        1   -1    0    0  501    0  0.00000000000E+00  0.00000000000E+00  0.14071752379E+04  0.14071752379E+04  0.50400001928E-02 0.  1.
       -1   -1    0    0    0  501  0.00000000000E+00  0.00000000000E+00 -0.10727792665E+04  0.10727792665E+04  0.50400001928E-02 0. -1.
    10030    2    1    2    0    0  0.00000000000E+00  0.00000000000E+00  0.33439597140E+03  0.24799545044E+04  0.24573061833E+04 0.  0.
        1    1    3    3  502    0  0.16459224629E+02 -0.18916823181E+03 -0.10578817542E+04  0.10747880405E+04  0.50400001928E-02 0. -1.
       -1    1    3    3    0  502 -0.16459224629E+02  0.18916823181E+03  0.13922777257E+04  0.14051664639E+04  0.50400001928E-02 0.  1.
</event>
<event>
 5   0  0.3581449E-05  0.2486296E+04  0.7818609E-02  0.8407884E-01
        2   -1    0    0  501    0  0.00000000000E+00  0.00000000000E+00  0.11260937731E+04  0.11260937731E+04  0.25500000920E-02 0.  1.
       -2   -1    0    0    0  501  0.00000000000E+00  0.00000000000E+00 -0.13723701486E+04  0.13723701486E+04  0.25500000920E-02 0. -1.
    10030    2    1    2    0    0  0.00000000000E+00  0.00000000000E+00 -0.24627637551E+03  0.24984639216E+04  0.24862964253E+04 0.  0.
        1    1    3    3  502    0 -0.11982059235E+04 -0.29643248092E+03  0.25395275706E+02  0.12345908517E+04  0.50400001928E-02 0. -1.
       -1    1    3    3    0  502  0.11982059235E+04  0.29643248092E+03 -0.27167165121E+03  0.12638730700E+04  0.50400001928E-02 0.  1.
</event>
<event>
 5   0  0.1502886E-05  0.2491086E+04  0.7818609E-02  0.8406168E-01
        1   -1    0    0  501    0  0.00000000000E+00  0.00000000000E+00  0.18101322938E+04  0.18101322938E+04  0.50400001928E-02 0.  1.
       -1   -1    0    0    0  501  0.00000000000E+00  0.00000000000E+00 -0.85705219466E+03  0.85705219467E+03  0.50400001928E-02 0. -1.
    10030    2    1    2    0    0  0.00000000000E+00  0.00000000000E+00  0.95308009917E+03  0.26671844885E+04  0.24910863936E+04 0.  0.
        4    1    3    3  502    0  0.61383444620E+03  0.97722286728E+03 -0.25223610633E+02  0.11542942013E+04  0.12699999809E+01 0. -1.
       -4    1    3    3    0  502 -0.61383444620E+03 -0.97722286728E+03  0.97830370980E+03  0.15128902872E+04  0.12699999809E+01 0.  1.
</event>
<event>
 5   0  0.3650620E-05  0.2550034E+04  0.7818609E-02  0.8385374E-01
       -2   -1    0    0    0  501  0.00000000000E+00  0.00000000000E+00  0.10150309487E+04  0.10150309487E+04  0.25500000920E-02 0.  1.
        2   -1    0    0  501    0  0.00000000000E+00  0.00000000000E+00 -0.16015944020E+04  0.16015944020E+04  0.25500000920E-02 0. -1.
    10030    2    1    2    0    0  0.00000000000E+00  0.00000000000E+00 -0.58656345334E+03  0.26166253507E+04  0.25500336352E+04 0.  0.
        3    1    3    3  502    0 -0.32481823080E+03 -0.59461077697E+03  0.81501599039E+03  0.10598678851E+04  0.10100000352E+00 0.  1.
       -3    1    3    3    0  502  0.32481823080E+03  0.59461077697E+03 -0.14015794437E+04  0.15567574655E+04  0.10100000352E+00 0. -1.
</event>
<event>
 5   0  0.1421242E-05  0.2498041E+04  0.7818609E-02  0.8403684E-01
       -1   -1    0    0    0  501  0.00000000000E+00  0.00000000000E+00  0.85220379056E+03  0.85220379058E+03  0.50400001928E-02 0.  1.
        1   -1    0    0  501    0  0.00000000000E+00  0.00000000000E+00 -0.18306098925E+04  0.18306098926E+04  0.50400001928E-02 0. -1.
    10030    2    1    2    0    0  0.00000000000E+00  0.00000000000E+00 -0.97840610198E+03  0.26828136831E+04  0.24980413844E+04 0.  0.
        3    1    3    3  502    0 -0.11316090735E+04 -0.69357109232E+02 -0.10520920015E+04  0.15466890747E+04  0.10100000352E+00 0. -1.
       -3    1    3    3    0  502  0.11316090735E+04  0.69357109232E+02  0.73685899533E+02  0.11361246084E+04  0.10100000352E+00 0.  1.
</event>
<event>
 5   0  0.3581449E-05  0.2646087E+04  0.7818609E-02  0.8352713E-01
       -2   -1    0    0    0  501  0.00000000000E+00  0.00000000000E+00  0.11444053440E+04  0.11444053440E+04  0.25500000920E-02 0.  1.
        2   -1    0    0  501    0  0.00000000000E+00  0.00000000000E+00 -0.15295662957E+04  0.15295662957E+04  0.25500000920E-02 0. -1.
    10030    2    1    2    0    0  0.00000000000E+00  0.00000000000E+00 -0.38516095176E+03  0.26739716397E+04  0.26460868034E+04 0.  0.
        1    1    3    3  502    0  0.10618758999E+04 -0.20411712690E+03 -0.96297886966E+03  0.14479546028E+04  0.50400001928E-02 0. -1.
       -1    1    3    3    0  502 -0.10618758999E+04  0.20411712690E+03  0.57781791790E+03  0.12260170369E+04  0.50400001928E-02 0.  1.
</event>
<event>
 5   0  0.1502886E-05  0.2399788E+04  0.7818609E-02  0.8439583E-01
       -1   -1    0    0    0  501  0.00000000000E+00  0.00000000000E+00  0.16269579091E+04  0.16269579091E+04  0.50400001928E-02 0. -1.
        1   -1    0    0  501    0  0.00000000000E+00  0.00000000000E+00 -0.88493080988E+03  0.88493080990E+03  0.50400001928E-02 0.  1.
    10030    2    1    2    0    0  0.00000000000E+00  0.00000000000E+00  0.74202709918E+03  0.25118887190E+04  0.23997876407E+04 0.  0.
        4    1    3    3  502    0  0.10240577542E+04 -0.62217813926E+01  0.10255319096E+04  0.14492930363E+04  0.12699999809E+01 0. -1.
       -4    1    3    3    0  502 -0.10240577542E+04  0.62217813926E+01 -0.28350481040E+03  0.10625956827E+04  0.12699999809E+01 0.  1.
</event>
<event>
 5   0  0.3650620E-05  0.2500817E+04  0.7818609E-02  0.8402695E-01
       -2   -1    0    0    0  501  0.00000000000E+00  0.00000000000E+00  0.10311464677E+04  0.10311464677E+04  0.25500000920E-02 0. -1.
        2   -1    0    0  501    0  0.00000000000E+00  0.00000000000E+00 -0.15162939141E+04  0.15162939141E+04  0.25500000920E-02 0.  1.
    10030    2    1    2    0    0  0.00000000000E+00  0.00000000000E+00 -0.48514744633E+03  0.25474403818E+04  0.25008167574E+04 0.  0.
        3    1    3    3  502    0 -0.39127758173E+03  0.99980131429E+03  0.41032842900E+03  0.11493781988E+04  0.10100000352E+00 0. -1.
       -3    1    3    3    0  502  0.39127758173E+03 -0.99980131429E+03 -0.89547587533E+03  0.13980621830E+04  0.10100000352E+00 0.  1.
</event>
<event>
 5   0  0.1502886E-05  0.2460138E+04  0.7818609E-02  0.8417326E-01
       -1   -1    0    0    0  501  0.00000000000E+00  0.00000000000E+00  0.53960355748E+03  0.53960355751E+03  0.50400001928E-02 0.  1.
        1   -1    0    0  501    0  0.00000000000E+00  0.00000000000E+00 -0.28040401631E+04  0.28040401631E+04  0.50400001928E-02 0. -1.
    10030    2    1    2    0    0  0.00000000000E+00  0.00000000000E+00 -0.22644366057E+04  0.33436437207E+04  0.24601382460E+04 0.  0.
        4    1    3    3  502    0 -0.17147100349E+03 -0.85737671974E+03  0.43699771971E+02  0.87544755843E+03  0.12699999809E+01 0.  1.
       -4    1    3    3    0  502  0.17147100349E+03  0.85737671974E+03 -0.23081363776E+04  0.24681961622E+04  0.12699999809E+01 0. -1.
</event>
<event>
 5   0  0.1201438E-05  0.2514156E+04  0.7818609E-02  0.8397960E-01
        3   -1    0    0  501    0  0.00000000000E+00  0.00000000000E+00  0.14155797907E+04  0.14155797943E+04  0.10100000352E+00 0. -1.
       -3   -1    0    0    0  501  0.00000000000E+00  0.00000000000E+00 -0.11163236302E+04  0.11163236348E+04  0.10100000352E+00 0.  1.
    10030    2    1    2    0    0  0.00000000000E+00  0.00000000000E+00  0.29925616046E+03  0.25319034291E+04  0.25141560661E+04 0.  0.
        5    1    3    3  502    0  0.54623857638E+03 -0.80979566343E+03  0.94646408537E+03  0.13601330647E+04  0.46999998093E+01 0. -1.
       -5    1    3    3    0  502 -0.54623857638E+03  0.80979566343E+03 -0.64720792491E+03  0.11717703644E+04  0.46999998093E+01 0.  1.
</event>
<event>
 5   0  0.1502886E-05  0.2427062E+04  0.7818609E-02  0.8429441E-01
       -1   -1    0    0    0  501  0.00000000000E+00  0.00000000000E+00  0.47638560108E+03  0.47638560111E+03  0.50400001928E-02 0. -1.
        1   -1    0    0  501    0  0.00000000000E+00  0.00000000000E+00 -0.30913141113E+04  0.30913141113E+04  0.50400001928E-02 0.  1.
    10030    2    1    2    0    0  0.00000000000E+00  0.00000000000E+00 -0.26149285102E+04  0.35676997124E+04  0.24270620355E+04 0.  0.
        4    1    3    3  502    0 -0.58320578257E+03  0.55811880791E+03 -0.26394114780E+04  0.27600942288E+04  0.12699999809E+01 0.  1.
       -4    1    3    3    0  502  0.58320578257E+03 -0.55811880791E+03  0.24482967802E+02  0.80760548363E+03  0.12699999809E+01 0. -1.
</event>
<event>
 5   0  0.1492639E-05  0.2493982E+04  0.7818609E-02  0.8405133E-01
       -1   -1    0    0    0  501  0.00000000000E+00  0.00000000000E+00  0.10611169097E+04  0.10611169097E+04  0.50400001928E-02 0. -1.
        1   -1    0    0  501    0  0.00000000000E+00  0.00000000000E+00 -0.14654237629E+04  0.14654237629E+04  0.50400001928E-02 0.  1.
    10030    2    1    2    0    0  0.00000000000E+00  0.00000000000E+00 -0.40430685320E+03  0.25265406727E+04  0.24939815034E+04 0.  0.
        5    1    3    3  502    0 -0.88014777233E+02  0.94936097136E+03 -0.10163441059E+04  0.13935602917E+04  0.46999998093E+01 0.  1.
       -5    1    3    3    0  502  0.88014777233E+02 -0.94936097136E+03  0.61203725273E+03  0.11329803810E+04  0.46999998093E+01 0. -1.
</event>
<event>
 5   0  0.3704241E-05  0.2500046E+04  0.7818609E-02  0.8402969E-01
        2   -1    0    0  501    0  0.00000000000E+00  0.00000000000E+00  0.22656847641E+04  0.22656847641E+04  0.25500000920E-02 0.  1.
       -2   -1    0    0    0  501  0.00000000000E+00  0.00000000000E+00 -0.68966241463E+03  0.68966241463E+03  0.25500000920E-02 0. -1.
    10030    2    1    2    0    0  0.00000000000E+00  0.00000000000E+00  0.15760223495E+04  0.29553471788E+04  0.25000460998E+04 0.  0.
        2    1    3    3  502    0  0.74547924075E+03 -0.32687732456E+03 -0.33342457238E+03  0.87963630506E+03  0.25500000920E-02 0. -1.
       -2    1    3    3    0  502 -0.74547924075E+03  0.32687732456E+03  0.19094469219E+04  0.20757108737E+04  0.25500000920E-02 0.  1.
</event>
<event>
 5   0  0.3578670E-05  0.2513474E+04  0.7818609E-02  0.8398201E-01
        2   -1    0    0  501    0  0.00000000000E+00  0.00000000000E+00  0.17116119229E+04  0.17116119229E+04  0.25500000920E-02 0. -1.
       -2   -1    0    0    0  501  0.00000000000E+00  0.00000000000E+00 -0.92274871791E+03  0.92274871792E+03  0.25500000920E-02 0.  1.
    10030    2    1    2    0    0  0.00000000000E+00  0.00000000000E+00  0.78886320500E+03  0.26343606408E+04  0.25134738570E+04 0.  0.
        4    1    3    3  502    0  0.61858102948E+03  0.40956487773E+03  0.14576159875E+04  0.16355524630E+04  0.12699999809E+01 0. -1.
       -4    1    3    3    0  502 -0.61858102948E+03 -0.40956487773E+03 -0.66875278254E+03  0.99880817786E+03  0.12699999809E+01 0.  1.
</event>
<event>
 5   0  0.3579097E-05  0.2582952E+04  0.7818609E-02  0.8374015E-01
       -2   -1    0    0    0  501  0.00000000000E+00  0.00000000000E+00  0.10873543958E+04  0.10873543958E+04  0.25500000920E-02 0. -1.
        2   -1    0    0  501    0  0.00000000000E+00  0.00000000000E+00 -0.15339164280E+04  0.15339164280E+04  0.25500000920E-02 0.  1.
    10030    2    1    2    0    0  0.00000000000E+00  0.00000000000E+00 -0.44656203211E+03  0.26212708238E+04  0.25829523966E+04 0.  0.
        5    1    3    3  502    0 -0.91793526353E+03 -0.56982852022E+03 -0.94129317762E+03  0.14329566032E+04  0.46999998093E+01 0.  1.
       -5    1    3    3    0  502  0.91793526353E+03  0.56982852022E+03  0.49473114551E+03  0.11883142206E+04  0.46999998093E+01 0. -1.
</event>
<event>
 5   0  0.1429483E-05  0.2512545E+04  0.7818609E-02  0.8398530E-01
       -1   -1    0    0    0  501  0.00000000000E+00  0.00000000000E+00  0.10057112103E+04  0.10057112103E+04  0.50400001928E-02 0. -1.
        1   -1    0    0  501    0  0.00000000000E+00  0.00000000000E+00 -0.15692578462E+04  0.15692578462E+04  0.50400001928E-02 0.  1.
    10030    2    1    2    0    0  0.00000000000E+00  0.00000000000E+00 -0.56354663591E+03  0.25749690565E+04  0.25125446923E+04 0.  0.
        2    1    3    3  502    0  0.61006678857E+03  0.37790981061E+02  0.84304285575E+03  0.10413121057E+04  0.25500000920E-02 0. -1.
       -2    1    3    3    0  502 -0.61006678857E+03 -0.37790981061E+02 -0.14065894917E+04  0.15336569508E+04  0.25500000920E-02 0.  1.
</event>
<event>
 5   0  0.1502886E-05  0.2494197E+04  0.7818609E-02  0.8405056E-01
        1   -1    0    0  501    0  0.00000000000E+00  0.00000000000E+00  0.11026483162E+04  0.11026483162E+04  0.50400001928E-02 0. -1.
       -1   -1    0    0    0  501  0.00000000000E+00  0.00000000000E+00 -0.14104723637E+04  0.14104723637E+04  0.50400001928E-02 0.  1.
    10030    2    1    2    0    0  0.00000000000E+00  0.00000000000E+00 -0.30782404755E+03  0.25131206799E+04  0.24941972471E+04 0.  0.
        4    1    3    3  502    0 -0.35863440999E+03 -0.48598331271E+03 -0.12532697420E+04  0.13912171216E+04  0.12699999809E+01 0.  1.
       -4    1    3    3    0  502  0.35863440999E+03  0.48598331271E+03  0.94544569443E+03  0.11219035584E+04  0.12699999809E+01 0. -1.
</event>
<event>
 5   0  0.1456876E-05  0.2585617E+04  0.7818609E-02  0.8373103E-01
        1   -1    0    0  501    0  0.00000000000E+00  0.00000000000E+00  0.15839770781E+04  0.15839770781E+04  0.50400001928E-02 0.  1.
       -1   -1    0    0    0  501  0.00000000000E+00  0.00000000000E+00 -0.10551626617E+04  0.10551626617E+04  0.50400001928E-02 0. -1.
    10030    2    1    2    0    0  0.00000000000E+00  0.00000000000E+00  0.52881441637E+03  0.26391397398E+04  0.25856167309E+04 0.  0.
        1    1    3    3  502    0 -0.18018476582E+03  0.79112309056E+03  0.12917262906E+04  0.15254176819E+04  0.50400001928E-02 0.  1.
       -1    1    3    3    0  502  0.18018476582E+03 -0.79112309056E+03 -0.76291187427E+03  0.11137220579E+04  0.50400001928E-02 0. -1.
</event>
<event>
 5   0  0.3650620E-05  0.2518946E+04  0.7818609E-02  0.8396267E-01
       -2   -1    0    0    0  501  0.00000000000E+00  0.00000000000E+00  0.10044283865E+04  0.10044283865E+04  0.25500000920E-02 0.  1.
        2   -1    0    0  501    0  0.00000000000E+00  0.00000000000E+00 -0.15792779603E+04  0.15792779603E+04  0.25500000920E-02 0. -1.
    10030    2    1    2    0    0  0.00000000000E+00  0.00000000000E+00 -0.57484957373E+03  0.25837063468E+04  0.25189455044E+04 0.  0.
        3    1    3    3  502    0 -0.58608791889E+03 -0.42944754535E+03  0.76778423475E+03  0.10570794124E+04  0.10100000352E+00 0.  1.
       -3    1    3    3    0  502  0.58608791889E+03  0.42944754535E+03 -0.13426338085E+04  0.15266269344E+04  0.10100000352E+00 0. -1.
</event>
<event>
 5   0  0.3581449E-05  0.2503994E+04  0.7818609E-02  0.8401564E-01
       -2   -1    0    0    0  501  0.00000000000E+00  0.00000000000E+00  0.15135145448E+04  0.15135145448E+04  0.25500000920E-02 0. -1.
        2   -1    0    0  501    0  0.00000000000E+00  0.00000000000E+00 -0.10356663618E+04  0.10356663618E+04  0.25500000920E-02 0.  1.
    10030    2    1    2    0    0  0.00000000000E+00  0.00000000000E+00  0.47784818292E+03  0.25491809066E+04  0.25039936918E+04 0.  0.
        1    1    3    3  502    0  0.49698813995E+03  0.42392497148E+03  0.13262747326E+04  0.14784161319E+04  0.50400001928E-02 0. -1.
       -1    1    3    3    0  502 -0.49698813995E+03 -0.42392497148E+03 -0.84842654964E+03  0.10707647748E+04  0.50400001928E-02 0.  1.
</event>
<event>
 5   0  0.3579097E-05  0.2674515E+04  0.7818609E-02  0.8343321E-01
        2   -1    0    0  501    0  0.00000000000E+00  0.00000000000E+00  0.86150568394E+03  0.86150568394E+03  0.25500000920E-02 0. -1.
       -2   -1    0    0    0  501  0.00000000000E+00  0.00000000000E+00 -0.20757356943E+04  0.20757356943E+04  0.25500000920E-02 0.  1.
    10030    2    1    2    0    0  0.00000000000E+00  0.00000000000E+00 -0.12142300103E+04  0.29372413782E+04  0.26745153572E+04 0.  0.
        5    1    3    3  502    0  0.11850532573E+04 -0.44779490208E+03 -0.10773903225E+04  0.16630284105E+04  0.46999998093E+01 0. -1.
       -5    1    3    3    0  502 -0.11850532573E+04  0.44779490208E+03 -0.13683968779E+03  0.12742129677E+04  0.46999998093E+01 0.  1.
</event>
<event>
 5   0  0.1421242E-05  0.2495981E+04  0.7818609E-02  0.8404419E-01
       -1   -1    0    0    0  501  0.00000000000E+00  0.00000000000E+00  0.90687007986E+03  0.90687007987E+03  0.50400001928E-02 0. -1.
        1   -1    0    0  501    0  0.00000000000E+00  0.00000000000E+00 -0.17174239964E+04  0.17174239965E+04  0.50400001928E-02 0.  1.
    10030    2    1    2    0    0  0.00000000000E+00  0.00000000000E+00 -0.81055391659E+03  0.26242940763E+04  0.24959811192E+04 0.  0.
        3    1    3    3  502    0  0.70932320606E+03 -0.46038797904E+03  0.55972065589E+03  0.10140925622E+04  0.10100000352E+00 0. -1.
       -3    1    3    3    0  502 -0.70932320606E+03  0.46038797904E+03 -0.13702745725E+04  0.16102015141E+04  0.10100000352E+00 0.  1.
</event>
<event>
 5   0  0.3704241E-05  0.2436206E+04  0.7818609E-02  0.8426072E-01
        2   -1    0    0  501    0  0.00000000000E+00  0.00000000000E+00  0.21618602716E+04  0.21618602716E+04  0.25500000920E-02 0.  1.
       -2   -1    0    0    0  501  0.00000000000E+00  0.00000000000E+00 -0.68634148510E+03  0.68634148510E+03  0.25500000920E-02 0. -1.
    10030    2    1    2    0    0  0.00000000000E+00  0.00000000000E+00  0.14755187865E+04  0.28482017567E+04  0.24362055656E+04 0.  0.
        2    1    3    3  502    0  0.38488002354E+03  0.91685269866E+03  0.15603229375E+04  0.18502321943E+04  0.25500000920E-02 0.  1.
       -2    1    3    3    0  502 -0.38488002354E+03 -0.91685269866E+03 -0.84804150947E+02  0.99796956245E+03  0.25500000920E-02 0. -1.
</event>
<event>
 5   0  0.1456876E-05  0.2123126E+04  0.7818609E-02  0.8551124E-01
        1   -1    0    0  501    0  0.00000000000E+00  0.00000000000E+00  0.14318936368E+04  0.14318936368E+04  0.50400001928E-02 0. -1.
       -1   -1    0    0    0  501  0.00000000000E+00  0.00000000000E+00 -0.78701112772E+03  0.78701112774E+03  0.50400001928E-02 0.  1.
    10030    2    1    2    0    0  0.00000000000E+00  0.00000000000E+00  0.64488250911E+03  0.22189047646E+04  0.21231262100E+04 0.  0.
        1    1    3    3  502    0 -0.10602823826E+04  0.50181497537E+02  0.33719594103E+03  0.11137405516E+04  0.50400001928E-02 0.  1.
       -1    1    3    3    0  502  0.10602823826E+04 -0.50181497537E+02  0.30768656809E+03  0.11051642130E+04  0.50400001928E-02 0. -1.
</event>
<event>
 5   0  0.3650620E-05  0.2249548E+04  0.7818609E-02  0.8498084E-01
       -2   -1    0    0    0  501  0.00000000000E+00  0.00000000000E+00  0.71644837414E+03  0.71644837415E+03  0.25500000920E-02 0.  1.
        2   -1    0    0  501    0  0.00000000000E+00  0.00000000000E+00 -0.17658163250E+04  0.17658163250E+04  0.25500000920E-02 0. -1.
    10030    2    1    2    0    0  0.00000000000E+00  0.00000000000E+00 -0.10493679509E+04  0.24822646992E+04  0.22495477191E+04 0.  0.
        3    1    3    3  502    0 -0.47857971348E+03 -0.96992245004E+03 -0.86537712682E+03  0.13851590822E+04  0.10100000352E+00 0. -1.
       -3    1    3    3    0  502  0.47857971348E+03  0.96992245004E+03 -0.18399082409E+03  0.10971056170E+04  0.10100000352E+00 0.  1.
</event>
<event>
 5   0  0.3704241E-05  0.2526007E+04  0.7818609E-02  0.8393779E-01
       -2   -1    0    0    0  501  0.00000000000E+00  0.00000000000E+00  0.79690646434E+03  0.79690646435E+03  0.25500000920E-02 0. -1.
        2   -1    0    0  501    0  0.00000000000E+00  0.00000000000E+00 -0.20017123373E+04  0.20017123373E+04  0.25500000920E-02 0.  1.
    10030    2    1    2    0    0  0.00000000000E+00  0.00000000000E+00 -0.12048058730E+04  0.27986188017E+04  0.25260067311E+04 0.  0.
        2    1    3    3  502    0 -0.11737033348E+02 -0.10812422173E+04  0.12068498952E+03  0.10880199250E+04  0.25500000920E-02 0. -1.
       -2    1    3    3    0  502  0.11737033348E+02  0.10812422173E+04 -0.13254908625E+04  0.17105988767E+04  0.25500000920E-02 0.  1.
</event>
<event>
 5   0  0.1421242E-05  0.2511058E+04  0.7818609E-02  0.8399057E-01
       -1   -1    0    0    0  501  0.00000000000E+00  0.00000000000E+00  0.86553574222E+03  0.86553574223E+03  0.50400001928E-02 0.  1.
        1   -1    0    0  501    0  0.00000000000E+00  0.00000000000E+00 -0.18212454936E+04  0.18212454936E+04  0.50400001928E-02 0. -1.
    10030    2    1    2    0    0  0.00000000000E+00  0.00000000000E+00 -0.95570975141E+03  0.26867812359E+04  0.25110580002E+04 0.  0.
        3    1    3    3  502    0  0.25105582688E+03 -0.83546988733E+03  0.48828062089E+03  0.99972843102E+03  0.10100000352E+00 0.  1.
       -3    1    3    3    0  502 -0.25105582688E+03  0.83546988733E+03 -0.14439903723E+04  0.16870528048E+04  0.10100000352E+00 0. -1.
</event>
<event>
 5   0  0.3579097E-05  0.2489521E+04  0.7818609E-02  0.8406728E-01
        2   -1    0    0  501    0  0.00000000000E+00  0.00000000000E+00  0.13776840001E+04  0.13776840001E+04  0.25500000920E-02 0. -1.
       -2   -1    0    0    0  501  0.00000000000E+00  0.00000000000E+00 -0.11246621839E+04  0.11246621839E+04  0.25500000920E-02 0.  1.
    10030    2    1    2    0    0  0.00000000000E+00  0.00000000000E+00  0.25302181624E+03  0.25023461840E+04  0.24895213165E+04 0.  0.
        5    1    3    3  502    0 -0.82913068859E+03 -0.91168599841E+03  0.30285112546E+03  0.12690035274E+04  0.46999998093E+01 0.  1.
       -5    1    3    3    0  502  0.82913068859E+03  0.91168599841E+03 -0.49829309219E+02  0.12333426566E+04  0.46999998093E+01 0. -1.
</event>
<event>
 5   0  0.3704241E-05  0.2492489E+04  0.7818609E-02  0.8405666E-01
        2   -1    0    0  501    0  0.00000000000E+00  0.00000000000E+00  0.16689000078E+04  0.16689000078E+04  0.25500000920E-02 0.  1.
       -2   -1    0    0    0  501  0.00000000000E+00  0.00000000000E+00 -0.93062787049E+03  0.93062787049E+03  0.25500000920E-02 0. -1.
    10030    2    1    2    0    0  0.00000000000E+00  0.00000000000E+00  0.73827213728E+03  0.25995278783E+04  0.24924886040E+04 0.  0.
        2    1    3    3  502    0 -0.18862902422E+03  0.71092045062E+03  0.14183903451E+04  0.15977546642E+04  0.25500000920E-02 0.  1.
       -2    1    3    3    0  502  0.18862902422E+03 -0.71092045062E+03 -0.68011820779E+03  0.10017732141E+04  0.25500000920E-02 0. -1.
</event>
<event>
 5   0  0.1201438E-05  0.2407428E+04  0.7818609E-02  0.8436728E-01
       -4   -1    0    0    0  501  0.00000000000E+00  0.00000000000E+00  0.14314936655E+04  0.14314942288E+04  0.12699999809E+01 0. -1.
        4   -1    0    0  501    0  0.00000000000E+00  0.00000000000E+00 -0.10121773814E+04  0.10121781782E+04  0.12699999809E+01 0.  1.
    10030    2    1    2    0    0  0.00000000000E+00  0.00000000000E+00  0.41931628404E+03  0.24436724070E+04  0.24074278155E+04 0.  0.
        5    1    3    3  502    0 -0.46348567414E+03 -0.80901230073E+03  0.98242476818E+03  0.13544372957E+04  0.46999998093E+01 0. -1.
       -5    1    3    3    0  502  0.46348567414E+03  0.80901230073E+03 -0.56310848414E+03  0.10892351113E+04  0.46999998093E+01 0.  1.
</event>
<event>
 5   0  0.1456876E-05  0.1798893E+04  0.7818609E-02  0.8706888E-01
        1   -1    0    0  501    0  0.00000000000E+00  0.00000000000E+00  0.10110040813E+04  0.10110040813E+04  0.50400001928E-02 0.  1.
       -1   -1    0    0    0  501  0.00000000000E+00  0.00000000000E+00 -0.80019870704E+03  0.80019870705E+03  0.50400001928E-02 0. -1.
    10030    2    1    2    0    0  0.00000000000E+00  0.00000000000E+00  0.21080537422E+03  0.18112027883E+04  0.17988931693E+04 0.  0.
        1    1    3    3  502    0  0.32911299760E+03  0.13568854320E+03  0.93705577106E+03  0.10023972586E+04  0.50400001928E-02 0.  1.
       -1    1    3    3    0  502 -0.32911299760E+03 -0.13568854320E+03 -0.72625039685E+03  0.80880552971E+03  0.50400001928E-02 0. -1.
</event>
<event>
 5   0  0.3578670E-05  0.2505902E+04  0.7818609E-02  0.8400886E-01
        2   -1    0    0  501    0  0.00000000000E+00  0.00000000000E+00  0.15516677460E+04  0.15516677460E+04  0.25500000920E-02 0.  1.
       -2   -1    0    0    0  501  0.00000000000E+00  0.00000000000E+00 -0.10117414566E+04  0.10117414566E+04  0.25500000920E-02 0. -1.
    10030    2    1    2    0    0  0.00000000000E+00  0.00000000000E+00  0.53992628935E+03  0.25634092026E+04  0.25059023010E+04 0.  0.
        4    1    3    3  502    0 -0.10271327584E+03 -0.74881012268E+03 -0.75227851644E+03  0.10663916710E+04  0.12699999809E+01 0. -1.
       -4    1    3    3    0  502  0.10271327584E+03  0.74881012268E+03  0.12922048058E+04  0.14970175316E+04  0.12699999809E+01 0.  1.
</event>
<event>
 5   0  0.3650620E-05  0.2482657E+04  0.7818609E-02  0.8409190E-01
        2   -1    0    0  501    0  0.00000000000E+00  0.00000000000E+00  0.61333455294E+03  0.61333455294E+03  0.25500000920E-02 0. -1.
       -2   -1    0    0    0  501  0.00000000000E+00  0.00000000000E+00 -0.25123269553E+04  0.25123269553E+04  0.25500000920E-02 0.  1.
    10030    2    1    2    0    0  0.00000000000E+00  0.00000000000E+00 -0.18989924023E+04  0.31256615082E+04  0.24826573907E+04 0.  0.
        3    1    3    3  502    0 -0.10233086130E+04 -0.62126305489E+03 -0.13628018228E+04  0.18139341552E+04  0.10100000352E+00 0.  1.
       -3    1    3    3    0  502  0.10233086130E+04  0.62126305489E+03 -0.53619057953E+03  0.13117273530E+04  0.10100000352E+00 0. -1.
</event>
<event>
 5   0  0.1429483E-05  0.2495749E+04  0.7818609E-02  0.8404501E-01
       -1   -1    0    0    0  501  0.00000000000E+00  0.00000000000E+00  0.15375367268E+04  0.15375367268E+04  0.50400001928E-02 0.  1.
        1   -1    0    0  501    0  0.00000000000E+00  0.00000000000E+00 -0.10127830057E+04  0.10127830057E+04  0.50400001928E-02 0. -1.
    10030    2    1    2    0    0  0.00000000000E+00  0.00000000000E+00  0.52475372110E+03  0.25503197326E+04  0.24957492403E+04 0.  0.
        2    1    3    3  502    0  0.66610942788E+03 -0.63656050013E+03 -0.59761864445E+03  0.10982072138E+04  0.25500000920E-02 0. -1.
       -2    1    3    3    0  502 -0.66610942788E+03  0.63656050013E+03  0.11223723655E+04  0.14521125188E+04  0.25500000920E-02 0.  1.
</event>
<event>
 5   0  0.3650620E-05  0.2555610E+04  0.7818609E-02  0.8383438E-01
        2   -1    0    0  501    0  0.00000000000E+00  0.00000000000E+00  0.21752466496E+04  0.21752466496E+04  0.25500000920E-02 0. -1.
       -2   -1    0    0    0  501  0.00000000000E+00  0.00000000000E+00 -0.75062107115E+03  0.75062107115E+03  0.25500000920E-02 0.  1.
    10030    2    1    2    0    0  0.00000000000E+00  0.00000000000E+00  0.14246255785E+04  0.29258677208E+04  0.25556102756E+04 0.  0.
        3    1    3    3  502    0 -0.27640211845E+03  0.12383076933E+04  0.53875149101E+03  0.13784256432E+04  0.10100000352E+00 0.  1.
       -3    1    3    3    0  502  0.27640211845E+03 -0.12383076933E+04  0.88587408745E+03  0.15474420776E+04  0.10100000352E+00 0. -1.
</event>
<event>
 5   0  0.1421242E-05  0.2513227E+04  0.7818609E-02  0.8398289E-01
       -1   -1    0    0    0  501  0.00000000000E+00  0.00000000000E+00  0.11138573927E+04  0.11138573927E+04  0.50400001928E-02 0. -1.
        1   -1    0    0  501    0  0.00000000000E+00  0.00000000000E+00 -0.14176652067E+04  0.14176652067E+04  0.50400001928E-02 0.  1.
    10030    2    1    2    0    0  0.00000000000E+00  0.00000000000E+00 -0.30380781394E+03  0.25315225994E+04  0.25132265086E+04 0.  0.
        3    1    3    3  502    0  0.11905106288E+04  0.14806622432E+03 -0.52857501327E+03  0.13109655674E+04  0.10100000352E+00 0.  1.
       -3    1    3    3    0  502 -0.11905106288E+04 -0.14806622432E+03  0.22476719933E+03  0.12205570320E+04  0.10100000352E+00 0. -1.
</event>
<event>
 5   0  0.1421242E-05  0.2441631E+04  0.7818609E-02  0.8424080E-01
       -1   -1    0    0    0  501  0.00000000000E+00  0.00000000000E+00  0.99279241610E+03  0.99279241611E+03  0.50400001928E-02 0. -1.
        1   -1    0    0  501    0  0.00000000000E+00  0.00000000000E+00 -0.15012102238E+04  0.15012102238E+04  0.50400001928E-02 0.  1.
    10030    2    1    2    0    0  0.00000000000E+00  0.00000000000E+00 -0.50841780773E+03  0.24940026399E+04  0.24416307053E+04 0.  0.
        3    1    3    3  502    0  0.91600810223E+02 -0.32997994160E+03 -0.14511423817E+04  0.14910035857E+04  0.10100000352E+00 0.  1.
       -3    1    3    3    0  502 -0.91600810223E+02  0.32997994160E+03  0.94272457398E+03  0.10029990543E+04  0.10100000352E+00 0. -1.
</event>
<event>
 5   0  0.3578670E-05  0.2427264E+04  0.7818609E-02  0.8429366E-01
        2   -1    0    0  501    0  0.00000000000E+00  0.00000000000E+00  0.14633355736E+04  0.14633355736E+04  0.25500000920E-02 0. -1.
       -2   -1    0    0    0  501  0.00000000000E+00  0.00000000000E+00 -0.10065377018E+04  0.10065377018E+04  0.25500000920E-02 0.  1.
    10030    2    1    2    0    0  0.00000000000E+00  0.00000000000E+00  0.45679787178E+03  0.24698732753E+04  0.24272638300E+04 0.  0.
        4    1    3    3  502    0 -0.26552461145E+03 -0.62527314556E+03 -0.79495488167E+03  0.10456694997E+04  0.12699999809E+01 0.  1.
       -4    1    3    3    0  502  0.26552461145E+03  0.62527314556E+03  0.12517527535E+04  0.14242037756E+04  0.12699999809E+01 0. -1.
</event>
<event>
 5   0  0.1492639E-05  0.2429832E+04  0.7818609E-02  0.8428419E-01
       -1   -1    0    0    0  501  0.00000000000E+00  0.00000000000E+00  0.62542487563E+03  0.62542487565E+03  0.50400001928E-02 0.  1.
        1   -1    0    0  501    0  0.00000000000E+00  0.00000000000E+00 -0.23600297366E+04  0.23600297366E+04  0.50400001928E-02 0. -1.
    10030    2    1    2    0    0  0.00000000000E+00  0.00000000000E+00 -0.17346048610E+04  0.29854546122E+04  0.24298323436E+04 0.  0.
        5    1    3    3  502    0 -0.98663549909E+03 -0.43612649837E+03 -0.18062898922E+03  0.10937572182E+04  0.46999998093E+01 0.  1.
       -5    1    3    3    0  502  0.98663549909E+03  0.43612649837E+03 -0.15539758717E+04  0.18916973940E+04  0.46999998093E+01 0. -1.
</event>
<event>
 5   0  0.1492639E-05  0.2463922E+04  0.7818609E-02  0.8415952E-01
       -1   -1    0    0    0  501  0.00000000000E+00  0.00000000000E+00  0.76114973405E+03  0.76114973406E+03  0.50400001928E-02 0. -1.
        1   -1    0    0  501    0  0.00000000000E+00  0.00000000000E+00 -0.19939946208E+04  0.19939946208E+04  0.50400001928E-02 0.  1.
    10030    2    1    2    0    0  0.00000000000E+00  0.00000000000E+00 -0.12328448867E+04  0.27551443548E+04  0.24639224625E+04 0.  0.
        5    1    3    3  502    0 -0.10162878527E+04  0.57741997896E+03 -0.10515876738E+04  0.15722956329E+04  0.46999998093E+01 0.  1.
       -5    1    3    3    0  502  0.10162878527E+04 -0.57741997896E+03 -0.18125721291E+03  0.11828487219E+04  0.46999998093E+01 0. -1.
</event>
<event>
 5   0  0.1421242E-05  0.2505507E+04  0.7818609E-02  0.8401026E-01
        1   -1    0    0  501    0  0.00000000000E+00  0.00000000000E+00  0.24320501322E+04  0.24320501322E+04  0.50400001928E-02 0. -1.
       -1   -1    0    0    0  501  0.00000000000E+00  0.00000000000E+00 -0.64529576004E+03  0.64529576006E+03  0.50400001928E-02 0.  1.
    10030    2    1    2    0    0  0.00000000000E+00  0.00000000000E+00  0.17867543722E+04  0.30773458923E+04  0.25055072449E+04 0.  0.
        3    1    3    3  502    0 -0.21613749289E+01  0.20275979554E+03 -0.62500627652E+03  0.65707614636E+03  0.10100000352E+00 0.  1.
       -3    1    3    3    0  502  0.21613749289E+01 -0.20275979554E+03  0.24117606487E+04  0.24202697459E+04  0.10100000352E+00 0. -1.
</event>
<event>
 5   0  0.3650620E-05  0.2532053E+04  0.7818609E-02  0.8391655E-01
        2   -1    0    0  501    0  0.00000000000E+00  0.00000000000E+00  0.13289461357E+04  0.13289461357E+04  0.25500000920E-02 0. -1.
       -2   -1    0    0    0  501  0.00000000000E+00  0.00000000000E+00 -0.12060862557E+04  0.12060862557E+04  0.25500000920E-02 0.  1.
    10030    2    1    2    0    0  0.00000000000E+00  0.00000000000E+00  0.12285987996E+03  0.25350323915E+04  0.25320534504E+04 0.  0.
        3    1    3    3  502    0 -0.11213171021E+04 -0.58675196834E+03  0.26838707418E+02  0.12658397380E+04  0.10100000352E+00 0.  1.
       -3    1    3    3    0  502  0.11213171021E+04  0.58675196834E+03  0.96021172545E+02  0.12691926535E+04  0.10100000352E+00 0. -1.
</event>
<event>
 5   0  0.1429483E-05  0.2456929E+04  0.7818609E-02  0.8418492E-01
       -1   -1    0    0    0  501  0.00000000000E+00  0.00000000000E+00  0.12126330069E+04  0.12126330069E+04  0.50400001928E-02 0.  1.
        1   -1    0    0  501    0  0.00000000000E+00  0.00000000000E+00 -0.12445027913E+04  0.12445027913E+04  0.50400001928E-02 0. -1.
    10030    2    1    2    0    0  0.00000000000E+00  0.00000000000E+00 -0.31869784369E+02  0.24571357983E+04  0.24569291093E+04 0.  0.
        2    1    3    3  502    0  0.91891437476E+03 -0.14317314882E+03 -0.81863743876E+03  0.12389791906E+04  0.25500000920E-02 0. -1.
       -2    1    3    3    0  502 -0.91891437476E+03  0.14317314882E+03  0.78676765439E+03  0.12181566076E+04  0.25500000920E-02 0.  1.
</event>
<event>
 5   0  0.1421242E-05  0.2472864E+04  0.7818609E-02  0.8412717E-01
        1   -1    0    0  501    0  0.00000000000E+00  0.00000000000E+00  0.14339606788E+04  0.14339606788E+04  0.50400001928E-02 0.  1.
       -1   -1    0    0    0  501  0.00000000000E+00  0.00000000000E+00 -0.10661130724E+04  0.10661130724E+04  0.50400001928E-02 0. -1.
    10030    2    1    2    0    0  0.00000000000E+00  0.00000000000E+00  0.36784760641E+03  0.25000737512E+04  0.24728641086E+04 0.  0.
        3    1    3    3  502    0  0.96865697029E+03 -0.75861881488E+03  0.60244657278E+02  0.12318393813E+04  0.10100000352E+00 0.  1.
       -3    1    3    3    0  502 -0.96865697029E+03  0.75861881488E+03  0.30760294914E+03  0.12682343699E+04  0.10100000352E+00 0. -1.
</event>
<event>
 5   0  0.1429483E-05  0.2458800E+04  0.7818609E-02  0.8417812E-01
        1   -1    0    0  501    0  0.00000000000E+00  0.00000000000E+00  0.17384134899E+04  0.17384134899E+04  0.50400001928E-02 0. -1.
       -1   -1    0    0    0  501  0.00000000000E+00  0.00000000000E+00 -0.86942757256E+03  0.86942757257E+03  0.50400001928E-02 0.  1.
    10030    2    1    2    0    0  0.00000000000E+00  0.00000000000E+00  0.86898591732E+03  0.26078410625E+04  0.24588002120E+04 0.  0.
        2    1    3    3  502    0 -0.56428495296E+03 -0.69238581376E+01 -0.72393936699E+03  0.91790721483E+03  0.25500000920E-02 0.  1.
       -2    1    3    3    0  502  0.56428495296E+03  0.69238581376E+01  0.15929252843E+04  0.16899338476E+04  0.25500000920E-02 0. -1.
</event>
<event>
 5   0  0.1421242E-05  0.2499895E+04  0.7818609E-02  0.8403023E-01
        1   -1    0    0  501    0  0.00000000000E+00  0.00000000000E+00  0.31007126876E+04  0.31007126876E+04  0.50400001928E-02 0. -1.
       -1   -1    0    0    0  501  0.00000000000E+00  0.00000000000E+00 -0.50387398770E+03  0.50387398773E+03  0.50400001928E-02 0.  1.
    10030    2    1    2    0    0  0.00000000000E+00  0.00000000000E+00  0.25968386999E+04  0.36045866753E+04  0.24998947711E+04 0.  0.
        3    1    3    3  502    0 -0.84444413218E+03 -0.10319814792E+02 -0.30298034616E+02  0.84505051450E+03  0.10100000352E+00 0.  1.
       -3    1    3    3    0  502  0.84444413218E+03  0.10319814792E+02  0.26271367345E+04  0.27595361609E+04  0.10100000352E+00 0. -1.
</event>
<event>
 5   0  0.3579097E-05  0.2513234E+04  0.7818609E-02  0.8398286E-01
       -2   -1    0    0    0  501  0.00000000000E+00  0.00000000000E+00  0.57224470535E+03  0.57224470536E+03  0.25500000920E-02 0. -1.
        2   -1    0    0  501    0  0.00000000000E+00  0.00000000000E+00 -0.27594606248E+04  0.27594606248E+04  0.25500000920E-02 0.  1.
    10030    2    1    2    0    0  0.00000000000E+00  0.00000000000E+00 -0.21872159194E+04  0.33317053301E+04  0.25132343561E+04 0.  0.
        5    1    3    3  502    0  0.70125225809E+03 -0.10328234013E+04 -0.90340521549E+03  0.15409873397E+04  0.46999998093E+01 0.  1.
       -5    1    3    3    0  502 -0.70125225809E+03  0.10328234013E+04 -0.12838107039E+04  0.17907179904E+04  0.46999998093E+01 0. -1.
</event>
<event>
 5   0  0.3581449E-05  0.2634862E+04  0.7818609E-02  0.8356455E-01
        2   -1    0    0  501    0  0.00000000000E+00  0.00000000000E+00  0.22041139898E+04  0.22041139898E+04  0.25500000920E-02 0. -1.
       -2   -1    0    0    0  501  0.00000000000E+00  0.00000000000E+00 -0.78744751593E+03  0.78744751594E+03  0.25500000920E-02 0.  1.
    10030    2    1    2    0    0  0.00000000000E+00  0.00000000000E+00  0.14166664739E+04  0.29915615058E+04  0.26348617316E+04 0.  0.
        1    1    3    3  502    0  0.14654587766E+03 -0.23499562515E+03 -0.75402420989E+03  0.80327526242E+03  0.50400001928E-02 0.  1.
       -1    1    3    3    0  502 -0.14654587766E+03  0.23499562515E+03  0.21706906838E+04  0.21882862433E+04  0.50400001928E-02 0. -1.
</event>
<event>
 5   0  0.1456876E-05  0.2532386E+04  0.7818609E-02  0.8391538E-01
       -1   -1    0    0    0  501  0.00000000000E+00  0.00000000000E+00  0.24309043667E+04  0.24309043667E+04  0.50400001928E-02 0. -1.
        1   -1    0    0  501    0  0.00000000000E+00  0.00000000000E+00 -0.65952613584E+03  0.65952613586E+03  0.50400001928E-02 0.  1.
    10030    2    1    2    0    0  0.00000000000E+00  0.00000000000E+00  0.17713782308E+04  0.30904305025E+04  0.25323861977E+04 0.  0.
        1    1    3    3  502    0 -0.11456409159E+04 -0.11817199751E+03  0.24364913628E+03  0.11772096801E+04  0.50400001928E-02 0.  1.
       -1    1    3    3    0  502  0.11456409159E+04  0.11817199751E+03  0.15277290946E+04  0.19132208225E+04  0.50400001928E-02 0. -1.
</event>
<event>
 5   0  0.3704241E-05  0.2339860E+04  0.7818609E-02  0.8462368E-01
       -2   -1    0    0    0  501  0.00000000000E+00  0.00000000000E+00  0.13332349592E+04  0.13332349592E+04  0.25500000920E-02 0. -1.
        2   -1    0    0  501    0  0.00000000000E+00  0.00000000000E+00 -0.10266282404E+04  0.10266282404E+04  0.25500000920E-02 0.  1.
    10030    2    1    2    0    0  0.00000000000E+00  0.00000000000E+00  0.30660671880E+03  0.23598631995E+04  0.23398603891E+04 0.  0.
        2    1    3    3  502    0 -0.32887317649E+03  0.10154396692E+04 -0.32981292385E+03  0.11171624111E+04  0.25500000920E-02 0. -1.
       -2    1    3    3    0  502  0.32887317649E+03 -0.10154396692E+04  0.63641964265E+03  0.12427007884E+04  0.25500000920E-02 0.  1.
</event>
<event>
 5   0  0.3579097E-05  0.2476252E+04  0.7818609E-02  0.8411495E-01
        2   -1    0    0  501    0  0.00000000000E+00  0.00000000000E+00  0.17286870861E+04  0.17286870861E+04  0.25500000920E-02 0.  1.
       -2   -1    0    0    0  501  0.00000000000E+00  0.00000000000E+00 -0.88677437037E+03  0.88677437037E+03  0.25500000920E-02 0. -1.
    10030    2    1    2    0    0  0.00000000000E+00  0.00000000000E+00  0.84191271578E+03  0.26154614565E+04  0.24762515239E+04 0.  0.
        5    1    3    3  502    0  0.30659078443E+03 -0.77842085545E+03 -0.54303940329E+03  0.99742208759E+03  0.46999998093E+01 0. -1.
       -5    1    3    3    0  502 -0.30659078443E+03  0.77842085545E+03  0.13849521191E+04  0.16180393689E+04  0.46999998093E+01 0.  1.
</event>
<event>
 5   0  0.1429483E-05  0.2500774E+04  0.7818609E-02  0.8402710E-01
       -1   -1    0    0    0  501  0.00000000000E+00  0.00000000000E+00  0.78347878872E+03  0.78347878874E+03  0.50400001928E-02 0. -1.
        1   -1    0    0  501    0  0.00000000000E+00  0.00000000000E+00 -0.19955459135E+04  0.19955459135E+04  0.50400001928E-02 0.  1.
    10030    2    1    2    0    0  0.00000000000E+00  0.00000000000E+00 -0.12120671248E+04  0.27790247023E+04  0.25007741963E+04 0.  0.
        2    1    3    3  502    0 -0.61014176959E+03  0.11915271725E+03 -0.18116404109E+04  0.19153358263E+04  0.25500000920E-02 0.  1.
       -2    1    3    3    0  502  0.61014176959E+03 -0.11915271725E+03  0.59957328612E+03  0.86368887596E+03  0.25500000920E-02 0. -1.
</event>
<event>
 5   0  0.3704241E-05  0.2528188E+04  0.7818609E-02  0.8393012E-01
        2   -1    0    0  501    0  0.00000000000E+00  0.00000000000E+00  0.19893300434E+04  0.19893300434E+04  0.25500000920E-02 0. -1.
       -2   -1    0    0    0  501  0.00000000000E+00  0.00000000000E+00 -0.80325221265E+03  0.80325221265E+03  0.25500000920E-02 0.  1.
    10030    2    1    2    0    0  0.00000000000E+00  0.00000000000E+00  0.11860778307E+04  0.27925822560E+04  0.25281880935E+04 0.  0.
        2    1    3    3  502    0 -0.11222459279E+04  0.24924007002E+03  0.12344408800E+02  0.11496560006E+04  0.25500000920E-02 0.  1.
       -2    1    3    3    0  502  0.11222459279E+04 -0.24924007002E+03  0.11737334219E+04  0.16429262555E+04  0.25500000920E-02 0. -1.
</event>
<event>
 5   0  0.3650620E-05  0.2667268E+04  0.7818609E-02  0.8345704E-01
       -2   -1    0    0    0  501  0.00000000000E+00  0.00000000000E+00  0.11920318374E+04  0.11920318374E+04  0.25500000920E-02 0.  1.
        2   -1    0    0  501    0  0.00000000000E+00  0.00000000000E+00 -0.14920571809E+04  0.14920571809E+04  0.25500000920E-02 0. -1.
    10030    2    1    2    0    0  0.00000000000E+00  0.00000000000E+00 -0.30002534357E+03  0.26840890183E+04  0.26672680126E+04 0.  0.
        3    1    3    3  502    0  0.86320245848E+03  0.87266596143E+03 -0.67475617630E+03  0.14006999223E+04  0.10100000352E+00 0. -1.
       -3    1    3    3    0  502 -0.86320245848E+03 -0.87266596143E+03  0.37473083273E+03  0.12833890960E+04  0.10100000352E+00 0.  1.
</event>
<event>
 5   0  0.1201438E-05  0.2490576E+04  0.7818609E-02  0.8406351E-01
        3   -1    0    0  501    0  0.00000000000E+00  0.00000000000E+00  0.83058885957E+03  0.83058886571E+03  0.10100000352E+00 0.  1.
       -3   -1    0    0    0  501  0.00000000000E+00  0.00000000000E+00 -0.18670391385E+04  0.18670391413E+04  0.10100000352E+00 0. -1.
    10030    2    1    2    0    0  0.00000000000E+00  0.00000000000E+00 -0.10364502790E+04  0.26976280070E+04  0.24905757734E+04 0.  0.
        5    1    3    3  502    0 -0.75799555920E+03  0.43027665637E+03  0.44510974436E+03  0.97869302813E+03  0.46999998093E+01 0. -1.
       -5    1    3    3    0  502  0.75799555920E+03 -0.43027665637E+03 -0.14815600233E+04  0.17189349788E+04  0.46999998093E+01 0.  1.
</event>
<event>
 5   0  0.1492639E-05  0.2498169E+04  0.7818609E-02  0.8403638E-01
       -1   -1    0    0    0  501  0.00000000000E+00  0.00000000000E+00  0.88348176812E+03  0.88348176813E+03  0.50400001928E-02 0. -1.
        1   -1    0    0  501    0  0.00000000000E+00  0.00000000000E+00 -0.17659815863E+04  0.17659815863E+04  0.50400001928E-02 0.  1.
    10030    2    1    2    0    0  0.00000000000E+00  0.00000000000E+00 -0.88249981822E+03  0.26494633545E+04  0.24981693573E+04 0.  0.
        5    1    3    3  502    0  0.24929269813E+02 -0.84212410568E+03 -0.14192674318E+04  0.16504958681E+04  0.46999998093E+01 0.  1.
       -5    1    3    3    0  502 -0.24929269813E+02  0.84212410568E+03  0.53676761353E+03  0.99896748636E+03  0.46999998093E+01 0. -1.
</event>
<event>
 5   0  0.3581449E-05  0.2451832E+04  0.7818609E-02  0.8420349E-01
        2   -1    0    0  501    0  0.00000000000E+00  0.00000000000E+00  0.95254007840E+03  0.95254007840E+03  0.25500000920E-02 0. -1.
       -2   -1    0    0    0  501  0.00000000000E+00  0.00000000000E+00 -0.15777500849E+04  0.15777500849E+04  0.25500000920E-02 0.  1.
    10030    2    1    2    0    0  0.00000000000E+00  0.00000000000E+00 -0.62521000648E+03  0.25302901633E+04  0.24518321228E+04 0.  0.
        1    1    3    3  502    0 -0.59491158700E+03  0.20596611063E+03 -0.13981825947E+04  0.15333807104E+04  0.50400001928E-02 0.  1.
       -1    1    3    3    0  502  0.59491158700E+03 -0.20596611063E+03  0.77297258819E+03  0.99690945285E+03  0.50400001928E-02 0. -1.
</event>
<event>
 5   0  0.1502886E-05  0.2481401E+04  0.7818609E-02  0.8409642E-01
        1   -1    0    0  501    0  0.00000000000E+00  0.00000000000E+00  0.12577114002E+04  0.12577114002E+04  0.50400001928E-02 0.  1.
       -1   -1    0    0    0  501  0.00000000000E+00  0.00000000000E+00 -0.12239196871E+04  0.12239196871E+04  0.50400001928E-02 0. -1.
    10030    2    1    2    0    0  0.00000000000E+00  0.00000000000E+00  0.33791713086E+02  0.24816310872E+04  0.24814010102E+04 0.  0.
        4    1    3    3  502    0 -0.59112481097E+02  0.12228689230E+04 -0.18420347377E+03  0.12380772273E+04  0.12699999809E+01 0.  1.
       -4    1    3    3    0  502  0.59112481097E+02 -0.12228689230E+04  0.21799518686E+03  0.12435538599E+04  0.12699999809E+01 0. -1.
</event>
<event>
 5   0  0.1429483E-05  0.2507836E+04  0.7818609E-02  0.8400199E-01
        1   -1    0    0  501    0  0.00000000000E+00  0.00000000000E+00  0.15677594539E+04  0.15677594539E+04  0.50400001928E-02 0. -1.
       -1   -1    0    0    0  501  0.00000000000E+00  0.00000000000E+00 -0.10029025813E+04  0.10029025813E+04  0.50400001928E-02 0.  1.
    10030    2    1    2    0    0  0.00000000000E+00  0.00000000000E+00  0.56485687260E+03  0.25706620353E+04  0.25078357229E+04 0.  0.
        2    1    3    3  502    0  0.92901678432E+03  0.12156016055E+03  0.11366485886E+04  0.14730305740E+04  0.25500000920E-02 0. -1.
       -2    1    3    3    0  502 -0.92901678432E+03 -0.12156016055E+03 -0.57179171597E+03  0.10976314612E+04  0.25500000920E-02 0.  1.
</event>
<event>
 5   0  0.3578670E-05  0.2488864E+04  0.7818609E-02  0.8406963E-01
       -2   -1    0    0    0  501  0.00000000000E+00  0.00000000000E+00  0.10906795200E+04  0.10906795200E+04  0.25500000920E-02 0.  1.
        2   -1    0    0  501    0  0.00000000000E+00  0.00000000000E+00 -0.14198591040E+04  0.14198591040E+04  0.25500000920E-02 0. -1.
    10030    2    1    2    0    0  0.00000000000E+00  0.00000000000E+00 -0.32917958403E+03  0.25105386240E+04  0.24888641955E+04 0.  0.
        4    1    3    3  502    0  0.70921515946E+03 -0.16546779434E+03 -0.11824581542E+04  0.13887313033E+04  0.12699999809E+01 0. -1.
       -4    1    3    3    0  502 -0.70921515946E+03  0.16546779434E+03  0.85327857021E+03  0.11218073206E+04  0.12699999809E+01 0.  1.
</event>
<event>
 5   0  0.3704241E-05  0.2469431E+04  0.7818609E-02  0.8413957E-01
        2   -1    0    0  501    0  0.00000000000E+00  0.00000000000E+00  0.72304080228E+03  0.72304080229E+03  0.25500000920E-02 0. -1.
       -2   -1    0    0    0  501  0.00000000000E+00  0.00000000000E+00 -0.21084881228E+04  0.21084881228E+04  0.25500000920E-02 0.  1.
    10030    2    1    2    0    0  0.00000000000E+00  0.00000000000E+00 -0.13854473205E+04  0.28315289250E+04  0.24694314681E+04 0.  0.
        2    1    3    3  502    0 -0.91132406562E+03 -0.33895599363E+02  0.26171395352E+03  0.94876480631E+03  0.25500000920E-02 0. -1.
       -2    1    3    3    0  502  0.91132406562E+03  0.33895599363E+02 -0.16471612740E+04  0.18827641187E+04  0.25500000920E-02 0.  1.
</event>
<event>
 5   0  0.3579097E-05  0.2480802E+04  0.7818609E-02  0.8409857E-01
       -2   -1    0    0    0  501  0.00000000000E+00  0.00000000000E+00  0.19544808280E+04  0.19544808280E+04  0.25500000920E-02 0. -1.
        2   -1    0    0  501    0  0.00000000000E+00  0.00000000000E+00 -0.78721428615E+03  0.78721428616E+03  0.25500000920E-02 0.  1.
    10030    2    1    2    0    0  0.00000000000E+00  0.00000000000E+00  0.11672665419E+04  0.27416951142E+04  0.24808024749E+04 0.  0.
        5    1    3    3  502    0 -0.78464040916E+03  0.77157690364E+03  0.12161714655E+04  0.16401483510E+04  0.46999998093E+01 0. -1.
       -5    1    3    3    0  502  0.78464040916E+03 -0.77157690364E+03 -0.48904923589E+02  0.11015467632E+04  0.46999998093E+01 0.  1.
</event>
<event>
 5   0  0.1429483E-05  0.2473557E+04  0.7818609E-02  0.8412467E-01
        1   -1    0    0  501    0  0.00000000000E+00  0.00000000000E+00  0.14816490350E+04  0.14816490350E+04  0.50400001928E-02 0.  1.
       -1   -1    0    0    0  501  0.00000000000E+00  0.00000000000E+00 -0.10323773883E+04  0.10323773883E+04  0.50400001928E-02 0. -1.
    10030    2    1    2    0    0  0.00000000000E+00  0.00000000000E+00  0.44927164671E+03  0.25140264233E+04  0.24735569216E+04 0.  0.
        2    1    3    3  502    0  0.59777357192E+03  0.29191592896E+03  0.12843219422E+04  0.14463854963E+04  0.25500000920E-02 0.  1.
       -2    1    3    3    0  502 -0.59777357192E+03 -0.29191592896E+03 -0.83505029547E+03  0.10676409269E+04  0.25500000920E-02 0. -1.
</event>
<event>
 5   0  0.3578670E-05  0.2466565E+04  0.7818609E-02  0.8414995E-01
        2   -1    0    0  501    0  0.00000000000E+00  0.00000000000E+00  0.13545366395E+04  0.13545366395E+04  0.25500000920E-02 0. -1.
       -2   -1    0    0    0  501  0.00000000000E+00  0.00000000000E+00 -0.11228826284E+04  0.11228826284E+04  0.25500000920E-02 0.  1.
    10030    2    1    2    0    0  0.00000000000E+00  0.00000000000E+00  0.23165401119E+03  0.24774192679E+04  0.24665649491E+04 0.  0.
        4    1    3    3  502    0 -0.45407806943E+03 -0.81225241686E+03  0.92873597545E+03  0.13147216461E+04  0.12699999809E+01 0. -1.
       -4    1    3    3    0  502  0.45407806943E+03  0.81225241686E+03 -0.69708196426E+03  0.11626976218E+04  0.12699999809E+01 0.  1.
</event>
<event>
 5   0  0.3650620E-05  0.2354589E+04  0.7818609E-02  0.8456703E-01
       -2   -1    0    0    0  501  0.00000000000E+00  0.00000000000E+00  0.73356110701E+03  0.73356110702E+03  0.25500000920E-02 0.  1.
        2   -1    0    0  501    0  0.00000000000E+00  0.00000000000E+00 -0.18894428436E+04  0.18894428436E+04  0.25500000920E-02 0. -1.
    10030    2    1    2    0    0  0.00000000000E+00  0.00000000000E+00 -0.11558817366E+04  0.26230039507E+04  0.23545885280E+04 0.  0.
        3    1    3    3  502    0 -0.11424976086E+04 -0.56531795121E+01 -0.89438071664E+03  0.14509478352E+04  0.10100000352E+00 0. -1.
       -3    1    3    3    0  502  0.11424976086E+04  0.56531795121E+01 -0.26150101998E+03  0.11720561154E+04  0.10100000352E+00 0.  1.
</event>
<event>
 5   0  0.1421242E-05  0.2489365E+04  0.7818609E-02  0.8406784E-01
        1   -1    0    0  501    0  0.00000000000E+00  0.00000000000E+00  0.13460861099E+04  0.13460861099E+04  0.50400001928E-02 0. -1.
       -1   -1    0    0    0  501  0.00000000000E+00  0.00000000000E+00 -0.11509176682E+04  0.11509176682E+04  0.50400001928E-02 0.  1.
    10030    2    1    2    0    0  0.00000000000E+00  0.00000000000E+00  0.19516844166E+03  0.24970037781E+04  0.24893648080E+04 0.  0.
        3    1    3    3  502    0  0.35530649727E+03  0.31837748185E+02 -0.10985421942E+04  0.11550113903E+04  0.10100000352E+00 0.  1.
       -3    1    3    3    0  502 -0.35530649727E+03 -0.31837748185E+02  0.12937106359E+04  0.13419923877E+04  0.10100000352E+00 0. -1.
</event>
<event>
 5   0  0.3650620E-05  0.2563656E+04  0.7818609E-02  0.8380652E-01
       -2   -1    0    0    0  501  0.00000000000E+00  0.00000000000E+00  0.18632329698E+04  0.18632329698E+04  0.25500000920E-02 0.  1.
        2   -1    0    0  501    0  0.00000000000E+00  0.00000000000E+00 -0.88184488017E+03  0.88184488017E+03  0.25500000920E-02 0. -1.
    10030    2    1    2    0    0  0.00000000000E+00  0.00000000000E+00  0.98138808961E+03  0.27450778500E+04  0.25636555580E+04 0.  0.
        3    1    3    3  502    0 -0.63238953669E+02  0.72353994402E+03  0.16216456792E+04  0.17768635105E+04  0.10100000352E+00 0.  1.
       -3    1    3    3    0  502  0.63238953669E+02 -0.72353994402E+03 -0.64025758961E+03  0.96821433945E+03  0.10100000352E+00 0. -1.
</event>
<event>
 5   0  0.1429483E-05  0.2494685E+04  0.7818609E-02  0.8404881E-01
       -1   -1    0    0    0  501  0.00000000000E+00  0.00000000000E+00  0.10778675884E+04  0.10778675884E+04  0.50400001928E-02 0.  1.
        1   -1    0    0  501    0  0.00000000000E+00  0.00000000000E+00 -0.14434643277E+04  0.14434643277E+04  0.50400001928E-02 0. -1.
    10030    2    1    2    0    0  0.00000000000E+00  0.00000000000E+00 -0.36559673936E+03  0.25213319161E+04  0.24946850814E+04 0.  0.
        2    1    3    3  502    0  0.56543846059E+03 -0.44600821294E+03  0.84651974143E+03  0.11114133576E+04  0.25500000920E-02 0.  1.
       -2    1    3    3    0  502 -0.56543846059E+03  0.44600821294E+03 -0.12121164808E+04  0.14099185585E+04  0.25500000920E-02 0. -1.
</event>
<event>
 5   0  0.1456876E-05  0.2482674E+04  0.7818609E-02  0.8409184E-01
       -1   -1    0    0    0  501  0.00000000000E+00  0.00000000000E+00  0.10197248195E+04  0.10197248195E+04  0.50400001928E-02 0.  1.
        1   -1    0    0  501    0  0.00000000000E+00  0.00000000000E+00 -0.15111105691E+04  0.15111105691E+04  0.50400001928E-02 0. -1.
    10030    2    1    2    0    0  0.00000000000E+00  0.00000000000E+00 -0.49138574963E+03  0.25308353887E+04  0.24826735205E+04 0.  0.
        1    1    3    3  502    0 -0.60106576161E+03  0.71067553103E+03 -0.10829524309E+04  0.14279795964E+04  0.50400001928E-02 0.  1.
       -1    1    3    3    0  502  0.60106576161E+03 -0.71067553103E+03  0.59156668123E+03  0.11028557923E+04  0.50400001928E-02 0. -1.
</event>
<event>
 5   0  0.3578670E-05  0.2321530E+04  0.7818609E-02  0.8469480E-01
        2   -1    0    0  501    0  0.00000000000E+00  0.00000000000E+00  0.82296138409E+03  0.82296138409E+03  0.25500000920E-02 0.  1.
       -2   -1    0    0    0  501  0.00000000000E+00  0.00000000000E+00 -0.16372280880E+04  0.16372280880E+04  0.25500000920E-02 0. -1.
    10030    2    1    2    0    0  0.00000000000E+00  0.00000000000E+00 -0.81426670389E+03  0.24601894721E+04  0.23215300932E+04 0.  0.
        4    1    3    3  502    0 -0.19443203899E+02  0.34372653182E+03  0.76761083936E+03  0.84128115422E+03  0.12699999809E+01 0.  1.
       -4    1    3    3    0  502  0.19443203899E+02 -0.34372653182E+03 -0.15818775432E+04  0.16189083178E+04  0.12699999809E+01 0. -1.
</event>
<event>
 5   0  0.3578670E-05  0.2496762E+04  0.7818609E-02  0.8404140E-01
       -2   -1    0    0    0  501  0.00000000000E+00  0.00000000000E+00  0.87324426207E+03  0.87324426207E+03  0.25500000920E-02 0.  1.
        2   -1    0    0  501    0  0.00000000000E+00  0.00000000000E+00 -0.17846727475E+04  0.17846727475E+04  0.25500000920E-02 0. -1.
    10030    2    1    2    0    0  0.00000000000E+00  0.00000000000E+00 -0.91142848547E+03  0.26579170096E+04  0.24967620924E+04 0.  0.
        4    1    3    3  502    0 -0.10010299186E+04  0.59633541074E+01 -0.12497518955E+04  0.16012426027E+04  0.12699999809E+01 0. -1.
       -4    1    3    3    0  502  0.10010299186E+04 -0.59633541074E+01  0.33832341003E+03  0.10566744069E+04  0.12699999809E+01 0.  1.
</event>
<event>
 5   0  0.3578670E-05  0.2493043E+04  0.7818609E-02  0.8405468E-01
       -2   -1    0    0    0  501  0.00000000000E+00  0.00000000000E+00  0.93978499074E+03  0.93978499075E+03  0.25500000920E-02 0. -1.
        2   -1    0    0  501    0  0.00000000000E+00  0.00000000000E+00 -0.16533740637E+04  0.16533740637E+04  0.25500000920E-02 0.  1.
    10030    2    1    2    0    0  0.00000000000E+00  0.00000000000E+00 -0.71358907292E+03  0.25931590544E+04  0.24930432240E+04 0.  0.
        4    1    3    3  502    0 -0.46392398412E+03  0.20748569859E+03 -0.15407205114E+04  0.16223739043E+04  0.12699999809E+01 0.  1.
       -4    1    3    3    0  502  0.46392398412E+03 -0.20748569859E+03  0.82713143851E+03  0.97078515009E+03  0.12699999809E+01 0. -1.
</event>
<event>
 5   0  0.1421242E-05  0.2319023E+04  0.7818609E-02  0.8470458E-01
       -1   -1    0    0    0  501  0.00000000000E+00  0.00000000000E+00  0.10755304704E+04  0.10755304704E+04  0.50400001928E-02 0.  1.
        1   -1    0    0  501    0  0.00000000000E+00  0.00000000000E+00 -0.12500504296E+04  0.12500504296E+04  0.50400001928E-02 0. -1.
    10030    2    1    2    0    0  0.00000000000E+00  0.00000000000E+00 -0.17451995917E+03  0.23255809000E+04  0.23190233518E+04 0.  0.
        3    1    3    3  502    0 -0.10765195916E+04 -0.41761671162E+03 -0.19324310702E+03  0.11707438052E+04  0.10100000352E+00 0. -1.
       -3    1    3    3    0  502  0.10765195916E+04  0.41761671162E+03  0.18723147847E+02  0.11548370947E+04  0.10100000352E+00 0.  1.
</event>
<event>
 5   0  0.3579097E-05  0.2519105E+04  0.7818609E-02  0.8396211E-01
       -2   -1    0    0    0  501  0.00000000000E+00  0.00000000000E+00  0.81967193199E+03  0.81967193200E+03  0.25500000920E-02 0.  1.
        2   -1    0    0  501    0  0.00000000000E+00  0.00000000000E+00 -0.19354962870E+04  0.19354962870E+04  0.25500000920E-02 0. -1.
    10030    2    1    2    0    0  0.00000000000E+00  0.00000000000E+00 -0.11158243550E+04  0.27551682190E+04  0.25191045877E+04 0.  0.
        5    1    3    3  502    0 -0.26467935283E+03 -0.64828660864E+03 -0.17029789559E+04  0.18413283523E+04  0.46999998093E+01 0. -1.
       -5    1    3    3    0  502  0.26467935283E+03  0.64828660864E+03  0.58715460084E+03  0.91383986674E+03  0.46999998093E+01 0.  1.
</event>
<event>
 5   0  0.3650620E-05  0.2432300E+04  0.7818609E-02  0.8427509E-01
        2   -1    0    0  501    0  0.00000000000E+00  0.00000000000E+00  0.17395342161E+04  0.17395342161E+04  0.25500000920E-02 0. -1.
       -2   -1    0    0    0  501  0.00000000000E+00  0.00000000000E+00 -0.85023943947E+03  0.85023943948E+03  0.25500000920E-02 0.  1.
    10030    2    1    2    0    0  0.00000000000E+00  0.00000000000E+00  0.88929477662E+03  0.25897736556E+04  0.24322998144E+04 0.  0.
        3    1    3    3  502    0 -0.60430316344E+02  0.58448602281E+03 -0.68906362662E+03  0.90558512892E+03  0.10100000352E+00 0.  1.
       -3    1    3    3    0  502  0.60430316344E+02 -0.58448602281E+03  0.15783584032E+04  0.16841885266E+04  0.10100000352E+00 0. -1.
</event>
<event>
 5   0  0.1429483E-05  0.2536011E+04  0.7818609E-02  0.8390268E-01
       -1   -1    0    0    0  501  0.00000000000E+00  0.00000000000E+00  0.13733183119E+04  0.13733183119E+04  0.50400001928E-02 0.  1.
        1   -1    0    0  501    0  0.00000000000E+00  0.00000000000E+00 -0.11707687413E+04  0.11707687413E+04  0.50400001928E-02 0. -1.
    10030    2    1    2    0    0  0.00000000000E+00  0.00000000000E+00  0.20254957067E+03  0.25440870532E+04  0.25360111604E+04 0.  0.
        2    1    3    3  502    0 -0.21868518802E+03 -0.48896546096E+03 -0.10517013922E+04  0.11802483856E+04  0.25500000920E-02 0. -1.
       -2    1    3    3    0  502  0.21868518802E+03  0.48896546096E+03  0.12542509628E+04  0.13638386676E+04  0.25500000920E-02 0.  1.
</event>
<event>
 5   0  0.1456876E-05  0.2516689E+04  0.7818609E-02  0.8397064E-01
        1   -1    0    0  501    0  0.00000000000E+00  0.00000000000E+00  0.16796170887E+04  0.16796170887E+04  0.50400001928E-02 0. -1.
       -1   -1    0    0    0  501  0.00000000000E+00  0.00000000000E+00 -0.94273344763E+03  0.94273344764E+03  0.50400001928E-02 0.  1.
    10030    2    1    2    0    0  0.00000000000E+00  0.00000000000E+00  0.73688364110E+03  0.26223505364E+04  0.25166892607E+04 0.  0.
        1    1    3    3  502    0  0.90680988412E+03 -0.42075259476E+03  0.11647893398E+04  0.15349498748E+04  0.50400001928E-02 0. -1.
       -1    1    3    3    0  502 -0.90680988412E+03  0.42075259476E+03 -0.42790569867E+03  0.10874006616E+04  0.50400001928E-02 0.  1.
</event>
<event>
 5   0  0.1429483E-05  0.2509499E+04  0.7818609E-02  0.8399609E-01
        1   -1    0    0  501    0  0.00000000000E+00  0.00000000000E+00  0.11128682090E+04  0.11128682090E+04  0.50400001928E-02 0. -1.
       -1   -1    0    0    0  501  0.00000000000E+00  0.00000000000E+00 -0.14147193148E+04  0.14147193148E+04  0.50400001928E-02 0.  1.
    10030    2    1    2    0    0  0.00000000000E+00  0.00000000000E+00 -0.30185110580E+03  0.25275875238E+04  0.25094988743E+04 0.  0.
        2    1    3    3  502    0 -0.31020988666E+03  0.11456629885E+03 -0.13700387117E+04  0.14093834404E+04  0.25500000920E-02 0.  1.
       -2    1    3    3    0  502  0.31020988666E+03 -0.11456629885E+03  0.10681876059E+04  0.11182040833E+04  0.25500000920E-02 0. -1.
</event>
<event>
 5   0  0.3650620E-05  0.2489432E+04  0.7818609E-02  0.8406760E-01
        2   -1    0    0  501    0  0.00000000000E+00  0.00000000000E+00  0.13421284070E+04  0.13421284070E+04  0.25500000920E-02 0.  1.
       -2   -1    0    0    0  501  0.00000000000E+00  0.00000000000E+00 -0.11543734911E+04  0.11543734911E+04  0.25500000920E-02 0. -1.
    10030    2    1    2    0    0  0.00000000000E+00  0.00000000000E+00  0.18775491588E+03  0.24965018980E+04  0.24894316256E+04 0.  0.
        3    1    3    3  502    0  0.65360939886E+03  0.85535975352E+03  0.72052968213E+03  0.12953797078E+04  0.10100000352E+00 0.  1.
       -3    1    3    3    0  502 -0.65360939886E+03 -0.85535975352E+03 -0.53277476626E+03  0.12011221903E+04  0.10100000352E+00 0. -1.
</event>
<event>
 5   0  0.1429483E-05  0.2486982E+04  0.7818609E-02  0.8407638E-01
        1   -1    0    0  501    0  0.00000000000E+00  0.00000000000E+00  0.18195699049E+04  0.18195699049E+04  0.50400001928E-02 0.  1.
       -1   -1    0    0    0  501  0.00000000000E+00  0.00000000000E+00 -0.84979962006E+03  0.84979962008E+03  0.50400001928E-02 0. -1.
    10030    2    1    2    0    0  0.00000000000E+00  0.00000000000E+00  0.96977028483E+03  0.26693695250E+04  0.24869819572E+04 0.  0.
        2    1    3    3  502    0  0.68981960215E+03  0.88936687571E+03  0.10522787794E+04  0.15408163916E+04  0.25500000920E-02 0. -1.
       -2    1    3    3    0  502 -0.68981960215E+03 -0.88936687571E+03 -0.82508494564E+02  0.11285531334E+04  0.25500000920E-02 0.  1.
</event>
<event>
 5   0  0.3578670E-05  0.2504735E+04  0.7818609E-02  0.8401301E-01
        2   -1    0    0  501    0  0.00000000000E+00  0.00000000000E+00  0.14235723238E+04  0.14235723238E+04  0.25500000920E-02 0. -1.
       -2   -1    0    0    0  501  0.00000000000E+00  0.00000000000E+00 -0.11017524049E+04  0.11017524049E+04  0.25500000920E-02 0.  1.
    10030    2    1    2    0    0  0.00000000000E+00  0.00000000000E+00  0.32181991889E+03  0.25253247287E+04  0.25047349012E+04 0.  0.
        4    1    3    3  502    0 -0.62070335505E+03 -0.99851629116E+03 -0.27404707824E+03  0.12072327251E+04  0.12699999809E+01 0.  1.
       -4    1    3    3    0  502  0.62070335505E+03  0.99851629116E+03  0.59586699713E+03  0.13180920036E+04  0.12699999809E+01 0. -1.
</event>
<event>
 5   0  0.1421242E-05  0.2613286E+04  0.7818609E-02  0.8363702E-01
       -1   -1    0    0    0  501  0.00000000000E+00  0.00000000000E+00  0.15283592803E+04  0.15283592803E+04  0.50400001928E-02 0.  1.
        1   -1    0    0  501    0  0.00000000000E+00  0.00000000000E+00 -0.11170902766E+04  0.11170902766E+04  0.50400001928E-02 0. -1.
    10030    2    1    2    0    0  0.00000000000E+00  0.00000000000E+00  0.41126900370E+03  0.26454495569E+04  0.26132855115E+04 0.  0.
        3    1    3    3  502    0 -0.97302797989E+03 -0.64913653436E+03  0.79517118564E+03  0.14143758039E+04  0.10100000352E+00 0.  1.
       -3    1    3    3    0  502  0.97302797989E+03  0.64913653436E+03 -0.38390218193E+03  0.12310737530E+04  0.10100000352E+00 0. -1.
</event>
<event>
 5   0  0.1456876E-05  0.2505868E+04  0.7818609E-02  0.8400898E-01
        1   -1    0    0  501    0  0.00000000000E+00  0.00000000000E+00  0.13376364936E+04  0.13376364936E+04  0.50400001928E-02 0.  1.
       -1   -1    0    0    0  501  0.00000000000E+00  0.00000000000E+00 -0.11735951287E+04  0.11735951287E+04  0.50400001928E-02 0. -1.
    10030    2    1    2    0    0  0.00000000000E+00  0.00000000000E+00  0.16404136484E+03  0.25112316223E+04  0.25058680515E+04 0.  0.
        1    1    3    3  502    0 -0.68718628973E+03 -0.32010637939E+03 -0.91768686996E+03  0.11903118424E+04  0.50400001928E-02 0. -1.
       -1    1    3    3    0  502  0.68718628973E+03  0.32010637939E+03  0.10817282348E+04  0.13209197799E+04  0.50400001928E-02 0.  1.
</event>
<event>
 5   0  0.3578670E-05  0.2509011E+04  0.7818609E-02  0.8399782E-01
        2   -1    0    0  501    0  0.00000000000E+00  0.00000000000E+00  0.26864520995E+04  0.26864520995E+04  0.25500000920E-02 0.  1.
       -2   -1    0    0    0  501  0.00000000000E+00  0.00000000000E+00 -0.58582250617E+03  0.58582250618E+03  0.25500000920E-02 0. -1.
    10030    2    1    2    0    0  0.00000000000E+00  0.00000000000E+00  0.21006295934E+04  0.32722746057E+04  0.25090110416E+04 0.  0.
        4    1    3    3  502    0  0.10089491870E+04  0.32797363169E+03  0.17714002811E+03  0.10756046520E+04  0.12699999809E+01 0. -1.
       -4    1    3    3    0  502 -0.10089491870E+04 -0.32797363169E+03  0.19234895652E+04  0.21966699537E+04  0.12699999809E+01 0.  1.
</event>
<event>
 5   0  0.3579097E-05  0.2504790E+04  0.7818609E-02  0.8401281E-01
        2   -1    0    0  501    0  0.00000000000E+00  0.00000000000E+00  0.18031736567E+04  0.18031736567E+04  0.25500000920E-02 0. -1.
       -2   -1    0    0    0  501  0.00000000000E+00  0.00000000000E+00 -0.86985125748E+03  0.86985125748E+03  0.25500000920E-02 0.  1.
    10030    2    1    2    0    0  0.00000000000E+00  0.00000000000E+00  0.93332239924E+03  0.26730249142E+04  0.25047897099E+04 0.  0.
        5    1    3    3  502    0 -0.55184422171E+03  0.94659522357E+03  0.11139444951E+04  0.15625200768E+04  0.46999998093E+01 0. -1.
       -5    1    3    3    0  502  0.55184422171E+03 -0.94659522357E+03 -0.18062209587E+03  0.11105048374E+04  0.46999998093E+01 0.  1.
</event>
<event>
 5   0  0.1429483E-05  0.2557981E+04  0.7818609E-02  0.8382616E-01
       -1   -1    0    0    0  501  0.00000000000E+00  0.00000000000E+00  0.18813192256E+04  0.18813192256E+04  0.50400001928E-02 0.  1.
        1   -1    0    0  501    0  0.00000000000E+00  0.00000000000E+00 -0.86950543733E+03  0.86950543735E+03  0.50400001928E-02 0. -1.
    10030    2    1    2    0    0  0.00000000000E+00  0.00000000000E+00  0.10118137883E+04  0.27508246630E+04  0.25579814667E+04 0.  0.
        2    1    3    3  502    0  0.55075115820E+03  0.69764914137E+03 -0.48308613097E+03  0.10116389537E+04  0.25500000920E-02 0. -1.
       -2    1    3    3    0  502 -0.55075115820E+03 -0.69764914137E+03  0.14948999192E+04  0.17391857092E+04  0.25500000920E-02 0.  1.
</event>
<event>
 5   0  0.1502886E-05  0.2408314E+04  0.7818609E-02  0.8436398E-01
       -1   -1    0    0    0  501  0.00000000000E+00  0.00000000000E+00  0.15087743248E+04  0.15087743248E+04  0.50400001928E-02 0. -1.
        1   -1    0    0  501    0  0.00000000000E+00  0.00000000000E+00 -0.96104080915E+03  0.96104080917E+03  0.50400001928E-02 0.  1.
    10030    2    1    2    0    0  0.00000000000E+00  0.00000000000E+00  0.54773351567E+03  0.24698151340E+04  0.24083136822E+04 0.  0.
        4    1    3    3  502    0  0.11407755846E+03  0.22010126410E+03 -0.93458586042E+03  0.96690775114E+03  0.12699999809E+01 0.  1.
       -4    1    3    3    0  502 -0.11407755846E+03 -0.22010126410E+03  0.14823193761E+04  0.15029073829E+04  0.12699999809E+01 0. -1.
</event>
<event>
 5   0  0.1456876E-05  0.2637914E+04  0.7818609E-02  0.8355436E-01
       -1   -1    0    0    0  501  0.00000000000E+00  0.00000000000E+00  0.10420414721E+04  0.10420414721E+04  0.50400001928E-02 0.  1.
        1   -1    0    0  501    0  0.00000000000E+00  0.00000000000E+00 -0.16694604441E+04  0.16694604441E+04  0.50400001928E-02 0. -1.
    10030    2    1    2    0    0  0.00000000000E+00  0.00000000000E+00 -0.62741897196E+03  0.27115019162E+04  0.26379135838E+04 0.  0.
        1    1    3    3  502    0 -0.10376611935E+04 -0.81261191491E+03 -0.26161894479E+03  0.13436976405E+04  0.50400001928E-02 0.  1.
       -1    1    3    3    0  502  0.10376611935E+04  0.81261191491E+03 -0.36580002717E+03  0.13678042757E+04  0.50400001928E-02 0. -1.
</event>
<event>
 5   0  0.1492639E-05  0.2512852E+04  0.7818609E-02  0.8398421E-01
       -1   -1    0    0    0  501  0.00000000000E+00  0.00000000000E+00  0.15280533158E+04  0.15280533158E+04  0.50400001928E-02 0. -1.
        1   -1    0    0  501    0  0.00000000000E+00  0.00000000000E+00 -0.10330833548E+04  0.10330833548E+04  0.50400001928E-02 0.  1.
    10030    2    1    2    0    0  0.00000000000E+00  0.00000000000E+00  0.49496996102E+03  0.25611366707E+04  0.25128521213E+04 0.  0.
        5    1    3    3  502    0 -0.85201186240E+03 -0.15993977954E+03 -0.67942898868E+03  0.11014312450E+04  0.46999998093E+01 0.  1.
       -5    1    3    3    0  502  0.85201186240E+03  0.15993977954E+03  0.11743989497E+04  0.14597054257E+04  0.46999998093E+01 0. -1.
</event>
<event>
 5   0  0.1421242E-05  0.2736139E+04  0.7818609E-02  0.8323373E-01
        1   -1    0    0  501    0  0.00000000000E+00  0.00000000000E+00  0.15163177518E+04  0.15163177518E+04  0.50400001928E-02 0.  1.
       -1   -1    0    0    0  501  0.00000000000E+00  0.00000000000E+00 -0.12343155393E+04  0.12343155393E+04  0.50400001928E-02 0. -1.
    10030    2    1    2    0    0  0.00000000000E+00  0.00000000000E+00  0.28200221258E+03  0.27506332911E+04  0.27361392973E+04 0.  0.
        3    1    3    3  502    0 -0.13604288311E+04 -0.10605743475E+03  0.23949853500E+03  0.13854148629E+04  0.10100000352E+00 0.  1.
       -3    1    3    3    0  502  0.13604288311E+04  0.10605743475E+03  0.42503677579E+02  0.13652184282E+04  0.10100000352E+00 0. -1.
</event>
<event>
 5   0  0.3581449E-05  0.2482658E+04  0.7818609E-02  0.8409190E-01
        2   -1    0    0  501    0  0.00000000000E+00  0.00000000000E+00  0.13442441919E+04  0.13442441919E+04  0.25500000920E-02 0. -1.
       -2   -1    0    0    0  501  0.00000000000E+00  0.00000000000E+00 -0.11462932677E+04  0.11462932677E+04  0.25500000920E-02 0.  1.
    10030    2    1    2    0    0  0.00000000000E+00  0.00000000000E+00  0.19795092415E+03  0.24905374596E+04  0.24826583070E+04 0.  0.
        1    1    3    3  502    0 -0.85713644720E+03  0.67297173781E+03  0.69527274542E+03  0.12926631578E+04  0.50400001928E-02 0. -1.
       -1    1    3    3    0  502  0.85713644720E+03 -0.67297173781E+03 -0.49732182127E+03  0.11978743018E+04  0.50400001928E-02 0.  1.
</event>
<event>
 5   0  0.1492639E-05  0.2478374E+04  0.7818609E-02  0.8410731E-01
       -1   -1    0    0    0  501  0.00000000000E+00  0.00000000000E+00  0.23127744002E+04  0.23127744002E+04  0.50400001928E-02 0.  1.
        1   -1    0    0  501    0  0.00000000000E+00  0.00000000000E+00 -0.66395788887E+03  0.66395788889E+03  0.50400001928E-02 0. -1.
    10030    2    1    2    0    0  0.00000000000E+00  0.00000000000E+00  0.16488165113E+04  0.29767322891E+04  0.24783743125E+04 0.  0.
        5    1    3    3  502    0  0.90031374664E+03 -0.38216333194E+03  0.17382964289E+04  0.19945701841E+04  0.46999998093E+01 0.  1.
       -5    1    3    3    0  502 -0.90031374664E+03  0.38216333194E+03 -0.89479917632E+02  0.98216210492E+03  0.46999998093E+01 0. -1.
</event>
<event>
 5   0  0.1456876E-05  0.2483186E+04  0.7818609E-02  0.8409000E-01
       -1   -1    0    0    0  501  0.00000000000E+00  0.00000000000E+00  0.10177298424E+04  0.10177298424E+04  0.50400001928E-02 0.  1.
        1   -1    0    0  501    0  0.00000000000E+00  0.00000000000E+00 -0.15146982235E+04  0.15146982235E+04  0.50400001928E-02 0. -1.
    10030    2    1    2    0    0  0.00000000000E+00  0.00000000000E+00 -0.49696838109E+03  0.25324280659E+04  0.24831863275E+04 0.  0.
        1    1    3    3  502    0 -0.79872576782E+03 -0.42332322895E+03  0.61950333971E+03  0.10958785500E+04  0.50400001928E-02 0.  1.
       -1    1    3    3    0  502  0.79872576782E+03  0.42332322895E+03 -0.11164717208E+04  0.14365495159E+04  0.50400001928E-02 0. -1.
</event>
<event>
 5   0  0.1421242E-05  0.2525917E+04  0.7818609E-02  0.8393810E-01
       -1   -1    0    0    0  501  0.00000000000E+00  0.00000000000E+00  0.15186247640E+04  0.15186247640E+04  0.50400001928E-02 0.  1.
        1   -1    0    0  501    0  0.00000000000E+00  0.00000000000E+00 -0.10503349493E+04  0.10503349493E+04  0.50400001928E-02 0. -1.
    10030    2    1    2    0    0  0.00000000000E+00  0.00000000000E+00  0.46828981473E+03  0.25689597134E+04  0.25259173894E+04 0.  0.
        3    1    3    3  502    0  0.96903902466E+03 -0.40792450463E+03  0.94580107711E+03  0.14142060389E+04  0.10100000352E+00 0. -1.
       -3    1    3    3    0  502 -0.96903902466E+03  0.40792450463E+03 -0.47751126238E+03  0.11547536745E+04  0.10100000352E+00 0.  1.
</event>
<event>
 5   0  0.1502886E-05  0.2484741E+04  0.7818609E-02  0.8408442E-01
        1   -1    0    0  501    0  0.00000000000E+00  0.00000000000E+00  0.17139854163E+04  0.17139854163E+04  0.50400001928E-02 0.  1.
       -1   -1    0    0    0  501  0.00000000000E+00  0.00000000000E+00 -0.90052352299E+03  0.90052352300E+03  0.50400001928E-02 0. -1.
    10030    2    1    2    0    0  0.00000000000E+00  0.00000000000E+00  0.81346189332E+03  0.26145089393E+04  0.24847407796E+04 0.  0.
        4    1    3    3  502    0  0.56282875512E+03 -0.37468629795E+03  0.15034294228E+04  0.16484743467E+04  0.12699999809E+01 0.  1.
       -4    1    3    3    0  502 -0.56282875512E+03  0.37468629795E+03 -0.68996752950E+03  0.96603459261E+03  0.12699999809E+01 0. -1.
</event>
<event>
 5   0  0.1421242E-05  0.2425149E+04  0.7818609E-02  0.8430148E-01
        1   -1    0    0  501    0  0.00000000000E+00  0.00000000000E+00  0.43938517225E+03  0.43938517228E+03  0.50400001928E-02 0.  1.
       -1   -1    0    0    0  501  0.00000000000E+00  0.00000000000E+00 -0.33463497338E+04  0.33463497338E+04  0.50400001928E-02 0. -1.
    10030    2    1    2    0    0  0.00000000000E+00  0.00000000000E+00 -0.29069645615E+04  0.37857349060E+04  0.24251486175E+04 0.  0.
        3    1    3    3  502    0 -0.18912473139E+02  0.57889595593E+03 -0.31164455162E+04  0.31698124353E+04  0.10100000352E+00 0. -1.
       -3    1    3    3    0  502  0.18912473139E+02 -0.57889595593E+03  0.20948095465E+03  0.61592247076E+03  0.10100000352E+00 0.  1.
</event>
<event>
 5   0  0.3581449E-05  0.2482874E+04  0.7818609E-02  0.8409112E-01
        2   -1    0    0  501    0  0.00000000000E+00  0.00000000000E+00  0.21881481874E+04  0.21881481874E+04  0.25500000920E-02 0. -1.
       -2   -1    0    0    0  501  0.00000000000E+00  0.00000000000E+00 -0.70432400910E+03  0.70432400910E+03  0.25500000920E-02 0.  1.
    10030    2    1    2    0    0  0.00000000000E+00  0.00000000000E+00  0.14838241783E+04  0.28924721965E+04  0.24828735802E+04 0.  0.
        1    1    3    3  502    0 -0.55246416321E+03 -0.89215419087E+03 -0.30849697639E+02  0.10498130575E+04  0.50400001928E-02 0.  1.
       -1    1    3    3    0  502  0.55246416321E+03  0.89215419087E+03  0.15146738760E+04  0.18426591390E+04  0.50400001928E-02 0. -1.
</event>
<event>
 5   0  0.3579097E-05  0.2433580E+04  0.7818609E-02  0.8427038E-01
       -2   -1    0    0    0  501  0.00000000000E+00  0.00000000000E+00  0.10892516874E+04  0.10892516874E+04  0.25500000920E-02 0.  1.
        2   -1    0    0  501    0  0.00000000000E+00  0.00000000000E+00 -0.13592613448E+04  0.13592613448E+04  0.25500000920E-02 0. -1.
    10030    2    1    2    0    0  0.00000000000E+00  0.00000000000E+00 -0.27000965736E+03  0.24485130321E+04  0.24335798433E+04 0.  0.
        5    1    3    3  502    0 -0.35909692263E+03 -0.11470226763E+04 -0.32575724341E+03  0.12452917295E+04  0.46999998093E+01 0. -1.
       -5    1    3    3    0  502  0.35909692263E+03  0.11470226763E+04  0.55747586050E+02  0.12032213027E+04  0.46999998093E+01 0.  1.
</event>
<event>
 5   0  0.1421242E-05  0.2476843E+04  0.7818609E-02  0.8411282E-01
        1   -1    0    0  501    0  0.00000000000E+00  0.00000000000E+00  0.17650898780E+04  0.17650898780E+04  0.50400001928E-02 0. -1.
       -1   -1    0    0    0  501  0.00000000000E+00  0.00000000000E+00 -0.86890062125E+03  0.86890062126E+03  0.50400001928E-02 0.  1.
    10030    2    1    2    0    0  0.00000000000E+00  0.00000000000E+00  0.89618925672E+03  0.26339904992E+04  0.24768429030E+04 0.  0.
        3    1    3    3  502    0 -0.33284024358E+03  0.96795217574E+03  0.11894425912E+04  0.15692315732E+04  0.10100000352E+00 0. -1.
       -3    1    3    3    0  502  0.33284024358E+03 -0.96795217574E+03 -0.29325333448E+03  0.10647589261E+04  0.10100000352E+00 0.  1.
</event>
<event>
 5   0  0.1429483E-05  0.2493281E+04  0.7818609E-02  0.8405383E-01
        1   -1    0    0  501    0  0.00000000000E+00  0.00000000000E+00  0.71582472563E+03  0.71582472565E+03  0.50400001928E-02 0. -1.
       -1   -1    0    0    0  501  0.00000000000E+00  0.00000000000E+00 -0.21710795981E+04  0.21710795981E+04  0.50400001928E-02 0.  1.
    10030    2    1    2    0    0  0.00000000000E+00  0.00000000000E+00 -0.14552548725E+04  0.28869043238E+04  0.24932809370E+04 0.  0.
        2    1    3    3  502    0 -0.45747456832E+01 -0.39867571493E+03  0.64001164386E+03  0.75404121788E+03  0.25500000920E-02 0. -1.
       -2    1    3    3    0  502  0.45747456832E+01  0.39867571493E+03 -0.20952665164E+04  0.21328631059E+04  0.25500000920E-02 0.  1.
</event>
<event>
 5   0  0.1502886E-05  0.2455100E+04  0.7818609E-02  0.8419158E-01
        1   -1    0    0  501    0  0.00000000000E+00  0.00000000000E+00  0.20680300351E+04  0.20680300351E+04  0.50400001928E-02 0.  1.
       -1   -1    0    0    0  501  0.00000000000E+00  0.00000000000E+00 -0.72865426342E+03  0.72865426344E+03  0.50400001928E-02 0. -1.
    10030    2    1    2    0    0  0.00000000000E+00  0.00000000000E+00  0.13393757717E+04  0.27966842986E+04  0.24550999181E+04 0.  0.
        4    1    3    3  502    0 -0.15620692330E+03  0.10708556616E+04  0.96346802469E+01  0.10822323645E+04  0.12699999809E+01 0. -1.
       -4    1    3    3    0  502  0.15620692330E+03 -0.10708556616E+04  0.13297410915E+04  0.17144519340E+04  0.12699999809E+01 0.  1.
</event>
<event>
 5   0  0.1429483E-05  0.2481355E+04  0.7818609E-02  0.8409658E-01
       -1   -1    0    0    0  501  0.00000000000E+00  0.00000000000E+00  0.88793247316E+03  0.88793247318E+03  0.50400001928E-02 0.  1.
        1   -1    0    0  501    0  0.00000000000E+00  0.00000000000E+00 -0.17335558180E+04  0.17335558180E+04  0.50400001928E-02 0. -1.
    10030    2    1    2    0    0  0.00000000000E+00  0.00000000000E+00 -0.84562334480E+03  0.26214882912E+04  0.24813548757E+04 0.  0.
        2    1    3    3  502    0 -0.16956178971E+03 -0.68484109276E+02  0.87361615915E+03  0.89255054047E+03  0.25500000920E-02 0.  1.
       -2    1    3    3    0  502  0.16956178971E+03  0.68484109276E+02 -0.17192395040E+04  0.17289377507E+04  0.25500000920E-02 0. -1.
</event>
<event>
 5   0  0.1456876E-05  0.2402288E+04  0.7818609E-02  0.8438647E-01
        1   -1    0    0  501    0  0.00000000000E+00  0.00000000000E+00  0.11598606677E+04  0.11598606677E+04  0.50400001928E-02 0.  1.
       -1   -1    0    0    0  501  0.00000000000E+00  0.00000000000E+00 -0.12438971380E+04  0.12438971380E+04  0.50400001928E-02 0. -1.
    10030    2    1    2    0    0  0.00000000000E+00  0.00000000000E+00 -0.84036470295E+02  0.24037578057E+04  0.24022883799E+04 0.  0.
        1    1    3    3  502    0  0.35528551617E+03 -0.11441627476E+04 -0.12815906918E+03  0.12048904257E+04  0.50400001928E-02 0. -1.
       -1    1    3    3    0  502 -0.35528551617E+03  0.11441627476E+04  0.44122598889E+02  0.11988673800E+04  0.50400001928E-02 0.  1.
</event>
<event>
 5   0  0.1492639E-05  0.2401046E+04  0.7818609E-02  0.8439112E-01
       -1   -1    0    0    0  501  0.00000000000E+00  0.00000000000E+00  0.95958807381E+03  0.95958807382E+03  0.50400001928E-02 0. -1.
        1   -1    0    0  501    0  0.00000000000E+00  0.00000000000E+00 -0.15019526189E+04  0.15019526189E+04  0.50400001928E-02 0.  1.
    10030    2    1    2    0    0  0.00000000000E+00  0.00000000000E+00 -0.54236454510E+03  0.24615406927E+04  0.24010462891E+04 0.  0.
        5    1    3    3  502    0 -0.33600455576E+03  0.56260540478E+03 -0.13024132099E+04  0.14579870241E+04  0.46999998093E+01 0.  1.
       -5    1    3    3    0  502  0.33600455576E+03 -0.56260540478E+03  0.76004866483E+03  0.10035536687E+04  0.46999998093E+01 0. -1.
</event>
<event>
 5   0  0.3579097E-05  0.2473862E+04  0.7818609E-02  0.8412357E-01
       -2   -1    0    0    0  501  0.00000000000E+00  0.00000000000E+00  0.12885694776E+04  0.12885694776E+04  0.25500000920E-02 0. -1.
        2   -1    0    0  501    0  0.00000000000E+00  0.00000000000E+00 -0.11873615440E+04  0.11873615440E+04  0.25500000920E-02 0.  1.
    10030    2    1    2    0    0  0.00000000000E+00  0.00000000000E+00  0.10120793355E+03  0.24759310216E+04  0.24738616327E+04 0.  0.
        5    1    3    3  502    0 -0.91041128908E+03  0.79203249947E+03  0.32251405778E+03  0.12490803029E+04  0.46999998093E+01 0. -1.
       -5    1    3    3    0  502  0.91041128908E+03 -0.79203249947E+03 -0.22130612423E+03  0.12268507188E+04  0.46999998093E+01 0.  1.
</event>
<event>
 5   0  0.3578670E-05  0.2493509E+04  0.7818609E-02  0.8405302E-01
       -2   -1    0    0    0  501  0.00000000000E+00  0.00000000000E+00  0.59467461036E+03  0.59467461036E+03  0.25500000920E-02 0. -1.
        2   -1    0    0  501    0  0.00000000000E+00  0.00000000000E+00 -0.26138610647E+04  0.26138610647E+04  0.25500000920E-02 0.  1.
    10030    2    1    2    0    0  0.00000000000E+00  0.00000000000E+00 -0.20191864544E+04  0.32085356751E+04  0.24935090216E+04 0.  0.
        4    1    3    3  502    0 -0.99938266682E+03 -0.41598175965E+03 -0.18054995857E+04  0.21051453408E+04  0.12699999809E+01 0.  1.
       -4    1    3    3    0  502  0.99938266682E+03  0.41598175965E+03 -0.21368686872E+03  0.11033903343E+04  0.12699999809E+01 0. -1.
</event>
<event>
 5   0  0.1492639E-05  0.2462031E+04  0.7818609E-02  0.8416638E-01
        1   -1    0    0  501    0  0.00000000000E+00  0.00000000000E+00  0.15461916969E+04  0.15461916969E+04  0.50400001928E-02 0. -1.
       -1   -1    0    0    0  501  0.00000000000E+00  0.00000000000E+00 -0.98008487645E+03  0.98008487647E+03  0.50400001928E-02 0.  1.
    10030    2    1    2    0    0  0.00000000000E+00  0.00000000000E+00  0.56610682041E+03  0.25262765733E+04  0.24620309488E+04 0.  0.
        5    1    3    3  502    0 -0.10477839581E+04  0.45996521591E+03 -0.18261469584E+03  0.11587879184E+04  0.46999998093E+01 0.  1.
       -5    1    3    3    0  502  0.10477839581E+04 -0.45996521591E+03  0.74872151625E+03  0.13674886550E+04  0.46999998093E+01 0. -1.
</event>
<event>
 5   0  0.3650620E-05  0.2500775E+04  0.7818609E-02  0.8402709E-01
        2   -1    0    0  501    0  0.00000000000E+00  0.00000000000E+00  0.10698910404E+04  0.10698910404E+04  0.25500000920E-02 0. -1.
       -2   -1    0    0    0  501  0.00000000000E+00  0.00000000000E+00 -0.14613350891E+04  0.14613350891E+04  0.25500000920E-02 0.  1.
    10030    2    1    2    0    0  0.00000000000E+00  0.00000000000E+00 -0.39144404878E+03  0.25312261295E+04  0.25007753348E+04 0.  0.
        3    1    3    3  502    0  0.76350901722E+03  0.40450377417E+03 -0.11105526860E+04  0.14070879863E+04  0.10100000352E+00 0.  1.
       -3    1    3    3    0  502 -0.76350901722E+03 -0.40450377417E+03  0.71910863720E+03  0.11241381432E+04  0.10100000352E+00 0. -1.
</event>
<event>
 5   0  0.3578670E-05  0.2504957E+04  0.7818609E-02  0.8401222E-01
       -2   -1    0    0    0  501  0.00000000000E+00  0.00000000000E+00  0.11955283126E+04  0.11955283126E+04  0.25500000920E-02 0. -1.
        2   -1    0    0  501    0  0.00000000000E+00  0.00000000000E+00 -0.13121419553E+04  0.13121419553E+04  0.25500000920E-02 0.  1.
    10030    2    1    2    0    0  0.00000000000E+00  0.00000000000E+00 -0.11661364276E+03  0.25076702679E+04  0.25049573711E+04 0.  0.
        4    1    3    3  502    0  0.20511229780E+03  0.84888938652E+03  0.84044998432E+03  0.12120404425E+04  0.12699999809E+01 0. -1.
       -4    1    3    3    0  502 -0.20511229780E+03 -0.84888938652E+03 -0.95706362708E+03  0.12956298254E+04  0.12699999809E+01 0.  1.
</event>
<event>
 5   0  0.3578670E-05  0.2513310E+04  0.7818609E-02  0.8398259E-01
        2   -1    0    0  501    0  0.00000000000E+00  0.00000000000E+00  0.57451641478E+03  0.57451641479E+03  0.25500000920E-02 0. -1.
       -2   -1    0    0    0  501  0.00000000000E+00  0.00000000000E+00 -0.27487147283E+04  0.27487147283E+04  0.25500000920E-02 0.  1.
    10030    2    1    2    0    0  0.00000000000E+00  0.00000000000E+00 -0.21741983135E+04  0.33232311431E+04  0.25133099538E+04 0.  0.
        4    1    3    3  502    0  0.75253162338E+03  0.65083061560E+03 -0.21021345006E+04  0.23256946072E+04  0.12699999809E+01 0.  1.
       -4    1    3    3    0  502 -0.75253162338E+03 -0.65083061560E+03 -0.72063812894E+02  0.99753653588E+03  0.12699999809E+01 0. -1.
</event>
<event>
 5   0  0.1456876E-05  0.2507306E+04  0.7818609E-02  0.8400387E-01
        1   -1    0    0  501    0  0.00000000000E+00  0.00000000000E+00  0.14080907440E+04  0.14080907440E+04  0.50400001928E-02 0. -1.
       -1   -1    0    0    0  501  0.00000000000E+00  0.00000000000E+00 -0.11161537076E+04  0.11161537076E+04  0.50400001928E-02 0.  1.
    10030    2    1    2    0    0  0.00000000000E+00  0.00000000000E+00  0.29193703644E+03  0.25242444516E+04  0.25073058885E+04 0.  0.
        1    1    3    3  502    0  0.82576526412E+03 -0.94148357405E+03  0.20437868291E+03  0.12688775503E+04  0.50400001928E-02 0.  1.
       -1    1    3    3    0  502 -0.82576526412E+03  0.94148357405E+03  0.87558353526E+02  0.12553669013E+04  0.50400001928E-02 0. -1.
</event>
<event>
 5   0  0.1492639E-05  0.2516889E+04  0.7818609E-02  0.8396993E-01
        1   -1    0    0  501    0  0.00000000000E+00  0.00000000000E+00  0.16996451201E+04  0.16996451201E+04  0.50400001928E-02 0.  1.
       -1   -1    0    0    0  501  0.00000000000E+00  0.00000000000E+00 -0.93177228901E+03  0.93177228903E+03  0.50400001928E-02 0. -1.
    10030    2    1    2    0    0  0.00000000000E+00  0.00000000000E+00  0.76787283105E+03  0.26314174091E+04  0.25168887334E+04 0.  0.
        5    1    3    3  502    0  0.97597621762E+03 -0.58377092181E+03 -0.17941671173E+03  0.11513168604E+04  0.46999998093E+01 0. -1.
       -5    1    3    3    0  502 -0.97597621762E+03  0.58377092181E+03  0.94728954278E+03  0.14801005487E+04  0.46999998093E+01 0.  1.
</event>
<event>
 5   0  0.1421242E-05  0.2140603E+04  0.7818609E-02  0.8543566E-01
        1   -1    0    0  501    0  0.00000000000E+00  0.00000000000E+00  0.10200006345E+04  0.10200006345E+04  0.50400001928E-02 0.  1.
       -1   -1    0    0    0  501  0.00000000000E+00  0.00000000000E+00 -0.11230824719E+04  0.11230824719E+04  0.50400001928E-02 0. -1.
    10030    2    1    2    0    0  0.00000000000E+00  0.00000000000E+00 -0.10308183741E+03  0.21430831064E+04  0.21406025637E+04 0.  0.
        3    1    3    3  502    0 -0.14959731036E+03  0.89529010073E+03 -0.61931457841E+03  0.10988513443E+04  0.10100000352E+00 0. -1.
       -3    1    3    3    0  502  0.14959731036E+03 -0.89529010073E+03  0.51623274100E+03  0.10442317620E+04  0.10100000352E+00 0.  1.
</event>
<event>
 5   0  0.3581449E-05  0.2463733E+04  0.7818609E-02  0.8416021E-01
       -2   -1    0    0    0  501  0.00000000000E+00  0.00000000000E+00  0.97180470371E+03  0.97180470371E+03  0.25500000920E-02 0. -1.
        2   -1    0    0  501    0  0.00000000000E+00  0.00000000000E+00 -0.15615220710E+04  0.15615220710E+04  0.25500000920E-02 0.  1.
    10030    2    1    2    0    0  0.00000000000E+00  0.00000000000E+00 -0.58971736729E+03  0.25333267747E+04  0.24637325289E+04 0.  0.
        1    1    3    3  502    0  0.39481496881E+03  0.61835059357E+03 -0.13123864264E+04  0.15035273354E+04  0.50400001928E-02 0.  1.
       -1    1    3    3    0  502 -0.39481496881E+03 -0.61835059357E+03  0.72266905909E+03  0.10297994393E+04  0.50400001928E-02 0. -1.
</event>
<event>
 5   0  0.1502886E-05  0.2609442E+04  0.7818609E-02  0.8365001E-01
        1   -1    0    0  501    0  0.00000000000E+00  0.00000000000E+00  0.14047748953E+04  0.14047748954E+04  0.50400001928E-02 0.  1.
       -1   -1    0    0    0  501  0.00000000000E+00  0.00000000000E+00 -0.12117929796E+04  0.12117929796E+04  0.50400001928E-02 0. -1.
    10030    2    1    2    0    0  0.00000000000E+00  0.00000000000E+00  0.19298191574E+03  0.26165678750E+04  0.26094415925E+04 0.  0.
        4    1    3    3  502    0 -0.68442366570E+03 -0.74810819887E+03  0.91982596252E+03  0.13690080517E+04  0.12699999809E+01 0.  1.
       -4    1    3    3    0  502  0.68442366570E+03  0.74810819887E+03 -0.72684404678E+03  0.12475598233E+04  0.12699999809E+01 0. -1.
</event>
<event>
 5   0  0.3650620E-05  0.2474414E+04  0.7818609E-02  0.8412158E-01
        2   -1    0    0  501    0  0.00000000000E+00  0.00000000000E+00  0.11452433377E+04  0.11452433377E+04  0.25500000920E-02 0. -1.
       -2   -1    0    0    0  501  0.00000000000E+00  0.00000000000E+00 -0.13365554821E+04  0.13365554821E+04  0.25500000920E-02 0.  1.
    10030    2    1    2    0    0  0.00000000000E+00  0.00000000000E+00 -0.19131214441E+03  0.24817988199E+04  0.24744140813E+04 0.  0.
        3    1    3    3  502    0 -0.10542561378E+04 -0.29378428629E+03 -0.67436682980E+03  0.12855099542E+04  0.10100000352E+00 0.  1.
       -3    1    3    3    0  502  0.10542561378E+04  0.29378428629E+03  0.48305468539E+03  0.11962888657E+04  0.10100000352E+00 0. -1.
</event>
<event>
 5   0  0.1492639E-05  0.2494892E+04  0.7818609E-02  0.8404808E-01
        1   -1    0    0  501    0  0.00000000000E+00  0.00000000000E+00  0.13363559473E+04  0.13363559473E+04  0.50400001928E-02 0.  1.
       -1   -1    0    0    0  501  0.00000000000E+00  0.00000000000E+00 -0.11644512431E+04  0.11644512431E+04  0.50400001928E-02 0. -1.
    10030    2    1    2    0    0  0.00000000000E+00  0.00000000000E+00  0.17190470419E+03  0.25008071905E+04  0.24948918567E+04 0.  0.
        5    1    3    3  502    0 -0.25964971198E+03  0.11636214758E+04  0.45379155768E+03  0.12756887472E+04  0.46999998093E+01 0.  1.
       -5    1    3    3    0  502  0.25964971198E+03 -0.11636214758E+04 -0.28188685349E+03  0.12251184433E+04  0.46999998093E+01 0. -1.
</event>
<event>
 5   0  0.3650620E-05  0.2458443E+04  0.7818609E-02  0.8417942E-01
       -2   -1    0    0    0  501  0.00000000000E+00  0.00000000000E+00  0.10951966531E+04  0.10951966531E+04  0.25500000920E-02 0.  1.
        2   -1    0    0  501    0  0.00000000000E+00  0.00000000000E+00 -0.13796479188E+04  0.13796479188E+04  0.25500000920E-02 0. -1.
    10030    2    1    2    0    0  0.00000000000E+00  0.00000000000E+00 -0.28445126571E+03  0.24748445718E+04  0.24584432334E+04 0.  0.
        3    1    3    3  502    0 -0.57767830483E+03 -0.24249635353E+03  0.92240690015E+03  0.11150565927E+04  0.10100000352E+00 0.  1.
       -3    1    3    3    0  502  0.57767830483E+03  0.24249635353E+03 -0.12068581659E+04  0.13597879791E+04  0.10100000352E+00 0. -1.
</event>
<event>
 5   0  0.3581449E-05  0.2492836E+04  0.7818609E-02  0.8405542E-01
       -2   -1    0    0    0  501  0.00000000000E+00  0.00000000000E+00  0.13097575346E+04  0.13097575346E+04  0.25500000920E-02 0. -1.
        2   -1    0    0  501    0  0.00000000000E+00  0.00000000000E+00 -0.11861413231E+04  0.11861413231E+04  0.25500000920E-02 0.  1.
    10030    2    1    2    0    0  0.00000000000E+00  0.00000000000E+00  0.12361621156E+03  0.24958988577E+04  0.24928357628E+04 0.  0.
        1    1    3    3  502    0  0.42815770449E+03 -0.27167202789E+03 -0.10782010123E+04  0.11914873620E+04  0.50400001928E-02 0.  1.
       -1    1    3    3    0  502 -0.42815770449E+03  0.27167202789E+03  0.12018172239E+04  0.13044114958E+04  0.50400001928E-02 0. -1.
</event>
<event>
 5   0  0.1492639E-05  0.2510043E+04  0.7818609E-02  0.8399416E-01
        1   -1    0    0  501    0  0.00000000000E+00  0.00000000000E+00  0.16747383586E+04  0.16747383586E+04  0.50400001928E-02 0.  1.
       -1   -1    0    0    0  501  0.00000000000E+00  0.00000000000E+00 -0.94049239794E+03  0.94049239795E+03  0.50400001928E-02 0. -1.
    10030    2    1    2    0    0  0.00000000000E+00  0.00000000000E+00  0.73424596065E+03  0.26152307566E+04  0.25100427844E+04 0.  0.
        5    1    3    3  502    0  0.21783656082E+03 -0.18142798807E+03 -0.90668546690E+03  0.94998395142E+03  0.46999998093E+01 0. -1.
       -5    1    3    3    0  502 -0.21783656082E+03  0.18142798807E+03  0.16409314275E+04  0.16652468051E+04  0.46999998093E+01 0.  1.
</event>
<event>
 5   0  0.1429483E-05  0.2543187E+04  0.7818609E-02  0.8387759E-01
       -1   -1    0    0    0  501  0.00000000000E+00  0.00000000000E+00  0.10713761628E+04  0.10713761628E+04  0.50400001928E-02 0.  1.
        1   -1    0    0  501    0  0.00000000000E+00  0.00000000000E+00 -0.15092274908E+04  0.15092274908E+04  0.50400001928E-02 0. -1.
    10030    2    1    2    0    0  0.00000000000E+00  0.00000000000E+00 -0.43785132798E+03  0.25806036536E+04  0.25431872584E+04 0.  0.
        2    1    3    3  502    0 -0.89405588942E+03 -0.67635835810E+03 -0.82788314057E+03  0.13936237141E+04  0.25500000920E-02 0. -1.
       -2    1    3    3    0  502  0.89405588942E+03  0.67635835810E+03  0.39003181259E+03  0.11869799395E+04  0.25500000920E-02 0.  1.
</event>
<event>
 5   0  0.3704241E-05  0.2532929E+04  0.7818609E-02  0.8391348E-01
        2   -1    0    0  501    0  0.00000000000E+00  0.00000000000E+00  0.19078488348E+04  0.19078488348E+04  0.25500000920E-02 0. -1.
       -2   -1    0    0    0  501  0.00000000000E+00  0.00000000000E+00 -0.84070174094E+03  0.84070174094E+03  0.25500000920E-02 0.  1.
    10030    2    1    2    0    0  0.00000000000E+00  0.00000000000E+00  0.10671470939E+04  0.27485505758E+04  0.25329286108E+04 0.  0.
        2    1    3    3  502    0  0.11104165508E+04  0.81094389301E+02  0.11885544234E+04  0.16285769351E+04  0.25500000920E-02 0. -1.
       -2    1    3    3    0  502 -0.11104165508E+04 -0.81094389301E+02 -0.12140732949E+03  0.11199736407E+04  0.25500000920E-02 0.  1.
</event>
<event>
 5   0  0.3704241E-05  0.2569271E+04  0.7818609E-02  0.8378715E-01
        2   -1    0    0  501    0  0.00000000000E+00  0.00000000000E+00  0.16228456740E+04  0.16228456740E+04  0.25500000920E-02 0. -1.
       -2   -1    0    0    0  501  0.00000000000E+00  0.00000000000E+00 -0.10169104210E+04  0.10169104210E+04  0.25500000920E-02 0.  1.
    10030    2    1    2    0    0  0.00000000000E+00  0.00000000000E+00  0.60593525304E+03  0.26397560950E+04  0.25692712411E+04 0.  0.
        2    1    3    3  502    0  0.56419070507E+03 -0.96501258884E+03  0.95336505323E+03  0.14691716622E+04  0.25500000920E-02 0.  1.
       -2    1    3    3    0  502 -0.56419070507E+03  0.96501258884E+03 -0.34742980019E+03  0.11705844328E+04  0.25500000920E-02 0. -1.
</event>
<event>
 5   0  0.1421242E-05  0.2495835E+04  0.7818609E-02  0.8404471E-01
       -1   -1    0    0    0  501  0.00000000000E+00  0.00000000000E+00  0.13946865631E+04  0.13946865631E+04  0.50400001928E-02 0.  1.
        1   -1    0    0  501    0  0.00000000000E+00  0.00000000000E+00 -0.11165934690E+04  0.11165934690E+04  0.50400001928E-02 0. -1.
    10030    2    1    2    0    0  0.00000000000E+00  0.00000000000E+00  0.27809309417E+03  0.25112800321E+04  0.24958348565E+04 0.  0.
        3    1    3    3  502    0 -0.90556932525E+03  0.69329025863E+03  0.64872909558E+03  0.13120810323E+04  0.10100000352E+00 0.  1.
       -3    1    3    3    0  502  0.90556932525E+03 -0.69329025863E+03 -0.37063600141E+03  0.11991989999E+04  0.10100000352E+00 0. -1.
</event>
<event>
 5   0  0.1429483E-05  0.2494972E+04  0.7818609E-02  0.8404779E-01
        1   -1    0    0  501    0  0.00000000000E+00  0.00000000000E+00  0.20912392297E+04  0.20912392297E+04  0.50400001928E-02 0. -1.
       -1   -1    0    0    0  501  0.00000000000E+00  0.00000000000E+00 -0.74416249259E+03  0.74416249261E+03  0.50400001928E-02 0.  1.
    10030    2    1    2    0    0  0.00000000000E+00  0.00000000000E+00  0.13470767371E+04  0.28354017223E+04  0.24949723829E+04 0.  0.
        2    1    3    3  502    0 -0.98345303758E+02  0.73211275857E+02 -0.73729902708E+03  0.74742327032E+03  0.25500000920E-02 0.  1.
       -2    1    3    3    0  502  0.98345303758E+02 -0.73211275857E+02  0.20843757642E+04  0.20879784520E+04  0.25500000920E-02 0. -1.
</event>
<event>
 5   0  0.3581449E-05  0.2463038E+04  0.7818609E-02  0.8416273E-01
       -2   -1    0    0    0  501  0.00000000000E+00  0.00000000000E+00  0.11514257854E+04  0.11514257854E+04  0.25500000920E-02 0. -1.
        2   -1    0    0  501    0  0.00000000000E+00  0.00000000000E+00 -0.13171839651E+04  0.13171839651E+04  0.25500000920E-02 0.  1.
    10030    2    1    2    0    0  0.00000000000E+00  0.00000000000E+00 -0.16575817964E+03  0.24686097505E+04  0.24630384338E+04 0.  0.
        1    1    3    3  502    0 -0.28994055441E+03 -0.30519542518E+03  0.10770761506E+04  0.11564180934E+04  0.50400001928E-02 0. -1.
       -1    1    3    3    0  502  0.28994055441E+03  0.30519542518E+03 -0.12428343302E+04  0.13121916571E+04  0.50400001928E-02 0.  1.
</event>
<event>
 5   0  0.1502886E-05  0.2509957E+04  0.7818609E-02  0.8399447E-01
       -1   -1    0    0    0  501  0.00000000000E+00  0.00000000000E+00  0.11042080787E+04  0.11042080787E+04  0.50400001928E-02 0.  1.
        1   -1    0    0  501    0  0.00000000000E+00  0.00000000000E+00 -0.14263351152E+04  0.14263351153E+04  0.50400001928E-02 0. -1.
    10030    2    1    2    0    0  0.00000000000E+00  0.00000000000E+00 -0.32212703659E+03  0.25305431939E+04  0.25099567782E+04 0.  0.
        4    1    3    3  502    0 -0.35431678390E+03 -0.95897746283E+02  0.10488763788E+04  0.11112515611E+04  0.12699999809E+01 0.  1.
       -4    1    3    3    0  502  0.35431678390E+03  0.95897746283E+02 -0.13710034154E+04  0.14192916328E+04  0.12699999809E+01 0. -1.
</event>
<event>
 5   0  0.3581449E-05  0.2424185E+04  0.7818609E-02  0.8430504E-01
        2   -1    0    0  501    0  0.00000000000E+00  0.00000000000E+00  0.20646076711E+04  0.20646076711E+04  0.25500000920E-02 0.  1.
       -2   -1    0    0    0  501  0.00000000000E+00  0.00000000000E+00 -0.71159687970E+03  0.71159687970E+03  0.25500000920E-02 0. -1.
    10030    2    1    2    0    0  0.00000000000E+00  0.00000000000E+00  0.13530107914E+04  0.27762045508E+04  0.24241851221E+04 0.  0.
        1    1    3    3  502    0 -0.91118480765E+03  0.55028655031E+03  0.12583605262E+02  0.10645334134E+04  0.50400001928E-02 0. -1.
       -1    1    3    3    0  502  0.91118480765E+03 -0.55028655031E+03  0.13404271861E+04  0.17116711374E+04  0.50400001928E-02 0.  1.
</event>
<event>
 5   0  0.1456876E-05  0.2506519E+04  0.7818609E-02  0.8400667E-01
       -1   -1    0    0    0  501  0.00000000000E+00  0.00000000000E+00  0.84290744754E+03  0.84290744756E+03  0.50400001928E-02 0. -1.
        1   -1    0    0  501    0  0.00000000000E+00  0.00000000000E+00 -0.18633829098E+04  0.18633829098E+04  0.50400001928E-02 0.  1.
    10030    2    1    2    0    0  0.00000000000E+00  0.00000000000E+00 -0.10204754622E+04  0.27062903573E+04  0.25065189665E+04 0.  0.
        1    1    3    3  502    0 -0.67406024726E+03 -0.31328612702E+03 -0.15996947804E+04  0.17639526085E+04  0.50400001928E-02 0.  1.
       -1    1    3    3    0  502  0.67406024726E+03  0.31328612702E+03  0.57921931822E+03  0.94233774886E+03  0.50400001928E-02 0. -1.
</event>
<event>
 5   0  0.3578670E-05  0.2474119E+04  0.7818609E-02  0.8412264E-01
        2   -1    0    0  501    0  0.00000000000E+00  0.00000000000E+00  0.99542916455E+03  0.99542916456E+03  0.25500000920E-02 0.  1.
       -2   -1    0    0    0  501  0.00000000000E+00  0.00000000000E+00 -0.15373429850E+04  0.15373429850E+04  0.25500000920E-02 0. -1.
    10030    2    1    2    0    0  0.00000000000E+00  0.00000000000E+00 -0.54191382044E+03  0.25327721495E+04  0.24741188679E+04 0.  0.
        4    1    3    3  502    0  0.16223120707E+03 -0.23962450811E+03  0.96029274691E+03  0.10029469787E+04  0.12699999809E+01 0.  1.
       -4    1    3    3    0  502 -0.16223120707E+03  0.23962450811E+03 -0.15022065674E+04  0.15298251708E+04  0.12699999809E+01 0. -1.
</event>
<event>
 5   0  0.3650620E-05  0.2467861E+04  0.7818609E-02  0.8414526E-01
       -2   -1    0    0    0  501  0.00000000000E+00  0.00000000000E+00  0.17929312855E+04  0.17929312855E+04  0.25500000920E-02 0.  1.
        2   -1    0    0  501    0  0.00000000000E+00  0.00000000000E+00 -0.84921510877E+03  0.84921510877E+03  0.25500000920E-02 0. -1.
    10030    2    1    2    0    0  0.00000000000E+00  0.00000000000E+00  0.94371617677E+03  0.26421463943E+04  0.24678608848E+04 0.  0.
        3    1    3    3  502    0  0.19972054472E+03  0.10376194536E+04  0.11540736603E+04  0.15647454905E+04  0.10100000352E+00 0.  1.
       -3    1    3    3    0  502 -0.19972054472E+03 -0.10376194536E+04 -0.21035748354E+03  0.10774009038E+04  0.10100000352E+00 0. -1.
</event>
<event>
 5   0  0.3704241E-05  0.1930574E+04  0.7818609E-02  0.8639786E-01
        2   -1    0    0  501    0  0.00000000000E+00  0.00000000000E+00  0.71660400058E+03  0.71660400059E+03  0.25500000920E-02 0. -1.
       -2   -1    0    0    0  501  0.00000000000E+00  0.00000000000E+00 -0.13002699846E+04  0.13002699846E+04  0.25500000920E-02 0.  1.
    10030    2    1    2    0    0  0.00000000000E+00  0.00000000000E+00 -0.58366598406E+03  0.20168739852E+04  0.19305736690E+04 0.  0.
        2    1    3    3  502    0 -0.84952060257E+03 -0.34010050523E+03  0.29189921408E+02  0.91553572261E+03  0.25500000920E-02 0. -1.
       -2    1    3    3    0  502  0.84952060257E+03  0.34010050523E+03 -0.61285590547E+03  0.11013382626E+04  0.25500000920E-02 0.  1.
</event>
<event>
 5   0  0.3581449E-05  0.2515535E+04  0.7818609E-02  0.8397472E-01
       -2   -1    0    0    0  501  0.00000000000E+00  0.00000000000E+00  0.77622583315E+03  0.77622583315E+03  0.25500000920E-02 0.  1.
        2   -1    0    0  501    0  0.00000000000E+00  0.00000000000E+00 -0.20380391427E+04  0.20380391427E+04  0.25500000920E-02 0. -1.
    10030    2    1    2    0    0  0.00000000000E+00  0.00000000000E+00 -0.12618133095E+04  0.28142649758E+04  0.25155346402E+04 0.  0.
        1    1    3    3  502    0 -0.73222614176E+03 -0.19425355004E+03 -0.17541765928E+04  0.19107655751E+04  0.50400001928E-02 0. -1.
       -1    1    3    3    0  502  0.73222614176E+03  0.19425355004E+03  0.49236328324E+03  0.90349940072E+03  0.50400001928E-02 0.  1.
</event>
<event>
 5   0  0.1502886E-05  0.2510728E+04  0.7818609E-02  0.8399174E-01
       -1   -1    0    0    0  501  0.00000000000E+00  0.00000000000E+00  0.51526842626E+03  0.51526842629E+03  0.50400001928E-02 0.  1.
        1   -1    0    0  501    0  0.00000000000E+00  0.00000000000E+00 -0.30584814166E+04  0.30584814166E+04  0.50400001928E-02 0. -1.
    10030    2    1    2    0    0  0.00000000000E+00  0.00000000000E+00 -0.25432129903E+04  0.35737498429E+04  0.25107281066E+04 0.  0.
        4    1    3    3  502    0 -0.63603338285E+03  0.74839104088E+02 -0.28084728613E+04  0.28805660522E+04  0.12699999809E+01 0. -1.
       -4    1    3    3    0  502  0.63603338285E+03 -0.74839104088E+02  0.26525987097E+03  0.69318379067E+03  0.12699999809E+01 0.  1.
</event>
<event>
 5   0  0.3704241E-05  0.2525907E+04  0.7818609E-02  0.8393814E-01
        2   -1    0    0  501    0  0.00000000000E+00  0.00000000000E+00  0.14111163923E+04  0.14111163923E+04  0.25500000920E-02 0.  1.
       -2   -1    0    0    0  501  0.00000000000E+00  0.00000000000E+00 -0.11303473046E+04  0.11303473046E+04  0.25500000920E-02 0. -1.
    10030    2    1    2    0    0  0.00000000000E+00  0.00000000000E+00  0.28076908778E+03  0.25414636969E+04  0.25259070533E+04 0.  0.
        2    1    3    3  502    0 -0.90589746017E+03  0.84839820851E+03 -0.94768104622E+02  0.12447532776E+04  0.25500000920E-02 0. -1.
       -2    1    3    3    0  502  0.90589746017E+03 -0.84839820851E+03  0.37553719241E+03  0.12967104193E+04  0.25500000920E-02 0.  1.
</event>
<event>
 5   0  0.1492639E-05  0.2491409E+04  0.7818609E-02  0.8406052E-01
       -1   -1    0    0    0  501  0.00000000000E+00  0.00000000000E+00  0.15558447205E+04  0.15558447205E+04  0.50400001928E-02 0. -1.
        1   -1    0    0  501    0  0.00000000000E+00  0.00000000000E+00 -0.99738741076E+03  0.99738741078E+03  0.50400001928E-02 0.  1.
    10030    2    1    2    0    0  0.00000000000E+00  0.00000000000E+00  0.55845730977E+03  0.25532321313E+04  0.24914091895E+04 0.  0.
        5    1    3    3  502    0 -0.48075557088E+03 -0.11122282437E+04  0.57550508573E+03  0.13414193150E+04  0.46999998093E+01 0. -1.
       -5    1    3    3    0  502  0.48075557088E+03  0.11122282437E+04 -0.17047775958E+02  0.12118128163E+04  0.46999998093E+01 0.  1.
</event>
<event>
 5   0  0.1502886E-05  0.2254731E+04  0.7818609E-02  0.8495987E-01
        1   -1    0    0  501    0  0.00000000000E+00  0.00000000000E+00  0.79281272134E+03  0.79281272136E+03  0.50400001928E-02 0. -1.
       -1   -1    0    0    0  501  0.00000000000E+00  0.00000000000E+00 -0.16030932324E+04  0.16030932324E+04  0.50400001928E-02 0.  1.
    10030    2    1    2    0    0  0.00000000000E+00  0.00000000000E+00 -0.81028051109E+03  0.23959059538E+04  0.22547307673E+04 0.  0.
        4    1    3    3  502    0  0.82151901993E+03  0.51812923241E+03  0.20306030933E+03  0.99226332378E+03  0.12699999809E+01 0. -1.
       -4    1    3    3    0  502 -0.82151901993E+03 -0.51812923241E+03 -0.10133408204E+04  0.14036426300E+04  0.12699999809E+01 0.  1.
</event>
<event>
 5   0  0.1502886E-05  0.2379975E+04  0.7818609E-02  0.8447039E-01
       -1   -1    0    0    0  501  0.00000000000E+00  0.00000000000E+00  0.10486654906E+04  0.10486654906E+04  0.50400001928E-02 0. -1.
        1   -1    0    0  501    0  0.00000000000E+00  0.00000000000E+00 -0.13503541768E+04  0.13503541768E+04  0.50400001928E-02 0.  1.
    10030    2    1    2    0    0  0.00000000000E+00  0.00000000000E+00 -0.30168868620E+03  0.23990196675E+04  0.23799746430E+04 0.  0.
        4    1    3    3  502    0  0.89242546018E+03  0.76383073403E+03  0.40961339279E+02  0.11753893127E+04  0.12699999809E+01 0. -1.
       -4    1    3    3    0  502 -0.89242546018E+03 -0.76383073403E+03 -0.34265002548E+03  0.12236303548E+04  0.12699999809E+01 0.  1.
</event>
<event>
 5   0  0.1492639E-05  0.2497733E+04  0.7818609E-02  0.8403794E-01
       -1   -1    0    0    0  501  0.00000000000E+00  0.00000000000E+00  0.85333791345E+03  0.85333791346E+03  0.50400001928E-02 0. -1.
        1   -1    0    0  501    0  0.00000000000E+00  0.00000000000E+00 -0.18277259618E+04  0.18277259618E+04  0.50400001928E-02 0.  1.
    10030    2    1    2    0    0  0.00000000000E+00  0.00000000000E+00 -0.97438804836E+03  0.26810638753E+04  0.24977332593E+04 0.  0.
        5    1    3    3  502    0  0.21890010452E+03 -0.27782698349E+03 -0.17728285837E+04  0.18077744233E+04  0.46999998093E+01 0.  1.
       -5    1    3    3    0  502 -0.21890010452E+03  0.27782698349E+03  0.79844053530E+03  0.87328945197E+03  0.46999998093E+01 0. -1.
</event>
<event>
 5   0  0.3650620E-05  0.2516506E+04  0.7818609E-02  0.8397129E-01
        2   -1    0    0  501    0  0.00000000000E+00  0.00000000000E+00  0.18740707860E+04  0.18740707860E+04  0.25500000920E-02 0.  1.
       -2   -1    0    0    0  501  0.00000000000E+00  0.00000000000E+00 -0.84479212730E+03  0.84479212731E+03  0.25500000920E-02 0. -1.
    10030    2    1    2    0    0  0.00000000000E+00  0.00000000000E+00  0.10292786587E+04  0.27188629133E+04  0.25165057091E+04 0.  0.
        3    1    3    3  502    0  0.19329211768E+03 -0.73838472399E+03 -0.56611097761E+03  0.95029231952E+03  0.10100000352E+00 0. -1.
       -3    1    3    3    0  502 -0.19329211768E+03  0.73838472399E+03  0.15953896363E+04  0.17685705938E+04  0.10100000352E+00 0.  1.
</event>
<event>
 5   0  0.3578670E-05  0.2482101E+04  0.7818609E-02  0.8409390E-01
        2   -1    0    0  501    0  0.00000000000E+00  0.00000000000E+00  0.16114524881E+04  0.16114524881E+04  0.25500000920E-02 0.  1.
       -2   -1    0    0    0  501  0.00000000000E+00  0.00000000000E+00 -0.95578748869E+03  0.95578748870E+03  0.25500000920E-02 0. -1.
    10030    2    1    2    0    0  0.00000000000E+00  0.00000000000E+00  0.65566499942E+03  0.25672399768E+04  0.24821008253E+04 0.  0.
        4    1    3    3  502    0  0.61090297698E+03  0.99490189011E+03  0.76318892069E+03  0.13948086463E+04  0.12699999809E+01 0.  1.
       -4    1    3    3    0  502 -0.61090297698E+03 -0.99490189011E+03 -0.10752392127E+03  0.11724313305E+04  0.12699999809E+01 0. -1.
</event>
<event>
 5   0  0.3579097E-05  0.2496180E+04  0.7818609E-02  0.8404348E-01
        2   -1    0    0  501    0  0.00000000000E+00  0.00000000000E+00  0.21482784425E+04  0.21482784425E+04  0.25500000920E-02 0.  1.
       -2   -1    0    0    0  501  0.00000000000E+00  0.00000000000E+00 -0.72510578029E+03  0.72510578030E+03  0.25500000920E-02 0. -1.
    10030    2    1    2    0    0  0.00000000000E+00  0.00000000000E+00  0.14231726622E+04  0.28733842228E+04  0.24961803752E+04 0.  0.
        5    1    3    3  502    0  0.48928356157E+03  0.11474677934E+04  0.66516515132E+03  0.14136999360E+04  0.46999998093E+01 0. -1.
       -5    1    3    3    0  502 -0.48928356157E+03 -0.11474677934E+04  0.75800751092E+03  0.14596842868E+04  0.46999998093E+01 0.  1.
</event>
<event>
 5   0  0.1429483E-05  0.2485178E+04  0.7818609E-02  0.8408285E-01
       -1   -1    0    0    0  501  0.00000000000E+00  0.00000000000E+00  0.11374052883E+04  0.11374052883E+04  0.50400001928E-02 0. -1.
        1   -1    0    0  501    0  0.00000000000E+00  0.00000000000E+00 -0.13574993876E+04  0.13574993876E+04  0.50400001928E-02 0.  1.
    10030    2    1    2    0    0  0.00000000000E+00  0.00000000000E+00 -0.22009409924E+03  0.24949046759E+04  0.24851776454E+04 0.  0.
        2    1    3    3  502    0  0.92467017258E+03  0.72187658520E+02  0.72011214645E+03  0.11742178203E+04  0.25500000920E-02 0. -1.
       -2    1    3    3    0  502 -0.92467017258E+03 -0.72187658520E+02 -0.94020624569E+03  0.13206868556E+04  0.25500000920E-02 0.  1.
</event>
<event>
 5   0  0.1429483E-05  0.2100917E+04  0.7818609E-02  0.8560839E-01
       -1   -1    0    0    0  501  0.00000000000E+00  0.00000000000E+00  0.79024864443E+03  0.79024864444E+03  0.50400001928E-02 0.  1.
        1   -1    0    0  501    0  0.00000000000E+00  0.00000000000E+00 -0.13963497637E+04  0.13963497637E+04  0.50400001928E-02 0. -1.
    10030    2    1    2    0    0  0.00000000000E+00  0.00000000000E+00 -0.60610111930E+03  0.21865984082E+04  0.21009174262E+04 0.  0.
        2    1    3    3  502    0 -0.69685152554E+03  0.74358424714E+03 -0.56828463369E+03  0.11668191831E+04  0.25500000920E-02 0. -1.
       -2    1    3    3    0  502  0.69685152554E+03 -0.74358424714E+03 -0.37816485611E+02  0.10197792250E+04  0.25500000920E-02 0.  1.
</event>
<event>
 5   0  0.1502886E-05  0.2471421E+04  0.7818609E-02  0.8413238E-01
        1   -1    0    0  501    0  0.00000000000E+00  0.00000000000E+00  0.13738832589E+04  0.13738832589E+04  0.50400001928E-02 0. -1.
       -1   -1    0    0    0  501  0.00000000000E+00  0.00000000000E+00 -0.11114343338E+04  0.11114343339E+04  0.50400001928E-02 0.  1.
    10030    2    1    2    0    0  0.00000000000E+00  0.00000000000E+00  0.26244892509E+03  0.24853175928E+04  0.24714214733E+04 0.  0.
        4    1    3    3  502    0  0.21722512117E+03  0.10203723555E+04 -0.53479310868E+03  0.11723275051E+04  0.12699999809E+01 0.  1.
       -4    1    3    3    0  502 -0.21722512117E+03 -0.10203723555E+04  0.79724203377E+03  0.13129900877E+04  0.12699999809E+01 0. -1.
</event>
<event>
 5   0  0.1421242E-05  0.2471030E+04  0.7818609E-02  0.8413379E-01
        1   -1    0    0  501    0  0.00000000000E+00  0.00000000000E+00  0.10900349359E+04  0.10900349359E+04  0.50400001928E-02 0.  1.
       -1   -1    0    0    0  501  0.00000000000E+00  0.00000000000E+00 -0.14004118445E+04  0.14004118445E+04  0.50400001928E-02 0. -1.
    10030    2    1    2    0    0  0.00000000000E+00  0.00000000000E+00 -0.31037690856E+03  0.24904467804E+04  0.24710304208E+04 0.  0.
        3    1    3    3  502    0  0.31345486652E+03 -0.20895965904E+03  0.10307390967E+04  0.10974247984E+04  0.10100000352E+00 0.  1.
       -3    1    3    3    0  502 -0.31345486652E+03  0.20895965904E+03 -0.13411160053E+04  0.13930219820E+04  0.10100000352E+00 0. -1.
</event>
<event>
 5   0  0.3578670E-05  0.2480081E+04  0.7818609E-02  0.8410116E-01
        2   -1    0    0  501    0  0.00000000000E+00  0.00000000000E+00  0.11212818231E+04  0.11212818231E+04  0.25500000920E-02 0.  1.
       -2   -1    0    0    0  501  0.00000000000E+00  0.00000000000E+00 -0.13713772871E+04  0.13713772871E+04  0.25500000920E-02 0. -1.
    10030    2    1    2    0    0  0.00000000000E+00  0.00000000000E+00 -0.25009546405E+03  0.24926591102E+04  0.24800809862E+04 0.  0.
        4    1    3    3  502    0 -0.40312052791E+03  0.52372727828E+03  0.92951260706E+03  0.11405225652E+04  0.12699999809E+01 0.  1.
       -4    1    3    3    0  502  0.40312052791E+03 -0.52372727828E+03 -0.11796080711E+04  0.13521365450E+04  0.12699999809E+01 0. -1.
</event>
<event>
 5   0  0.3579097E-05  0.2508312E+04  0.7818609E-02  0.8400030E-01
       -2   -1    0    0    0  501  0.00000000000E+00  0.00000000000E+00  0.10171707648E+04  0.10171707648E+04  0.25500000920E-02 0.  1.
        2   -1    0    0  501    0  0.00000000000E+00  0.00000000000E+00 -0.15463554960E+04  0.15463554960E+04  0.25500000920E-02 0. -1.
    10030    2    1    2    0    0  0.00000000000E+00  0.00000000000E+00 -0.52918473123E+03  0.25635262608E+04  0.25083122633E+04 0.  0.
        5    1    3    3  502    0  0.76320597811E+03 -0.99518823802E+03 -0.26621425736E+03  0.12820979350E+04  0.46999998093E+01 0. -1.
       -5    1    3    3    0  502 -0.76320597811E+03  0.99518823802E+03 -0.26297047388E+03  0.12814283258E+04  0.46999998093E+01 0.  1.
</event>
<event>
 5   0  0.1492639E-05  0.2513220E+04  0.7818609E-02  0.8398291E-01
        1   -1    0    0  501    0  0.00000000000E+00  0.00000000000E+00  0.29881814501E+04  0.29881814501E+04  0.50400001928E-02 0. -1.
       -1   -1    0    0    0  501  0.00000000000E+00  0.00000000000E+00 -0.52843812172E+03  0.52843812174E+03  0.50400001928E-02 0.  1.
    10030    2    1    2    0    0  0.00000000000E+00  0.00000000000E+00  0.24597433284E+04  0.35166195719E+04  0.25132202394E+04 0.  0.
        5    1    3    3  502    0  0.26092718043E+03  0.82426455661E+03 -0.46095526612E+02  0.86581865327E+03  0.46999998093E+01 0.  1.
       -5    1    3    3    0  502 -0.26092718043E+03 -0.82426455661E+03  0.25058388550E+04  0.26508009186E+04  0.46999998093E+01 0. -1.
</event>
<event>
 5   0  0.3581449E-05  0.2447241E+04  0.7818609E-02  0.8422026E-01
        2   -1    0    0  501    0  0.00000000000E+00  0.00000000000E+00  0.13555168237E+04  0.13555168237E+04  0.25500000920E-02 0.  1.
       -2   -1    0    0    0  501  0.00000000000E+00  0.00000000000E+00 -0.11045582246E+04  0.11045582246E+04  0.25500000920E-02 0. -1.
    10030    2    1    2    0    0  0.00000000000E+00  0.00000000000E+00  0.25095859907E+03  0.24600750482E+04  0.24472411047E+04 0.  0.
        1    1    3    3  502    0 -0.65329620718E+03 -0.79179369133E+03  0.79494032668E+03  0.12983309697E+04  0.50400001928E-02 0.  1.
       -1    1    3    3    0  502  0.65329620718E+03  0.79179369133E+03 -0.54398172761E+03  0.11617440785E+04  0.50400001928E-02 0. -1.
</event>
<event>
 5   0  0.3704241E-05  0.2554450E+04  0.7818609E-02  0.8383840E-01
       -2   -1    0    0    0  501  0.00000000000E+00  0.00000000000E+00  0.75718060823E+03  0.75718060823E+03  0.25500000920E-02 0.  1.
        2   -1    0    0  501    0  0.00000000000E+00  0.00000000000E+00 -0.21544441419E+04  0.21544441419E+04  0.25500000920E-02 0. -1.
    10030    2    1    2    0    0  0.00000000000E+00  0.00000000000E+00 -0.13972635337E+04  0.29116247501E+04  0.25544497065E+04 0.  0.
        2    1    3    3  502    0 -0.10770770744E+04 -0.21790459121E+03 -0.14405918593E+04  0.18118726059E+04  0.25500000920E-02 0. -1.
       -2    1    3    3    0  502  0.10770770744E+04  0.21790459121E+03  0.43328325588E+02  0.10997521443E+04  0.25500000920E-02 0.  1.
</event>
<event>
 5   0  0.3704241E-05  0.2467600E+04  0.7818609E-02  0.8414620E-01
       -2   -1    0    0    0  501  0.00000000000E+00  0.00000000000E+00  0.61148588717E+03  0.61148588718E+03  0.25500000920E-02 0.  1.
        2   -1    0    0  501    0  0.00000000000E+00  0.00000000000E+00 -0.24894490808E+04  0.24894490808E+04  0.25500000920E-02 0. -1.
    10030    2    1    2    0    0  0.00000000000E+00  0.00000000000E+00 -0.18779631937E+04  0.31009349680E+04  0.24676004375E+04 0.  0.
        2    1    3    3  502    0  0.93968019894E+03 -0.21767352435E+03 -0.19057790797E+04  0.21359715682E+04  0.25500000920E-02 0. -1.
       -2    1    3    3    0  502 -0.93968019894E+03  0.21767352435E+03  0.27815886034E+02  0.96496339983E+03  0.25500000920E-02 0.  1.
</event>
<event>
 5   0  0.1502886E-05  0.2496579E+04  0.7818609E-02  0.8404205E-01
        1   -1    0    0  501    0  0.00000000000E+00  0.00000000000E+00  0.12494851850E+04  0.12494851850E+04  0.50400001928E-02 0.  1.
       -1   -1    0    0    0  501  0.00000000000E+00  0.00000000000E+00 -0.12470952534E+04  0.12470952534E+04  0.50400001928E-02 0. -1.
    10030    2    1    2    0    0  0.00000000000E+00  0.00000000000E+00  0.23899315577E+01  0.24965804384E+04  0.24965792945E+04 0.  0.
        4    1    3    3  502    0 -0.64219400089E+03  0.50781089688E+03  0.94350128669E+03  0.12491922721E+04  0.12699999809E+01 0.  1.
       -4    1    3    3    0  502  0.64219400089E+03 -0.50781089688E+03 -0.94111135513E+03  0.12473881663E+04  0.12699999809E+01 0. -1.
</event>
<event>
 5   0  0.1456876E-05  0.2501106E+04  0.7818609E-02  0.8402591E-01
        1   -1    0    0  501    0  0.00000000000E+00  0.00000000000E+00  0.18445975803E+04  0.18445975803E+04  0.50400001928E-02 0. -1.
       -1   -1    0    0    0  501  0.00000000000E+00  0.00000000000E+00 -0.84781820977E+03  0.84781820979E+03  0.50400001928E-02 0.  1.
    10030    2    1    2    0    0  0.00000000000E+00  0.00000000000E+00  0.99677937051E+03  0.26924157901E+04  0.25011064898E+04 0.  0.
        1    1    3    3  502    0 -0.78473325574E+03  0.26258363183E+03 -0.51094627879E+03  0.97253408486E+03  0.50400001928E-02 0.  1.
       -1    1    3    3    0  502  0.78473325574E+03 -0.26258363183E+03  0.15077256493E+04  0.17198817052E+04  0.50400001928E-02 0. -1.
</event>
<event>
 5   0  0.3579097E-05  0.2435991E+04  0.7818609E-02  0.8426151E-01
       -2   -1    0    0    0  501  0.00000000000E+00  0.00000000000E+00  0.26495939625E+04  0.26495939625E+04  0.25500000920E-02 0. -1.
        2   -1    0    0  501    0  0.00000000000E+00  0.00000000000E+00 -0.55990214082E+03  0.55990214083E+03  0.25500000920E-02 0.  1.
    10030    2    1    2    0    0  0.00000000000E+00  0.00000000000E+00  0.20896918216E+04  0.32094961033E+04  0.24359912413E+04 0.  0.
        5    1    3    3  502    0  0.69704385472E+03  0.22637769723E+03  0.23265642152E+04  0.24392704104E+04  0.46999998093E+01 0. -1.
       -5    1    3    3    0  502 -0.69704385472E+03 -0.22637769723E+03 -0.23687239360E+03  0.77022569293E+03  0.46999998093E+01 0.  1.
</event>
<event>
 5   0  0.1492639E-05  0.2484803E+04  0.7818609E-02  0.8408420E-01
       -1   -1    0    0    0  501  0.00000000000E+00  0.00000000000E+00  0.18849323196E+04  0.18849323196E+04  0.50400001928E-02 0. -1.
        1   -1    0    0  501    0  0.00000000000E+00  0.00000000000E+00 -0.81889481048E+03  0.81889481050E+03  0.50400001928E-02 0.  1.
    10030    2    1    2    0    0  0.00000000000E+00  0.00000000000E+00  0.10660375091E+04  0.27038271301E+04  0.24848028450E+04 0.  0.
        5    1    3    3  502    0 -0.19311039920E+03 -0.67327043455E+03 -0.58356624292E+03  0.91167776884E+03  0.46999998093E+01 0.  1.
       -5    1    3    3    0  502  0.19311039920E+03  0.67327043455E+03  0.16496037520E+04  0.17921493612E+04  0.46999998093E+01 0. -1.
</event>
<event>
 5   0  0.3704241E-05  0.2465173E+04  0.7818609E-02  0.8415499E-01
        2   -1    0    0  501    0  0.00000000000E+00  0.00000000000E+00  0.15453626811E+04  0.15453626811E+04  0.25500000920E-02 0. -1.
       -2   -1    0    0    0  501  0.00000000000E+00  0.00000000000E+00 -0.98311547104E+03  0.98311547104E+03  0.25500000920E-02 0.  1.
    10030    2    1    2    0    0  0.00000000000E+00  0.00000000000E+00  0.56224721009E+03  0.25284781522E+04  0.24651733896E+04 0.  0.
        2    1    3    3  502    0  0.10326009533E+04 -0.34256669951E+03  0.87535718098E+03  0.13963763342E+04  0.25500000920E-02 0. -1.
       -2    1    3    3    0  502 -0.10326009533E+04  0.34256669951E+03 -0.31310997090E+03  0.11321018180E+04  0.25500000920E-02 0.  1.
</event>
<event>
 5   0  0.3578670E-05  0.2506030E+04  0.7818609E-02  0.8400840E-01
       -2   -1    0    0    0  501  0.00000000000E+00  0.00000000000E+00  0.14759453055E+04  0.14759453055E+04  0.25500000920E-02 0. -1.
        2   -1    0    0  501    0  0.00000000000E+00  0.00000000000E+00 -0.10637569909E+04  0.10637569909E+04  0.25500000920E-02 0.  1.
    10030    2    1    2    0    0  0.00000000000E+00  0.00000000000E+00  0.41218831461E+03  0.25397022963E+04  0.25060304362E+04 0.  0.
        4    1    3    3  502    0  0.90169904148E+03  0.69024799573E+03 -0.33068478043E+03  0.11827330611E+04  0.12699999809E+01 0.  1.
       -4    1    3    3    0  502 -0.90169904148E+03 -0.69024799573E+03  0.74287309504E+03  0.13569692352E+04  0.12699999809E+01 0. -1.
</event>
<event>
 5   0  0.1502886E-05  0.2512159E+04  0.7818609E-02  0.8398667E-01
        1   -1    0    0  501    0  0.00000000000E+00  0.00000000000E+00  0.91658645005E+03  0.91658645006E+03  0.50400001928E-02 0.  1.
       -1   -1    0    0    0  501  0.00000000000E+00  0.00000000000E+00 -0.17213162751E+04  0.17213162751E+04  0.50400001928E-02 0. -1.
    10030    2    1    2    0    0  0.00000000000E+00  0.00000000000E+00 -0.80472982505E+03  0.26379027252E+04  0.25121585730E+04 0.  0.
        4    1    3    3  502    0  0.48399521758E+03  0.11529350872E+04 -0.52759406072E+03  0.13571542992E+04  0.12699999809E+01 0.  1.
       -4    1    3    3    0  502 -0.48399521758E+03 -0.11529350872E+04 -0.27713576432E+03  0.12807484260E+04  0.12699999809E+01 0. -1.
</event>
<event>
 5   0  0.1201438E-05  0.2477512E+04  0.7818609E-02  0.8411041E-01
        4   -1    0    0  501    0  0.00000000000E+00  0.00000000000E+00  0.13686993287E+04  0.13686999179E+04  0.12699999809E+01 0. -1.
       -4   -1    0    0    0  501  0.00000000000E+00  0.00000000000E+00 -0.11211481465E+04  0.11211488658E+04  0.12699999809E+01 0.  1.
    10030    2    1    2    0    0  0.00000000000E+00  0.00000000000E+00  0.24755118224E+03  0.24898487838E+04  0.24775119330E+04 0.  0.
        2    1    3    3  502    0 -0.47465822319E+03 -0.93307336691E+03  0.78933462610E+03  0.13110970555E+04  0.25500000920E-02 0.  1.
       -2    1    3    3    0  502  0.47465822319E+03  0.93307336691E+03 -0.54178344386E+03  0.11787517283E+04  0.25500000920E-02 0. -1.
</event>
<event>
 5   0  0.3579097E-05  0.2515490E+04  0.7818609E-02  0.8397488E-01
       -2   -1    0    0    0  501  0.00000000000E+00  0.00000000000E+00  0.13367217369E+04  0.13367217369E+04  0.25500000920E-02 0. -1.
        2   -1    0    0  501    0  0.00000000000E+00  0.00000000000E+00 -0.11834341632E+04  0.11834341632E+04  0.25500000920E-02 0.  1.
    10030    2    1    2    0    0  0.00000000000E+00  0.00000000000E+00  0.15328757370E+03  0.25201559001E+04  0.25154897497E+04 0.  0.
        5    1    3    3  502    0  0.50446216118E+03 -0.10073373965E+04  0.63686741243E+03  0.12941533500E+04  0.46999998093E+01 0. -1.
       -5    1    3    3    0  502 -0.50446216118E+03  0.10073373965E+04 -0.48357983873E+03  0.12260025501E+04  0.46999998093E+01 0.  1.
</event>
<event>
 5   0  0.3578670E-05  0.2496275E+04  0.7818609E-02  0.8404314E-01
       -2   -1    0    0    0  501  0.00000000000E+00  0.00000000000E+00  0.12462192890E+04  0.12462192890E+04  0.25500000920E-02 0. -1.
        2   -1    0    0  501    0  0.00000000000E+00  0.00000000000E+00 -0.12500584918E+04  0.12500584918E+04  0.25500000920E-02 0.  1.
    10030    2    1    2    0    0  0.00000000000E+00  0.00000000000E+00 -0.38392028234E+01  0.24962777808E+04  0.24962748285E+04 0.  0.
        4    1    3    3  502    0  0.46862219061E+03 -0.79606462629E+03 -0.84127733902E+03  0.12494297983E+04  0.12699999809E+01 0.  1.
       -4    1    3    3    0  502 -0.46862219061E+03  0.79606462629E+03  0.83743813619E+03  0.12468479826E+04  0.12699999809E+01 0. -1.
</event>
<event>
 5   0  0.1429483E-05  0.2516316E+04  0.7818609E-02  0.8397196E-01
        1   -1    0    0  501    0  0.00000000000E+00  0.00000000000E+00  0.16212638662E+04  0.16212638662E+04  0.50400001928E-02 0. -1.
       -1   -1    0    0    0  501  0.00000000000E+00  0.00000000000E+00 -0.97637536324E+03  0.97637536326E+03  0.50400001928E-02 0.  1.
    10030    2    1    2    0    0  0.00000000000E+00  0.00000000000E+00  0.64488850296E+03  0.25976392295E+04  0.25163164318E+04 0.  0.
        2    1    3    3  502    0  0.17561342600E+03  0.36808726086E+03  0.15511344077E+04  0.16038535650E+04  0.25500000920E-02 0. -1.
       -2    1    3    3    0  502 -0.17561342600E+03 -0.36808726086E+03 -0.90624590478E+03  0.99378566449E+03  0.25500000920E-02 0.  1.
</event>
<event>
 5   0  0.3579097E-05  0.2543148E+04  0.7818609E-02  0.8387773E-01
       -2   -1    0    0    0  501  0.00000000000E+00  0.00000000000E+00  0.71631813081E+03  0.71631813082E+03  0.25500000920E-02 0. -1.
        2   -1    0    0  501    0  0.00000000000E+00  0.00000000000E+00 -0.22572373493E+04  0.22572373493E+04  0.25500000920E-02 0.  1.
    10030    2    1    2    0    0  0.00000000000E+00  0.00000000000E+00 -0.15409192185E+04  0.29735554801E+04  0.25431476865E+04 0.  0.
        5    1    3    3  502    0  0.94230292633E+03  0.78938662542E+03 -0.39011985649E+03  0.12896827679E+04  0.46999998093E+01 0. -1.
       -5    1    3    3    0  502 -0.94230292633E+03 -0.78938662542E+03 -0.11507993620E+04  0.16838727122E+04  0.46999998093E+01 0.  1.
</event>
<event>
 5   0  0.1492639E-05  0.2353183E+04  0.7818609E-02  0.8457242E-01
        1   -1    0    0  501    0  0.00000000000E+00  0.00000000000E+00  0.15777277934E+04  0.15777277934E+04  0.50400001928E-02 0. -1.
       -1   -1    0    0    0  501  0.00000000000E+00  0.00000000000E+00 -0.87744381370E+03  0.87744381371E+03  0.50400001928E-02 0.  1.
    10030    2    1    2    0    0  0.00000000000E+00  0.00000000000E+00  0.70028397970E+03  0.24551716071E+04  0.23531829441E+04 0.  0.
        5    1    3    3  502    0 -0.78733253085E+03 -0.86855389818E+03  0.24545890928E+03  0.11977272454E+04  0.46999998093E+01 0. -1.
       -5    1    3    3    0  502  0.78733253085E+03  0.86855389818E+03  0.45482507042E+03  0.12574443617E+04  0.46999998093E+01 0.  1.
</event>
<event>
 5   0  0.3578670E-05  0.2481505E+04  0.7818609E-02  0.8409604E-01
        2   -1    0    0  501    0  0.00000000000E+00  0.00000000000E+00  0.20950229593E+04  0.20950229593E+04  0.25500000920E-02 0. -1.
       -2   -1    0    0    0  501  0.00000000000E+00  0.00000000000E+00 -0.73482095893E+03  0.73482095894E+03  0.25500000920E-02 0.  1.
    10030    2    1    2    0    0  0.00000000000E+00  0.00000000000E+00  0.13602020003E+04  0.28298439182E+04  0.24815050110E+04 0.  0.
        4    1    3    3  502    0  0.41770872319E+03  0.86017521022E+03  0.15817058483E+04  0.18482902838E+04  0.12699999809E+01 0. -1.
       -4    1    3    3    0  502 -0.41770872319E+03 -0.86017521022E+03 -0.22150384795E+03  0.98155363443E+03  0.12699999809E+01 0.  1.
</event>
<event>
 5   0  0.1456876E-05  0.2569185E+04  0.7818609E-02  0.8378744E-01
        1   -1    0    0  501    0  0.00000000000E+00  0.00000000000E+00  0.19881918919E+04  0.19881918919E+04  0.50400001928E-02 0. -1.
       -1   -1    0    0    0  501  0.00000000000E+00  0.00000000000E+00 -0.82998921271E+03  0.82998921273E+03  0.50400001928E-02 0.  1.
    10030    2    1    2    0    0  0.00000000000E+00  0.00000000000E+00  0.11582026792E+04  0.28181811046E+04  0.25691849471E+04 0.  0.
        1    1    3    3  502    0 -0.10135238371E+04  0.76570588269E+03  0.36912920227E+03  0.13227972010E+04  0.50400001928E-02 0. -1.
       -1    1    3    3    0  502  0.10135238371E+04 -0.76570588269E+03  0.78907347690E+03  0.14953839036E+04  0.50400001928E-02 0.  1.
</event>
<event>
 5   0  0.3579097E-05  0.2357253E+04  0.7818609E-02  0.8455683E-01
        2   -1    0    0  501    0  0.00000000000E+00  0.00000000000E+00  0.18004196165E+04  0.18004196165E+04  0.25500000920E-02 0. -1.
       -2   -1    0    0    0  501  0.00000000000E+00  0.00000000000E+00 -0.77157592253E+03  0.77157592254E+03  0.25500000920E-02 0.  1.
    10030    2    1    2    0    0  0.00000000000E+00  0.00000000000E+00  0.10288436939E+04  0.25719955390E+04  0.23572530000E+04 0.  0.
        5    1    3    3  502    0  0.33325210730E+03 -0.30133978540E+03 -0.67446303366E+03  0.81042279525E+03  0.46999998093E+01 0.  1.
       -5    1    3    3    0  502 -0.33325210730E+03  0.30133978540E+03  0.17033067276E+04  0.17615727437E+04  0.46999998093E+01 0. -1.
</event>
<event>
 5   0  0.1492639E-05  0.2545186E+04  0.7818609E-02  0.8387062E-01
        1   -1    0    0  501    0  0.00000000000E+00  0.00000000000E+00  0.16959333479E+04  0.16959333479E+04  0.50400001928E-02 0. -1.
       -1   -1    0    0    0  501  0.00000000000E+00  0.00000000000E+00 -0.95492739349E+03  0.95492739351E+03  0.50400001928E-02 0.  1.
    10030    2    1    2    0    0  0.00000000000E+00  0.00000000000E+00  0.74100595439E+03  0.26508607414E+04  0.25451862104E+04 0.  0.
        5    1    3    3  502    0 -0.97860014064E+03  0.65892537102E+03  0.86741823442E+03  0.14643351267E+04  0.46999998093E+01 0. -1.
       -5    1    3    3    0  502  0.97860014064E+03 -0.65892537102E+03 -0.12641228003E+03  0.11865256147E+04  0.46999998093E+01 0.  1.
</event>
<event>
 5   0  0.1492639E-05  0.2347266E+04  0.7818609E-02  0.8459514E-01
        1   -1    0    0  501    0  0.00000000000E+00  0.00000000000E+00  0.19527503016E+04  0.19527503016E+04  0.50400001928E-02 0. -1.
       -1   -1    0    0    0  501  0.00000000000E+00  0.00000000000E+00 -0.70537180085E+03  0.70537180087E+03  0.50400001928E-02 0.  1.
    10030    2    1    2    0    0  0.00000000000E+00  0.00000000000E+00  0.12473785007E+04  0.26581221024E+04  0.23472664926E+04 0.  0.
        5    1    3    3  502    0  0.88463575329E+03  0.43877550052E+02  0.14956533075E+04  0.17382481301E+04  0.46999998093E+01 0. -1.
       -5    1    3    3    0  502 -0.88463575329E+03 -0.43877550052E+02 -0.24827480678E+03  0.91987397239E+03  0.46999998093E+01 0.  1.
</event>
<event>
 5   0  0.3579097E-05  0.2492993E+04  0.7818609E-02  0.8405486E-01
       -2   -1    0    0    0  501  0.00000000000E+00  0.00000000000E+00  0.10869365403E+04  0.10869365403E+04  0.25500000920E-02 0. -1.
        2   -1    0    0  501    0  0.00000000000E+00  0.00000000000E+00 -0.14294791441E+04  0.14294791441E+04  0.25500000920E-02 0.  1.
    10030    2    1    2    0    0  0.00000000000E+00  0.00000000000E+00 -0.34254260379E+03  0.25164156844E+04  0.24929926717E+04 0.  0.
        5    1    3    3  502    0  0.73260073867E+03 -0.55795354906E+03  0.67669005662E+03  0.11427806123E+04  0.46999998093E+01 0. -1.
       -5    1    3    3    0  502 -0.73260073867E+03  0.55795354906E+03 -0.10192326604E+04  0.13736350721E+04  0.46999998093E+01 0.  1.
</event>
<event>
 5   0  0.1456876E-05  0.2508838E+04  0.7818609E-02  0.8399844E-01
       -1   -1    0    0    0  501  0.00000000000E+00  0.00000000000E+00  0.91084200105E+03  0.91084200107E+03  0.50400001928E-02 0. -1.
        1   -1    0    0  501    0  0.00000000000E+00  0.00000000000E+00 -0.17275966233E+04  0.17275966233E+04  0.50400001928E-02 0.  1.
    10030    2    1    2    0    0  0.00000000000E+00  0.00000000000E+00 -0.81675462228E+03  0.26384386244E+04  0.25088384288E+04 0.  0.
        1    1    3    3  502    0  0.10005349386E+04 -0.73486281360E+03 -0.59789184059E+03  0.13778853985E+04  0.50400001928E-02 0. -1.
       -1    1    3    3    0  502 -0.10005349386E+04  0.73486281360E+03 -0.21886278169E+03  0.12605532259E+04  0.50400001928E-02 0.  1.
</event>
<event>
 5   0  0.1502886E-05  0.2488487E+04  0.7818609E-02  0.8407099E-01
        1   -1    0    0  501    0  0.00000000000E+00  0.00000000000E+00  0.15018866813E+04  0.15018866813E+04  0.50400001928E-02 0.  1.
       -1   -1    0    0    0  501  0.00000000000E+00  0.00000000000E+00 -0.10307980220E+04  0.10307980220E+04  0.50400001928E-02 0. -1.
    10030    2    1    2    0    0  0.00000000000E+00  0.00000000000E+00  0.47108865937E+03  0.25326847033E+04  0.24884869462E+04 0.  0.
        4    1    3    3  502    0 -0.59107903490E+03  0.57362711328E+03  0.11846944759E+04  0.14428877658E+04  0.12699999809E+01 0.  1.
       -4    1    3    3    0  502  0.59107903490E+03 -0.57362711328E+03 -0.71360581657E+03  0.10897969375E+04  0.12699999809E+01 0. -1.
</event>
<event>
 5   0  0.1492639E-05  0.2463010E+04  0.7818609E-02  0.8416283E-01
       -1   -1    0    0    0  501  0.00000000000E+00  0.00000000000E+00  0.87834332594E+03  0.87834332596E+03  0.50400001928E-02 0.  1.
        1   -1    0    0  501    0  0.00000000000E+00  0.00000000000E+00 -0.17266646287E+04  0.17266646287E+04  0.50400001928E-02 0. -1.
    10030    2    1    2    0    0  0.00000000000E+00  0.00000000000E+00 -0.84832130273E+03  0.26050079546E+04  0.24630098276E+04 0.  0.
        5    1    3    3  502    0  0.31531749712E+03 -0.11820130407E+04 -0.27457739258E+03  0.12537921625E+04  0.46999998093E+01 0. -1.
       -5    1    3    3    0  502 -0.31531749712E+03  0.11820130407E+04 -0.57374391015E+03  0.13512157921E+04  0.46999998093E+01 0.  1.
</event>
<event>
 5   0  0.1502886E-05  0.2451028E+04  0.7818609E-02  0.8420643E-01
        1   -1    0    0  501    0  0.00000000000E+00  0.00000000000E+00  0.19608516633E+04  0.19608516633E+04  0.50400001928E-02 0. -1.
       -1   -1    0    0    0  501  0.00000000000E+00  0.00000000000E+00 -0.76593477952E+03  0.76593477954E+03  0.50400001928E-02 0.  1.
    10030    2    1    2    0    0  0.00000000000E+00  0.00000000000E+00  0.11949168837E+04  0.27267864428E+04  0.24510279365E+04 0.  0.
        4    1    3    3  502    0 -0.18781630655E+03  0.79974898167E+03 -0.41425636786E+03  0.92004529774E+03  0.12699999809E+01 0. -1.
       -4    1    3    3    0  502  0.18781630655E+03 -0.79974898167E+03  0.16091732516E+04  0.18067411451E+04  0.12699999809E+01 0.  1.
</event>
<event>
 5   0  0.1502886E-05  0.2356610E+04  0.7818609E-02  0.8455929E-01
        1   -1    0    0  501    0  0.00000000000E+00  0.00000000000E+00  0.84848221976E+03  0.84848221977E+03  0.50400001928E-02 0.  1.
       -1   -1    0    0    0  501  0.00000000000E+00  0.00000000000E+00 -0.16363364020E+04  0.16363364021E+04  0.50400001928E-02 0. -1.
    10030    2    1    2    0    0  0.00000000000E+00  0.00000000000E+00 -0.78785418229E+03  0.24848186218E+04  0.23566097197E+04 0.  0.
        4    1    3    3  502    0  0.10172266133E+03  0.87576824067E+03  0.43031959025E+03  0.98106782326E+03  0.12699999809E+01 0.  1.
       -4    1    3    3    0  502 -0.10172266133E+03 -0.87576824067E+03 -0.12181737725E+04  0.15037507986E+04  0.12699999809E+01 0. -1.
</event>
<event>
 5   0  0.1502886E-05  0.2453716E+04  0.7818609E-02  0.8419663E-01
       -1   -1    0    0    0  501  0.00000000000E+00  0.00000000000E+00  0.12492680744E+04  0.12492680744E+04  0.50400001928E-02 0. -1.
        1   -1    0    0  501    0  0.00000000000E+00  0.00000000000E+00 -0.12048496090E+04  0.12048496090E+04  0.50400001928E-02 0.  1.
    10030    2    1    2    0    0  0.00000000000E+00  0.00000000000E+00  0.44418465354E+02  0.24541176834E+04  0.24537156730E+04 0.  0.
        4    1    3    3  502    0 -0.16770737400E+03 -0.37723834172E+03 -0.11332912676E+04  0.12061447840E+04  0.12699999809E+01 0.  1.
       -4    1    3    3    0  502  0.16770737400E+03  0.37723834172E+03  0.11777097329E+04  0.12479728994E+04  0.12699999809E+01 0. -1.
</event>
<event>
 5   0  0.1421242E-05  0.2514631E+04  0.7818609E-02  0.8397792E-01
       -1   -1    0    0    0  501  0.00000000000E+00  0.00000000000E+00  0.74131989834E+03  0.74131989836E+03  0.50400001928E-02 0.  1.
        1   -1    0    0  501    0  0.00000000000E+00  0.00000000000E+00 -0.21324695811E+04  0.21324695811E+04  0.50400001928E-02 0. -1.
    10030    2    1    2    0    0  0.00000000000E+00  0.00000000000E+00 -0.13911496827E+04  0.28737894794E+04  0.25146308939E+04 0.  0.
        3    1    3    3  502    0 -0.11985479285E+04  0.91555983544E+02 -0.11169396976E+04  0.16408698709E+04  0.10100000352E+00 0. -1.
       -3    1    3    3    0  502  0.11985479285E+04 -0.91555983544E+02 -0.27420998514E+03  0.12329196085E+04  0.10100000352E+00 0.  1.
</event>
<event>
 5   0  0.3704241E-05  0.2545372E+04  0.7818609E-02  0.8386998E-01
        2   -1    0    0  501    0  0.00000000000E+00  0.00000000000E+00  0.18375597590E+04  0.18375597590E+04  0.25500000920E-02 0.  1.
       -2   -1    0    0    0  501  0.00000000000E+00  0.00000000000E+00 -0.88145659300E+03  0.88145659300E+03  0.25500000920E-02 0. -1.
    10030    2    1    2    0    0  0.00000000000E+00  0.00000000000E+00  0.95610316605E+03  0.27190163520E+04  0.25453716150E+04 0.  0.
        2    1    3    3  502    0 -0.61831036197E+03  0.66622371144E+03  0.14296474332E+04  0.16941232306E+04  0.25500000920E-02 0.  1.
       -2    1    3    3    0  502  0.61831036197E+03 -0.66622371144E+03 -0.47354426711E+03  0.10248931214E+04  0.25500000920E-02 0. -1.
</event>
<event>
 5   0  0.1421242E-05  0.2466338E+04  0.7818609E-02  0.8415077E-01
        1   -1    0    0  501    0  0.00000000000E+00  0.00000000000E+00  0.13623425254E+04  0.13623425254E+04  0.50400001928E-02 0.  1.
       -1   -1    0    0    0  501  0.00000000000E+00  0.00000000000E+00 -0.11162429509E+04  0.11162429509E+04  0.50400001928E-02 0. -1.
    10030    2    1    2    0    0  0.00000000000E+00  0.00000000000E+00  0.24609957456E+03  0.24785854763E+04  0.24663375606E+04 0.  0.
        3    1    3    3  502    0  0.18760789941E+03  0.10941995659E+04 -0.41649233561E+03  0.11857214217E+04  0.10100000352E+00 0. -1.
       -3    1    3    3    0  502 -0.18760789941E+03 -0.10941995659E+04  0.66259191017E+03  0.12928640546E+04  0.10100000352E+00 0.  1.
</event>
<event>
 5   0  0.1456876E-05  0.2528688E+04  0.7818609E-02  0.8392836E-01
        1   -1    0    0  501    0  0.00000000000E+00  0.00000000000E+00  0.14939720015E+04  0.14939720015E+04  0.50400001928E-02 0. -1.
       -1   -1    0    0    0  501  0.00000000000E+00  0.00000000000E+00 -0.10700102360E+04  0.10700102360E+04  0.50400001928E-02 0.  1.
    10030    2    1    2    0    0  0.00000000000E+00  0.00000000000E+00  0.42396176545E+03  0.25639822375E+04  0.25286876706E+04 0.  0.
        1    1    3    3  502    0 -0.86351564513E+03 -0.63707002386E+03 -0.46596780754E+03  0.11698903719E+04  0.50400001928E-02 0.  1.
       -1    1    3    3    0  502  0.86351564513E+03  0.63707002386E+03  0.88992957299E+03  0.13940918656E+04  0.50400001928E-02 0. -1.
</event>
<event>
 5   0  0.1201438E-05  0.2501912E+04  0.7818609E-02  0.8402305E-01
       -4   -1    0    0    0  501  0.00000000000E+00  0.00000000000E+00  0.10553808314E+04  0.10553815956E+04  0.12699999809E+01 0.  1.
        4   -1    0    0  501    0  0.00000000000E+00  0.00000000000E+00 -0.14827724466E+04  0.14827729905E+04  0.12699999809E+01 0. -1.
    10030    2    1    2    0    0  0.00000000000E+00  0.00000000000E+00 -0.42739161516E+03  0.25381545861E+04  0.25019122906E+04 0.  0.
        3    1    3    3  502    0  0.81298449543E+03 -0.55657042322E+03 -0.99569057857E+03  0.14007548552E+04  0.10100000352E+00 0. -1.
       -3    1    3    3    0  502 -0.81298449543E+03  0.55657042322E+03  0.56829896341E+03  0.11373997309E+04  0.10100000352E+00 0.  1.
</event>
<event>
 5   0  0.1429483E-05  0.2518256E+04  0.7818609E-02  0.8396510E-01
       -1   -1    0    0    0  501  0.00000000000E+00  0.00000000000E+00  0.86111734160E+03  0.86111734161E+03  0.50400001928E-02 0.  1.
        1   -1    0    0  501    0  0.00000000000E+00  0.00000000000E+00 -0.18411007863E+04  0.18411007863E+04  0.50400001928E-02 0. -1.
    10030    2    1    2    0    0  0.00000000000E+00  0.00000000000E+00 -0.97998344467E+03  0.27022181279E+04  0.25182563926E+04 0.  0.
        2    1    3    3  502    0  0.32685721702E+03  0.12122118592E+04 -0.38756965527E+03  0.13139647901E+04  0.25500000920E-02 0.  1.
       -2    1    3    3    0  502 -0.32685721702E+03 -0.12122118592E+04 -0.59241378941E+03  0.13882533378E+04  0.25500000920E-02 0. -1.
</event>
<event>
 5   0  0.1492639E-05  0.2502222E+04  0.7818609E-02  0.8402194E-01
        1   -1    0    0  501    0  0.00000000000E+00  0.00000000000E+00  0.11835674757E+04  0.11835674758E+04  0.50400001928E-02 0. -1.
       -1   -1    0    0    0  501  0.00000000000E+00  0.00000000000E+00 -0.13225090324E+04  0.13225090325E+04  0.50400001928E-02 0.  1.
    10030    2    1    2    0    0  0.00000000000E+00  0.00000000000E+00 -0.13894155670E+03  0.25060765082E+04  0.25022219543E+04 0.  0.
        5    1    3    3  502    0 -0.12123505894E+04  0.28521357317E+03 -0.18846395594E+03  0.12596354579E+04  0.46999998093E+01 0. -1.
       -5    1    3    3    0  502  0.12123505894E+04 -0.28521357317E+03  0.49522399242E+02  0.12464410504E+04  0.46999998093E+01 0.  1.
</event>
<event>
 5   0  0.1502886E-05  0.2500032E+04  0.7818609E-02  0.8402974E-01
       -1   -1    0    0    0  501  0.00000000000E+00  0.00000000000E+00  0.22454102685E+04  0.22454102685E+04  0.50400001928E-02 0. -1.
        1   -1    0    0  501    0  0.00000000000E+00  0.00000000000E+00 -0.69588147992E+03  0.69588147994E+03  0.50400001928E-02 0.  1.
    10030    2    1    2    0    0  0.00000000000E+00  0.00000000000E+00  0.15495287886E+04  0.29412917484E+04  0.25000315364E+04 0.  0.
        4    1    3    3  502    0  0.19841496475E+03 -0.11018786228E+04  0.14287902431E+04  0.18151992092E+04  0.12699999809E+01 0. -1.
       -4    1    3    3    0  502 -0.19841496475E+03  0.11018786228E+04  0.12073854550E+03  0.11260925392E+04  0.12699999809E+01 0.  1.
</event>
<event>
 5   0  0.1502886E-05  0.2446920E+04  0.7818609E-02  0.8422144E-01
        1   -1    0    0  501    0  0.00000000000E+00  0.00000000000E+00  0.23522792527E+04  0.23522792527E+04  0.50400001928E-02 0. -1.
       -1   -1    0    0    0  501  0.00000000000E+00  0.00000000000E+00 -0.63634195018E+03  0.63634195020E+03  0.50400001928E-02 0.  1.
    10030    2    1    2    0    0  0.00000000000E+00  0.00000000000E+00  0.17159373025E+04  0.29886212029E+04  0.24469196693E+04 0.  0.
        4    1    3    3  502    0 -0.10918606464E+04  0.20344059739E+03  0.23123878698E+03  0.11344693637E+04  0.12699999809E+01 0.  1.
       -4    1    3    3    0  502  0.10918606464E+04 -0.20344059739E+03  0.14846985155E+04  0.18541518391E+04  0.12699999809E+01 0. -1.
</event>
<event>
 5   0  0.3578670E-05  0.2524764E+04  0.7818609E-02  0.8394216E-01
       -2   -1    0    0    0  501  0.00000000000E+00  0.00000000000E+00  0.13590421556E+04  0.13590421556E+04  0.25500000920E-02 0. -1.
        2   -1    0    0  501    0  0.00000000000E+00  0.00000000000E+00 -0.11725970116E+04  0.11725970116E+04  0.25500000920E-02 0.  1.
    10030    2    1    2    0    0  0.00000000000E+00  0.00000000000E+00  0.18644514406E+03  0.25316391672E+04  0.25247643615E+04 0.  0.
        4    1    3    3  502    0 -0.59504989267E+03 -0.85012124412E+03 -0.62763456781E+03  0.12127313256E+04  0.12699999809E+01 0.  1.
       -4    1    3    3    0  502  0.59504989267E+03  0.85012124412E+03  0.81407971187E+03  0.13189078416E+04  0.12699999809E+01 0. -1.
</event>
<event>
 5   0  0.1421242E-05  0.2143346E+04  0.7818609E-02  0.8542386E-01
       -1   -1    0    0    0  501  0.00000000000E+00  0.00000000000E+00  0.76214522222E+03  0.76214522223E+03  0.50400001928E-02 0. -1.
        1   -1    0    0  501    0  0.00000000000E+00  0.00000000000E+00 -0.15069082453E+04  0.15069082453E+04  0.50400001928E-02 0.  1.
    10030    2    1    2    0    0  0.00000000000E+00  0.00000000000E+00 -0.74476302310E+03  0.22690534676E+04  0.21433459072E+04 0.  0.
        3    1    3    3  502    0  0.44469680250E+03  0.62690608791E+03 -0.11629858244E+04  0.13940238618E+04  0.10100000352E+00 0.  1.
       -3    1    3    3    0  502 -0.44469680250E+03 -0.62690608791E+03  0.41822280134E+03  0.87502960577E+03  0.10100000352E+00 0. -1.
</event>
<event>
 5   0  0.3704241E-05  0.2502972E+04  0.7818609E-02  0.8401928E-01
        2   -1    0    0  501    0  0.00000000000E+00  0.00000000000E+00  0.17320479134E+04  0.17320479134E+04  0.25500000920E-02 0. -1.
       -2   -1    0    0    0  501  0.00000000000E+00  0.00000000000E+00 -0.90425745636E+03  0.90425745636E+03  0.25500000920E-02 0.  1.
    10030    2    1    2    0    0  0.00000000000E+00  0.00000000000E+00  0.82779045705E+03  0.26363053698E+04  0.25029720258E+04 0.  0.
        2    1    3    3  502    0 -0.68560374603E+03 -0.59682371662E+03  0.13199316547E+04  0.16026448821E+04  0.25500000920E-02 0. -1.
       -2    1    3    3    0  502  0.68560374603E+03  0.59682371662E+03 -0.49214119761E+03  0.10336604876E+04  0.25500000920E-02 0.  1.
</event>
<event>
 5   0  0.3579097E-05  0.2473416E+04  0.7818609E-02  0.8412518E-01
        2   -1    0    0  501    0  0.00000000000E+00  0.00000000000E+00  0.16395556056E+04  0.16395556056E+04  0.25500000920E-02 0. -1.
       -2   -1    0    0    0  501  0.00000000000E+00  0.00000000000E+00 -0.93284213122E+03  0.93284213122E+03  0.25500000920E-02 0.  1.
    10030    2    1    2    0    0  0.00000000000E+00  0.00000000000E+00  0.70671347438E+03  0.25723977368E+04  0.24734158934E+04 0.  0.
        5    1    3    3  502    0 -0.31968176355E+03 -0.11151850792E+04 -0.92264413429E+02  0.11637736046E+04  0.46999998093E+01 0. -1.
       -5    1    3    3    0  502  0.31968176355E+03  0.11151850792E+04  0.79897788781E+03  0.14086241322E+04  0.46999998093E+01 0.  1.
</event>
<event>
 5   0  0.3650620E-05  0.2472201E+04  0.7818609E-02  0.8412956E-01
       -2   -1    0    0    0  501  0.00000000000E+00  0.00000000000E+00  0.11491900793E+04  0.11491900793E+04  0.25500000920E-02 0.  1.
        2   -1    0    0  501    0  0.00000000000E+00  0.00000000000E+00 -0.13295837630E+04  0.13295837630E+04  0.25500000920E-02 0. -1.
    10030    2    1    2    0    0  0.00000000000E+00  0.00000000000E+00 -0.18039368376E+03  0.24787738423E+04  0.24722010193E+04 0.  0.
        3    1    3    3  502    0  0.24979770741E+02 -0.12327733980E+04 -0.17755034072E+03  0.12457441043E+04  0.10100000352E+00 0.  1.
       -3    1    3    3    0  502 -0.24979770741E+02  0.12327733980E+04 -0.28433430364E+01  0.12330297379E+04  0.10100000352E+00 0. -1.
</event>
<event>
 5   0  0.1429483E-05  0.2474433E+04  0.7818609E-02  0.8412151E-01
       -1   -1    0    0    0  501  0.00000000000E+00  0.00000000000E+00  0.97701890597E+03  0.97701890598E+03  0.50400001928E-02 0. -1.
        1   -1    0    0  501    0  0.00000000000E+00  0.00000000000E+00 -0.15667090314E+04  0.15667090314E+04  0.50400001928E-02 0.  1.
    10030    2    1    2    0    0  0.00000000000E+00  0.00000000000E+00 -0.58969012541E+03  0.25437279374E+04  0.24744327381E+04 0.  0.
        2    1    3    3  502    0  0.56400612028E+03  0.57659787494E+03 -0.12592734410E+04  0.14954389363E+04  0.25500000920E-02 0.  1.
       -2    1    3    3    0  502 -0.56400612028E+03 -0.57659787494E+03  0.66958331561E+03  0.10482890010E+04  0.25500000920E-02 0. -1.
</event>
<event>
 5   0  0.3650620E-05  0.2442831E+04  0.7818609E-02  0.8423640E-01
        2   -1    0    0  501    0  0.00000000000E+00  0.00000000000E+00  0.27915457706E+04  0.27915457707E+04  0.25500000920E-02 0.  1.
       -2   -1    0    0    0  501  0.00000000000E+00  0.00000000000E+00 -0.53441909659E+03  0.53441909660E+03  0.25500000920E-02 0. -1.
    10030    2    1    2    0    0  0.00000000000E+00  0.00000000000E+00  0.22571266741E+04  0.33259648672E+04  0.24428306277E+04 0.  0.
        3    1    3    3  502    0 -0.56656900590E+02  0.11007674666E+04  0.18450860402E+04  0.21492420817E+04  0.10100000352E+00 0. -1.
       -3    1    3    3    0  502  0.56656900590E+02 -0.11007674666E+04  0.41204063386E+03  0.11767227855E+04  0.10100000352E+00 0.  1.
</event>
<event>
 5   0  0.1492639E-05  0.2233542E+04  0.7818609E-02  0.8504595E-01
       -1   -1    0    0    0  501  0.00000000000E+00  0.00000000000E+00  0.25067163262E+04  0.25067163262E+04  0.50400001928E-02 0.  1.
        1   -1    0    0  501    0  0.00000000000E+00  0.00000000000E+00 -0.49753453252E+03  0.49753453254E+03  0.50400001928E-02 0. -1.
    10030    2    1    2    0    0  0.00000000000E+00  0.00000000000E+00  0.20091817937E+04  0.30042508587E+04  0.22335424200E+04 0.  0.
        5    1    3    3  502    0  0.48440037305E+03 -0.25924433943E+03 -0.30316850427E+03  0.62752257403E+03  0.46999998093E+01 0. -1.
       -5    1    3    3    0  502 -0.48440037305E+03  0.25924433943E+03  0.23123502979E+04  0.23767282847E+04  0.46999998093E+01 0.  1.
</event>
<event>
 5   0  0.1421242E-05  0.2446565E+04  0.7818609E-02  0.8422273E-01
       -1   -1    0    0    0  501  0.00000000000E+00  0.00000000000E+00  0.84202473296E+03  0.84202473298E+03  0.50400001928E-02 0. -1.
        1   -1    0    0  501    0  0.00000000000E+00  0.00000000000E+00 -0.17771686899E+04  0.17771686899E+04  0.50400001928E-02 0.  1.
    10030    2    1    2    0    0  0.00000000000E+00  0.00000000000E+00 -0.93514395696E+03  0.26191934229E+04  0.24465649320E+04 0.  0.
        3    1    3    3  502    0 -0.17066876594E+03 -0.11197845048E+04  0.26946364501E+02  0.11330363108E+04  0.10100000352E+00 0. -1.
       -3    1    3    3    0  502  0.17066876594E+03  0.11197845048E+04 -0.96209032146E+03  0.14861571121E+04  0.10100000352E+00 0.  1.
</event>
<event>
 5   0  0.1456876E-05  0.2525580E+04  0.7818609E-02  0.8393929E-01
        1   -1    0    0  501    0  0.00000000000E+00  0.00000000000E+00  0.12565613729E+04  0.12565613729E+04  0.50400001928E-02 0. -1.
       -1   -1    0    0    0  501  0.00000000000E+00  0.00000000000E+00 -0.12690499337E+04  0.12690499337E+04  0.50400001928E-02 0.  1.
    10030    2    1    2    0    0  0.00000000000E+00  0.00000000000E+00 -0.12488560747E+02  0.25256113066E+04  0.25255804299E+04 0.  0.
        1    1    3    3  502    0  0.24646521465E+03  0.11504300713E+04 -0.46494878283E+03  0.12650738404E+04  0.50400001928E-02 0.  1.
       -1    1    3    3    0  502 -0.24646521465E+03 -0.11504300713E+04  0.45246022209E+03  0.12605374662E+04  0.50400001928E-02 0. -1.
</event>
<event>
 5   0  0.3578670E-05  0.2471043E+04  0.7818609E-02  0.8413375E-01
        2   -1    0    0  501    0  0.00000000000E+00  0.00000000000E+00  0.11678687933E+04  0.11678687933E+04  0.25500000920E-02 0. -1.
       -2   -1    0    0    0  501  0.00000000000E+00  0.00000000000E+00 -0.13070936945E+04  0.13070936945E+04  0.25500000920E-02 0.  1.
    10030    2    1    2    0    0  0.00000000000E+00  0.00000000000E+00 -0.13922490116E+03  0.24749624878E+04  0.24710434523E+04 0.  0.
        4    1    3    3  502    0 -0.25600556194E+03 -0.10347984590E+04 -0.69523549905E+03  0.12726746287E+04  0.12699999809E+01 0.  1.
       -4    1    3    3    0  502  0.25600556194E+03  0.10347984590E+04  0.55601059789E+03  0.12022878592E+04  0.12699999809E+01 0. -1.
</event>
<event>
 5   0  0.1456876E-05  0.2499548E+04  0.7818609E-02  0.8403147E-01
       -1   -1    0    0    0  501  0.00000000000E+00  0.00000000000E+00  0.16512188546E+04  0.16512188546E+04  0.50400001928E-02 0. -1.
        1   -1    0    0  501    0  0.00000000000E+00  0.00000000000E+00 -0.94592838250E+03  0.94592838251E+03  0.50400001928E-02 0.  1.
    10030    2    1    2    0    0  0.00000000000E+00  0.00000000000E+00  0.70529047212E+03  0.25971472371E+04  0.24995477834E+04 0.  0.
        1    1    3    3  502    0 -0.97069457277E+03 -0.68513596002E+03 -0.50145321252E+02  0.11891903929E+04  0.50400001928E-02 0.  1.
       -1    1    3    3    0  502  0.97069457277E+03  0.68513596002E+03  0.75543579337E+03  0.14079568442E+04  0.50400001928E-02 0. -1.
</event>
<event>
 5   0  0.1429483E-05  0.2507848E+04  0.7818609E-02  0.8400195E-01
        1   -1    0    0  501    0  0.00000000000E+00  0.00000000000E+00  0.10939060116E+04  0.10939060116E+04  0.50400001928E-02 0. -1.
       -1   -1    0    0    0  501  0.00000000000E+00  0.00000000000E+00 -0.14373499015E+04  0.14373499015E+04  0.50400001928E-02 0.  1.
    10030    2    1    2    0    0  0.00000000000E+00  0.00000000000E+00 -0.34344388987E+03  0.25312559131E+04  0.25078482395E+04 0.  0.
        2    1    3    3  502    0  0.33837054839E+03  0.11450881974E+04  0.21474098907E+03  0.12131921943E+04  0.25500000920E-02 0. -1.
       -2    1    3    3    0  502 -0.33837054839E+03 -0.11450881974E+04 -0.55818487893E+03  0.13180637189E+04  0.25500000920E-02 0.  1.
</event>
<event>
 5   0  0.1492639E-05  0.2503804E+04  0.7818609E-02  0.8401632E-01
        1   -1    0    0  501    0  0.00000000000E+00  0.00000000000E+00  0.18331039013E+04  0.18331039013E+04  0.50400001928E-02 0. -1.
       -1   -1    0    0    0  501  0.00000000000E+00  0.00000000000E+00 -0.85497501188E+03  0.85497501189E+03  0.50400001928E-02 0.  1.
    10030    2    1    2    0    0  0.00000000000E+00  0.00000000000E+00  0.97812888941E+03  0.26880789132E+04  0.25038035305E+04 0.  0.
        5    1    3    3  502    0  0.18050832596E+03 -0.61271272352E+03  0.16449841289E+04  0.17646515269E+04  0.46999998093E+01 0. -1.
       -5    1    3    3    0  502 -0.18050832596E+03  0.61271272352E+03 -0.66685523945E+03  0.92342738625E+03  0.46999998093E+01 0.  1.
</event>
<event>
 5   0  0.3704241E-05  0.2512041E+04  0.7818609E-02  0.8398708E-01
       -2   -1    0    0    0  501  0.00000000000E+00  0.00000000000E+00  0.26758303989E+04  0.26758303989E+04  0.25500000920E-02 0. -1.
        2   -1    0    0  501    0  0.00000000000E+00  0.00000000000E+00 -0.58956946883E+03  0.58956946883E+03  0.25500000920E-02 0.  1.
    10030    2    1    2    0    0  0.00000000000E+00  0.00000000000E+00  0.20862609300E+04  0.32653998677E+04  0.25120413268E+04 0.  0.
        2    1    3    3  502    0  0.21668828960E+02  0.68099578654E+03  0.24147321315E+04  0.25090149593E+04  0.25500000920E-02 0. -1.
       -2    1    3    3    0  502 -0.21668828960E+02 -0.68099578654E+03 -0.32847120142E+03  0.75638490837E+03  0.25500000920E-02 0.  1.
</event>
<event>
 5   0  0.3578670E-05  0.2498771E+04  0.7818609E-02  0.8403424E-01
       -2   -1    0    0    0  501  0.00000000000E+00  0.00000000000E+00  0.85696414364E+03  0.85696414365E+03  0.25500000920E-02 0.  1.
        2   -1    0    0  501    0  0.00000000000E+00  0.00000000000E+00 -0.18215042366E+04  0.18215042366E+04  0.25500000920E-02 0. -1.
    10030    2    1    2    0    0  0.00000000000E+00  0.00000000000E+00 -0.96454009297E+03  0.26784683803E+04  0.24987707524E+04 0.  0.
        4    1    3    3  502    0  0.45758448423E+03 -0.42111147892E+03 -0.16438236106E+04  0.17575198757E+04  0.12699999809E+01 0. -1.
       -4    1    3    3    0  502 -0.45758448423E+03  0.42111147892E+03  0.67928351760E+03  0.92094850457E+03  0.12699999809E+01 0.  1.
</event>
<event>
 5   0  0.3704241E-05  0.2480994E+04  0.7818609E-02  0.8409788E-01
        2   -1    0    0  501    0  0.00000000000E+00  0.00000000000E+00  0.11380963664E+04  0.11380963664E+04  0.25500000920E-02 0.  1.
       -2   -1    0    0    0  501  0.00000000000E+00  0.00000000000E+00 -0.13521108604E+04  0.13521108604E+04  0.25500000920E-02 0. -1.
    10030    2    1    2    0    0  0.00000000000E+00  0.00000000000E+00 -0.21401449403E+03  0.24902072267E+04  0.24809937179E+04 0.  0.
        2    1    3    3  502    0  0.42732393438E+02  0.98252161212E+03  0.65188103385E+03  0.11798829001E+04  0.25500000920E-02 0.  1.
       -2    1    3    3    0  502 -0.42732393438E+02 -0.98252161212E+03 -0.86589552788E+03  0.13103243266E+04  0.25500000920E-02 0. -1.
</event>
<event>
 5   0  0.1502886E-05  0.2533316E+04  0.7818609E-02  0.8391212E-01
        1   -1    0    0  501    0  0.00000000000E+00  0.00000000000E+00  0.18101303124E+04  0.18101303124E+04  0.50400001928E-02 0.  1.
       -1   -1    0    0    0  501  0.00000000000E+00  0.00000000000E+00 -0.88635751662E+03  0.88635751663E+03  0.50400001928E-02 0. -1.
    10030    2    1    2    0    0  0.00000000000E+00  0.00000000000E+00  0.92377279578E+03  0.26964878290E+04  0.25333160944E+04 0.  0.
        4    1    3    3  502    0 -0.73857063558E+03 -0.53154735810E+03 -0.47599853092E+03  0.10269398191E+04  0.12699999809E+01 0. -1.
       -4    1    3    3    0  502  0.73857063558E+03  0.53154735810E+03  0.13997713267E+04  0.16695480100E+04  0.12699999809E+01 0.  1.
</event>
<event>
 5   0  0.3579097E-05  0.2491657E+04  0.7818609E-02  0.8405964E-01
       -2   -1    0    0    0  501  0.00000000000E+00  0.00000000000E+00  0.87464731847E+03  0.87464731847E+03  0.25500000920E-02 0. -1.
        2   -1    0    0  501    0  0.00000000000E+00  0.00000000000E+00 -0.17745303225E+04  0.17745303225E+04  0.25500000920E-02 0.  1.
    10030    2    1    2    0    0  0.00000000000E+00  0.00000000000E+00 -0.89988300405E+03  0.26491776410E+04  0.24916566281E+04 0.  0.
        5    1    3    3  502    0  0.50762691608E+03 -0.96318999015E+03  0.19385171501E+03  0.11059026270E+04  0.46999998093E+01 0.  1.
       -5    1    3    3    0  502 -0.50762691608E+03  0.96318999015E+03 -0.10937347191E+04  0.15432750140E+04  0.46999998093E+01 0. -1.
</event>
<event>
 5   0  0.1429483E-05  0.2444136E+04  0.7818609E-02  0.8423162E-01
        1   -1    0    0  501    0  0.00000000000E+00  0.00000000000E+00  0.99046534359E+03  0.99046534360E+03  0.50400001928E-02 0.  1.
       -1   -1    0    0    0  501  0.00000000000E+00  0.00000000000E+00 -0.15078269840E+04  0.15078269840E+04  0.50400001928E-02 0. -1.
    10030    2    1    2    0    0  0.00000000000E+00  0.00000000000E+00 -0.51736164037E+03  0.24982923276E+04  0.24441361433E+04 0.  0.
        2    1    3    3  502    0 -0.94054324877E+03  0.15058475381E+03  0.52388947203E+03  0.10870867260E+04  0.25500000920E-02 0.  1.
       -2    1    3    3    0  502  0.94054324877E+03 -0.15058475381E+03 -0.10412511124E+04  0.14112056016E+04  0.25500000920E-02 0. -1.
</event>
<event>
 5   0  0.1456876E-05  0.2157811E+04  0.7818609E-02  0.8536196E-01
        1   -1    0    0  501    0  0.00000000000E+00  0.00000000000E+00  0.10622851156E+04  0.10622851156E+04  0.50400001928E-02 0. -1.
       -1   -1    0    0    0  501  0.00000000000E+00  0.00000000000E+00 -0.10957860986E+04  0.10957860987E+04  0.50400001928E-02 0.  1.
    10030    2    1    2    0    0  0.00000000000E+00  0.00000000000E+00 -0.33500983074E+02  0.21580712142E+04  0.21578111710E+04 0.  0.
        1    1    3    3  502    0  0.73763797751E+02 -0.80063192331E+03 -0.73627078055E+03  0.10902051352E+04  0.50400001928E-02 0.  1.
       -1    1    3    3    0  502 -0.73763797751E+02  0.80063192331E+03  0.70276979748E+03  0.10678660790E+04  0.50400001928E-02 0. -1.
</event>
<event>
 5   0  0.1492639E-05  0.2548098E+04  0.7818609E-02  0.8386048E-01
        1   -1    0    0  501    0  0.00000000000E+00  0.00000000000E+00  0.17012390888E+04  0.17012390888E+04  0.50400001928E-02 0. -1.
       -1   -1    0    0    0  501  0.00000000000E+00  0.00000000000E+00 -0.95412844118E+03  0.95412844119E+03  0.50400001928E-02 0.  1.
    10030    2    1    2    0    0  0.00000000000E+00  0.00000000000E+00  0.74711064762E+03  0.26553675300E+04  0.25480978002E+04 0.  0.
        5    1    3    3  502    0  0.12277834514E+04  0.28845683034E+03  0.18563364032E+03  0.12748103721E+04  0.46999998093E+01 0.  1.
       -5    1    3    3    0  502 -0.12277834514E+04 -0.28845683034E+03  0.56147700730E+03  0.13805571579E+04  0.46999998093E+01 0. -1.
</event>
<event>
 5   0  0.1502886E-05  0.2464517E+04  0.7818609E-02  0.8415737E-01
       -1   -1    0    0    0  501  0.00000000000E+00  0.00000000000E+00  0.90747263611E+03  0.90747263612E+03  0.50400001928E-02 0. -1.
        1   -1    0    0  501    0  0.00000000000E+00  0.00000000000E+00 -0.16732856129E+04  0.16732856129E+04  0.50400001928E-02 0.  1.
    10030    2    1    2    0    0  0.00000000000E+00  0.00000000000E+00 -0.76581297682E+03  0.25807582491E+04  0.24645169151E+04 0.  0.
        4    1    3    3  502    0 -0.69604211639E+03 -0.40801311302E+03 -0.13582391255E+04  0.15797988679E+04  0.12699999809E+01 0.  1.
       -4    1    3    3    0  502  0.69604211639E+03  0.40801311302E+03  0.59242614865E+03  0.10009593811E+04  0.12699999809E+01 0. -1.
</event>
<event>
 5   0  0.3581449E-05  0.2463172E+04  0.7818609E-02  0.8416224E-01
       -2   -1    0    0    0  501  0.00000000000E+00  0.00000000000E+00  0.25674821158E+04  0.25674821158E+04  0.25500000920E-02 0. -1.
        2   -1    0    0  501    0  0.00000000000E+00  0.00000000000E+00 -0.59077502408E+03  0.59077502409E+03  0.25500000920E-02 0.  1.
    10030    2    1    2    0    0  0.00000000000E+00  0.00000000000E+00  0.19767070917E+04  0.31582571398E+04  0.24631721895E+04 0.  0.
        1    1    3    3  502    0  0.10522540071E+04 -0.54426121315E+03  0.55668048974E+03  0.13089506986E+04  0.50400001928E-02 0.  1.
       -1    1    3    3    0  502 -0.10522540071E+04  0.54426121315E+03  0.14200266019E+04  0.18493064413E+04  0.50400001928E-02 0. -1.
</event>
<event>
 5   0  0.1456876E-05  0.2505660E+04  0.7818609E-02  0.8400972E-01
       -1   -1    0    0    0  501  0.00000000000E+00  0.00000000000E+00  0.12364200390E+04  0.12364200390E+04  0.50400001928E-02 0.  1.
        1   -1    0    0  501    0  0.00000000000E+00  0.00000000000E+00 -0.12694580877E+04  0.12694580878E+04  0.50400001928E-02 0. -1.
    10030    2    1    2    0    0  0.00000000000E+00  0.00000000000E+00 -0.33038048730E+02  0.25058781268E+04  0.25056603269E+04 0.  0.
        1    1    3    3  502    0  0.10542981644E+04  0.64083866174E+03 -0.23417205779E+03  0.12558086489E+04  0.50400001928E-02 0. -1.
       -1    1    3    3    0  502 -0.10542981644E+04 -0.64083866174E+03  0.20113400906E+03  0.12500694779E+04  0.50400001928E-02 0.  1.
</event>
<event>
 5   0  0.3650620E-05  0.2500538E+04  0.7818609E-02  0.8402794E-01
       -2   -1    0    0    0  501  0.00000000000E+00  0.00000000000E+00  0.16907644448E+04  0.16907644448E+04  0.25500000920E-02 0. -1.
        2   -1    0    0  501    0  0.00000000000E+00  0.00000000000E+00 -0.92453588556E+03  0.92453588556E+03  0.25500000920E-02 0.  1.
    10030    2    1    2    0    0  0.00000000000E+00  0.00000000000E+00  0.76622855919E+03  0.26153003303E+04  0.25005378647E+04 0.  0.
        3    1    3    3  502    0  0.82826750756E+03 -0.26929933585E+03 -0.55506191250E+03  0.10327840691E+04  0.10100000352E+00 0.  1.
       -3    1    3    3    0  502 -0.82826750756E+03  0.26929933585E+03  0.13212904717E+04  0.15825162613E+04  0.10100000352E+00 0. -1.
</event>
<event>
 5   0  0.3650620E-05  0.2531352E+04  0.7818609E-02  0.8391900E-01
       -2   -1    0    0    0  501  0.00000000000E+00  0.00000000000E+00  0.65070414335E+03  0.65070414335E+03  0.25500000920E-02 0.  1.
        2   -1    0    0  501    0  0.00000000000E+00  0.00000000000E+00 -0.24618505683E+04  0.24618505683E+04  0.25500000920E-02 0. -1.
    10030    2    1    2    0    0  0.00000000000E+00  0.00000000000E+00 -0.18111464250E+04  0.31125547117E+04  0.25313524963E+04 0.  0.
        3    1    3    3  502    0  0.84266012887E+03 -0.48030882535E+03 -0.19053864147E+04  0.21380528665E+04  0.10100000352E+00 0. -1.
       -3    1    3    3    0  502 -0.84266012887E+03  0.48030882535E+03  0.94239989661E+02  0.97450184522E+03  0.10100000352E+00 0.  1.
</event>
<event>
 5   0  0.3581449E-05  0.2491786E+04  0.7818609E-02  0.8405918E-01
       -2   -1    0    0    0  501  0.00000000000E+00  0.00000000000E+00  0.65452452866E+03  0.65452452866E+03  0.25500000920E-02 0.  1.
        2   -1    0    0  501    0  0.00000000000E+00  0.00000000000E+00 -0.23715673946E+04  0.23715673946E+04  0.25500000920E-02 0. -1.
    10030    2    1    2    0    0  0.00000000000E+00  0.00000000000E+00 -0.17170428660E+04  0.30260919233E+04  0.24917857301E+04 0.  0.
        1    1    3    3  502    0 -0.12302331533E+04  0.16138409068E+03 -0.99554515835E+03  0.15907949581E+04  0.50400001928E-02 0.  1.
       -1    1    3    3    0  502  0.12302331533E+04 -0.16138409068E+03 -0.72149770764E+03  0.14352969652E+04  0.50400001928E-02 0. -1.
</event>
<event>
 5   0  0.3579097E-05  0.2069898E+04  0.7818609E-02  0.8574621E-01
        2   -1    0    0  501    0  0.00000000000E+00  0.00000000000E+00  0.12140702617E+04  0.12140702617E+04  0.25500000920E-02 0. -1.
       -2   -1    0    0    0  501  0.00000000000E+00  0.00000000000E+00 -0.88225468808E+03  0.88225468808E+03  0.25500000920E-02 0.  1.
    10030    2    1    2    0    0  0.00000000000E+00  0.00000000000E+00  0.33181557360E+03  0.20963249498E+04  0.20698977559E+04 0.  0.
        5    1    3    3  502    0 -0.46452807069E+03 -0.35939376754E+03  0.10289299476E+04  0.11847654349E+04  0.46999998093E+01 0. -1.
       -5    1    3    3    0  502  0.46452807069E+03  0.35939376754E+03 -0.69711437405E+03  0.91155951484E+03  0.46999998093E+01 0.  1.
</event>
<event>
 5   0  0.1492639E-05  0.2498778E+04  0.7818609E-02  0.8403421E-01
       -1   -1    0    0    0  501  0.00000000000E+00  0.00000000000E+00  0.10819801844E+04  0.10819801844E+04  0.50400001928E-02 0. -1.
        1   -1    0    0  501    0  0.00000000000E+00  0.00000000000E+00 -0.14426999445E+04  0.14426999445E+04  0.50400001928E-02 0.  1.
    10030    2    1    2    0    0  0.00000000000E+00  0.00000000000E+00 -0.36071976009E+03  0.25246801288E+04  0.24987779028E+04 0.  0.
        5    1    3    3  502    0 -0.63587516947E+03 -0.25426245513E+03 -0.12361628330E+04  0.14131904567E+04  0.46999998093E+01 0.  1.
       -5    1    3    3    0  502  0.63587516947E+03  0.25426245513E+03  0.87544307294E+03  0.11114896721E+04  0.46999998093E+01 0. -1.
</event>
<event>
 5   0  0.3650620E-05  0.2498455E+04  0.7818609E-02  0.8403536E-01
        2   -1    0    0  501    0  0.00000000000E+00  0.00000000000E+00  0.12579943835E+04  0.12579943835E+04  0.25500000920E-02 0.  1.
       -2   -1    0    0    0  501  0.00000000000E+00  0.00000000000E+00 -0.12405214464E+04  0.12405214464E+04  0.25500000920E-02 0. -1.
    10030    2    1    2    0    0  0.00000000000E+00  0.00000000000E+00  0.17472937161E+02  0.24985158299E+04  0.24984547322E+04 0.  0.
        3    1    3    3  502    0 -0.70377587796E+03 -0.47103026701E+03 -0.90965356455E+03  0.12428353135E+04  0.10100000352E+00 0. -1.
       -3    1    3    3    0  502  0.70377587796E+03  0.47103026701E+03  0.92712650171E+03  0.12556805164E+04  0.10100000352E+00 0.  1.
</event>
<event>
 5   0  0.1502886E-05  0.2513107E+04  0.7818609E-02  0.8398331E-01
       -1   -1    0    0    0  501  0.00000000000E+00  0.00000000000E+00  0.29874522124E+04  0.29874522124E+04  0.50400001928E-02 0. -1.
        1   -1    0    0  501    0  0.00000000000E+00  0.00000000000E+00 -0.52851948467E+03  0.52851948469E+03  0.50400001928E-02 0.  1.
    10030    2    1    2    0    0  0.00000000000E+00  0.00000000000E+00  0.24589327278E+04  0.35159716971E+04  0.25131070043E+04 0.  0.
        4    1    3    3  502    0  0.28629060075E+03  0.98094730604E+03  0.20642880174E+03  0.10425134955E+04  0.12699999809E+01 0.  1.
       -4    1    3    3    0  502 -0.28629060075E+03 -0.98094730604E+03  0.22525039260E+04  0.24734582016E+04  0.12699999809E+01 0. -1.
</event>
<event>
 5   0  0.1456876E-05  0.2530063E+04  0.7818609E-02  0.8392353E-01
        1   -1    0    0  501    0  0.00000000000E+00  0.00000000000E+00  0.10348593224E+04  0.10348593224E+04  0.50400001928E-02 0.  1.
       -1   -1    0    0    0  501  0.00000000000E+00  0.00000000000E+00 -0.15463977499E+04  0.15463977499E+04  0.50400001928E-02 0. -1.
    10030    2    1    2    0    0  0.00000000000E+00  0.00000000000E+00 -0.51153842755E+03  0.25812570723E+04  0.25300625507E+04 0.  0.
        1    1    3    3  502    0 -0.87421805696E+03 -0.47376390475E+03  0.54210026051E+03  0.11325114309E+04  0.50400001928E-02 0.  1.
       -1    1    3    3    0  502  0.87421805696E+03  0.47376390475E+03 -0.10536386881E+04  0.14487456414E+04  0.50400001928E-02 0. -1.
</event>
<event>
 5   0  0.1421242E-05  0.1976925E+04  0.7818609E-02  0.8617486E-01
        1   -1    0    0  501    0  0.00000000000E+00  0.00000000000E+00  0.13457196971E+04  0.13457196972E+04  0.50400001928E-02 0.  1.
       -1   -1    0    0    0  501  0.00000000000E+00  0.00000000000E+00 -0.72604870587E+03  0.72604870589E+03  0.50400001928E-02 0. -1.
    10030    2    1    2    0    0  0.00000000000E+00  0.00000000000E+00  0.61967099127E+03  0.20717684030E+04  0.19769249299E+04 0.  0.
        3    1    3    3  502    0  0.23928632942E+03 -0.57508030807E+03 -0.49450358649E+03  0.79530441683E+03  0.10100000352E+00 0. -1.
       -3    1    3    3    0  502 -0.23928632942E+03  0.57508030807E+03  0.11141745778E+04  0.12764639862E+04  0.10100000352E+00 0.  1.
</event>
<event>
 5   0  0.1421242E-05  0.2526229E+04  0.7818609E-02  0.8393700E-01
        1   -1    0    0  501    0  0.00000000000E+00  0.00000000000E+00  0.11272083316E+04  0.11272083316E+04  0.50400001928E-02 0.  1.
       -1   -1    0    0    0  501  0.00000000000E+00  0.00000000000E+00 -0.14154072044E+04  0.14154072044E+04  0.50400001928E-02 0. -1.
    10030    2    1    2    0    0  0.00000000000E+00  0.00000000000E+00 -0.28819887278E+03  0.25426155360E+04  0.25262294380E+04 0.  0.
        3    1    3    3  502    0 -0.12065468862E+04 -0.36665773081E+03 -0.71064974099E+02  0.12630295012E+04  0.10100000352E+00 0. -1.
       -3    1    3    3    0  502  0.12065468862E+04  0.36665773081E+03 -0.21713389868E+03  0.12795860348E+04  0.10100000352E+00 0.  1.
</event>
<event>
 5   0  0.3704241E-05  0.2506105E+04  0.7818609E-02  0.8400814E-01
       -2   -1    0    0    0  501  0.00000000000E+00  0.00000000000E+00  0.78454875081E+03  0.78454875081E+03  0.25500000920E-02 0.  1.
        2   -1    0    0  501    0  0.00000000000E+00  0.00000000000E+00 -0.20013294902E+04  0.20013294902E+04  0.25500000920E-02 0. -1.
    10030    2    1    2    0    0  0.00000000000E+00  0.00000000000E+00 -0.12167807394E+04  0.27858782410E+04  0.25061049870E+04 0.  0.
        2    1    3    3  502    0  0.90057846811E+03  0.31598713131E+03  0.29419503093E+03  0.99871926015E+03  0.25500000920E-02 0.  1.
       -2    1    3    3    0  502 -0.90057846811E+03 -0.31598713131E+03 -0.15109757703E+04  0.17871589809E+04  0.25500000920E-02 0. -1.
</event>
<event>
 5   0  0.1492639E-05  0.2389192E+04  0.7818609E-02  0.8443561E-01
        1   -1    0    0  501    0  0.00000000000E+00  0.00000000000E+00  0.15560564112E+04  0.15560564112E+04  0.50400001928E-02 0. -1.
       -1   -1    0    0    0  501  0.00000000000E+00  0.00000000000E+00 -0.91710006683E+03  0.91710006684E+03  0.50400001928E-02 0.  1.
    10030    2    1    2    0    0  0.00000000000E+00  0.00000000000E+00  0.63895634441E+03  0.24731564781E+04  0.23891918623E+04 0.  0.
        5    1    3    3  502    0  0.86421697545E+02  0.10447418173E+04 -0.27343697782E+03  0.10833946859E+04  0.46999998093E+01 0.  1.
       -5    1    3    3    0  502 -0.86421697545E+02 -0.10447418173E+04  0.91239332224E+03  0.13897617922E+04  0.46999998093E+01 0. -1.
</event>
<event>
 5   0  0.3579097E-05  0.2315401E+04  0.7818609E-02  0.8471873E-01
       -2   -1    0    0    0  501  0.00000000000E+00  0.00000000000E+00  0.13085662976E+04  0.13085662976E+04  0.25500000920E-02 0. -1.
        2   -1    0    0  501    0  0.00000000000E+00  0.00000000000E+00 -0.10242283615E+04  0.10242283615E+04  0.25500000920E-02 0.  1.
    10030    2    1    2    0    0  0.00000000000E+00  0.00000000000E+00  0.28433793606E+03  0.23327946591E+04  0.23154012308E+04 0.  0.
        5    1    3    3  502    0 -0.68599448880E+03  0.81445506050E+03 -0.31547129072E+03  0.11106168149E+04  0.46999998093E+01 0.  1.
       -5    1    3    3    0  502  0.68599448880E+03 -0.81445506050E+03  0.59980922678E+03  0.12221778442E+04  0.46999998093E+01 0. -1.
</event>
<event>
 5   0  0.1429483E-05  0.2445470E+04  0.7818609E-02  0.8422674E-01
       -1   -1    0    0    0  501  0.00000000000E+00  0.00000000000E+00  0.75374619273E+03  0.75374619275E+03  0.50400001928E-02 0. -1.
        1   -1    0    0  501    0  0.00000000000E+00  0.00000000000E+00 -0.19835332568E+04  0.19835332569E+04  0.50400001928E-02 0.  1.
    10030    2    1    2    0    0  0.00000000000E+00  0.00000000000E+00 -0.12297870641E+04  0.27372794496E+04  0.24454698040E+04 0.  0.
        2    1    3    3  502    0  0.82225895846E+03 -0.83083248208E+03 -0.21335590305E+03  0.11882395169E+04  0.25500000920E-02 0. -1.
       -2    1    3    3    0  502 -0.82225895846E+03  0.83083248208E+03 -0.10164311611E+04  0.15490399327E+04  0.25500000920E-02 0.  1.
</event>
<event>
 5   0  0.1429483E-05  0.2149353E+04  0.7818609E-02  0.8539809E-01
       -1   -1    0    0    0  501  0.00000000000E+00  0.00000000000E+00  0.19103940737E+04  0.19103940738E+04  0.50400001928E-02 0. -1.
        1   -1    0    0  501    0  0.00000000000E+00  0.00000000000E+00 -0.60455041430E+03  0.60455041432E+03  0.50400001928E-02 0.  1.
    10030    2    1    2    0    0  0.00000000000E+00  0.00000000000E+00  0.13058436595E+04  0.25149444881E+04  0.21493529527E+04 0.  0.
        2    1    3    3  502    0  0.57931697792E+03 -0.87410114384E+03  0.37784137559E+03  0.11146412318E+04  0.25500000920E-02 0. -1.
       -2    1    3    3    0  502 -0.57931697792E+03  0.87410114384E+03  0.92800228386E+03  0.14003032562E+04  0.25500000920E-02 0.  1.
</event>
<event>
 5   0  0.1456876E-05  0.2457611E+04  0.7818609E-02  0.8418244E-01
       -1   -1    0    0    0  501  0.00000000000E+00  0.00000000000E+00  0.11868156565E+04  0.11868156565E+04  0.50400001928E-02 0.  1.
        1   -1    0    0  501    0  0.00000000000E+00  0.00000000000E+00 -0.12722810212E+04  0.12722810212E+04  0.50400001928E-02 0. -1.
    10030    2    1    2    0    0  0.00000000000E+00  0.00000000000E+00 -0.85465364776E+02  0.24590966777E+04  0.24576110640E+04 0.  0.
        1    1    3    3  502    0  0.76273468008E+03  0.54673912020E+03 -0.83648087614E+03  0.12571348829E+04  0.50400001928E-02 0. -1.
       -1    1    3    3    0  502 -0.76273468008E+03 -0.54673912020E+03  0.75101551136E+03  0.12019617948E+04  0.50400001928E-02 0.  1.
</event>
<event>
 5   0  0.1429483E-05  0.2475517E+04  0.7818609E-02  0.8411760E-01
        1   -1    0    0  501    0  0.00000000000E+00  0.00000000000E+00  0.12215997906E+04  0.12215997907E+04  0.50400001928E-02 0. -1.
       -1   -1    0    0    0  501  0.00000000000E+00  0.00000000000E+00 -0.12541312995E+04  0.12541312995E+04  0.50400001928E-02 0.  1.
    10030    2    1    2    0    0  0.00000000000E+00  0.00000000000E+00 -0.32531508863E+02  0.24757310902E+04  0.24755173463E+04 0.  0.
        2    1    3    3  502    0  0.78351754403E+03  0.42419393970E+03 -0.87552926245E+03  0.12491564072E+04  0.25500000920E-02 0.  1.
       -2    1    3    3    0  502 -0.78351754403E+03 -0.42419393970E+03  0.84299775359E+03  0.12265746829E+04  0.25500000920E-02 0. -1.
</event>
<event>
 5   0  0.3581449E-05  0.2509742E+04  0.7818609E-02  0.8399523E-01
       -2   -1    0    0    0  501  0.00000000000E+00  0.00000000000E+00  0.17914614517E+04  0.17914614517E+04  0.25500000920E-02 0. -1.
        2   -1    0    0  501    0  0.00000000000E+00  0.00000000000E+00 -0.87900396559E+03  0.87900396560E+03  0.25500000920E-02 0.  1.
    10030    2    1    2    0    0  0.00000000000E+00  0.00000000000E+00  0.91245748608E+03  0.26704654173E+04  0.25097423933E+04 0.  0.
        1    1    3    3  502    0 -0.27342460231E+03 -0.13207432170E+03  0.17517804026E+04  0.17779030397E+04  0.50400001928E-02 0. -1.
       -1    1    3    3    0  502  0.27342460231E+03  0.13207432170E+03 -0.83932291653E+03  0.89256237756E+03  0.50400001928E-02 0.  1.
</event>
<event>
 5   0  0.3581449E-05  0.2491732E+04  0.7818609E-02  0.8405937E-01
        2   -1    0    0  501    0  0.00000000000E+00  0.00000000000E+00  0.15425662853E+04  0.15425662853E+04  0.25500000920E-02 0. -1.
       -2   -1    0    0    0  501  0.00000000000E+00  0.00000000000E+00 -0.10062334476E+04  0.10062334476E+04  0.25500000920E-02 0.  1.
    10030    2    1    2    0    0  0.00000000000E+00  0.00000000000E+00  0.53633283776E+03  0.25487997329E+04  0.24917317604E+04 0.  0.
        1    1    3    3  502    0  0.97016112925E+03 -0.35966663233E+03 -0.44170838536E+03  0.11250240001E+04  0.50400001928E-02 0.  1.
       -1    1    3    3    0  502 -0.97016112925E+03  0.35966663233E+03  0.97804122312E+03  0.14237757328E+04  0.50400001928E-02 0. -1.
</event>
<event>
 5   0  0.1502886E-05  0.2657309E+04  0.7818609E-02  0.8348991E-01
        1   -1    0    0  501    0  0.00000000000E+00  0.00000000000E+00  0.18223490545E+04  0.18223490545E+04  0.50400001928E-02 0.  1.
       -1   -1    0    0    0  501  0.00000000000E+00  0.00000000000E+00 -0.96870703670E+03  0.96870703671E+03  0.50400001928E-02 0. -1.
    10030    2    1    2    0    0  0.00000000000E+00  0.00000000000E+00  0.85364201784E+03  0.27910560913E+04  0.26573086779E+04 0.  0.
        4    1    3    3  502    0 -0.82796775031E+03 -0.72089237998E+03  0.12128906435E+04  0.16359467427E+04  0.12699999809E+01 0.  1.
       -4    1    3    3    0  502  0.82796775031E+03  0.72089237998E+03 -0.35924862567E+03  0.11551093485E+04  0.12699999809E+01 0. -1.
</event>
<event>
 5   0  0.3579097E-05  0.2493759E+04  0.7818609E-02  0.8405212E-01
        2   -1    0    0  501    0  0.00000000000E+00  0.00000000000E+00  0.14145234860E+04  0.14145234860E+04  0.25500000920E-02 0. -1.
       -2   -1    0    0    0  501  0.00000000000E+00  0.00000000000E+00 -0.10991036891E+04  0.10991036891E+04  0.25500000920E-02 0.  1.
    10030    2    1    2    0    0  0.00000000000E+00  0.00000000000E+00  0.31541979692E+03  0.25136271750E+04  0.24937585943E+04 0.  0.
        5    1    3    3  502    0 -0.81744554286E+03  0.57620767426E+03  0.90825876879E+03  0.13509954036E+04  0.46999998093E+01 0. -1.
       -5    1    3    3    0  502  0.81744554286E+03 -0.57620767426E+03 -0.59283897187E+03  0.11626317714E+04  0.46999998093E+01 0.  1.
</event>
<event>
 5   0  0.1492639E-05  0.2513633E+04  0.7818609E-02  0.8398145E-01
        1   -1    0    0  501    0  0.00000000000E+00  0.00000000000E+00  0.16571127518E+04  0.16571127518E+04  0.50400001928E-02 0. -1.
       -1   -1    0    0    0  501  0.00000000000E+00  0.00000000000E+00 -0.95321686638E+03  0.95321686640E+03  0.50400001928E-02 0.  1.
    10030    2    1    2    0    0  0.00000000000E+00  0.00000000000E+00  0.70389588544E+03  0.26103296182E+04  0.25136330874E+04 0.  0.
        5    1    3    3  502    0  0.67094597787E+03  0.97929071281E+03  0.78060660527E+03  0.14207559845E+04  0.46999998093E+01 0.  1.
       -5    1    3    3    0  502 -0.67094597787E+03 -0.97929071281E+03 -0.76710719832E+02  0.11895736337E+04  0.46999998093E+01 0. -1.
</event>
<event>
 5   0  0.1429483E-05  0.2497478E+04  0.7818609E-02  0.8403884E-01
       -1   -1    0    0    0  501  0.00000000000E+00  0.00000000000E+00  0.13875593420E+04  0.13875593421E+04  0.50400001928E-02 0. -1.
        1   -1    0    0  501    0  0.00000000000E+00  0.00000000000E+00 -0.11238075465E+04  0.11238075465E+04  0.50400001928E-02 0.  1.
    10030    2    1    2    0    0  0.00000000000E+00  0.00000000000E+00  0.26375179554E+03  0.25113668886E+04  0.24974784562E+04 0.  0.
        2    1    3    3  502    0 -0.58944744866E+03  0.14813574147E+03 -0.96504188696E+03  0.11404816247E+04  0.25500000920E-02 0.  1.
       -2    1    3    3    0  502  0.58944744866E+03 -0.14813574147E+03  0.12287936825E+04  0.13708852639E+04  0.25500000920E-02 0. -1.
</event>
<event>
 5   0  0.3579097E-05  0.2499808E+04  0.7818609E-02  0.8403054E-01
        2   -1    0    0  501    0  0.00000000000E+00  0.00000000000E+00  0.14661898992E+04  0.14661898992E+04  0.25500000920E-02 0. -1.
       -2   -1    0    0    0  501  0.00000000000E+00  0.00000000000E+00 -0.10655236618E+04  0.10655236618E+04  0.25500000920E-02 0.  1.
    10030    2    1    2    0    0  0.00000000000E+00  0.00000000000E+00  0.40066623743E+03  0.25317135610E+04  0.24998080169E+04 0.  0.
        5    1    3    3  502    0  0.95603664595E+03  0.11502886529E+03 -0.60670649632E+03  0.11381355679E+04  0.46999998093E+01 0.  1.
       -5    1    3    3    0  502 -0.95603664595E+03 -0.11502886529E+03  0.10073727337E+04  0.13935779931E+04  0.46999998093E+01 0. -1.
</event>
<event>
 5   0  0.3581449E-05  0.2511156E+04  0.7818609E-02  0.8399022E-01
        2   -1    0    0  501    0  0.00000000000E+00  0.00000000000E+00  0.10947191602E+04  0.10947191602E+04  0.25500000920E-02 0.  1.
       -2   -1    0    0    0  501  0.00000000000E+00  0.00000000000E+00 -0.14400735664E+04  0.14400735664E+04  0.25500000920E-02 0. -1.
    10030    2    1    2    0    0  0.00000000000E+00  0.00000000000E+00 -0.34535440623E+03  0.25347927267E+04  0.25111560089E+04 0.  0.
        1    1    3    3  502    0 -0.34408912900E+03 -0.35359957202E+03 -0.13381210367E+04  0.14261829808E+04  0.50400001928E-02 0. -1.
       -1    1    3    3    0  502  0.34408912900E+03  0.35359957202E+03  0.99276663044E+03  0.11086097458E+04  0.50400001928E-02 0.  1.
</event>
<event>
 5   0  0.1502886E-05  0.2529814E+04  0.7818609E-02  0.8392440E-01
        1   -1    0    0  501    0  0.00000000000E+00  0.00000000000E+00  0.13877684215E+04  0.13877684215E+04  0.50400001928E-02 0. -1.
       -1   -1    0    0    0  501  0.00000000000E+00  0.00000000000E+00 -0.11529229377E+04  0.11529229377E+04  0.50400001928E-02 0.  1.
    10030    2    1    2    0    0  0.00000000000E+00  0.00000000000E+00  0.23484548385E+03  0.25406913592E+04  0.25298142583E+04 0.  0.
        4    1    3    3  502    0 -0.37645918119E+03  0.11750180698E+04 -0.16234175761E+03  0.12444860139E+04  0.12699999809E+01 0. -1.
       -4    1    3    3    0  502  0.37645918119E+03 -0.11750180698E+04  0.39718724146E+03  0.12962053453E+04  0.12699999809E+01 0.  1.
</event>
<event>
 5   0  0.1201438E-05  0.2378814E+04  0.7818609E-02  0.8447478E-01
       -3   -1    0    0    0  501  0.00000000000E+00  0.00000000000E+00  0.82359644398E+03  0.82359645017E+03  0.10100000352E+00 0. -1.
        3   -1    0    0  501    0  0.00000000000E+00  0.00000000000E+00 -0.17176969837E+04  0.17176969866E+04  0.10100000352E+00 0.  1.
    10030    2    1    2    0    0  0.00000000000E+00  0.00000000000E+00 -0.89410053970E+03  0.25412934368E+04  0.23788141073E+04 0.  0.
        4    1    3    3  502    0 -0.13783193673E+03 -0.95774823345E+03  0.29186326066E+03  0.10106755648E+04  0.12699999809E+01 0. -1.
       -4    1    3    3    0  502  0.13783193673E+03  0.95774823345E+03 -0.11859638004E+04  0.15306178720E+04  0.12699999809E+01 0.  1.
</event>
<event>
 5   0  0.1492639E-05  0.2536903E+04  0.7818609E-02  0.8389955E-01
        1   -1    0    0  501    0  0.00000000000E+00  0.00000000000E+00  0.97067845757E+03  0.97067845758E+03  0.50400001928E-02 0.  1.
       -1   -1    0    0    0  501  0.00000000000E+00  0.00000000000E+00 -0.16575720632E+04  0.16575720632E+04  0.50400001928E-02 0. -1.
    10030    2    1    2    0    0  0.00000000000E+00  0.00000000000E+00 -0.68689360560E+03  0.26282505208E+04  0.25369032253E+04 0.  0.
        5    1    3    3  502    0 -0.27512870322E+03 -0.54179721462E+03  0.81006608623E+03  0.10126545211E+04  0.46999998093E+01 0.  1.
       -5    1    3    3    0  502  0.27512870322E+03  0.54179721462E+03 -0.14969596918E+04  0.16155959996E+04  0.46999998093E+01 0. -1.
</event>
<event>
 5   0  0.1421242E-05  0.2500786E+04  0.7818609E-02  0.8402706E-01
       -1   -1    0    0    0  501  0.00000000000E+00  0.00000000000E+00  0.15813836461E+04  0.15813836462E+04  0.50400001928E-02 0.  1.
        1   -1    0    0  501    0  0.00000000000E+00  0.00000000000E+00 -0.98868005760E+03  0.98868005762E+03  0.50400001928E-02 0. -1.
    10030    2    1    2    0    0  0.00000000000E+00  0.00000000000E+00  0.59270358854E+03  0.25700637038E+04  0.25007858560E+04 0.  0.
        3    1    3    3  502    0 -0.97322793561E+03  0.70099150434E+03  0.65958428892E+03  0.13687998934E+04  0.10100000352E+00 0.  1.
       -3    1    3    3    0  502  0.97322793561E+03 -0.70099150434E+03 -0.66880700379E+02  0.12012638104E+04  0.10100000352E+00 0. -1.
</event>
<event>
 5   0  0.1492639E-05  0.2517697E+04  0.7818609E-02  0.8396708E-01
        1   -1    0    0  501    0  0.00000000000E+00  0.00000000000E+00  0.48690981239E+03  0.48690981241E+03  0.50400001928E-02 0.  1.
       -1   -1    0    0    0  501  0.00000000000E+00  0.00000000000E+00 -0.32546063965E+04  0.32546063965E+04  0.50400001928E-02 0. -1.
    10030    2    1    2    0    0  0.00000000000E+00  0.00000000000E+00 -0.27676965841E+04  0.37415162089E+04  0.25176971939E+04 0.  0.
        5    1    3    3  502    0 -0.59692813394E+03  0.71673694016E+03 -0.12756204816E+03  0.94145058533E+03  0.46999998093E+01 0.  1.
       -5    1    3    3    0  502  0.59692813394E+03 -0.71673694016E+03 -0.26401345360E+04  0.28000656236E+04  0.46999998093E+01 0. -1.
</event>
<event>
 5   0  0.1502886E-05  0.2366398E+04  0.7818609E-02  0.8452192E-01
        1   -1    0    0  501    0  0.00000000000E+00  0.00000000000E+00  0.12359129442E+04  0.12359129442E+04  0.50400001928E-02 0. -1.
       -1   -1    0    0    0  501  0.00000000000E+00  0.00000000000E+00 -0.11327338181E+04  0.11327338181E+04  0.50400001928E-02 0.  1.
    10030    2    1    2    0    0  0.00000000000E+00  0.00000000000E+00  0.10317912612E+03  0.23686467623E+04  0.23663984349E+04 0.  0.
        4    1    3    3  502    0  0.51188670865E+03  0.91704150134E+03 -0.49387374723E+03  0.11605627983E+04  0.12699999809E+01 0.  1.
       -4    1    3    3    0  502 -0.51188670865E+03 -0.91704150134E+03  0.59705287335E+03  0.12080839640E+04  0.12699999809E+01 0. -1.
</event>
<event>
 5   0  0.1492639E-05  0.2483249E+04  0.7818609E-02  0.8408978E-01
        1   -1    0    0  501    0  0.00000000000E+00  0.00000000000E+00  0.13685356977E+04  0.13685356977E+04  0.50400001928E-02 0.  1.
       -1   -1    0    0    0  501  0.00000000000E+00  0.00000000000E+00 -0.11264824055E+04  0.11264824055E+04  0.50400001928E-02 0. -1.
    10030    2    1    2    0    0  0.00000000000E+00  0.00000000000E+00  0.24205329218E+03  0.24950181032E+04  0.24832489885E+04 0.  0.
        5    1    3    3  502    0  0.10159150498E+04 -0.71121387065E+03  0.59904651177E+02  0.12415793230E+04  0.46999998093E+01 0.  1.
       -5    1    3    3    0  502 -0.10159150498E+04  0.71121387065E+03  0.18214864101E+03  0.12534387801E+04  0.46999998093E+01 0. -1.
</event>
<event>
 5   0  0.3578670E-05  0.2572561E+04  0.7818609E-02  0.8377582E-01
        2   -1    0    0  501    0  0.00000000000E+00  0.00000000000E+00  0.74241173407E+03  0.74241173407E+03  0.25500000920E-02 0.  1.
       -2   -1    0    0    0  501  0.00000000000E+00  0.00000000000E+00 -0.22285718428E+04  0.22285718428E+04  0.25500000920E-02 0. -1.
    10030    2    1    2    0    0  0.00000000000E+00  0.00000000000E+00 -0.14861601087E+04  0.29709835769E+04  0.25725612812E+04 0.  0.
        4    1    3    3  502    0 -0.17765714816E+03 -0.11485722687E+04 -0.13795569224E+04  0.18038733974E+04  0.12699999809E+01 0. -1.
       -4    1    3    3    0  502  0.17765714816E+03  0.11485722687E+04 -0.10660318635E+03  0.11671101795E+04  0.12699999809E+01 0.  1.
</event>
<event>
 5   0  0.1492639E-05  0.2501072E+04  0.7818609E-02  0.8402604E-01
       -1   -1    0    0    0  501  0.00000000000E+00  0.00000000000E+00  0.16711723887E+04  0.16711723887E+04  0.50400001928E-02 0. -1.
        1   -1    0    0  501    0  0.00000000000E+00  0.00000000000E+00 -0.93577473959E+03  0.93577473961E+03  0.50400001928E-02 0.  1.
    10030    2    1    2    0    0  0.00000000000E+00  0.00000000000E+00  0.73539764912E+03  0.26069471283E+04  0.25010724955E+04 0.  0.
        5    1    3    3  502    0  0.10258926233E+04  0.54322197234E+03 -0.11703924230E+03  0.11667330714E+04  0.46999998093E+01 0.  1.
       -5    1    3    3    0  502 -0.10258926233E+04 -0.54322197234E+03  0.85243689142E+03  0.14402140569E+04  0.46999998093E+01 0. -1.
</event>
<event>
 5   0  0.3650620E-05  0.2501138E+04  0.7818609E-02  0.8402580E-01
        2   -1    0    0  501    0  0.00000000000E+00  0.00000000000E+00  0.90318663133E+03  0.90318663133E+03  0.25500000920E-02 0. -1.
       -2   -1    0    0    0  501  0.00000000000E+00  0.00000000000E+00 -0.17315610926E+04  0.17315610926E+04  0.25500000920E-02 0.  1.
    10030    2    1    2    0    0  0.00000000000E+00  0.00000000000E+00 -0.82837446129E+03  0.26347477239E+04  0.25011380051E+04 0.  0.
        3    1    3    3  502    0 -0.26598870605E+03 -0.11045592971E+04 -0.96471521092E+03  0.14904619018E+04  0.10100000352E+00 0.  1.
       -3    1    3    3    0  502  0.26598870605E+03  0.11045592971E+04  0.13634074963E+03  0.11442858221E+04  0.10100000352E+00 0. -1.
</event>
<event>
 5   0  0.3579097E-05  0.2495191E+04  0.7818609E-02  0.8404701E-01
       -2   -1    0    0    0  501  0.00000000000E+00  0.00000000000E+00  0.98781947663E+03  0.98781947663E+03  0.25500000920E-02 0. -1.
        2   -1    0    0  501    0  0.00000000000E+00  0.00000000000E+00 -0.15756875460E+04  0.15756875460E+04  0.25500000920E-02 0.  1.
    10030    2    1    2    0    0  0.00000000000E+00  0.00000000000E+00 -0.58786806934E+03  0.25635070226E+04  0.24951912528E+04 0.  0.
        5    1    3    3  502    0 -0.56336558200E+03 -0.86404968978E+03 -0.10149389872E+04  0.14470956718E+04  0.46999998093E+01 0.  1.
       -5    1    3    3    0  502  0.56336558200E+03  0.86404968978E+03  0.42707091790E+03  0.11164113508E+04  0.46999998093E+01 0. -1.
</event>
<event>
 5   0  0.1429483E-05  0.2477907E+04  0.7818609E-02  0.8410899E-01
       -1   -1    0    0    0  501  0.00000000000E+00  0.00000000000E+00  0.62754791298E+03  0.62754791300E+03  0.50400001928E-02 0.  1.
        1   -1    0    0  501    0  0.00000000000E+00  0.00000000000E+00 -0.24460368493E+04  0.24460368493E+04  0.50400001928E-02 0. -1.
    10030    2    1    2    0    0  0.00000000000E+00  0.00000000000E+00 -0.18184889363E+04  0.30735847623E+04  0.24779066325E+04 0.  0.
        2    1    3    3  502    0  0.25195496876E+03  0.48113131265E+02 -0.24127397413E+04  0.24263365881E+04  0.25500000920E-02 0. -1.
       -2    1    3    3    0  502 -0.25195496876E+03 -0.48113131265E+02  0.59425080501E+03  0.64724817415E+03  0.25500000920E-02 0.  1.
</event>
<event>
 5   0  0.3579097E-05  0.2505614E+04  0.7818609E-02  0.8400988E-01
       -2   -1    0    0    0  501  0.00000000000E+00  0.00000000000E+00  0.16455063273E+04  0.16455063273E+04  0.25500000920E-02 0.  1.
        2   -1    0    0  501    0  0.00000000000E+00  0.00000000000E+00 -0.95382537921E+03  0.95382537921E+03  0.25500000920E-02 0. -1.
    10030    2    1    2    0    0  0.00000000000E+00  0.00000000000E+00  0.69168094811E+03  0.25993317065E+04  0.25056142534E+04 0.  0.
        5    1    3    3  502    0 -0.15169716554E+03  0.12036056640E+04  0.21372092749E+02  0.12133249692E+04  0.46999998093E+01 0.  1.
       -5    1    3    3    0  502  0.15169716554E+03 -0.12036056640E+04  0.67030885536E+03  0.13860067374E+04  0.46999998093E+01 0. -1.
</event>
<event>
 5   0  0.1492639E-05  0.2266038E+04  0.7818609E-02  0.8491434E-01
        1   -1    0    0  501    0  0.00000000000E+00  0.00000000000E+00  0.12013293872E+04  0.12013293872E+04  0.50400001928E-02 0.  1.
       -1   -1    0    0    0  501  0.00000000000E+00  0.00000000000E+00 -0.10685925904E+04  0.10685925904E+04  0.50400001928E-02 0. -1.
    10030    2    1    2    0    0  0.00000000000E+00  0.00000000000E+00  0.13273679678E+03  0.22699219776E+04  0.22660376711E+04 0.  0.
        5    1    3    3  502    0 -0.60865243873E+03 -0.68656031215E+03  0.73225348493E+03  0.11738995313E+04  0.46999998093E+01 0.  1.
       -5    1    3    3    0  502  0.60865243873E+03  0.68656031215E+03 -0.59951668815E+03  0.10960224463E+04  0.46999998093E+01 0. -1.
</event>
<event>
 5   0  0.1429483E-05  0.2508247E+04  0.7818609E-02  0.8400053E-01
        1   -1    0    0  501    0  0.00000000000E+00  0.00000000000E+00  0.19416989715E+04  0.19416989715E+04  0.50400001928E-02 0. -1.
       -1   -1    0    0    0  501  0.00000000000E+00  0.00000000000E+00 -0.81002538624E+03  0.81002538625E+03  0.50400001928E-02 0.  1.
    10030    2    1    2    0    0  0.00000000000E+00  0.00000000000E+00  0.11316735852E+04  0.27517243577E+04  0.25082467656E+04 0.  0.
        2    1    3    3  502    0 -0.25094817005E+03  0.11885414308E+04  0.22376922405E+03  0.12351835420E+04  0.25500000920E-02 0.  1.
       -2    1    3    3    0  502  0.25094817005E+03 -0.11885414308E+04  0.90790436116E+03  0.15165408157E+04  0.25500000920E-02 0. -1.
</event>
<event>
 5   0  0.3579097E-05  0.2507491E+04  0.7818609E-02  0.8400322E-01
       -2   -1    0    0    0  501  0.00000000000E+00  0.00000000000E+00  0.75275379887E+03  0.75275379887E+03  0.25500000920E-02 0. -1.
        2   -1    0    0  501    0  0.00000000000E+00  0.00000000000E+00 -0.20881701329E+04  0.20881701329E+04  0.25500000920E-02 0.  1.
    10030    2    1    2    0    0  0.00000000000E+00  0.00000000000E+00 -0.13354163341E+04  0.28409239318E+04  0.25074911767E+04 0.  0.
        5    1    3    3  502    0 -0.10031181093E+04  0.66584502087E+03 -0.27155506812E+03  0.12342446184E+04  0.46999998093E+01 0. -1.
       -5    1    3    3    0  502  0.10031181093E+04 -0.66584502087E+03 -0.10638612659E+04  0.16066793134E+04  0.46999998093E+01 0.  1.
</event>
<event>
 5   0  0.3581449E-05  0.2522768E+04  0.7818609E-02  0.8394919E-01
       -2   -1    0    0    0  501  0.00000000000E+00  0.00000000000E+00  0.15904812142E+04  0.15904812142E+04  0.25500000920E-02 0. -1.
        2   -1    0    0  501    0  0.00000000000E+00  0.00000000000E+00 -0.10003822798E+04  0.10003822798E+04  0.25500000920E-02 0.  1.
    10030    2    1    2    0    0  0.00000000000E+00  0.00000000000E+00  0.59009893440E+03  0.25908634939E+04  0.25227677047E+04 0.  0.
        1    1    3    3  502    0  0.97649504043E+03  0.74763146114E+03  0.58296266343E+03  0.13610072860E+04  0.50400001928E-02 0.  1.
       -1    1    3    3    0  502 -0.97649504043E+03 -0.74763146114E+03  0.71362709760E+01  0.12298562079E+04  0.50400001928E-02 0. -1.
</event>
<event>
 5   0  0.1429483E-05  0.2483692E+04  0.7818609E-02  0.8408818E-01
       -1   -1    0    0    0  501  0.00000000000E+00  0.00000000000E+00  0.63673098485E+03  0.63673098487E+03  0.50400001928E-02 0.  1.
        1   -1    0    0  501    0  0.00000000000E+00  0.00000000000E+00 -0.24220297399E+04  0.24220297399E+04  0.50400001928E-02 0. -1.
    10030    2    1    2    0    0  0.00000000000E+00  0.00000000000E+00 -0.17852987550E+04  0.30587607247E+04  0.24836919146E+04 0.  0.
        2    1    3    3  502    0  0.10346791582E+03  0.12158058393E+04 -0.11769504636E+04  0.16953176228E+04  0.25500000920E-02 0. -1.
       -2    1    3    3    0  502 -0.10346791582E+03 -0.12158058393E+04 -0.60834829142E+03  0.13634431019E+04  0.25500000920E-02 0.  1.
</event>
<event>
 5   0  0.3581449E-05  0.2576014E+04  0.7818609E-02  0.8376395E-01
        2   -1    0    0  501    0  0.00000000000E+00  0.00000000000E+00  0.10549663210E+04  0.10549663210E+04  0.25500000920E-02 0.  1.
       -2   -1    0    0    0  501  0.00000000000E+00  0.00000000000E+00 -0.15725257115E+04  0.15725257115E+04  0.25500000920E-02 0. -1.
    10030    2    1    2    0    0  0.00000000000E+00  0.00000000000E+00 -0.51755939050E+03  0.26274920325E+04  0.25760137146E+04 0.  0.
        1    1    3    3  502    0 -0.72741139479E+03 -0.83719347598E+03  0.40924454983E+03  0.11821596149E+04  0.50400001928E-02 0.  1.
       -1    1    3    3    0  502  0.72741139479E+03  0.83719347598E+03 -0.92680394032E+03  0.14453324176E+04  0.50400001928E-02 0. -1.
</event>
<event>
 5   0  0.1502886E-05  0.1954799E+04  0.7818609E-02  0.8628050E-01
       -1   -1    0    0    0  501  0.00000000000E+00  0.00000000000E+00  0.10040528812E+04  0.10040528812E+04  0.50400001928E-02 0. -1.
        1   -1    0    0  501    0  0.00000000000E+00  0.00000000000E+00 -0.95145344518E+03  0.95145344520E+03  0.50400001928E-02 0.  1.
    10030    2    1    2    0    0  0.00000000000E+00  0.00000000000E+00  0.52599435995E+02  0.19555063264E+04  0.19547987855E+04 0.  0.
        4    1    3    3  502    0  0.74544402446E+03 -0.36347230733E+03  0.54369969240E+03  0.99167024772E+03  0.12699999809E+01 0. -1.
       -4    1    3    3    0  502 -0.74544402446E+03  0.36347230733E+03 -0.49110025640E+03  0.96383607867E+03  0.12699999809E+01 0.  1.
</event>
<event>
 5   0  0.3650620E-05  0.2523645E+04  0.7818609E-02  0.8394610E-01
        2   -1    0    0  501    0  0.00000000000E+00  0.00000000000E+00  0.10077139656E+04  0.10077139656E+04  0.25500000920E-02 0.  1.
       -2   -1    0    0    0  501  0.00000000000E+00  0.00000000000E+00 -0.15800073237E+04  0.15800073237E+04  0.25500000920E-02 0. -1.
    10030    2    1    2    0    0  0.00000000000E+00  0.00000000000E+00 -0.57229335811E+03  0.25877212893E+04  0.25236445437E+04 0.  0.
        3    1    3    3  502    0  0.63212907702E+03  0.12501517118E+03 -0.13985794103E+04  0.15398832229E+04  0.10100000352E+00 0. -1.
       -3    1    3    3    0  502 -0.63212907702E+03 -0.12501517118E+03  0.82628605220E+03  0.10478380664E+04  0.10100000352E+00 0.  1.
</event>
<event>
 5   0  0.1502886E-05  0.2296727E+04  0.7818609E-02  0.8479213E-01
        1   -1    0    0  501    0  0.00000000000E+00  0.00000000000E+00  0.16629122935E+04  0.16629122935E+04  0.50400001928E-02 0. -1.
       -1   -1    0    0    0  501  0.00000000000E+00  0.00000000000E+00 -0.79302973066E+03  0.79302973068E+03  0.50400001928E-02 0.  1.
    10030    2    1    2    0    0  0.00000000000E+00  0.00000000000E+00  0.86988256285E+03  0.24559420242E+04  0.22967271394E+04 0.  0.
        4    1    3    3  502    0 -0.83278443719E+03  0.36875089049E+03  0.11828787831E+04  0.14928867896E+04  0.12699999809E+01 0. -1.
       -4    1    3    3    0  502  0.83278443719E+03 -0.36875089049E+03 -0.31299622029E+03  0.96305523459E+03  0.12699999809E+01 0.  1.
</event>
<event>
 5   0  0.3650620E-05  0.2496434E+04  0.7818609E-02  0.8404257E-01
        2   -1    0    0  501    0  0.00000000000E+00  0.00000000000E+00  0.11910011373E+04  0.11910011373E+04  0.25500000920E-02 0. -1.
       -2   -1    0    0    0  501  0.00000000000E+00  0.00000000000E+00 -0.13081812086E+04  0.13081812086E+04  0.25500000920E-02 0.  1.
    10030    2    1    2    0    0  0.00000000000E+00  0.00000000000E+00 -0.11718007124E+03  0.24991823459E+04  0.24964337021E+04 0.  0.
        3    1    3    3  502    0 -0.33718842352E+03 -0.54902954339E+03  0.10116594563E+04  0.11994099959E+04  0.10100000352E+00 0. -1.
       -3    1    3    3    0  502  0.33718842352E+03  0.54902954339E+03 -0.11288395276E+04  0.12997723500E+04  0.10100000352E+00 0.  1.
</event>
<event>
 5   0  0.3578670E-05  0.2516144E+04  0.7818609E-02  0.8397257E-01
       -2   -1    0    0    0  501  0.00000000000E+00  0.00000000000E+00  0.92173971992E+03  0.92173971992E+03  0.25500000920E-02 0. -1.
        2   -1    0    0  501    0  0.00000000000E+00  0.00000000000E+00 -0.17171278997E+04  0.17171278997E+04  0.25500000920E-02 0.  1.
    10030    2    1    2    0    0  0.00000000000E+00  0.00000000000E+00 -0.79538817976E+03  0.26388676196E+04  0.25161438666E+04 0.  0.
        4    1    3    3  502    0 -0.66525323070E+02 -0.94244767695E+03  0.47355299353E+03  0.10568288854E+04  0.12699999809E+01 0. -1.
       -4    1    3    3    0  502  0.66525323070E+02  0.94244767695E+03 -0.12689411733E+04  0.15820387342E+04  0.12699999809E+01 0.  1.
</event>
<event>
 5   0  0.3704241E-05  0.2522326E+04  0.7818609E-02  0.8395075E-01
        2   -1    0    0  501    0  0.00000000000E+00  0.00000000000E+00  0.11134135232E+04  0.11134135232E+04  0.25500000920E-02 0. -1.
       -2   -1    0    0    0  501  0.00000000000E+00  0.00000000000E+00 -0.14285188417E+04  0.14285188417E+04  0.25500000920E-02 0.  1.
    10030    2    1    2    0    0  0.00000000000E+00  0.00000000000E+00 -0.31510531849E+03  0.25419323649E+04  0.25223260665E+04 0.  0.
        2    1    3    3  502    0  0.12021382566E+04 -0.23145409582E+03 -0.46293419994E+03  0.13088221651E+04  0.25500000920E-02 0.  1.
       -2    1    3    3    0  502 -0.12021382566E+04  0.23145409582E+03  0.14782888145E+03  0.12331101997E+04  0.25500000920E-02 0. -1.
</event>
<event>
 5   0  0.3704241E-05  0.2469458E+04  0.7818609E-02  0.8413948E-01
       -2   -1    0    0    0  501  0.00000000000E+00  0.00000000000E+00  0.10417471367E+04  0.10417471367E+04  0.25500000920E-02 0.  1.
        2   -1    0    0  501    0  0.00000000000E+00  0.00000000000E+00 -0.14634604652E+04  0.14634604652E+04  0.25500000920E-02 0. -1.
    10030    2    1    2    0    0  0.00000000000E+00  0.00000000000E+00 -0.42171332850E+03  0.25052076019E+04  0.24694580372E+04 0.  0.
        2    1    3    3  502    0  0.83404499108E+03  0.33626893350E+03 -0.10691830232E+04  0.13970898968E+04  0.25500000920E-02 0. -1.
       -2    1    3    3    0  502 -0.83404499108E+03 -0.33626893350E+03  0.64746969468E+03  0.11081177051E+04  0.25500000920E-02 0.  1.
</event>
<event>
 5   0  0.1502886E-05  0.2485223E+04  0.7818609E-02  0.8408269E-01
       -1   -1    0    0    0  501  0.00000000000E+00  0.00000000000E+00  0.11017421307E+04  0.11017421307E+04  0.50400001928E-02 0.  1.
        1   -1    0    0  501    0  0.00000000000E+00  0.00000000000E+00 -0.14014925994E+04  0.14014925995E+04  0.50400001928E-02 0. -1.
    10030    2    1    2    0    0  0.00000000000E+00  0.00000000000E+00 -0.29975046874E+03  0.25032347302E+04  0.24852230827E+04 0.  0.
        4    1    3    3  502    0  0.86420902882E+03  0.81522818177E+02 -0.10454641876E+04  0.13588598883E+04  0.12699999809E+01 0. -1.
       -4    1    3    3    0  502 -0.86420902882E+03 -0.81522818177E+02  0.74571371889E+03  0.11443748419E+04  0.12699999809E+01 0.  1.
</event>
<event>
 5   0  0.3704241E-05  0.2561362E+04  0.7818609E-02  0.8381445E-01
       -2   -1    0    0    0  501  0.00000000000E+00  0.00000000000E+00  0.69559543660E+03  0.69559543661E+03  0.25500000920E-02 0.  1.
        2   -1    0    0  501    0  0.00000000000E+00  0.00000000000E+00 -0.23578982336E+04  0.23578982336E+04  0.25500000920E-02 0. -1.
    10030    2    1    2    0    0  0.00000000000E+00  0.00000000000E+00 -0.16623027970E+04  0.30534936702E+04  0.25613615530E+04 0.  0.
        2    1    3    3  502    0  0.35279074610E+03  0.65993962013E+03 -0.20701491335E+04  0.22012494288E+04  0.25500000920E-02 0. -1.
       -2    1    3    3    0  502 -0.35279074610E+03 -0.65993962013E+03  0.40784633654E+03  0.85224424139E+03  0.25500000920E-02 0.  1.
</event>
<event>
 5   0  0.1201438E-05  0.1987807E+04  0.7818609E-02  0.8612343E-01
        4   -1    0    0  501    0  0.00000000000E+00  0.00000000000E+00  0.11698120064E+04  0.11698126958E+04  0.12699999809E+01 0.  1.
       -4   -1    0    0    0  501  0.00000000000E+00  0.00000000000E+00 -0.84444529303E+03  0.84444624803E+03  0.12699999809E+01 0. -1.
    10030    2    1    2    0    0  0.00000000000E+00  0.00000000000E+00  0.32536671338E+03  0.20142589438E+04  0.19878067297E+04 0.  0.
        3    1    3    3  502    0  0.71034606800E+02  0.33350681787E+02  0.11666687112E+04  0.11693049539E+04  0.10100000352E+00 0.  1.
       -3    1    3    3    0  502 -0.71034606800E+02 -0.33350681787E+02 -0.84130199782E+03  0.84495398992E+03  0.10100000352E+00 0. -1.
</event>
<event>
 5   0  0.3579097E-05  0.2506369E+04  0.7818609E-02  0.8400720E-01
       -2   -1    0    0    0  501  0.00000000000E+00  0.00000000000E+00  0.99725363129E+03  0.99725363129E+03  0.25500000920E-02 0.  1.
        2   -1    0    0  501    0  0.00000000000E+00  0.00000000000E+00 -0.15747963234E+04  0.15747963234E+04  0.25500000920E-02 0. -1.
    10030    2    1    2    0    0  0.00000000000E+00  0.00000000000E+00 -0.57754269213E+03  0.25720499547E+04  0.25063689689E+04 0.  0.
        5    1    3    3  502    0  0.47559153230E+03  0.22253699605E+03 -0.14564559388E+04  0.15482235019E+04  0.46999998093E+01 0. -1.
       -5    1    3    3    0  502 -0.47559153230E+03 -0.22253699605E+03  0.87891324669E+03  0.10238264528E+04  0.46999998093E+01 0.  1.
</event>
<event>
 5   0  0.3650620E-05  0.2458939E+04  0.7818609E-02  0.8417762E-01
       -2   -1    0    0    0  501  0.00000000000E+00  0.00000000000E+00  0.95811696013E+03  0.95811696013E+03  0.25500000920E-02 0.  1.
        2   -1    0    0  501    0  0.00000000000E+00  0.00000000000E+00 -0.15776726482E+04  0.15776726482E+04  0.25500000920E-02 0. -1.
    10030    2    1    2    0    0  0.00000000000E+00  0.00000000000E+00 -0.61955568803E+03  0.25357896083E+04  0.24589387318E+04 0.  0.
        3    1    3    3  502    0  0.72759994064E+03  0.49195418081E+03 -0.11970002832E+04  0.14846650389E+04  0.10100000352E+00 0. -1.
       -3    1    3    3    0  502 -0.72759994064E+03 -0.49195418081E+03  0.57744459516E+03  0.10511245694E+04  0.10100000352E+00 0.  1.
</event>
<event>
 5   0  0.1492639E-05  0.2493336E+04  0.7818609E-02  0.8405363E-01
        1   -1    0    0  501    0  0.00000000000E+00  0.00000000000E+00  0.17743979084E+04  0.17743979084E+04  0.50400001928E-02 0.  1.
       -1   -1    0    0    0  501  0.00000000000E+00  0.00000000000E+00 -0.87589223719E+03  0.87589223720E+03  0.50400001928E-02 0. -1.
    10030    2    1    2    0    0  0.00000000000E+00  0.00000000000E+00  0.89850567125E+03  0.26502901456E+04  0.24933362017E+04 0.  0.
        5    1    3    3  502    0  0.95662395696E+02  0.75199682019E+03 -0.60274958580E+03  0.96849350267E+03  0.46999998093E+01 0. -1.
       -5    1    3    3    0  502 -0.95662395696E+02 -0.75199682019E+03  0.15012552570E+04  0.16817966430E+04  0.46999998093E+01 0.  1.
</event>
<event>
 5   0  0.1456876E-05  0.2339968E+04  0.7818609E-02  0.8462327E-01
        1   -1    0    0  501    0  0.00000000000E+00  0.00000000000E+00  0.13331733231E+04  0.13331733231E+04  0.50400001928E-02 0.  1.
       -1   -1    0    0    0  501  0.00000000000E+00  0.00000000000E+00 -0.10267705289E+04  0.10267705289E+04  0.50400001928E-02 0. -1.
    10030    2    1    2    0    0  0.00000000000E+00  0.00000000000E+00  0.30640279420E+03  0.23599438520E+04  0.23399684426E+04 0.  0.
        1    1    3    3  502    0 -0.14083819478E+03 -0.76361524858E+03  0.10358406025E+04  0.12945691943E+04  0.50400001928E-02 0.  1.
       -1    1    3    3    0  502  0.14083819478E+03  0.76361524858E+03 -0.72943780833E+03  0.10653746577E+04  0.50400001928E-02 0. -1.
</event>
<event>
 5   0  0.3650620E-05  0.2522354E+04  0.7818609E-02  0.8395065E-01
        2   -1    0    0  501    0  0.00000000000E+00  0.00000000000E+00  0.88753961216E+03  0.88753961217E+03  0.25500000920E-02 0. -1.
       -2   -1    0    0    0  501  0.00000000000E+00  0.00000000000E+00 -0.17921093640E+04  0.17921093640E+04  0.25500000920E-02 0.  1.
    10030    2    1    2    0    0  0.00000000000E+00  0.00000000000E+00 -0.90456975182E+03  0.26796489762E+04  0.25223544952E+04 0.  0.
        3    1    3    3  502    0  0.45698607282E+03  0.96826915092E+03 -0.11603195397E+04  0.15788359205E+04  0.10100000352E+00 0. -1.
       -3    1    3    3    0  502 -0.45698607282E+03 -0.96826915092E+03  0.25574978787E+03  0.11008130557E+04  0.10100000352E+00 0.  1.
</event>
<event>
 5   0  0.1429483E-05  0.2527452E+04  0.7818609E-02  0.8393270E-01
       -1   -1    0    0    0  501  0.00000000000E+00  0.00000000000E+00  0.13492654746E+04  0.13492654746E+04  0.50400001928E-02 0. -1.
        1   -1    0    0  501    0  0.00000000000E+00  0.00000000000E+00 -0.11836096543E+04  0.11836096543E+04  0.50400001928E-02 0.  1.
    10030    2    1    2    0    0  0.00000000000E+00  0.00000000000E+00  0.16565582035E+03  0.25328751289E+04  0.25274521891E+04 0.  0.
        2    1    3    3  502    0 -0.97620172109E+02  0.11522248232E+04 -0.42802253908E+03  0.12330267779E+04  0.25500000920E-02 0.  1.
       -2    1    3    3    0  502  0.97620172109E+02 -0.11522248232E+04  0.59367835943E+03  0.12998483510E+04  0.25500000920E-02 0. -1.
</event>
<event>
 5   0  0.3578670E-05  0.2474209E+04  0.7818609E-02  0.8412232E-01
       -2   -1    0    0    0  501  0.00000000000E+00  0.00000000000E+00  0.10004783887E+04  0.10004783887E+04  0.25500000920E-02 0. -1.
        2   -1    0    0  501    0  0.00000000000E+00  0.00000000000E+00 -0.15296951567E+04  0.15296951567E+04  0.25500000920E-02 0.  1.
    10030    2    1    2    0    0  0.00000000000E+00  0.00000000000E+00 -0.52921676796E+03  0.25301735454E+04  0.24742085164E+04 0.  0.
        4    1    3    3  502    0 -0.49794422228E+03  0.85648109289E+03 -0.10222561767E+04  0.14235580826E+04  0.12699999809E+01 0.  1.
       -4    1    3    3    0  502  0.49794422228E+03 -0.85648109289E+03  0.49303940873E+03  0.11066154628E+04  0.12699999809E+01 0. -1.
</event>
<event>
 5   0  0.1502886E-05  0.2482023E+04  0.7818609E-02  0.8409418E-01
       -1   -1    0    0    0  501  0.00000000000E+00  0.00000000000E+00  0.26494112810E+04  0.26494112810E+04  0.50400001928E-02 0.  1.
        1   -1    0    0  501    0  0.00000000000E+00  0.00000000000E+00 -0.58130262526E+03  0.58130262528E+03  0.50400001928E-02 0. -1.
    10030    2    1    2    0    0  0.00000000000E+00  0.00000000000E+00  0.20681086557E+04  0.32307139062E+04  0.24820231530E+04 0.  0.
        4    1    3    3  502    0 -0.11097525030E+04 -0.46879206864E+03  0.64619131570E+03  0.13670703899E+04  0.12699999809E+01 0. -1.
       -4    1    3    3    0  502  0.11097525030E+04  0.46879206864E+03  0.14219173400E+04  0.18636435164E+04  0.12699999809E+01 0.  1.
</event>
<event>
 5   0  0.3578670E-05  0.2490960E+04  0.7818609E-02  0.8406213E-01
        2   -1    0    0  501    0  0.00000000000E+00  0.00000000000E+00  0.17952782043E+04  0.17952782043E+04  0.25500000920E-02 0. -1.
       -2   -1    0    0    0  501  0.00000000000E+00  0.00000000000E+00 -0.86405577954E+03  0.86405577954E+03  0.25500000920E-02 0.  1.
    10030    2    1    2    0    0  0.00000000000E+00  0.00000000000E+00  0.93122242474E+03  0.26593339838E+04  0.24909600625E+04 0.  0.
        4    1    3    3  502    0 -0.22377106469E+03 -0.76038532268E+03 -0.56003470791E+03  0.97051523188E+03  0.12699999809E+01 0.  1.
       -4    1    3    3    0  502  0.22377106469E+03  0.76038532268E+03  0.14912571326E+04  0.16888187519E+04  0.12699999809E+01 0. -1.
</event>
<event>
 5   0  0.3581449E-05  0.2512058E+04  0.7818609E-02  0.8398702E-01
       -2   -1    0    0    0  501  0.00000000000E+00  0.00000000000E+00  0.79831310431E+03  0.79831310432E+03  0.25500000920E-02 0. -1.
        2   -1    0    0  501    0  0.00000000000E+00  0.00000000000E+00 -0.19761777380E+04  0.19761777380E+04  0.25500000920E-02 0.  1.
    10030    2    1    2    0    0  0.00000000000E+00  0.00000000000E+00 -0.11778646337E+04  0.27744908423E+04  0.25120577897E+04 0.  0.
        1    1    3    3  502    0 -0.35305496366E+03  0.84997882379E+03 -0.15329123787E+04  0.17879966916E+04  0.50400001928E-02 0.  1.
       -1    1    3    3    0  502  0.35305496366E+03 -0.84997882379E+03  0.35504774500E+03  0.98649415077E+03  0.50400001928E-02 0. -1.
</event>
<event>
 5   0  0.3704241E-05  0.2494404E+04  0.7818609E-02  0.8404982E-01
       -2   -1    0    0    0  501  0.00000000000E+00  0.00000000000E+00  0.79083836859E+03  0.79083836860E+03  0.25500000920E-02 0.  1.
        2   -1    0    0  501    0  0.00000000000E+00  0.00000000000E+00 -0.19669161484E+04  0.19669161484E+04  0.25500000920E-02 0. -1.
    10030    2    1    2    0    0  0.00000000000E+00  0.00000000000E+00 -0.11760777798E+04  0.27577545170E+04  0.24944039432E+04 0.  0.
        2    1    3    3  502    0 -0.94417146012E+03 -0.79001051001E+03 -0.36709941923E+03  0.12846549481E+04  0.25500000920E-02 0. -1.
       -2    1    3    3    0  502  0.94417146012E+03  0.79001051001E+03 -0.80897836055E+03  0.14730995689E+04  0.25500000920E-02 0.  1.
</event>
<event>
 5   0  0.1421242E-05  0.2477243E+04  0.7818609E-02  0.8411138E-01
        1   -1    0    0  501    0  0.00000000000E+00  0.00000000000E+00  0.17182562306E+04  0.17182562306E+04  0.50400001928E-02 0.  1.
       -1   -1    0    0    0  501  0.00000000000E+00  0.00000000000E+00 -0.89287207055E+03  0.89287207056E+03  0.50400001928E-02 0. -1.
    10030    2    1    2    0    0  0.00000000000E+00  0.00000000000E+00  0.82538416009E+03  0.26111283012E+04  0.24772428209E+04 0.  0.
        3    1    3    3  502    0 -0.39418135115E+03  0.10518992169E+04 -0.13734642577E+03  0.11316956088E+04  0.10100000352E+00 0. -1.
       -3    1    3    3    0  502  0.39418135115E+03 -0.10518992169E+04  0.96273058587E+03  0.14794326924E+04  0.10100000352E+00 0.  1.
</event>
<event>
 5   0  0.1456876E-05  0.2494297E+04  0.7818609E-02  0.8405020E-01
       -1   -1    0    0    0  501  0.00000000000E+00  0.00000000000E+00  0.65816904436E+03  0.65816904438E+03  0.50400001928E-02 0.  1.
        1   -1    0    0  501    0  0.00000000000E+00  0.00000000000E+00 -0.23631920224E+04  0.23631920224E+04  0.50400001928E-02 0. -1.
    10030    2    1    2    0    0  0.00000000000E+00  0.00000000000E+00 -0.17050229781E+04  0.30213610668E+04  0.24942973641E+04 0.  0.
        1    1    3    3  502    0  0.55655572434E+03 -0.10330916716E+01 -0.22044220807E+04  0.22735945222E+04  0.50400001928E-02 0. -1.
       -1    1    3    3    0  502 -0.55655572434E+03  0.10330916716E+01  0.49939910259E+03  0.74776654463E+03  0.50400001928E-02 0.  1.
</event>
<event>
 5   0  0.1429483E-05  0.2485929E+04  0.7818609E-02  0.8408015E-01
       -1   -1    0    0    0  501  0.00000000000E+00  0.00000000000E+00  0.19418728262E+04  0.19418728262E+04  0.50400001928E-02 0.  1.
        1   -1    0    0  501    0  0.00000000000E+00  0.00000000000E+00 -0.79560371147E+03  0.79560371149E+03  0.50400001928E-02 0. -1.
    10030    2    1    2    0    0  0.00000000000E+00  0.00000000000E+00  0.11462691147E+04  0.27374765377E+04  0.24859293858E+04 0.  0.
        2    1    3    3  502    0 -0.54125592285E+03 -0.10971896555E+04  0.81484004660E+03  0.14699480996E+04  0.25500000920E-02 0.  1.
       -2    1    3    3    0  502  0.54125592285E+03  0.10971896555E+04  0.33142906811E+03  0.12675284380E+04  0.25500000920E-02 0. -1.
</event>
<event>
 5   0  0.3704241E-05  0.2520564E+04  0.7818609E-02  0.8395696E-01
        2   -1    0    0  501    0  0.00000000000E+00  0.00000000000E+00  0.21052479647E+04  0.21052479647E+04  0.25500000920E-02 0. -1.
       -2   -1    0    0    0  501  0.00000000000E+00  0.00000000000E+00 -0.75445333063E+03  0.75445333063E+03  0.25500000920E-02 0.  1.
    10030    2    1    2    0    0  0.00000000000E+00  0.00000000000E+00  0.13507946341E+04  0.28597012954E+04  0.25205644914E+04 0.  0.
        2    1    3    3  502    0  0.14382350523E+03 -0.12852702756E+03 -0.73760778164E+03  0.76241041245E+03  0.25500000920E-02 0.  1.
       -2    1    3    3    0  502 -0.14382350523E+03  0.12852702756E+03  0.20884024158E+04  0.20972908829E+04  0.25500000920E-02 0. -1.
</event>
<event>
 5   0  0.3579097E-05  0.2454323E+04  0.7818609E-02  0.8419441E-01
        2   -1    0    0  501    0  0.00000000000E+00  0.00000000000E+00  0.12217936289E+04  0.12217936289E+04  0.25500000920E-02 0. -1.
       -2   -1    0    0    0  501  0.00000000000E+00  0.00000000000E+00 -0.12325524784E+04  0.12325524785E+04  0.25500000920E-02 0.  1.
    10030    2    1    2    0    0  0.00000000000E+00  0.00000000000E+00 -0.10758849577E+02  0.24543461073E+04  0.24543225260E+04 0.  0.
        5    1    3    3  502    0  0.18163304571E+03  0.47024731606E+02 -0.12181156072E+04  0.12324891931E+04  0.46999998093E+01 0.  1.
       -5    1    3    3    0  502 -0.18163304571E+03 -0.47024731606E+02  0.12073567576E+04  0.12218569142E+04  0.46999998093E+01 0. -1.
</event>
<event>
 5   0  0.1456876E-05  0.2539894E+04  0.7818609E-02  0.8388909E-01
        1   -1    0    0  501    0  0.00000000000E+00  0.00000000000E+00  0.12730881106E+04  0.12730881106E+04  0.50400001928E-02 0.  1.
       -1   -1    0    0    0  501  0.00000000000E+00  0.00000000000E+00 -0.12668136712E+04  0.12668136712E+04  0.50400001928E-02 0. -1.
    10030    2    1    2    0    0  0.00000000000E+00  0.00000000000E+00  0.62744393883E+01  0.25399017817E+04  0.25398940317E+04 0.  0.
        1    1    3    3  502    0  0.32914297702E+03 -0.11070817446E+04 -0.52487985952E+03  0.12686465053E+04  0.50400001928E-02 0. -1.
       -1    1    3    3    0  502 -0.32914297702E+03  0.11070817446E+04  0.53115429891E+03  0.12712552764E+04  0.50400001928E-02 0.  1.
</event>
<event>
 5   0  0.3581449E-05  0.2495789E+04  0.7818609E-02  0.8404487E-01
       -2   -1    0    0    0  501  0.00000000000E+00  0.00000000000E+00  0.92286647101E+03  0.92286647101E+03  0.25500000920E-02 0.  1.
        2   -1    0    0  501    0  0.00000000000E+00  0.00000000000E+00 -0.16873961194E+04  0.16873961194E+04  0.25500000920E-02 0. -1.
    10030    2    1    2    0    0  0.00000000000E+00  0.00000000000E+00 -0.76452964835E+03  0.26102625904E+04  0.24957894958E+04 0.  0.
        1    1    3    3  502    0 -0.25255681978E+03 -0.10941703479E+04  0.18698600278E+03  0.11384012749E+04  0.50400001928E-02 0.  1.
       -1    1    3    3    0  502  0.25255681978E+03  0.10941703479E+04 -0.95151565113E+03  0.14718613154E+04  0.50400001928E-02 0. -1.
</event>
<event>
 5   0  0.1456876E-05  0.2718080E+04  0.7818609E-02  0.8329162E-01
       -1   -1    0    0    0  501  0.00000000000E+00  0.00000000000E+00  0.10112172724E+04  0.10112172724E+04  0.50400001928E-02 0. -1.
        1   -1    0    0  501    0  0.00000000000E+00  0.00000000000E+00 -0.18265013784E+04  0.18265013784E+04  0.50400001928E-02 0.  1.
    10030    2    1    2    0    0  0.00000000000E+00  0.00000000000E+00 -0.81528410597E+03  0.28377186508E+04  0.27180800150E+04 0.  0.
        1    1    3    3  502    0 -0.87995016968E+01 -0.79323110618E+03  0.74442210605E+03  0.10878682324E+04  0.50400001928E-02 0. -1.
       -1    1    3    3    0  502  0.87995016968E+01  0.79323110618E+03 -0.15597062120E+04  0.17498504184E+04  0.50400001928E-02 0.  1.
</event>
<event>
 5   0  0.3579097E-05  0.2524268E+04  0.7818609E-02  0.8394391E-01
        2   -1    0    0  501    0  0.00000000000E+00  0.00000000000E+00  0.13125594006E+04  0.13125594006E+04  0.25500000920E-02 0.  1.
       -2   -1    0    0    0  501  0.00000000000E+00  0.00000000000E+00 -0.12136459807E+04  0.12136459808E+04  0.25500000920E-02 0. -1.
    10030    2    1    2    0    0  0.00000000000E+00  0.00000000000E+00  0.98913419852E+02  0.25262053814E+04  0.25242681641E+04 0.  0.
        5    1    3    3  502    0 -0.83263873381E+03 -0.14859786818E+03 -0.88806090247E+03  0.12263942449E+04  0.46999998093E+01 0. -1.
       -5    1    3    3    0  502  0.83263873381E+03  0.14859786818E+03  0.98697432232E+03  0.12998111364E+04  0.46999998093E+01 0.  1.
</event>
<event>
 5   0  0.3581449E-05  0.2496738E+04  0.7818609E-02  0.8404149E-01
       -2   -1    0    0    0  501  0.00000000000E+00  0.00000000000E+00  0.12943231603E+04  0.12943231603E+04  0.25500000920E-02 0. -1.
        2   -1    0    0  501    0  0.00000000000E+00  0.00000000000E+00 -0.12040459466E+04  0.12040459466E+04  0.25500000920E-02 0.  1.
    10030    2    1    2    0    0  0.00000000000E+00  0.00000000000E+00  0.90277213668E+02  0.24983691069E+04  0.24967375150E+04 0.  0.
        1    1    3    3  502    0 -0.62938009324E+03  0.33120199232E+03 -0.98149992870E+03  0.12120875264E+04  0.50400001928E-02 0.  1.
       -1    1    3    3    0  502  0.62938009324E+03 -0.33120199232E+03  0.10717771424E+04  0.12862815805E+04  0.50400001928E-02 0. -1.
</event>
<event>
 5   0  0.3579097E-05  0.2477220E+04  0.7818609E-02  0.8411146E-01
       -2   -1    0    0    0  501  0.00000000000E+00  0.00000000000E+00  0.19987365734E+04  0.19987365734E+04  0.25500000920E-02 0. -1.
        2   -1    0    0  501    0  0.00000000000E+00  0.00000000000E+00 -0.76756224076E+03  0.76756224076E+03  0.25500000920E-02 0.  1.
    10030    2    1    2    0    0  0.00000000000E+00  0.00000000000E+00  0.12311743326E+04  0.27662988142E+04  0.24772199926E+04 0.  0.
        5    1    3    3  502    0 -0.19977385571E+03  0.11464571409E+04  0.10891751540E+04  0.15939253983E+04  0.46999998093E+01 0. -1.
       -5    1    3    3    0  502  0.19977385571E+03 -0.11464571409E+04  0.14199917868E+03  0.11723734158E+04  0.46999998093E+01 0.  1.
</event>
<event>
 5   0  0.3579097E-05  0.2484793E+04  0.7818609E-02  0.8408423E-01
       -2   -1    0    0    0  501  0.00000000000E+00  0.00000000000E+00  0.11560197797E+04  0.11560197797E+04  0.25500000920E-02 0. -1.
        2   -1    0    0  501    0  0.00000000000E+00  0.00000000000E+00 -0.13352267397E+04  0.13352267397E+04  0.25500000920E-02 0.  1.
    10030    2    1    2    0    0  0.00000000000E+00  0.00000000000E+00 -0.17920695995E+03  0.24912465194E+04  0.24847925640E+04 0.  0.
        5    1    3    3  502    0 -0.36545959894E+03 -0.58326428857E+03 -0.11265860712E+04  0.13202182451E+04  0.46999998093E+01 0.  1.
       -5    1    3    3    0  502  0.36545959894E+03  0.58326428857E+03  0.94737911128E+03  0.11710282743E+04  0.46999998093E+01 0. -1.
</event>
<event>
 5   0  0.1429483E-05  0.2487076E+04  0.7818609E-02  0.8407604E-01
       -1   -1    0    0    0  501  0.00000000000E+00  0.00000000000E+00  0.10322614320E+04  0.10322614320E+04  0.50400001928E-02 0.  1.
        1   -1    0    0  501    0  0.00000000000E+00  0.00000000000E+00 -0.14980567247E+04  0.14980567247E+04  0.50400001928E-02 0. -1.
    10030    2    1    2    0    0  0.00000000000E+00  0.00000000000E+00 -0.46579529266E+03  0.25303181567E+04  0.24870755355E+04 0.  0.
        2    1    3    3  502    0  0.39319407327E+03  0.26897532670E+03  0.93574159403E+03  0.10500293503E+04  0.25500000920E-02 0.  1.
       -2    1    3    3    0  502 -0.39319407327E+03 -0.26897532670E+03 -0.14015368867E+04  0.14802888064E+04  0.25500000920E-02 0. -1.
</event>
<event>
 5   0  0.3650620E-05  0.2498414E+04  0.7818609E-02  0.8403551E-01
        2   -1    0    0  501    0  0.00000000000E+00  0.00000000000E+00  0.12743612643E+04  0.12743612643E+04  0.25500000920E-02 0.  1.
       -2   -1    0    0    0  501  0.00000000000E+00  0.00000000000E+00 -0.12245489989E+04  0.12245489989E+04  0.25500000920E-02 0. -1.
    10030    2    1    2    0    0  0.00000000000E+00  0.00000000000E+00  0.49812265431E+02  0.24989102632E+04  0.24984137452E+04 0.  0.
        3    1    3    3  502    0  0.73328799802E+03 -0.16717198845E+03 -0.97271879757E+03  0.12295688802E+04  0.10100000352E+00 0. -1.
       -3    1    3    3    0  502 -0.73328799802E+03  0.16717198845E+03  0.10225310630E+04  0.12693413831E+04  0.10100000352E+00 0.  1.
</event>
<event>
 5   0  0.1429483E-05  0.2465836E+04  0.7818609E-02  0.8415259E-01
        1   -1    0    0  501    0  0.00000000000E+00  0.00000000000E+00  0.12438964202E+04  0.12438964202E+04  0.50400001928E-02 0. -1.
       -1   -1    0    0    0  501  0.00000000000E+00  0.00000000000E+00 -0.12220369148E+04  0.12220369148E+04  0.50400001928E-02 0.  1.
    10030    2    1    2    0    0  0.00000000000E+00  0.00000000000E+00  0.21859505345E+02  0.24659333350E+04  0.24658364452E+04 0.  0.
        2    1    3    3  502    0 -0.94352577217E+03 -0.79106756961E+03 -0.52779588552E+02  0.12324019099E+04  0.25500000920E-02 0.  1.
       -2    1    3    3    0  502  0.94352577217E+03  0.79106756961E+03  0.74639093896E+02  0.12335314251E+04  0.25500000920E-02 0. -1.
</event>
<event>
 5   0  0.3578670E-05  0.2540722E+04  0.7818609E-02  0.8388620E-01
       -2   -1    0    0    0  501  0.00000000000E+00  0.00000000000E+00  0.12948910467E+04  0.12948910468E+04  0.25500000920E-02 0.  1.
        2   -1    0    0  501    0  0.00000000000E+00  0.00000000000E+00 -0.12462954427E+04  0.12462954427E+04  0.25500000920E-02 0. -1.
    10030    2    1    2    0    0  0.00000000000E+00  0.00000000000E+00  0.48595604022E+02  0.25411864895E+04  0.25407217954E+04 0.  0.
        4    1    3    3  502    0 -0.67332012829E+02  0.10861847208E+04 -0.63117261549E+03  0.12580585563E+04  0.12699999809E+01 0. -1.
       -4    1    3    3    0  502  0.67332012829E+02 -0.10861847208E+04  0.67976821951E+03  0.12831279332E+04  0.12699999809E+01 0.  1.
</event>
<event>
 5   0  0.1421242E-05  0.2578769E+04  0.7818609E-02  0.8375449E-01
       -1   -1    0    0    0  501  0.00000000000E+00  0.00000000000E+00  0.96478445872E+03  0.96478445873E+03  0.50400001928E-02 0.  1.
        1   -1    0    0  501    0  0.00000000000E+00  0.00000000000E+00 -0.17231958260E+04  0.17231958260E+04  0.50400001928E-02 0. -1.
    10030    2    1    2    0    0  0.00000000000E+00  0.00000000000E+00 -0.75841136729E+03  0.26879802848E+04  0.25787691268E+04 0.  0.
        3    1    3    3  502    0 -0.11321513697E+04  0.46653375780E+03 -0.80015522513E+03  0.14627607000E+04  0.10100000352E+00 0. -1.
       -3    1    3    3    0  502  0.11321513697E+04 -0.46653375780E+03  0.41743857841E+02  0.12252195847E+04  0.10100000352E+00 0.  1.
</event>
<event>
 5   0  0.3650620E-05  0.2481317E+04  0.7818609E-02  0.8409672E-01
       -2   -1    0    0    0  501  0.00000000000E+00  0.00000000000E+00  0.11598762448E+04  0.11598762448E+04  0.25500000920E-02 0. -1.
        2   -1    0    0  501    0  0.00000000000E+00  0.00000000000E+00 -0.13270667882E+04  0.13270667882E+04  0.25500000920E-02 0.  1.
    10030    2    1    2    0    0  0.00000000000E+00  0.00000000000E+00 -0.16719054333E+03  0.24869430330E+04  0.24813167818E+04 0.  0.
        3    1    3    3  502    0  0.11410878953E+04  0.42649498669E+03  0.15199871746E+03  0.12276331613E+04  0.10100000352E+00 0. -1.
       -3    1    3    3    0  502 -0.11410878953E+04 -0.42649498669E+03 -0.31918926079E+03  0.12593098717E+04  0.10100000352E+00 0.  1.
</event>
<event>
 5   0  0.1502886E-05  0.2497578E+04  0.7818609E-02  0.8403849E-01
       -1   -1    0    0    0  501  0.00000000000E+00  0.00000000000E+00  0.10087559906E+04  0.10087559906E+04  0.50400001928E-02 0.  1.
        1   -1    0    0  501    0  0.00000000000E+00  0.00000000000E+00 -0.15459379378E+04  0.15459379378E+04  0.50400001928E-02 0. -1.
    10030    2    1    2    0    0  0.00000000000E+00  0.00000000000E+00 -0.53718194725E+03  0.25546939284E+04  0.24975781516E+04 0.  0.
        4    1    3    3  502    0 -0.10459549888E+04  0.53204549967E+03  0.16823289386E+03  0.11854949059E+04  0.12699999809E+01 0. -1.
       -4    1    3    3    0  502  0.10459549888E+04 -0.53204549967E+03 -0.70541484111E+03  0.13691990225E+04  0.12699999809E+01 0.  1.
</event>
<event>
 5   0  0.3581449E-05  0.2479973E+04  0.7818609E-02  0.8410155E-01
       -2   -1    0    0    0  501  0.00000000000E+00  0.00000000000E+00  0.80300384342E+03  0.80300384342E+03  0.25500000920E-02 0.  1.
        2   -1    0    0  501    0  0.00000000000E+00  0.00000000000E+00 -0.19147679459E+04  0.19147679459E+04  0.25500000920E-02 0. -1.
    10030    2    1    2    0    0  0.00000000000E+00  0.00000000000E+00 -0.11117641025E+04  0.27177717894E+04  0.24799725965E+04 0.  0.
        1    1    3    3  502    0 -0.85126132153E+03 -0.88328404584E+03 -0.75414229458E+03  0.14399885915E+04  0.50400001928E-02 0. -1.
       -1    1    3    3    0  502  0.85126132153E+03  0.88328404584E+03 -0.35762180793E+03  0.12777831978E+04  0.50400001928E-02 0.  1.
</event>
<event>
 5   0  0.1492639E-05  0.2418044E+04  0.7818609E-02  0.8432779E-01
        1   -1    0    0  501    0  0.00000000000E+00  0.00000000000E+00  0.14439090050E+04  0.14439090050E+04  0.50400001928E-02 0. -1.
       -1   -1    0    0    0  501  0.00000000000E+00  0.00000000000E+00 -0.10123450545E+04  0.10123450546E+04  0.50400001928E-02 0.  1.
    10030    2    1    2    0    0  0.00000000000E+00  0.00000000000E+00  0.43156395042E+03  0.24562540595E+04  0.24180439536E+04 0.  0.
        5    1    3    3  502    0  0.95351512015E+03  0.11654901804E+03  0.96150613361E+03  0.13591507984E+04  0.46999998093E+01 0. -1.
       -5    1    3    3    0  502 -0.95351512015E+03 -0.11654901804E+03 -0.52994218319E+03  0.10971032611E+04  0.46999998093E+01 0.  1.
</event>
<event>
 5   0  0.1502886E-05  0.2457718E+04  0.7818609E-02  0.8418205E-01
        1   -1    0    0  501    0  0.00000000000E+00  0.00000000000E+00  0.20670602343E+04  0.20670602343E+04  0.50400001928E-02 0. -1.
       -1   -1    0    0    0  501  0.00000000000E+00  0.00000000000E+00 -0.73055177525E+03  0.73055177527E+03  0.50400001928E-02 0.  1.
    10030    2    1    2    0    0  0.00000000000E+00  0.00000000000E+00  0.13365084591E+04  0.27976120096E+04  0.24577180666E+04 0.  0.
        4    1    3    3  502    0  0.93839501030E+03 -0.51731058162E+03 -0.16521248499E+02  0.10716669248E+04  0.12699999809E+01 0.  1.
       -4    1    3    3    0  502 -0.93839501030E+03  0.51731058162E+03  0.13530297076E+04  0.17259450848E+04  0.12699999809E+01 0. -1.
</event>
<event>
 5   0  0.3650620E-05  0.2520915E+04  0.7818609E-02  0.8395572E-01
       -2   -1    0    0    0  501  0.00000000000E+00  0.00000000000E+00  0.12690802613E+04  0.12690802613E+04  0.25500000920E-02 0. -1.
        2   -1    0    0  501    0  0.00000000000E+00  0.00000000000E+00 -0.12518930645E+04  0.12518930645E+04  0.25500000920E-02 0.  1.
    10030    2    1    2    0    0  0.00000000000E+00  0.00000000000E+00  0.17187196805E+02  0.25209733258E+04  0.25209147367E+04 0.  0.
        3    1    3    3  502    0 -0.35797033729E+03  0.44916133940E+03 -0.11134236081E+04  0.12528371053E+04  0.10100000352E+00 0.  1.
       -3    1    3    3    0  502  0.35797033729E+03 -0.44916133940E+03  0.11306108049E+04  0.12681362205E+04  0.10100000352E+00 0. -1.
</event>
<event>
 5   0  0.1201438E-05  0.2523422E+04  0.7818609E-02  0.8394689E-01
        3   -1    0    0  501    0  0.00000000000E+00  0.00000000000E+00  0.16334805062E+04  0.16334805093E+04  0.10100000352E+00 0.  1.
       -3   -1    0    0    0  501  0.00000000000E+00  0.00000000000E+00 -0.97455386991E+03  0.97455387514E+03  0.10100000352E+00 0. -1.
    10030    2    1    2    0    0  0.00000000000E+00  0.00000000000E+00  0.65892663624E+03  0.26080343844E+04  0.25234220888E+04 0.  0.
        2    1    3    3  502    0 -0.80236927893E+03 -0.26104279486E+03  0.12989873297E+04  0.15489699426E+04  0.25500000920E-02 0.  1.
       -2    1    3    3    0  502  0.80236927893E+03  0.26104279486E+03 -0.64006069345E+03  0.10590644418E+04  0.25500000920E-02 0. -1.
</event>
<event>
 5   0  0.1421242E-05  0.2560350E+04  0.7818609E-02  0.8381795E-01
       -1   -1    0    0    0  501  0.00000000000E+00  0.00000000000E+00  0.14111603936E+04  0.14111603936E+04  0.50400001928E-02 0.  1.
        1   -1    0    0  501    0  0.00000000000E+00  0.00000000000E+00 -0.11613480816E+04  0.11613480816E+04  0.50400001928E-02 0. -1.
    10030    2    1    2    0    0  0.00000000000E+00  0.00000000000E+00  0.24981231200E+03  0.25725084753E+04  0.25603503011E+04 0.  0.
        3    1    3    3  502    0  0.94064077495E+02  0.12697479720E+04 -0.89195841459E+01  0.12732586274E+04  0.10100000352E+00 0. -1.
       -3    1    3    3    0  502 -0.94064077495E+02 -0.12697479720E+04  0.25873189615E+03  0.12992498479E+04  0.10100000352E+00 0.  1.
</event>
<event>
 5   0  0.1429483E-05  0.2434079E+04  0.7818609E-02  0.8426854E-01
        1   -1    0    0  501    0  0.00000000000E+00  0.00000000000E+00  0.11538839916E+04  0.11538839916E+04  0.50400001928E-02 0.  1.
       -1   -1    0    0    0  501  0.00000000000E+00  0.00000000000E+00 -0.12836515424E+04  0.12836515424E+04  0.50400001928E-02 0. -1.
    10030    2    1    2    0    0  0.00000000000E+00  0.00000000000E+00 -0.12976755074E+03  0.24375355340E+04  0.24340788530E+04 0.  0.
        2    1    3    3  502    0  0.54742471031E+03 -0.28926969169E+03  0.98438002443E+03  0.11629079071E+04  0.25500000920E-02 0.  1.
       -2    1    3    3    0  502 -0.54742471031E+03  0.28926969169E+03 -0.11141475752E+04  0.12746276269E+04  0.25500000920E-02 0. -1.
</event>
<event>
 5   0  0.3704241E-05  0.2492644E+04  0.7818609E-02  0.8405611E-01
       -2   -1    0    0    0  501  0.00000000000E+00  0.00000000000E+00  0.73882237207E+03  0.73882237208E+03  0.25500000920E-02 0.  1.
        2   -1    0    0  501    0  0.00000000000E+00  0.00000000000E+00 -0.21024252950E+04  0.21024252951E+04  0.25500000920E-02 0. -1.
    10030    2    1    2    0    0  0.00000000000E+00  0.00000000000E+00 -0.13636029230E+04  0.28412476671E+04  0.24926442535E+04 0.  0.
        2    1    3    3  502    0  0.59422184239E+03  0.15926088662E+03 -0.19172963862E+04  0.20135761869E+04  0.25500000920E-02 0. -1.
       -2    1    3    3    0  502 -0.59422184239E+03 -0.15926088662E+03  0.55369346320E+03  0.82767148023E+03  0.25500000920E-02 0.  1.
</event>
<event>
 5   0  0.1502886E-05  0.2590149E+04  0.7818609E-02  0.8371555E-01
       -1   -1    0    0    0  501  0.00000000000E+00  0.00000000000E+00  0.69039649652E+03  0.69039649654E+03  0.50400001928E-02 0.  1.
        1   -1    0    0  501    0  0.00000000000E+00  0.00000000000E+00 -0.24293548593E+04  0.24293548593E+04  0.50400001928E-02 0. -1.
    10030    2    1    2    0    0  0.00000000000E+00  0.00000000000E+00 -0.17389583628E+04  0.31197513559E+04  0.25901490951E+04 0.  0.
        4    1    3    3  502    0 -0.60856631206E+03  0.78603042796E+03 -0.18692743458E+04  0.21171643730E+04  0.12699999809E+01 0. -1.
       -4    1    3    3    0  502  0.60856631206E+03 -0.78603042796E+03  0.13031598294E+03  0.10025869828E+04  0.12699999809E+01 0.  1.
</event>
<event>
 5   0  0.1429483E-05  0.1959948E+04  0.7818609E-02  0.8625579E-01
       -1   -1    0    0    0  501  0.00000000000E+00  0.00000000000E+00  0.73142109537E+03  0.73142109539E+03  0.50400001928E-02 0.  1.
        1   -1    0    0  501    0  0.00000000000E+00  0.00000000000E+00 -0.13129904231E+04  0.13129904231E+04  0.50400001928E-02 0. -1.
    10030    2    1    2    0    0  0.00000000000E+00  0.00000000000E+00 -0.58156932774E+03  0.20444115185E+04  0.19599478498E+04 0.  0.
        2    1    3    3  502    0  0.39601977647E+03 -0.87608241613E+03 -0.48868928430E+03  0.10785032591E+04  0.25500000920E-02 0. -1.
       -2    1    3    3    0  502 -0.39601977647E+03  0.87608241613E+03 -0.92880043439E+02  0.96590825945E+03  0.25500000920E-02 0.  1.
</event>
<event>
 5   0  0.1421242E-05  0.2365842E+04  0.7818609E-02  0.8452404E-01
       -1   -1    0    0    0  501  0.00000000000E+00  0.00000000000E+00  0.53377114471E+03  0.53377114473E+03  0.50400001928E-02 0.  1.
        1   -1    0    0  501    0  0.00000000000E+00  0.00000000000E+00 -0.26215394567E+04  0.26215394567E+04  0.50400001928E-02 0. -1.
    10030    2    1    2    0    0  0.00000000000E+00  0.00000000000E+00 -0.20877683120E+04  0.31553106015E+04  0.23658420207E+04 0.  0.
        3    1    3    3  502    0 -0.77201572590E+03  0.93218317060E+02  0.14497880159E+03  0.79102262849E+03  0.10100000352E+00 0.  1.
       -3    1    3    3    0  502  0.77201572590E+03 -0.93218317060E+02 -0.22327471136E+04  0.23642879730E+04  0.10100000352E+00 0. -1.
</event>
<event>
 5   0  0.3581449E-05  0.2484035E+04  0.7818609E-02  0.8408695E-01
        2   -1    0    0  501    0  0.00000000000E+00  0.00000000000E+00  0.24888623622E+04  0.24888623622E+04  0.25500000920E-02 0.  1.
       -2   -1    0    0    0  501  0.00000000000E+00  0.00000000000E+00 -0.61980437298E+03  0.61980437298E+03  0.25500000920E-02 0. -1.
    10030    2    1    2    0    0  0.00000000000E+00  0.00000000000E+00  0.18690579893E+04  0.31086667352E+04  0.24840352460E+04 0.  0.
        1    1    3    3  502    0 -0.10279901585E+04 -0.43246460410E+03  0.25042825052E+03  0.11430239317E+04  0.50400001928E-02 0. -1.
       -1    1    3    3    0  502  0.10279901585E+04  0.43246460410E+03  0.16186297387E+04  0.19656428035E+04  0.50400001928E-02 0.  1.
</event>
<event>
 5   0  0.3578670E-05  0.2532095E+04  0.7818609E-02  0.8391640E-01
        2   -1    0    0  501    0  0.00000000000E+00  0.00000000000E+00  0.17302504539E+04  0.17302504539E+04  0.25500000920E-02 0.  1.
       -2   -1    0    0    0  501  0.00000000000E+00  0.00000000000E+00 -0.92638383032E+03  0.92638383032E+03  0.25500000920E-02 0. -1.
    10030    2    1    2    0    0  0.00000000000E+00  0.00000000000E+00  0.80386662357E+03  0.26566342842E+04  0.25320948188E+04 0.  0.
        4    1    3    3  502    0  0.39314840308E+03  0.25570342017E+03  0.16357511575E+04  0.17016560663E+04  0.12699999809E+01 0.  1.
       -4    1    3    3    0  502 -0.39314840308E+03 -0.25570342017E+03 -0.83188453393E+03  0.95497821788E+03  0.12699999809E+01 0. -1.
</event>
<event>
 5   0  0.1456876E-05  0.2528675E+04  0.7818609E-02  0.8392841E-01
       -1   -1    0    0    0  501  0.00000000000E+00  0.00000000000E+00  0.12672863157E+04  0.12672863157E+04  0.50400001928E-02 0.  1.
        1   -1    0    0  501    0  0.00000000000E+00  0.00000000000E+00 -0.12613956584E+04  0.12613956584E+04  0.50400001928E-02 0. -1.
    10030    2    1    2    0    0  0.00000000000E+00  0.00000000000E+00  0.58906572751E+01  0.25286819741E+04  0.25286751129E+04 0.  0.
        1    1    3    3  502    0 -0.10312946015E+04  0.61757987169E+03 -0.38894347838E+03  0.12634280677E+04  0.50400001928E-02 0. -1.
       -1    1    3    3    0  502  0.10312946015E+04 -0.61757987169E+03  0.39483413566E+03  0.12652539064E+04  0.50400001928E-02 0.  1.
</event>
<event>
 5   0  0.3581449E-05  0.2510533E+04  0.7818609E-02  0.8399243E-01
        2   -1    0    0  501    0  0.00000000000E+00  0.00000000000E+00  0.18907207056E+04  0.18907207056E+04  0.25500000920E-02 0.  1.
       -2   -1    0    0    0  501  0.00000000000E+00  0.00000000000E+00 -0.83338299470E+03  0.83338299470E+03  0.25500000920E-02 0. -1.
    10030    2    1    2    0    0  0.00000000000E+00  0.00000000000E+00  0.10573377109E+04  0.27241037003E+04  0.25105333965E+04 0.  0.
        1    1    3    3  502    0 -0.37679097787E+03 -0.10676217582E+04 -0.59581865592E+02  0.11337273298E+04  0.50400001928E-02 0. -1.
       -1    1    3    3    0  502  0.37679097787E+03  0.10676217582E+04  0.11169195764E+04  0.15903763705E+04  0.50400001928E-02 0.  1.
</event>
<event>
 5   0  0.3578670E-05  0.2487650E+04  0.7818609E-02  0.8407399E-01
       -2   -1    0    0    0  501  0.00000000000E+00  0.00000000000E+00  0.68254599614E+03  0.68254599614E+03  0.25500000920E-02 0.  1.
        2   -1    0    0  501    0  0.00000000000E+00  0.00000000000E+00 -0.22666613907E+04  0.22666613907E+04  0.25500000920E-02 0. -1.
    10030    2    1    2    0    0  0.00000000000E+00  0.00000000000E+00 -0.15841153945E+04  0.29492073868E+04  0.24876500211E+04 0.  0.
        4    1    3    3  502    0  0.73577803446E+03 -0.98806274730E+03 -0.99554869159E+03  0.15839053377E+04  0.12699999809E+01 0. -1.
       -4    1    3    3    0  502 -0.73577803446E+03  0.98806274730E+03 -0.58856670295E+03  0.13653020491E+04  0.12699999809E+01 0.  1.
</event>
<event>
 5   0  0.3579097E-05  0.2515725E+04  0.7818609E-02  0.8397405E-01
        2   -1    0    0  501    0  0.00000000000E+00  0.00000000000E+00  0.27861596709E+04  0.27861596709E+04  0.25500000920E-02 0.  1.
       -2   -1    0    0    0  501  0.00000000000E+00  0.00000000000E+00 -0.56788485506E+03  0.56788485506E+03  0.25500000920E-02 0. -1.
    10030    2    1    2    0    0  0.00000000000E+00  0.00000000000E+00  0.22182748158E+04  0.33540445259E+04  0.25157248505E+04 0.  0.
        5    1    3    3  502    0 -0.36233141439E+03 -0.35497759228E+03 -0.42547133331E+03  0.66207332701E+03  0.46999998093E+01 0. -1.
       -5    1    3    3    0  502  0.36233141439E+03  0.35497759228E+03  0.26437461491E+04  0.26919711989E+04  0.46999998093E+01 0.  1.
</event>
<event>
 5   0  0.3581449E-05  0.2509244E+04  0.7818609E-02  0.8399700E-01
       -2   -1    0    0    0  501  0.00000000000E+00  0.00000000000E+00  0.78641184665E+03  0.78641184665E+03  0.25500000920E-02 0. -1.
        2   -1    0    0  501    0  0.00000000000E+00  0.00000000000E+00 -0.20015932982E+04  0.20015932982E+04  0.25500000920E-02 0.  1.
    10030    2    1    2    0    0  0.00000000000E+00  0.00000000000E+00 -0.12151814515E+04  0.27880051448E+04  0.25092442542E+04 0.  0.
        1    1    3    3  502    0  0.20995628372E+03 -0.12369187743E+04 -0.60181876584E+03  0.13914868028E+04  0.50400001928E-02 0.  1.
       -1    1    3    3    0  502 -0.20995628372E+03  0.12369187743E+04 -0.61336268569E+03  0.13965183420E+04  0.50400001928E-02 0. -1.
</event>
<event>
 5   0  0.3579097E-05  0.2415971E+04  0.7818609E-02  0.8433548E-01
        2   -1    0    0  501    0  0.00000000000E+00  0.00000000000E+00  0.28561663245E+04  0.28561663245E+04  0.25500000920E-02 0. -1.
       -2   -1    0    0    0  501  0.00000000000E+00  0.00000000000E+00 -0.51090478186E+03  0.51090478187E+03  0.25500000920E-02 0.  1.
    10030    2    1    2    0    0  0.00000000000E+00  0.00000000000E+00  0.23452615426E+04  0.33670711063E+04  0.24159710536E+04 0.  0.
        5    1    3    3  502    0  0.73396744880E+03  0.89779187774E+03  0.70110709670E+03  0.13551057976E+04  0.46999998093E+01 0. -1.
       -5    1    3    3    0  502 -0.73396744880E+03 -0.89779187774E+03  0.16441544459E+04  0.20119653088E+04  0.46999998093E+01 0.  1.
</event>
<event>
 5   0  0.3581449E-05  0.2473817E+04  0.7818609E-02  0.8412373E-01
        2   -1    0    0  501    0  0.00000000000E+00  0.00000000000E+00  0.29787668645E+04  0.29787668645E+04  0.25500000920E-02 0. -1.
       -2   -1    0    0    0  501  0.00000000000E+00  0.00000000000E+00 -0.51361612235E+03  0.51361612235E+03  0.25500000920E-02 0.  1.
    10030    2    1    2    0    0  0.00000000000E+00  0.00000000000E+00  0.24651507422E+04  0.34923829869E+04  0.24738170396E+04 0.  0.
        1    1    3    3  502    0 -0.81231847348E+02 -0.12279281542E+04  0.10566083907E+04  0.16219825696E+04  0.50400001928E-02 0.  1.
       -1    1    3    3    0  502  0.81231847348E+02  0.12279281542E+04  0.14085423515E+04  0.18704004173E+04  0.50400001928E-02 0. -1.
</event>
<event>
 5   0  0.1502886E-05  0.2366896E+04  0.7818609E-02  0.8452002E-01
       -1   -1    0    0    0  501  0.00000000000E+00  0.00000000000E+00  0.10482884532E+04  0.10482884532E+04  0.50400001928E-02 0. -1.
        1   -1    0    0  501    0  0.00000000000E+00  0.00000000000E+00 -0.13360338461E+04  0.13360338461E+04  0.50400001928E-02 0.  1.
    10030    2    1    2    0    0  0.00000000000E+00  0.00000000000E+00 -0.28774539292E+03  0.23843222994E+04  0.23668957341E+04 0.  0.
        4    1    3    3  502    0 -0.10951619770E+03  0.93141614025E+03 -0.87100251445E+03  0.12799128162E+04  0.12699999809E+01 0.  1.
       -4    1    3    3    0  502  0.10951619770E+03 -0.93141614025E+03  0.58325712152E+03  0.11044094832E+04  0.12699999809E+01 0. -1.
</event>
<event>
 5   0  0.1421242E-05  0.2499442E+04  0.7818609E-02  0.8403184E-01
       -1   -1    0    0    0  501  0.00000000000E+00  0.00000000000E+00  0.85289916710E+03  0.85289916711E+03  0.50400001928E-02 0.  1.
        1   -1    0    0  501    0  0.00000000000E+00  0.00000000000E+00 -0.18311694174E+04  0.18311694174E+04  0.50400001928E-02 0. -1.
    10030    2    1    2    0    0  0.00000000000E+00  0.00000000000E+00 -0.97827025034E+03  0.26840685846E+04  0.24994422346E+04 0.  0.
        3    1    3    3  502    0  0.47263105722E+03 -0.84870604693E+03 -0.13334164452E+04  0.16497519501E+04  0.10100000352E+00 0. -1.
       -3    1    3    3    0  502 -0.47263105722E+03  0.84870604693E+03  0.35514619488E+03  0.10343166344E+04  0.10100000352E+00 0.  1.
</event>
<event>
 5   0  0.3581449E-05  0.2508918E+04  0.7818609E-02  0.8399815E-01
        2   -1    0    0  501    0  0.00000000000E+00  0.00000000000E+00  0.14642516340E+04  0.14642516340E+04  0.25500000920E-02 0. -1.
       -2   -1    0    0    0  501  0.00000000000E+00  0.00000000000E+00 -0.10747244648E+04  0.10747244648E+04  0.25500000920E-02 0.  1.
    10030    2    1    2    0    0  0.00000000000E+00  0.00000000000E+00  0.38952716921E+03  0.25389760987E+04  0.25089177377E+04 0.  0.
        1    1    3    3  502    0  0.47600686601E+03 -0.11791915859E+03  0.13632307653E+04  0.14487531135E+04  0.50400001928E-02 0. -1.
       -1    1    3    3    0  502 -0.47600686601E+03  0.11791915859E+03 -0.97370359608E+03  0.10902229852E+04  0.50400001928E-02 0.  1.
</event>
<event>
 5   0  0.1429483E-05  0.2450119E+04  0.7818609E-02  0.8420974E-01
       -1   -1    0    0    0  501  0.00000000000E+00  0.00000000000E+00  0.12291682488E+04  0.12291682488E+04  0.50400001928E-02 0. -1.
        1   -1    0    0  501    0  0.00000000000E+00  0.00000000000E+00 -0.12209649180E+04  0.12209649180E+04  0.50400001928E-02 0.  1.
    10030    2    1    2    0    0  0.00000000000E+00  0.00000000000E+00  0.82033307825E+01  0.24501331669E+04  0.24501194340E+04 0.  0.
        2    1    3    3  502    0 -0.19740298180E+03 -0.12090396061E+04  0.92595816610E+01  0.12250838527E+04  0.25500000920E-02 0.  1.
       -2    1    3    3    0  502  0.19740298180E+03  0.12090396061E+04 -0.10562508786E+01  0.12250493141E+04  0.25500000920E-02 0. -1.
</event>
<event>
 5   0  0.3704241E-05  0.2523685E+04  0.7818609E-02  0.8394596E-01
        2   -1    0    0  501    0  0.00000000000E+00  0.00000000000E+00  0.15966347719E+04  0.15966347719E+04  0.25500000920E-02 0. -1.
       -2   -1    0    0    0  501  0.00000000000E+00  0.00000000000E+00 -0.99725128014E+03  0.99725128014E+03  0.25500000920E-02 0.  1.
    10030    2    1    2    0    0  0.00000000000E+00  0.00000000000E+00  0.59938349176E+03  0.25938860520E+04  0.25236846635E+04 0.  0.
        2    1    3    3  502    0 -0.44709385789E+02 -0.10847263297E+04 -0.36132800194E+03  0.11441975636E+04  0.25500000920E-02 0.  1.
       -2    1    3    3    0  502  0.44709385789E+02  0.10847263297E+04  0.96071149370E+03  0.14496884885E+04  0.25500000920E-02 0. -1.
</event>
<event>
 5   0  0.1502886E-05  0.2478921E+04  0.7818609E-02  0.8410534E-01
        1   -1    0    0  501    0  0.00000000000E+00  0.00000000000E+00  0.12381202548E+04  0.12381202548E+04  0.50400001928E-02 0. -1.
       -1   -1    0    0    0  501  0.00000000000E+00  0.00000000000E+00 -0.12408021243E+04  0.12408021243E+04  0.50400001928E-02 0.  1.
    10030    2    1    2    0    0  0.00000000000E+00  0.00000000000E+00 -0.26818695803E+01  0.24789223791E+04  0.24789209284E+04 0.  0.
        4    1    3    3  502    0  0.10170611601E+03 -0.24046010829E+03  0.12103096543E+04  0.12381503422E+04  0.12699999809E+01 0. -1.
       -4    1    3    3    0  502 -0.10170611601E+03  0.24046010829E+03 -0.12129915239E+04  0.12407720369E+04  0.12699999809E+01 0.  1.
</event>
<event>
 5   0  0.3579097E-05  0.2505019E+04  0.7818609E-02  0.8401200E-01
       -2   -1    0    0    0  501  0.00000000000E+00  0.00000000000E+00  0.92949861927E+03  0.92949861927E+03  0.25500000920E-02 0.  1.
        2   -1    0    0  501    0  0.00000000000E+00  0.00000000000E+00 -0.16877701949E+04  0.16877701949E+04  0.25500000920E-02 0. -1.
    10030    2    1    2    0    0  0.00000000000E+00  0.00000000000E+00 -0.75827157566E+03  0.26172688142E+04  0.25050190146E+04 0.  0.
        5    1    3    3  502    0  0.45272031679E+03  0.46810022224E+03 -0.14969772124E+04  0.16324939105E+04  0.46999998093E+01 0. -1.
       -5    1    3    3    0  502 -0.45272031679E+03 -0.46810022224E+03  0.73870563673E+03  0.98477490374E+03  0.46999998093E+01 0.  1.
</event>
<event>
 5   0  0.1456876E-05  0.2498911E+04  0.7818609E-02  0.8403374E-01
        1   -1    0    0  501    0  0.00000000000E+00  0.00000000000E+00  0.10767731186E+04  0.10767731186E+04  0.50400001928E-02 0. -1.
       -1   -1    0    0    0  501  0.00000000000E+00  0.00000000000E+00 -0.14498308418E+04  0.14498308419E+04  0.50400001928E-02 0.  1.
    10030    2    1    2    0    0  0.00000000000E+00  0.00000000000E+00 -0.37305772327E+03  0.25266039604E+04  0.24989108644E+04 0.  0.
        1    1    3    3  502    0 -0.64198104386E+03  0.10584205404E+04 -0.15105939995E+02  0.12379910705E+04  0.50400001928E-02 0. -1.
       -1    1    3    3    0  502  0.64198104386E+03 -0.10584205404E+04 -0.35795178328E+03  0.12886128900E+04  0.50400001928E-02 0.  1.
</event>
<event>
 5   0  0.3581449E-05  0.2499400E+04  0.7818609E-02  0.8403199E-01
        2   -1    0    0  501    0  0.00000000000E+00  0.00000000000E+00  0.14449579103E+04  0.14449579103E+04  0.25500000920E-02 0. -1.
       -2   -1    0    0    0  501  0.00000000000E+00  0.00000000000E+00 -0.10808275274E+04  0.10808275274E+04  0.25500000920E-02 0.  1.
    10030    2    1    2    0    0  0.00000000000E+00  0.00000000000E+00  0.36413038293E+03  0.25257854377E+04  0.24994001563E+04 0.  0.
        1    1    3    3  502    0 -0.28818312890E+03 -0.71509885414E+03  0.11759795808E+04  0.14061805935E+04  0.50400001928E-02 0. -1.
       -1    1    3    3    0  502  0.28818312890E+03  0.71509885414E+03 -0.81184919791E+03  0.11196048442E+04  0.50400001928E-02 0.  1.
</event>
<event>
 5   0  0.1429483E-05  0.2472869E+04  0.7818609E-02  0.8412715E-01
       -1   -1    0    0    0  501  0.00000000000E+00  0.00000000000E+00  0.12641981491E+04  0.12641981491E+04  0.50400001928E-02 0.  1.
        1   -1    0    0  501    0  0.00000000000E+00  0.00000000000E+00 -0.12092805050E+04  0.12092805050E+04  0.50400001928E-02 0. -1.
    10030    2    1    2    0    0  0.00000000000E+00  0.00000000000E+00  0.54917644109E+02  0.24734786542E+04  0.24728689219E+04 0.  0.
        2    1    3    3  502    0  0.11698628610E+03  0.11156868383E+04 -0.49259943319E+03  0.12251926844E+04  0.25500000920E-02 0. -1.
       -2    1    3    3    0  502 -0.11698628610E+03 -0.11156868383E+04  0.54751707730E+03  0.12482859698E+04  0.25500000920E-02 0.  1.
</event>
<event>
 5   0  0.1429483E-05  0.2501701E+04  0.7818609E-02  0.8402380E-01
       -1   -1    0    0    0  501  0.00000000000E+00  0.00000000000E+00  0.12457224855E+04  0.12457224855E+04  0.50400001928E-02 0.  1.
        1   -1    0    0  501    0  0.00000000000E+00  0.00000000000E+00 -0.12560000193E+04  0.12560000194E+04  0.50400001928E-02 0. -1.
    10030    2    1    2    0    0  0.00000000000E+00  0.00000000000E+00 -0.10277533809E+02  0.25017225049E+04  0.25017013938E+04 0.  0.
        2    1    3    3  502    0 -0.99631272855E+03  0.31914055477E+03 -0.69081044774E+03  0.12536781172E+04  0.25500000920E-02 0. -1.
       -2    1    3    3    0  502  0.99631272855E+03 -0.31914055477E+03  0.68053291393E+03  0.12480443877E+04  0.25500000920E-02 0.  1.
</event>
<event>
 5   0  0.1492639E-05  0.2513400E+04  0.7818609E-02  0.8398227E-01
       -1   -1    0    0    0  501  0.00000000000E+00  0.00000000000E+00  0.76463469847E+03  0.76463469849E+03  0.50400001928E-02 0. -1.
        1   -1    0    0  501    0  0.00000000000E+00  0.00000000000E+00 -0.20654240176E+04  0.20654240176E+04  0.50400001928E-02 0.  1.
    10030    2    1    2    0    0  0.00000000000E+00  0.00000000000E+00 -0.13007893191E+04  0.28300587161E+04  0.25133999848E+04 0.  0.
        5    1    3    3  502    0 -0.13723976583E+03 -0.83209094478E+03  0.39868721209E+03  0.93283636121E+03  0.46999998093E+01 0. -1.
       -5    1    3    3    0  502  0.13723976583E+03  0.83209094478E+03 -0.16994765312E+04  0.18972223548E+04  0.46999998093E+01 0.  1.
</event>
<event>
 5   0  0.1492639E-05  0.2532618E+04  0.7818609E-02  0.8391456E-01
       -1   -1    0    0    0  501  0.00000000000E+00  0.00000000000E+00  0.71394157328E+03  0.71394157329E+03  0.50400001928E-02 0.  1.
        1   -1    0    0  501    0  0.00000000000E+00  0.00000000000E+00 -0.22460368733E+04  0.22460368733E+04  0.50400001928E-02 0. -1.
    10030    2    1    2    0    0  0.00000000000E+00  0.00000000000E+00 -0.15320953000E+04  0.29599784466E+04  0.25326184861E+04 0.  0.
        5    1    3    3  502    0 -0.12430824230E+04  0.18255490937E+03 -0.58148697543E+03  0.13844599662E+04  0.46999998093E+01 0. -1.
       -5    1    3    3    0  502  0.12430824230E+04 -0.18255490937E+03 -0.95060832459E+03  0.15755184804E+04  0.46999998093E+01 0.  1.
</event>
<event>
 5   0  0.1502886E-05  0.2538663E+04  0.7818609E-02  0.8389340E-01
       -1   -1    0    0    0  501  0.00000000000E+00  0.00000000000E+00  0.12591579828E+04  0.12591579828E+04  0.50400001928E-02 0.  1.
        1   -1    0    0  501    0  0.00000000000E+00  0.00000000000E+00 -0.12795868460E+04  0.12795868460E+04  0.50400001928E-02 0. -1.
    10030    2    1    2    0    0  0.00000000000E+00  0.00000000000E+00 -0.20428863158E+02  0.25387448288E+04  0.25386626336E+04 0.  0.
        4    1    3    3  502    0  0.81761745692E+03  0.97033063870E+03  0.23853146250E+02  0.12690982782E+04  0.12699999809E+01 0.  1.
       -4    1    3    3    0  502 -0.81761745692E+03 -0.97033063870E+03 -0.44282009408E+02  0.12696465506E+04  0.12699999809E+01 0. -1.
</event>
<event>
 5   0  0.3578670E-05  0.2492360E+04  0.7818609E-02  0.8405712E-01
        2   -1    0    0  501    0  0.00000000000E+00  0.00000000000E+00  0.23268209826E+04  0.23268209826E+04  0.25500000920E-02 0. -1.
       -2   -1    0    0    0  501  0.00000000000E+00  0.00000000000E+00 -0.66741921154E+03  0.66741921155E+03  0.25500000920E-02 0.  1.
    10030    2    1    2    0    0  0.00000000000E+00  0.00000000000E+00  0.16594017711E+04  0.29942401942E+04  0.24923603477E+04 0.  0.
        4    1    3    3  502    0 -0.93134300647E+02  0.95967976867E+03  0.17781757240E+04  0.20227629062E+04  0.12699999809E+01 0. -1.
       -4    1    3    3    0  502  0.93134300647E+02 -0.95967976867E+03 -0.11877395288E+03  0.97147728802E+03  0.12699999809E+01 0.  1.
</event>
<event>
 5   0  0.3581449E-05  0.1948658E+04  0.7818609E-02  0.8631008E-01
       -2   -1    0    0    0  501  0.00000000000E+00  0.00000000000E+00  0.18145949121E+04  0.18145949121E+04  0.25500000920E-02 0.  1.
        2   -1    0    0  501    0  0.00000000000E+00  0.00000000000E+00 -0.52315639378E+03  0.52315639379E+03  0.25500000920E-02 0. -1.
    10030    2    1    2    0    0  0.00000000000E+00  0.00000000000E+00  0.12914385183E+04  0.23377513059E+04  0.19486579283E+04 0.  0.
        1    1    3    3  502    0  0.71856499205E+03  0.50646258374E+03  0.14174695051E+03  0.89046740229E+03  0.50400001928E-02 0. -1.
       -1    1    3    3    0  502 -0.71856499205E+03 -0.50646258374E+03  0.11496915678E+04  0.14472839036E+04  0.50400001928E-02 0.  1.
</event>
<event>
 5   0  0.3579097E-05  0.2491397E+04  0.7818609E-02  0.8406057E-01
        2   -1    0    0  501    0  0.00000000000E+00  0.00000000000E+00  0.17662222547E+04  0.17662222547E+04  0.25500000920E-02 0. -1.
       -2   -1    0    0    0  501  0.00000000000E+00  0.00000000000E+00 -0.87857845977E+03  0.87857845977E+03  0.25500000920E-02 0.  1.
    10030    2    1    2    0    0  0.00000000000E+00  0.00000000000E+00  0.88764379490E+03  0.26448007144E+04  0.24913970604E+04 0.  0.
        5    1    3    3  502    0 -0.13838770429E+03  0.12226666386E+03 -0.86395824266E+03  0.88348527370E+03  0.46999998093E+01 0.  1.
       -5    1    3    3    0  502  0.13838770429E+03 -0.12226666386E+03  0.17516020376E+04  0.17613154407E+04  0.46999998093E+01 0. -1.
</event>
<event>
 5   0  0.3704241E-05  0.2516587E+04  0.7818609E-02  0.8397100E-01
        2   -1    0    0  501    0  0.00000000000E+00  0.00000000000E+00  0.10315532432E+04  0.10315532432E+04  0.25500000920E-02 0. -1.
       -2   -1    0    0    0  501  0.00000000000E+00  0.00000000000E+00 -0.15348721130E+04  0.15348721130E+04  0.25500000920E-02 0.  1.
    10030    2    1    2    0    0  0.00000000000E+00  0.00000000000E+00 -0.50331886988E+03  0.25664253562E+04  0.25165868203E+04 0.  0.
        2    1    3    3  502    0 -0.11061444667E+04  0.49114112685E+03  0.99436323377E+02  0.12143569368E+04  0.25500000920E-02 0. -1.
       -2    1    3    3    0  502  0.11061444667E+04 -0.49114112685E+03 -0.60275519325E+03  0.13520684194E+04  0.25500000920E-02 0.  1.
</event>
<event>
 5   0  0.1429483E-05  0.2478032E+04  0.7818609E-02  0.8410854E-01
       -1   -1    0    0    0  501  0.00000000000E+00  0.00000000000E+00  0.10547538564E+04  0.10547538564E+04  0.50400001928E-02 0. -1.
        1   -1    0    0  501    0  0.00000000000E+00  0.00000000000E+00 -0.14554681191E+04  0.14554681191E+04  0.50400001928E-02 0.  1.
    10030    2    1    2    0    0  0.00000000000E+00  0.00000000000E+00 -0.40071426265E+03  0.25102219755E+04  0.24780319704E+04 0.  0.
        2    1    3    3  502    0 -0.80104220131E+03  0.38285660265E+03 -0.10758249379E+04  0.13948645394E+04  0.25500000920E-02 0.  1.
       -2    1    3    3    0  502  0.80104220131E+03 -0.38285660265E+03  0.67511067521E+03  0.11153574361E+04  0.25500000920E-02 0. -1.
</event>
<event>
 5   0  0.1456876E-05  0.2474646E+04  0.7818609E-02  0.8412074E-01
        1   -1    0    0  501    0  0.00000000000E+00  0.00000000000E+00  0.15235635767E+04  0.15235635767E+04  0.50400001928E-02 0.  1.
       -1   -1    0    0    0  501  0.00000000000E+00  0.00000000000E+00 -0.10048600216E+04  0.10048600217E+04  0.50400001928E-02 0. -1.
    10030    2    1    2    0    0  0.00000000000E+00  0.00000000000E+00  0.51870355502E+03  0.25284235983E+04  0.24746459372E+04 0.  0.
        1    1    3    3  502    0  0.19124953127E+02  0.21661952836E+03  0.15038854269E+04  0.15195266241E+04  0.50400001928E-02 0.  1.
       -1    1    3    3    0  502 -0.19124953127E+02 -0.21661952836E+03 -0.98518187191E+03  0.10088969743E+04  0.50400001928E-02 0. -1.
</event>
<event>
 5   0  0.3579097E-05  0.2503751E+04  0.7818609E-02  0.8401651E-01
        2   -1    0    0  501    0  0.00000000000E+00  0.00000000000E+00  0.22089549364E+04  0.22089549364E+04  0.25500000920E-02 0.  1.
       -2   -1    0    0    0  501  0.00000000000E+00  0.00000000000E+00 -0.70947208185E+03  0.70947208186E+03  0.25500000920E-02 0. -1.
    10030    2    1    2    0    0  0.00000000000E+00  0.00000000000E+00  0.14994828545E+04  0.29184270182E+04  0.25037506724E+04 0.  0.
        5    1    3    3  502    0 -0.30138059352E+03 -0.86293995236E+03 -0.24730782558E+03  0.94693129325E+03  0.46999998093E+01 0. -1.
       -5    1    3    3    0  502  0.30138059352E+03  0.86293995236E+03  0.17467906801E+04  0.19714957250E+04  0.46999998093E+01 0.  1.
</event>
<event>
 5   0  0.3581449E-05  0.2507462E+04  0.7818609E-02  0.8400332E-01
       -2   -1    0    0    0  501  0.00000000000E+00  0.00000000000E+00  0.78991355136E+03  0.78991355137E+03  0.25500000920E-02 0.  1.
        2   -1    0    0  501    0  0.00000000000E+00  0.00000000000E+00 -0.19898910406E+04  0.19898910406E+04  0.25500000920E-02 0. -1.
    10030    2    1    2    0    0  0.00000000000E+00  0.00000000000E+00 -0.11999774893E+04  0.27798045920E+04  0.25074623816E+04 0.  0.
        1    1    3    3  502    0 -0.10240200436E+03  0.46872266427E+03 -0.18840928514E+04  0.19442204040E+04  0.50400001928E-02 0. -1.
       -1    1    3    3    0  502  0.10240200436E+03 -0.46872266427E+03  0.68411536215E+03  0.83558418801E+03  0.50400001928E-02 0.  1.
</event>
<event>
 5   0  0.1201438E-05  0.2510958E+04  0.7818609E-02  0.8399092E-01
        3   -1    0    0  501    0  0.00000000000E+00  0.00000000000E+00  0.17364843208E+04  0.17364843238E+04  0.10100000352E+00 0.  1.
       -3   -1    0    0    0  501  0.00000000000E+00  0.00000000000E+00 -0.90771178426E+03  0.90771178988E+03  0.10100000352E+00 0. -1.
    10030    2    1    2    0    0  0.00000000000E+00  0.00000000000E+00  0.82877253658E+03  0.26441961137E+04  0.25109578193E+04 0.  0.
        2    1    3    3  502    0 -0.12221400098E+04  0.26364847894E+03  0.53487141201E+03  0.13598618133E+04  0.25500000920E-02 0. -1.
       -2    1    3    3    0  502  0.12221400098E+04 -0.26364847894E+03  0.29390112457E+03  0.12843343003E+04  0.25500000920E-02 0.  1.
</event>
<event>
 5   0  0.1421242E-05  0.2487530E+04  0.7818609E-02  0.8407442E-01
        1   -1    0    0  501    0  0.00000000000E+00  0.00000000000E+00  0.18705171683E+04  0.18705171683E+04  0.50400001928E-02 0.  1.
       -1   -1    0    0    0  501  0.00000000000E+00  0.00000000000E+00 -0.82701771771E+03  0.82701771772E+03  0.50400001928E-02 0. -1.
    10030    2    1    2    0    0  0.00000000000E+00  0.00000000000E+00  0.10434994506E+04  0.26975348860E+04  0.24875295693E+04 0.  0.
        3    1    3    3  502    0 -0.97597626476E+03  0.40737682043E+02 -0.31315871078E+03  0.10257960891E+04  0.10100000352E+00 0. -1.
       -3    1    3    3    0  502  0.97597626476E+03 -0.40737682043E+02  0.13566581614E+04  0.16717387969E+04  0.10100000352E+00 0.  1.
</event>
<event>
 5   0  0.3579097E-05  0.2284499E+04  0.7818609E-02  0.8484058E-01
       -2   -1    0    0    0  501  0.00000000000E+00  0.00000000000E+00  0.10366898478E+04  0.10366898478E+04  0.25500000920E-02 0.  1.
        2   -1    0    0  501    0  0.00000000000E+00  0.00000000000E+00 -0.12585575442E+04  0.12585575442E+04  0.25500000920E-02 0. -1.
    10030    2    1    2    0    0  0.00000000000E+00  0.00000000000E+00 -0.22186769646E+03  0.22952473920E+04  0.22844989201E+04 0.  0.
        5    1    3    3  502    0 -0.54859222064E+03  0.45286312803E+03  0.78695613981E+03  0.10608300963E+04  0.46999998093E+01 0.  1.
       -5    1    3    3    0  502  0.54859222064E+03 -0.45286312803E+03 -0.10088238363E+04  0.12344172957E+04  0.46999998093E+01 0. -1.
</event>
<event>
 5   0  0.1421242E-05  0.2566321E+04  0.7818609E-02  0.8379732E-01
        1   -1    0    0  501    0  0.00000000000E+00  0.00000000000E+00  0.11965881066E+04  0.11965881066E+04  0.50400001928E-02 0. -1.
       -1   -1    0    0    0  501  0.00000000000E+00  0.00000000000E+00 -0.13759965253E+04  0.13759965253E+04  0.50400001928E-02 0.  1.
    10030    2    1    2    0    0  0.00000000000E+00  0.00000000000E+00 -0.17940841866E+03  0.25725846320E+04  0.25663211623E+04 0.  0.
        3    1    3    3  502    0  0.50183182281E+02 -0.11684756110E+04 -0.61886323881E+03  0.13231951193E+04  0.10100000352E+00 0.  1.
       -3    1    3    3    0  502 -0.50183182281E+02  0.11684756110E+04  0.43945482014E+03  0.12493895127E+04  0.10100000352E+00 0. -1.
</event>
<event>
 5   0  0.3579097E-05  0.2505051E+04  0.7818609E-02  0.8401188E-01
       -2   -1    0    0    0  501  0.00000000000E+00  0.00000000000E+00  0.67703578101E+03  0.67703578101E+03  0.25500000920E-02 0.  1.
        2   -1    0    0  501    0  0.00000000000E+00  0.00000000000E+00 -0.23171885980E+04  0.23171885980E+04  0.25500000920E-02 0. -1.
    10030    2    1    2    0    0  0.00000000000E+00  0.00000000000E+00 -0.16401528170E+04  0.29942243791E+04  0.25050505721E+04 0.  0.
        5    1    3    3  502    0  0.82009907766E+03  0.29053968828E+03 -0.18970329306E+04  0.20870390119E+04  0.46999998093E+01 0. -1.
       -5    1    3    3    0  502 -0.82009907766E+03 -0.29053968828E+03  0.25688011352E+03  0.90718536714E+03  0.46999998093E+01 0.  1.
</event>
<event>
 5   0  0.1429483E-05  0.2525639E+04  0.7818609E-02  0.8393908E-01
       -1   -1    0    0    0  501  0.00000000000E+00  0.00000000000E+00  0.10589159053E+04  0.10589159053E+04  0.50400001928E-02 0. -1.
        1   -1    0    0  501    0  0.00000000000E+00  0.00000000000E+00 -0.15059867292E+04  0.15059867292E+04  0.50400001928E-02 0.  1.
    10030    2    1    2    0    0  0.00000000000E+00  0.00000000000E+00 -0.44707082388E+03  0.25649026345E+04  0.25256391672E+04 0.  0.
        2    1    3    3  502    0  0.10648915309E+04 -0.39362443667E+03  0.33803407308E+03  0.11845679399E+04  0.25500000920E-02 0. -1.
       -2    1    3    3    0  502 -0.10648915309E+04  0.39362443667E+03 -0.78510489696E+03  0.13803346946E+04  0.25500000920E-02 0.  1.
</event>
<event>
 5   0  0.3581449E-05  0.2484389E+04  0.7818609E-02  0.8408568E-01
       -2   -1    0    0    0  501  0.00000000000E+00  0.00000000000E+00  0.72136535532E+03  0.72136535533E+03  0.25500000920E-02 0.  1.
        2   -1    0    0  501    0  0.00000000000E+00  0.00000000000E+00 -0.21390653632E+04  0.21390653632E+04  0.25500000920E-02 0. -1.
    10030    2    1    2    0    0  0.00000000000E+00  0.00000000000E+00 -0.14177000079E+04  0.28604307185E+04  0.24843893783E+04 0.  0.
        1    1    3    3  502    0  0.23142695206E+03  0.98386027240E+03  0.12261185187E+03  0.10181223581E+04  0.50400001928E-02 0.  1.
       -1    1    3    3    0  502 -0.23142695206E+03 -0.98386027240E+03 -0.15403118598E+04  0.18423083605E+04  0.50400001928E-02 0. -1.
</event>
<event>
 5   0  0.1429483E-05  0.2486140E+04  0.7818609E-02  0.8407940E-01
       -1   -1    0    0    0  501  0.00000000000E+00  0.00000000000E+00  0.82977094067E+03  0.82977094068E+03  0.50400001928E-02 0.  1.
        1   -1    0    0  501    0  0.00000000000E+00  0.00000000000E+00 -0.18622279111E+04  0.18622279111E+04  0.50400001928E-02 0. -1.
    10030    2    1    2    0    0  0.00000000000E+00  0.00000000000E+00 -0.10324569705E+04  0.26919988518E+04  0.24861396627E+04 0.  0.
        2    1    3    3  502    0 -0.43802969723E+03 -0.11610362690E+04 -0.43704774739E+03  0.13156313949E+04  0.25500000920E-02 0. -1.
       -2    1    3    3    0  502  0.43802969723E+03  0.11610362690E+04 -0.59540922307E+03  0.13763674570E+04  0.25500000920E-02 0.  1.
</event>
<event>
 5   0  0.3578670E-05  0.2498031E+04  0.7818609E-02  0.8403687E-01
       -2   -1    0    0    0  501  0.00000000000E+00  0.00000000000E+00  0.84801779539E+03  0.84801779540E+03  0.25500000920E-02 0. -1.
        2   -1    0    0  501    0  0.00000000000E+00  0.00000000000E+00 -0.18396313327E+04  0.18396313327E+04  0.25500000920E-02 0.  1.
    10030    2    1    2    0    0  0.00000000000E+00  0.00000000000E+00 -0.99161353732E+03  0.26876491281E+04  0.24980313105E+04 0.  0.
        4    1    3    3  502    0  0.23216580329E+02  0.10345722733E+04 -0.12482955450E+04  0.16214568076E+04  0.12699999809E+01 0.  1.
       -4    1    3    3    0  502 -0.23216580329E+02 -0.10345722733E+04  0.25668200770E+03  0.10661923205E+04  0.12699999809E+01 0. -1.
</event>
<event>
 5   0  0.1502886E-05  0.2415753E+04  0.7818609E-02  0.8433629E-01
       -1   -1    0    0    0  501  0.00000000000E+00  0.00000000000E+00  0.12254691330E+04  0.12254691331E+04  0.50400001928E-02 0. -1.
        1   -1    0    0  501    0  0.00000000000E+00  0.00000000000E+00 -0.11905363725E+04  0.11905363725E+04  0.50400001928E-02 0.  1.
    10030    2    1    2    0    0  0.00000000000E+00  0.00000000000E+00  0.34932760561E+02  0.24160055055E+04  0.24157529479E+04 0.  0.
        4    1    3    3  502    0 -0.43951394250E+00 -0.10695985385E+04  0.57870482163E+03  0.12161176383E+04  0.12699999809E+01 0. -1.
       -4    1    3    3    0  502  0.43951394250E+00  0.10695985385E+04 -0.54377206106E+03  0.11998878673E+04  0.12699999809E+01 0.  1.
</event>
<event>
 5   0  0.1429483E-05  0.2437421E+04  0.7818609E-02  0.8425625E-01
        1   -1    0    0  501    0  0.00000000000E+00  0.00000000000E+00  0.12833240857E+04  0.12833240857E+04  0.50400001928E-02 0.  1.
       -1   -1    0    0    0  501  0.00000000000E+00  0.00000000000E+00 -0.11573503367E+04  0.11573503367E+04  0.50400001928E-02 0. -1.
    10030    2    1    2    0    0  0.00000000000E+00  0.00000000000E+00  0.12597374901E+03  0.24406744224E+04  0.24374212297E+04 0.  0.
        2    1    3    3  502    0 -0.10236313538E+04  0.49610051825E+03 -0.37499683716E+03  0.11977309801E+04  0.25500000920E-02 0. -1.
       -2    1    3    3    0  502  0.10236313538E+04 -0.49610051825E+03  0.50097058617E+03  0.12429434424E+04  0.25500000920E-02 0.  1.
</event>
<event>
 5   0  0.1492639E-05  0.2506749E+04  0.7818609E-02  0.8400585E-01
        1   -1    0    0  501    0  0.00000000000E+00  0.00000000000E+00  0.95147915606E+03  0.95147915607E+03  0.50400001928E-02 0. -1.
       -1   -1    0    0    0  501  0.00000000000E+00  0.00000000000E+00 -0.16510577682E+04  0.16510577682E+04  0.50400001928E-02 0.  1.
    10030    2    1    2    0    0  0.00000000000E+00  0.00000000000E+00 -0.69957861215E+03  0.26025369243E+04  0.25067485330E+04 0.  0.
        5    1    3    3  502    0 -0.66243232764E+03 -0.25899812906E+03  0.72164787475E+03  0.10132592781E+04  0.46999998093E+01 0. -1.
       -5    1    3    3    0  502  0.66243232764E+03  0.25899812906E+03 -0.14212264869E+04  0.15892776462E+04  0.46999998093E+01 0.  1.
</event>
<event>
 5   0  0.1429483E-05  0.2493276E+04  0.7818609E-02  0.8405385E-01
        1   -1    0    0  501    0  0.00000000000E+00  0.00000000000E+00  0.16182798383E+04  0.16182798383E+04  0.50400001928E-02 0.  1.
       -1   -1    0    0    0  501  0.00000000000E+00  0.00000000000E+00 -0.96034488821E+03  0.96034488822E+03  0.50400001928E-02 0. -1.
    10030    2    1    2    0    0  0.00000000000E+00  0.00000000000E+00  0.65793495013E+03  0.25786247266E+04  0.24932763749E+04 0.  0.
        2    1    3    3  502    0  0.30967945068E+03 -0.29368837000E+03  0.15403666303E+04  0.15984003180E+04  0.25500000920E-02 0.  1.
       -2    1    3    3    0  502 -0.30967945068E+03  0.29368837000E+03 -0.88243168020E+03  0.98022440853E+03  0.25500000920E-02 0. -1.
</event>
<event>
 5   0  0.1421242E-05  0.2499665E+04  0.7818609E-02  0.8403105E-01
        1   -1    0    0  501    0  0.00000000000E+00  0.00000000000E+00  0.10811448432E+04  0.10811448432E+04  0.50400001928E-02 0. -1.
       -1   -1    0    0    0  501  0.00000000000E+00  0.00000000000E+00 -0.14448400415E+04  0.14448400415E+04  0.50400001928E-02 0.  1.
    10030    2    1    2    0    0  0.00000000000E+00  0.00000000000E+00 -0.36369519832E+03  0.25259848847E+04  0.24996650657E+04 0.  0.
        3    1    3    3  502    0  0.95101788344E+03 -0.31267469399E+03 -0.93797807302E+03  0.13718612738E+04  0.10100000352E+00 0.  1.
       -3    1    3    3    0  502 -0.95101788344E+03  0.31267469399E+03  0.57428287470E+03  0.11541236109E+04  0.10100000352E+00 0. -1.
</event>
<event>
 5   0  0.1492639E-05  0.2513727E+04  0.7818609E-02  0.8398112E-01
       -1   -1    0    0    0  501  0.00000000000E+00  0.00000000000E+00  0.17027974625E+04  0.17027974625E+04  0.50400001928E-02 0.  1.
        1   -1    0    0  501    0  0.00000000000E+00  0.00000000000E+00 -0.92771193258E+03  0.92771193259E+03  0.50400001928E-02 0. -1.
    10030    2    1    2    0    0  0.00000000000E+00  0.00000000000E+00  0.77508552994E+03  0.26305093951E+04  0.25137267352E+04 0.  0.
        5    1    3    3  502    0 -0.12156756953E+02  0.66070908387E+03  0.15063229031E+04  0.16449057902E+04  0.46999998093E+01 0.  1.
       -5    1    3    3    0  502  0.12156756953E+02 -0.66070908387E+03 -0.73123737312E+03  0.98560360495E+03  0.46999998093E+01 0. -1.
</event>
<event>
 5   0  0.1492639E-05  0.2338124E+04  0.7818609E-02  0.8463039E-01
       -1   -1    0    0    0  501  0.00000000000E+00  0.00000000000E+00  0.13546746038E+04  0.13546746039E+04  0.50400001928E-02 0.  1.
        1   -1    0    0  501    0  0.00000000000E+00  0.00000000000E+00 -0.10088814775E+04  0.10088814775E+04  0.50400001928E-02 0. -1.
    10030    2    1    2    0    0  0.00000000000E+00  0.00000000000E+00  0.34579312639E+03  0.23635560813E+04  0.23381241334E+04 0.  0.
        5    1    3    3  502    0 -0.25218156379E+03  0.66092392981E+03 -0.76796232886E+03  0.10441284455E+04  0.46999998093E+01 0. -1.
       -5    1    3    3    0  502  0.25218156379E+03 -0.66092392981E+03  0.11137554553E+04  0.13194276358E+04  0.46999998093E+01 0.  1.
</event>
<event>
 5   0  0.1492639E-05  0.2651653E+04  0.7818609E-02  0.8350865E-01
        1   -1    0    0  501    0  0.00000000000E+00  0.00000000000E+00  0.17123319819E+04  0.17123319819E+04  0.50400001928E-02 0. -1.
       -1   -1    0    0    0  501  0.00000000000E+00  0.00000000000E+00 -0.10265622163E+04  0.10265622163E+04  0.50400001928E-02 0.  1.
    10030    2    1    2    0    0  0.00000000000E+00  0.00000000000E+00  0.68576976557E+03  0.27388941982E+04  0.26516525522E+04 0.  0.
        5    1    3    3  502    0  0.12508790344E+04  0.43106467667E+03  0.25476620869E+03  0.13473837706E+04  0.46999998093E+01 0. -1.
       -5    1    3    3    0  502 -0.12508790344E+04 -0.43106467667E+03  0.43100355688E+03  0.13915104276E+04  0.46999998093E+01 0.  1.
</event>
<event>
 5   0  0.3578670E-05  0.2507580E+04  0.7818609E-02  0.8400290E-01
       -2   -1    0    0    0  501  0.00000000000E+00  0.00000000000E+00  0.77942358588E+03  0.77942358589E+03  0.25500000920E-02 0.  1.
        2   -1    0    0  501    0  0.00000000000E+00  0.00000000000E+00 -0.20168607761E+04  0.20168607761E+04  0.25500000920E-02 0. -1.
    10030    2    1    2    0    0  0.00000000000E+00  0.00000000000E+00 -0.12374371902E+04  0.27962843620E+04  0.25075795966E+04 0.  0.
        4    1    3    3  502    0  0.26712873813E+03 -0.98936634250E+03  0.18679313678E+03  0.10416798026E+04  0.12699999809E+01 0.  1.
       -4    1    3    3    0  502 -0.26712873813E+03  0.98936634250E+03 -0.14242303270E+04  0.17546045593E+04  0.12699999809E+01 0. -1.
</event>
<event>
 5   0  0.1502886E-05  0.2536001E+04  0.7818609E-02  0.8390271E-01
        1   -1    0    0  501    0  0.00000000000E+00  0.00000000000E+00  0.23782935997E+04  0.23782935997E+04  0.50400001928E-02 0.  1.
       -1   -1    0    0    0  501  0.00000000000E+00  0.00000000000E+00 -0.67604140626E+03  0.67604140628E+03  0.50400001928E-02 0. -1.
    10030    2    1    2    0    0  0.00000000000E+00  0.00000000000E+00  0.17022521934E+04  0.30543350060E+04  0.25360007489E+04 0.  0.
        4    1    3    3  502    0 -0.12912119004E+03 -0.11437836050E+04  0.21051931239E+03  0.11701423890E+04  0.12699999809E+01 0.  1.
       -4    1    3    3    0  502  0.12912119004E+03  0.11437836050E+04  0.14917328810E+04  0.18841926170E+04  0.12699999809E+01 0. -1.
</event>
<event>
 5   0  0.3650620E-05  0.2501368E+04  0.7818609E-02  0.8402498E-01
        2   -1    0    0  501    0  0.00000000000E+00  0.00000000000E+00  0.13562510954E+04  0.13562510954E+04  0.25500000920E-02 0.  1.
       -2   -1    0    0    0  501  0.00000000000E+00  0.00000000000E+00 -0.11533342122E+04  0.11533342122E+04  0.25500000920E-02 0. -1.
    10030    2    1    2    0    0  0.00000000000E+00  0.00000000000E+00  0.20291688324E+03  0.25095853076E+04  0.25013682565E+04 0.  0.
        3    1    3    3  502    0  0.41191338019E+03  0.93749653412E+03  0.82189700674E+03  0.13130449665E+04  0.10100000352E+00 0.  1.
       -3    1    3    3    0  502 -0.41191338019E+03 -0.93749653412E+03 -0.61898012350E+03  0.11965403410E+04  0.10100000352E+00 0. -1.
</event>
<event>
 5   0  0.3581449E-05  0.2484650E+04  0.7818609E-02  0.8408474E-01
       -2   -1    0    0    0  501  0.00000000000E+00  0.00000000000E+00  0.76130397093E+03  0.76130397093E+03  0.25500000920E-02 0.  1.
        2   -1    0    0  501    0  0.00000000000E+00  0.00000000000E+00 -0.20272743525E+04  0.20272743525E+04  0.25500000920E-02 0. -1.
    10030    2    1    2    0    0  0.00000000000E+00  0.00000000000E+00 -0.12659703816E+04  0.27885783235E+04  0.24846504903E+04 0.  0.
        1    1    3    3  502    0 -0.55281853992E+03 -0.61192603767E+03  0.40981470052E+03  0.92087453133E+03  0.50400001928E-02 0.  1.
       -1    1    3    3    0  502  0.55281853992E+03  0.61192603767E+03 -0.16757850821E+04  0.18677037921E+04  0.50400001928E-02 0. -1.
</event>
<event>
 5   0  0.1502886E-05  0.2490283E+04  0.7818609E-02  0.8406455E-01
        1   -1    0    0  501    0  0.00000000000E+00  0.00000000000E+00  0.14398772172E+04  0.14398772173E+04  0.50400001928E-02 0. -1.
       -1   -1    0    0    0  501  0.00000000000E+00  0.00000000000E+00 -0.10767429876E+04  0.10767429876E+04  0.50400001928E-02 0.  1.
    10030    2    1    2    0    0  0.00000000000E+00  0.00000000000E+00  0.36313422962E+03  0.25166202049E+04  0.24902832744E+04 0.  0.
        4    1    3    3  502    0 -0.37486433961E+02  0.39917945207E+03 -0.10097242375E+04  0.10864134187E+04  0.12699999809E+01 0.  1.
       -4    1    3    3    0  502  0.37486433961E+02 -0.39917945207E+03  0.13728584671E+04  0.14302067862E+04  0.12699999809E+01 0. -1.
</event>
<event>
 5   0  0.3581449E-05  0.2461549E+04  0.7818609E-02  0.8416813E-01
       -2   -1    0    0    0  501  0.00000000000E+00  0.00000000000E+00  0.21620079360E+04  0.21620079360E+04  0.25500000920E-02 0. -1.
        2   -1    0    0  501    0  0.00000000000E+00  0.00000000000E+00 -0.70064766527E+03  0.70064766527E+03  0.25500000920E-02 0.  1.
    10030    2    1    2    0    0  0.00000000000E+00  0.00000000000E+00  0.14613602707E+04  0.28626556013E+04  0.24615489535E+04 0.  0.
        1    1    3    3  502    0  0.56526493599E+03 -0.88006934764E+03 -0.23677848855E+02  0.10462347466E+04  0.50400001928E-02 0.  1.
       -1    1    3    3    0  502 -0.56526493599E+03  0.88006934764E+03  0.14850381196E+04  0.18164208546E+04  0.50400001928E-02 0. -1.
</event>
<event>
 5   0  0.3650620E-05  0.2309554E+04  0.7818609E-02  0.8474164E-01
        2   -1    0    0  501    0  0.00000000000E+00  0.00000000000E+00  0.70284401834E+03  0.70284401835E+03  0.25500000920E-02 0. -1.
       -2   -1    0    0    0  501  0.00000000000E+00  0.00000000000E+00 -0.18973053064E+04  0.18973053064E+04  0.25500000920E-02 0.  1.
    10030    2    1    2    0    0  0.00000000000E+00  0.00000000000E+00 -0.11944612880E+04  0.26001493247E+04  0.23095537972E+04 0.  0.
        3    1    3    3  502    0  0.58383601829E+03 -0.96934380641E+03 -0.33800323972E+03  0.11809903097E+04  0.10100000352E+00 0.  1.
       -3    1    3    3    0  502 -0.58383601829E+03  0.96934380641E+03 -0.85645804832E+03  0.14191590151E+04  0.10100000352E+00 0. -1.
</event>
<event>
 5   0  0.1429483E-05  0.2515098E+04  0.7818609E-02  0.8397626E-01
       -1   -1    0    0    0  501  0.00000000000E+00  0.00000000000E+00  0.17365992216E+04  0.17365992216E+04  0.50400001928E-02 0. -1.
        1   -1    0    0  501    0  0.00000000000E+00  0.00000000000E+00 -0.91064747471E+03  0.91064747473E+03  0.50400001928E-02 0.  1.
    10030    2    1    2    0    0  0.00000000000E+00  0.00000000000E+00  0.82595174691E+03  0.26472466964E+04  0.25150981657E+04 0.  0.
        2    1    3    3  502    0  0.27573042382E+03  0.20389487446E+03 -0.86048232515E+03  0.92629920563E+03  0.25500000920E-02 0.  1.
       -2    1    3    3    0  502 -0.27573042382E+03 -0.20389487446E+03  0.16864340721E+04  0.17209474907E+04  0.25500000920E-02 0. -1.
</event>
<event>
 5   0  0.3650620E-05  0.2443196E+04  0.7818609E-02  0.8423506E-01
        2   -1    0    0  501    0  0.00000000000E+00  0.00000000000E+00  0.14037186089E+04  0.14037186089E+04  0.25500000920E-02 0.  1.
       -2   -1    0    0    0  501  0.00000000000E+00  0.00000000000E+00 -0.10631062140E+04  0.10631062140E+04  0.25500000920E-02 0. -1.
    10030    2    1    2    0    0  0.00000000000E+00  0.00000000000E+00  0.34061239490E+03  0.24668248230E+04  0.24431962475E+04 0.  0.
        3    1    3    3  502    0 -0.11974787068E+04 -0.59088025773E+01  0.41411993687E+03  0.12670775428E+04  0.10100000352E+00 0. -1.
       -3    1    3    3    0  502  0.11974787068E+04  0.59088025773E+01 -0.73507541970E+02  0.11997472801E+04  0.10100000352E+00 0.  1.
</event>
<event>
 5   0  0.1456876E-05  0.2386512E+04  0.7818609E-02  0.8444571E-01
       -1   -1    0    0    0  501  0.00000000000E+00  0.00000000000E+00  0.13951544815E+04  0.13951544815E+04  0.50400001928E-02 0. -1.
        1   -1    0    0  501    0  0.00000000000E+00  0.00000000000E+00 -0.10205749087E+04  0.10205749087E+04  0.50400001928E-02 0.  1.
    10030    2    1    2    0    0  0.00000000000E+00  0.00000000000E+00  0.37457957284E+03  0.24157293902E+04  0.23865118123E+04 0.  0.
        1    1    3    3  502    0  0.11715563288E+04 -0.22549918554E+03  0.20913039608E+03  0.12112512691E+04  0.50400001928E-02 0.  1.
       -1    1    3    3    0  502 -0.11715563288E+04  0.22549918554E+03  0.16544917676E+03  0.12044781212E+04  0.50400001928E-02 0. -1.
</event>
<event>
 5   0  0.1429483E-05  0.2464231E+04  0.7818609E-02  0.8415840E-01
       -1   -1    0    0    0  501  0.00000000000E+00  0.00000000000E+00  0.18213629307E+04  0.18213629307E+04  0.50400001928E-02 0. -1.
        1   -1    0    0  501    0  0.00000000000E+00  0.00000000000E+00 -0.83350163557E+03  0.83350163559E+03  0.50400001928E-02 0.  1.
    10030    2    1    2    0    0  0.00000000000E+00  0.00000000000E+00  0.98786129511E+03  0.26548645663E+04  0.24642313055E+04 0.  0.
        2    1    3    3  502    0 -0.15039541231E+03  0.11525128555E+04  0.53391358155E+02  0.11635099051E+04  0.25500000920E-02 0.  1.
       -2    1    3    3    0  502  0.15039541231E+03 -0.11525128555E+04  0.93446993695E+03  0.14913546611E+04  0.25500000920E-02 0. -1.
</event>
<event>
 5   0  0.1456876E-05  0.2525741E+04  0.7818609E-02  0.8393872E-01
        1   -1    0    0  501    0  0.00000000000E+00  0.00000000000E+00  0.16311970540E+04  0.16311970540E+04  0.50400001928E-02 0. -1.
       -1   -1    0    0    0  501  0.00000000000E+00  0.00000000000E+00 -0.97771246534E+03  0.97771246536E+03  0.50400001928E-02 0.  1.
    10030    2    1    2    0    0  0.00000000000E+00  0.00000000000E+00  0.65348458868E+03  0.26089095194E+04  0.25257408364E+04 0.  0.
        1    1    3    3  502    0 -0.89853839421E+03 -0.66547903663E+03  0.93310568320E+03  0.14563378077E+04  0.50400001928E-02 0. -1.
       -1    1    3    3    0  502  0.89853839421E+03  0.66547903663E+03 -0.27962109452E+03  0.11525717117E+04  0.50400001928E-02 0.  1.
</event>
<event>
 5   0  0.3581449E-05  0.2494906E+04  0.7818609E-02  0.8404803E-01
       -2   -1    0    0    0  501  0.00000000000E+00  0.00000000000E+00  0.80020370803E+03  0.80020370804E+03  0.25500000920E-02 0.  1.
        2   -1    0    0  501    0  0.00000000000E+00  0.00000000000E+00 -0.19446780044E+04  0.19446780044E+04  0.25500000920E-02 0. -1.
    10030    2    1    2    0    0  0.00000000000E+00  0.00000000000E+00 -0.11444742964E+04  0.27448817125E+04  0.24949056496E+04 0.  0.
        1    1    3    3  502    0 -0.69900754284E+01 -0.12381786787E+04 -0.73910170261E+03  0.14420147809E+04  0.50400001928E-02 0.  1.
       -1    1    3    3    0  502  0.69900754284E+01  0.12381786787E+04 -0.40537259379E+03  0.13028669316E+04  0.50400001928E-02 0. -1.
</event>
<event>
 5   0  0.1456876E-05  0.2410982E+04  0.7818609E-02  0.8435404E-01
        1   -1    0    0  501    0  0.00000000000E+00  0.00000000000E+00  0.14886641063E+04  0.14886641063E+04  0.50400001928E-02 0. -1.
       -1   -1    0    0    0  501  0.00000000000E+00  0.00000000000E+00 -0.97618278440E+03  0.97618278442E+03  0.50400001928E-02 0.  1.
    10030    2    1    2    0    0  0.00000000000E+00  0.00000000000E+00  0.51248132193E+03  0.24648468908E+04  0.24109817688E+04 0.  0.
        1    1    3    3  502    0  0.67721103491E+03 -0.86086903371E+03  0.77097516825E+03  0.13394450303E+04  0.50400001928E-02 0. -1.
       -1    1    3    3    0  502 -0.67721103491E+03  0.86086903371E+03 -0.25849384631E+03  0.11254018605E+04  0.50400001928E-02 0.  1.
</event>
<event>
 5   0  0.1502886E-05  0.2501796E+04  0.7818609E-02  0.8402346E-01
       -1   -1    0    0    0  501  0.00000000000E+00  0.00000000000E+00  0.93282672990E+03  0.93282672992E+03  0.50400001928E-02 0. -1.
        1   -1    0    0  501    0  0.00000000000E+00  0.00000000000E+00 -0.16774242022E+04  0.16774242022E+04  0.50400001928E-02 0.  1.
    10030    2    1    2    0    0  0.00000000000E+00  0.00000000000E+00 -0.74459747231E+03  0.26102509321E+04  0.25017962613E+04 0.  0.
        4    1    3    3  502    0 -0.26836284080E+03  0.59927405773E+03  0.73856188152E+03  0.98824251898E+03  0.12699999809E+01 0. -1.
       -4    1    3    3    0  502  0.26836284080E+03 -0.59927405773E+03 -0.14831593538E+04  0.16220084132E+04  0.12699999809E+01 0.  1.
</event>
<event>
 5   0  0.3704241E-05  0.2497821E+04  0.7818609E-02  0.8403762E-01
        2   -1    0    0  501    0  0.00000000000E+00  0.00000000000E+00  0.12065566315E+04  0.12065566315E+04  0.25500000920E-02 0. -1.
       -2   -1    0    0    0  501  0.00000000000E+00  0.00000000000E+00 -0.12927514858E+04  0.12927514858E+04  0.25500000920E-02 0.  1.
    10030    2    1    2    0    0  0.00000000000E+00  0.00000000000E+00 -0.86194854316E+02  0.24993081173E+04  0.24978213532E+04 0.  0.
        2    1    3    3  502    0 -0.18804177466E+03 -0.43217984442E+03  0.11141543240E+04  0.12097433548E+04  0.25500000920E-02 0. -1.
       -2    1    3    3    0  502  0.18804177466E+03  0.43217984442E+03 -0.12003491783E+04  0.12895647625E+04  0.25500000920E-02 0.  1.
</event>
<event>
 5   0  0.3704241E-05  0.2133172E+04  0.7818609E-02  0.8546770E-01
        2   -1    0    0  501    0  0.00000000000E+00  0.00000000000E+00  0.18789174900E+04  0.18789174900E+04  0.25500000920E-02 0.  1.
       -2   -1    0    0    0  501  0.00000000000E+00  0.00000000000E+00 -0.60545811862E+03  0.60545811863E+03  0.25500000920E-02 0. -1.
    10030    2    1    2    0    0  0.00000000000E+00  0.00000000000E+00  0.12734593713E+04  0.24843756086E+04  0.21331721436E+04 0.  0.
        2    1    3    3  502    0  0.83986967330E+03 -0.64685382688E+03  0.49989125146E+03  0.11720461615E+04  0.25500000920E-02 0.  1.
       -2    1    3    3    0  502 -0.83986967330E+03  0.64685382688E+03  0.77356811987E+03  0.13123294470E+04  0.25500000920E-02 0. -1.
</event>
<event>
 5   0  0.1429483E-05  0.2454504E+04  0.7818609E-02  0.8419375E-01
        1   -1    0    0  501    0  0.00000000000E+00  0.00000000000E+00  0.17398623267E+04  0.17398623267E+04  0.50400001928E-02 0.  1.
       -1   -1    0    0    0  501  0.00000000000E+00  0.00000000000E+00 -0.86567065557E+03  0.86567065559E+03  0.50400001928E-02 0. -1.
    10030    2    1    2    0    0  0.00000000000E+00  0.00000000000E+00  0.87419167114E+03  0.26055329823E+04  0.24545042359E+04 0.  0.
        2    1    3    3  502    0  0.33438363186E+03  0.10696460455E+04  0.96806596912E+03  0.14809141759E+04  0.25500000920E-02 0.  1.
       -2    1    3    3    0  502 -0.33438363186E+03 -0.10696460455E+04 -0.93874297978E+02  0.11246188064E+04  0.25500000920E-02 0. -1.
</event>
<event>
 5   0  0.3581449E-05  0.2825614E+04  0.7818609E-02  0.8295360E-01
        2   -1    0    0  501    0  0.00000000000E+00  0.00000000000E+00  0.24572335876E+04  0.24572335876E+04  0.25500000920E-02 0.  1.
       -2   -1    0    0    0  501  0.00000000000E+00  0.00000000000E+00 -0.81230506691E+03  0.81230506691E+03  0.25500000920E-02 0. -1.
    10030    2    1    2    0    0  0.00000000000E+00  0.00000000000E+00  0.16449285206E+04  0.32695386545E+04  0.28256137696E+04 0.  0.
        1    1    3    3  502    0 -0.11426318200E+04  0.51268729418E+03  0.15790811813E+04  0.20154287670E+04  0.50400001928E-02 0.  1.
       -1    1    3    3    0  502  0.11426318200E+04 -0.51268729418E+03  0.65847339323E+02  0.12541098874E+04  0.50400001928E-02 0. -1.
</event>
<event>
 5   0  0.1421242E-05  0.2527114E+04  0.7818609E-02  0.8393389E-01
        1   -1    0    0  501    0  0.00000000000E+00  0.00000000000E+00  0.67338102637E+03  0.67338102639E+03  0.50400001928E-02 0.  1.
       -1   -1    0    0    0  501  0.00000000000E+00  0.00000000000E+00 -0.23709846577E+04  0.23709846577E+04  0.50400001928E-02 0. -1.
    10030    2    1    2    0    0  0.00000000000E+00  0.00000000000E+00 -0.16976036313E+04  0.30443656841E+04  0.25271138339E+04 0.  0.
        3    1    3    3  502    0 -0.61039670306E+03 -0.10448831491E+03 -0.21756330398E+04  0.22620524037E+04  0.10100000352E+00 0. -1.
       -3    1    3    3    0  502  0.61039670306E+03  0.10448831491E+03  0.47802940848E+03  0.78231328036E+03  0.10100000352E+00 0.  1.
</event>
<event>
 5   0  0.3578670E-05  0.2493573E+04  0.7818609E-02  0.8405279E-01
       -2   -1    0    0    0  501  0.00000000000E+00  0.00000000000E+00  0.61216194586E+03  0.61216194586E+03  0.25500000920E-02 0.  1.
        2   -1    0    0  501    0  0.00000000000E+00  0.00000000000E+00 -0.25393219906E+04  0.25393219906E+04  0.25500000920E-02 0. -1.
    10030    2    1    2    0    0  0.00000000000E+00  0.00000000000E+00 -0.19271600448E+04  0.31514839365E+04  0.24935727709E+04 0.  0.
        4    1    3    3  502    0  0.15381752313E+03  0.12315122905E+04 -0.11141435708E+04  0.16678128976E+04  0.12699999809E+01 0. -1.
       -4    1    3    3    0  502 -0.15381752313E+03 -0.12315122905E+04 -0.81301647396E+03  0.14836710389E+04  0.12699999809E+01 0.  1.
</event>
<event>
 5   0  0.1201438E-05  0.2121821E+04  0.7818609E-02  0.8551691E-01
        4   -1    0    0  501    0  0.00000000000E+00  0.00000000000E+00  0.97594769923E+03  0.97594852555E+03  0.12699999809E+01 0. -1.
       -4   -1    0    0    0  501  0.00000000000E+00  0.00000000000E+00 -0.11532685883E+04  0.11532692876E+04  0.12699999809E+01 0.  1.
    10030    2    1    2    0    0  0.00000000000E+00  0.00000000000E+00 -0.17732088907E+03  0.21292178131E+04  0.21218213398E+04 0.  0.
        1    1    3    3  502    0  0.64330738025E+03 -0.67180440158E+02  0.75520727689E+03  0.99433174952E+03  0.50400001928E-02 0. -1.
       -1    1    3    3    0  502 -0.64330738025E+03  0.67180440158E+02 -0.93252816596E+03  0.11348860636E+04  0.50400001928E-02 0.  1.
</event>
<event>
 5   0  0.3650620E-05  0.2478678E+04  0.7818609E-02  0.8410621E-01
       -2   -1    0    0    0  501  0.00000000000E+00  0.00000000000E+00  0.13599850329E+04  0.13599850329E+04  0.25500000920E-02 0.  1.
        2   -1    0    0  501    0  0.00000000000E+00  0.00000000000E+00 -0.11293955841E+04  0.11293955841E+04  0.25500000920E-02 0. -1.
    10030    2    1    2    0    0  0.00000000000E+00  0.00000000000E+00  0.23058944879E+03  0.24893806171E+04  0.24786779466E+04 0.  0.
        3    1    3    3  502    0  0.10622500154E+04  0.53332866758E+03  0.46773235138E+03  0.12773363401E+04  0.10100000352E+00 0.  1.
       -3    1    3    3    0  502 -0.10622500154E+04 -0.53332866758E+03 -0.23714290259E+03  0.12120442770E+04  0.10100000352E+00 0. -1.
</event>
<event>
 5   0  0.1456876E-05  0.2510699E+04  0.7818609E-02  0.8399184E-01
       -1   -1    0    0    0  501  0.00000000000E+00  0.00000000000E+00  0.18492131695E+04  0.18492131695E+04  0.50400001928E-02 0. -1.
        1   -1    0    0  501    0  0.00000000000E+00  0.00000000000E+00 -0.85220148956E+03  0.85220148957E+03  0.50400001928E-02 0.  1.
    10030    2    1    2    0    0  0.00000000000E+00  0.00000000000E+00  0.99701167991E+03  0.27014146590E+04  0.25106988808E+04 0.  0.
        1    1    3    3  502    0 -0.11921837372E+04  0.21735997658E+03  0.85104498476E+03  0.14808190263E+04  0.50400001928E-02 0. -1.
       -1    1    3    3    0  502  0.11921837372E+04 -0.21735997658E+03  0.14596669515E+03  0.12205956327E+04  0.50400001928E-02 0.  1.
</event>
<event>
 5   0  0.1429483E-05  0.2245269E+04  0.7818609E-02  0.8499819E-01
        1   -1    0    0  501    0  0.00000000000E+00  0.00000000000E+00  0.16248023735E+04  0.16248023735E+04  0.50400001928E-02 0.  1.
       -1   -1    0    0    0  501  0.00000000000E+00  0.00000000000E+00 -0.77566843916E+03  0.77566843917E+03  0.50400001928E-02 0. -1.
    10030    2    1    2    0    0  0.00000000000E+00  0.00000000000E+00  0.84913393437E+03  0.24004708127E+04  0.22452687332E+04 0.  0.
        2    1    3    3  502    0 -0.67979020672E+03  0.21968475973E+03 -0.50127952764E+03  0.87272978845E+03  0.25500000920E-02 0. -1.
       -2    1    3    3    0  502  0.67979020672E+03 -0.21968475973E+03  0.13504134620E+04  0.15277410243E+04  0.25500000920E-02 0.  1.
</event>
<event>
 5   0  0.1429483E-05  0.2528044E+04  0.7818609E-02  0.8393062E-01
        1   -1    0    0  501    0  0.00000000000E+00  0.00000000000E+00  0.19316095136E+04  0.19316095136E+04  0.50400001928E-02 0.  1.
       -1   -1    0    0    0  501  0.00000000000E+00  0.00000000000E+00 -0.82716075159E+03  0.82716075161E+03  0.50400001928E-02 0. -1.
    10030    2    1    2    0    0  0.00000000000E+00  0.00000000000E+00  0.11044487620E+04  0.27587702652E+04  0.25280439688E+04 0.  0.
        2    1    3    3  502    0 -0.56614246763E+03  0.10048460535E+04  0.11166516397E+04  0.16053484884E+04  0.25500000920E-02 0.  1.
       -2    1    3    3    0  502  0.56614246763E+03 -0.10048460535E+04 -0.12202877723E+02  0.11534217768E+04  0.25500000920E-02 0. -1.
</event>
<event>
 5   0  0.3704241E-05  0.2499110E+04  0.7818609E-02  0.8403303E-01
        2   -1    0    0  501    0  0.00000000000E+00  0.00000000000E+00  0.11439076796E+04  0.11439076796E+04  0.25500000920E-02 0. -1.
       -2   -1    0    0    0  501  0.00000000000E+00  0.00000000000E+00 -0.13649598962E+04  0.13649598962E+04  0.25500000920E-02 0.  1.
    10030    2    1    2    0    0  0.00000000000E+00  0.00000000000E+00 -0.22105221662E+03  0.25088675759E+04  0.24991103279E+04 0.  0.
        2    1    3    3  502    0  0.10230952532E+04 -0.29613903773E+03  0.54545131925E+03  0.11966366902E+04  0.25500000920E-02 0. -1.
       -2    1    3    3    0  502 -0.10230952532E+04  0.29613903773E+03 -0.76650353588E+03  0.13122308856E+04  0.25500000920E-02 0.  1.
</event>
<event>
 5   0  0.3578670E-05  0.2494352E+04  0.7818609E-02  0.8405000E-01
       -2   -1    0    0    0  501  0.00000000000E+00  0.00000000000E+00  0.96445497239E+03  0.96445497240E+03  0.25500000920E-02 0.  1.
        2   -1    0    0  501    0  0.00000000000E+00  0.00000000000E+00 -0.16127740043E+04  0.16127740043E+04  0.25500000920E-02 0. -1.
    10030    2    1    2    0    0  0.00000000000E+00  0.00000000000E+00 -0.64831903188E+03  0.25772289767E+04  0.24943519461E+04 0.  0.
        4    1    3    3  502    0  0.27304019878E+03 -0.65359143171E+03 -0.13847715832E+04  0.15554184840E+04  0.12699999809E+01 0. -1.
       -4    1    3    3    0  502 -0.27304019878E+03  0.65359143171E+03  0.73645255131E+03  0.10218104927E+04  0.12699999809E+01 0.  1.
</event>
<event>
 5   0  0.3579097E-05  0.2383115E+04  0.7818609E-02  0.8445852E-01
       -2   -1    0    0    0  501  0.00000000000E+00  0.00000000000E+00  0.10199802849E+04  0.10199802849E+04  0.25500000920E-02 0. -1.
        2   -1    0    0  501    0  0.00000000000E+00  0.00000000000E+00 -0.13919963201E+04  0.13919963201E+04  0.25500000920E-02 0.  1.
    10030    2    1    2    0    0  0.00000000000E+00  0.00000000000E+00 -0.37201603518E+03  0.24119766049E+04  0.23831146033E+04 0.  0.
        5    1    3    3  502    0  0.87483385783E+03 -0.27314560407E+03  0.58468906395E+03  0.10871182968E+04  0.46999998093E+01 0. -1.
       -5    1    3    3    0  502 -0.87483385783E+03  0.27314560407E+03 -0.95670509913E+03  0.13248583081E+04  0.46999998093E+01 0.  1.
</event>
<event>
 5   0  0.1456876E-05  0.2186864E+04  0.7818609E-02  0.8523916E-01
       -1   -1    0    0    0  501  0.00000000000E+00  0.00000000000E+00  0.91748079855E+03  0.91748079857E+03  0.50400001928E-02 0. -1.
        1   -1    0    0  501    0  0.00000000000E+00  0.00000000000E+00 -0.13031260261E+04  0.13031260261E+04  0.50400001928E-02 0.  1.
    10030    2    1    2    0    0  0.00000000000E+00  0.00000000000E+00 -0.38564522750E+03  0.22206068246E+04  0.21868636053E+04 0.  0.
        1    1    3    3  502    0  0.86986872030E+03 -0.60756466426E+03 -0.46107048827E+03  0.11568891075E+04  0.50400001928E-02 0. -1.
       -1    1    3    3    0  502 -0.86986872030E+03  0.60756466426E+03  0.75425260773E+02  0.10637177172E+04  0.50400001928E-02 0.  1.
</event>
<event>
 5   0  0.1502886E-05  0.2444252E+04  0.7818609E-02  0.8423120E-01
       -1   -1    0    0    0  501  0.00000000000E+00  0.00000000000E+00  0.11545183141E+04  0.11545183141E+04  0.50400001928E-02 0. -1.
        1   -1    0    0  501    0  0.00000000000E+00  0.00000000000E+00 -0.12936923579E+04  0.12936923579E+04  0.50400001928E-02 0.  1.
    10030    2    1    2    0    0  0.00000000000E+00  0.00000000000E+00 -0.13917404377E+03  0.24482106720E+04  0.24442516401E+04 0.  0.
        4    1    3    3  502    0  0.48114335799E+03  0.11224983591E+04 -0.23813876089E+02  0.12215032586E+04  0.12699999809E+01 0. -1.
       -4    1    3    3    0  502 -0.48114335799E+03 -0.11224983591E+04 -0.11536016768E+03  0.12267074135E+04  0.12699999809E+01 0.  1.
</event>
<event>
 5   0  0.3704241E-05  0.2500615E+04  0.7818609E-02  0.8402766E-01
       -2   -1    0    0    0  501  0.00000000000E+00  0.00000000000E+00  0.17184753063E+04  0.17184753063E+04  0.25500000920E-02 0.  1.
        2   -1    0    0  501    0  0.00000000000E+00  0.00000000000E+00 -0.90968389402E+03  0.90968389402E+03  0.25500000920E-02 0. -1.
    10030    2    1    2    0    0  0.00000000000E+00  0.00000000000E+00  0.80879141229E+03  0.26281592003E+04  0.25006153710E+04 0.  0.
        2    1    3    3  502    0 -0.69043628529E+03 -0.94160194980E+03  0.87436396939E+03  0.14587079375E+04  0.25500000920E-02 0.  1.
       -2    1    3    3    0  502  0.69043628529E+03  0.94160194980E+03 -0.65572557100E+02  0.11694512628E+04  0.25500000920E-02 0. -1.
</event>
<event>
 5   0  0.3581449E-05  0.2496657E+04  0.7818609E-02  0.8404177E-01
        2   -1    0    0  501    0  0.00000000000E+00  0.00000000000E+00  0.97649783060E+03  0.97649783060E+03  0.25500000920E-02 0.  1.
       -2   -1    0    0    0  501  0.00000000000E+00  0.00000000000E+00 -0.15958295309E+04  0.15958295309E+04  0.25500000920E-02 0. -1.
    10030    2    1    2    0    0  0.00000000000E+00  0.00000000000E+00 -0.61933170026E+03  0.25723273615E+04  0.24966570248E+04 0.  0.
        1    1    3    3  502    0 -0.74160248378E+03  0.41395794961E+03  0.63293349800E+03  0.10592168054E+04  0.50400001928E-02 0.  1.
       -1    1    3    3    0  502  0.74160248378E+03 -0.41395794961E+03 -0.12522651983E+04  0.15131105560E+04  0.50400001928E-02 0. -1.
</event>
<event>
 5   0  0.3581449E-05  0.2485795E+04  0.7818609E-02  0.8408064E-01
       -2   -1    0    0    0  501  0.00000000000E+00  0.00000000000E+00  0.12056254827E+04  0.12056254827E+04  0.25500000920E-02 0. -1.
        2   -1    0    0  501    0  0.00000000000E+00  0.00000000000E+00 -0.12813222462E+04  0.12813222462E+04  0.25500000920E-02 0.  1.
    10030    2    1    2    0    0  0.00000000000E+00  0.00000000000E+00 -0.75696763469E+02  0.24869477289E+04  0.24857954474E+04 0.  0.
        1    1    3    3  502    0 -0.93852672398E+03  0.28011801557E+03 -0.80338033558E+03  0.12667748332E+04  0.50400001928E-02 0.  1.
       -1    1    3    3    0  502  0.93852672398E+03 -0.28011801557E+03  0.72768357211E+03  0.12201728957E+04  0.50400001928E-02 0. -1.
</event>
<event>
 5   0  0.1429483E-05  0.2516862E+04  0.7818609E-02  0.8397003E-01
       -1   -1    0    0    0  501  0.00000000000E+00  0.00000000000E+00  0.22480180248E+04  0.22480180248E+04  0.50400001928E-02 0.  1.
        1   -1    0    0  501    0  0.00000000000E+00  0.00000000000E+00 -0.70446446823E+03  0.70446446825E+03  0.50400001928E-02 0. -1.
    10030    2    1    2    0    0  0.00000000000E+00  0.00000000000E+00  0.15435535565E+04  0.29524824930E+04  0.25168621912E+04 0.  0.
        2    1    3    3  502    0  0.44582232807E+03  0.40455528077E+03 -0.52458425552E+03  0.79850558204E+03  0.25500000920E-02 0. -1.
       -2    1    3    3    0  502 -0.44582232807E+03 -0.40455528077E+03  0.20681378121E+04  0.21539769110E+04  0.25500000920E-02 0.  1.
</event>
<event>
 5   0  0.3579097E-05  0.2486182E+04  0.7818609E-02  0.8407925E-01
        2   -1    0    0  501    0  0.00000000000E+00  0.00000000000E+00  0.19132742453E+04  0.19132742453E+04  0.25500000920E-02 0.  1.
       -2   -1    0    0    0  501  0.00000000000E+00  0.00000000000E+00 -0.80766006504E+03  0.80766006505E+03  0.25500000920E-02 0. -1.
    10030    2    1    2    0    0  0.00000000000E+00  0.00000000000E+00  0.11056141802E+04  0.27209343103E+04  0.24861819735E+04 0.  0.
        5    1    3    3  502    0  0.73417610834E+03  0.77164716909E+03  0.12542622888E+04  0.16454938137E+04  0.46999998093E+01 0.  1.
       -5    1    3    3    0  502 -0.73417610834E+03 -0.77164716909E+03 -0.14864810862E+03  0.10754404966E+04  0.46999998093E+01 0. -1.
</event>
<event>
 5   0  0.1502886E-05  0.2629087E+04  0.7818609E-02  0.8358388E-01
        1   -1    0    0  501    0  0.00000000000E+00  0.00000000000E+00  0.12009899692E+04  0.12009899692E+04  0.50400001928E-02 0.  1.
       -1   -1    0    0    0  501  0.00000000000E+00  0.00000000000E+00 -0.14388331388E+04  0.14388331389E+04  0.50400001928E-02 0. -1.
    10030    2    1    2    0    0  0.00000000000E+00  0.00000000000E+00 -0.23784316964E+03  0.26398231081E+04  0.26290866605E+04 0.  0.
        4    1    3    3  502    0  0.69272912388E+03 -0.33770182397E+03 -0.11882148313E+04  0.14162528938E+04  0.12699999809E+01 0. -1.
       -4    1    3    3    0  502 -0.69272912388E+03  0.33770182397E+03  0.95037166168E+03  0.12235702143E+04  0.12699999809E+01 0.  1.
</event>
<event>
 5   0  0.1456876E-05  0.2462523E+04  0.7818609E-02  0.8416460E-01
       -1   -1    0    0    0  501  0.00000000000E+00  0.00000000000E+00  0.14189209154E+04  0.14189209154E+04  0.50400001928E-02 0.  1.
        1   -1    0    0  501    0  0.00000000000E+00  0.00000000000E+00 -0.10684207915E+04  0.10684207915E+04  0.50400001928E-02 0. -1.
    10030    2    1    2    0    0  0.00000000000E+00  0.00000000000E+00  0.35050012390E+03  0.24873417069E+04  0.24625227775E+04 0.  0.
        1    1    3    3  502    0  0.25733137447E+02 -0.11716412340E+04  0.55667913191E+03  0.12974193738E+04  0.50400001928E-02 0.  1.
       -1    1    3    3    0  502 -0.25733137447E+02  0.11716412340E+04 -0.20617900801E+03  0.11899223331E+04  0.50400001928E-02 0. -1.
</event>
<event>
 5   0  0.1456876E-05  0.2497758E+04  0.7818609E-02  0.8403785E-01
        1   -1    0    0  501    0  0.00000000000E+00  0.00000000000E+00  0.84528326677E+03  0.84528326678E+03  0.50400001928E-02 0.  1.
       -1   -1    0    0    0  501  0.00000000000E+00  0.00000000000E+00 -0.18451781251E+04  0.18451781251E+04  0.50400001928E-02 0. -1.
    10030    2    1    2    0    0  0.00000000000E+00  0.00000000000E+00 -0.99989485835E+03  0.26904613919E+04  0.24977575490E+04 0.  0.
        1    1    3    3  502    0  0.61599540142E+03  0.89671243325E+03 -0.11605795922E+04  0.15907509272E+04  0.50400001928E-02 0. -1.
       -1    1    3    3    0  502 -0.61599540142E+03 -0.89671243325E+03  0.16068473384E+03  0.10997104647E+04  0.50400001928E-02 0.  1.
</event>
<event>
 5   0  0.1429483E-05  0.2537871E+04  0.7818609E-02  0.8389617E-01
        1   -1    0    0  501    0  0.00000000000E+00  0.00000000000E+00  0.13081018671E+04  0.13081018671E+04  0.50400001928E-02 0.  1.
       -1   -1    0    0    0  501  0.00000000000E+00  0.00000000000E+00 -0.12309417074E+04  0.12309417074E+04  0.50400001928E-02 0. -1.
    10030    2    1    2    0    0  0.00000000000E+00  0.00000000000E+00  0.77160159741E+02  0.25390435745E+04  0.25378708760E+04 0.  0.
        2    1    3    3  502    0  0.34639759743E+03 -0.10938339146E+04 -0.50364195630E+03  0.12530439531E+04  0.25500000920E-02 0. -1.
       -2    1    3    3    0  502 -0.34639759743E+03  0.10938339146E+04  0.58080211604E+03  0.12859996214E+04  0.25500000920E-02 0.  1.
</event>
<event>
 5   0  0.1421242E-05  0.2503426E+04  0.7818609E-02  0.8401766E-01
       -1   -1    0    0    0  501  0.00000000000E+00  0.00000000000E+00  0.62238065184E+03  0.62238065186E+03  0.50400001928E-02 0. -1.
        1   -1    0    0  501    0  0.00000000000E+00  0.00000000000E+00 -0.25174077586E+04  0.25174077586E+04  0.50400001928E-02 0.  1.
    10030    2    1    2    0    0  0.00000000000E+00  0.00000000000E+00 -0.18950271068E+04  0.31397884105E+04  0.25034263575E+04 0.  0.
        3    1    3    3  502    0 -0.65212288238E+03  0.27967378650E+03  0.34577169673E+03  0.78932867491E+03  0.10100000352E+00 0. -1.
       -3    1    3    3    0  502  0.65212288238E+03 -0.27967378650E+03 -0.22407988035E+04  0.23504597356E+04  0.10100000352E+00 0.  1.
</event>
<event>
 5   0  0.3650620E-05  0.2526770E+04  0.7818609E-02  0.8393510E-01
       -2   -1    0    0    0  501  0.00000000000E+00  0.00000000000E+00  0.10375473788E+04  0.10375473788E+04  0.25500000920E-02 0.  1.
        2   -1    0    0  501    0  0.00000000000E+00  0.00000000000E+00 -0.15383794486E+04  0.15383794486E+04  0.25500000920E-02 0. -1.
    10030    2    1    2    0    0  0.00000000000E+00  0.00000000000E+00 -0.50083206982E+03  0.25759268275E+04  0.25267699259E+04 0.  0.
        3    1    3    3  502    0 -0.26662939827E+03  0.34815786501E+03  0.95747032074E+03  0.10531165939E+04  0.10100000352E+00 0.  1.
       -3    1    3    3    0  502  0.26662939827E+03 -0.34815786501E+03 -0.14583023906E+04  0.15228102336E+04  0.10100000352E+00 0. -1.
</event>
<event>
 5   0  0.1421242E-05  0.2512430E+04  0.7818609E-02  0.8398571E-01
        1   -1    0    0  501    0  0.00000000000E+00  0.00000000000E+00  0.18701059961E+04  0.18701059961E+04  0.50400001928E-02 0.  1.
       -1   -1    0    0    0  501  0.00000000000E+00  0.00000000000E+00 -0.84384313086E+03  0.84384313087E+03  0.50400001928E-02 0. -1.
    10030    2    1    2    0    0  0.00000000000E+00  0.00000000000E+00  0.10262628653E+04  0.27139491270E+04  0.25124299782E+04 0.  0.
        3    1    3    3  502    0  0.46259414903E+03  0.73504155759E+03  0.14935640402E+04  0.17277190137E+04  0.10100000352E+00 0.  1.
       -3    1    3    3    0  502 -0.46259414903E+03 -0.73504155759E+03 -0.46730117489E+03  0.98623011329E+03  0.10100000352E+00 0. -1.
</event>
<event>
 5   0  0.3578670E-05  0.2464946E+04  0.7818609E-02  0.8415581E-01
        2   -1    0    0  501    0  0.00000000000E+00  0.00000000000E+00  0.18727446467E+04  0.18727446467E+04  0.25500000920E-02 0. -1.
       -2   -1    0    0    0  501  0.00000000000E+00  0.00000000000E+00 -0.81110345047E+03  0.81110345048E+03  0.25500000920E-02 0.  1.
    10030    2    1    2    0    0  0.00000000000E+00  0.00000000000E+00  0.10616411962E+04  0.26838480972E+04  0.24649459587E+04 0.  0.
        4    1    3    3  502    0  0.14997528998E+03 -0.11468423765E+04  0.99436052729E+03  0.15252850538E+04  0.12699999809E+01 0. -1.
       -4    1    3    3    0  502 -0.14997528998E+03  0.11468423765E+04  0.67280668925E+02  0.11585630434E+04  0.12699999809E+01 0.  1.
</event>
<event>
 5   0  0.3650620E-05  0.2493372E+04  0.7818609E-02  0.8405351E-01
       -2   -1    0    0    0  501  0.00000000000E+00  0.00000000000E+00  0.10057620204E+04  0.10057620204E+04  0.25500000920E-02 0. -1.
        2   -1    0    0  501    0  0.00000000000E+00  0.00000000000E+00 -0.15453217735E+04  0.15453217735E+04  0.25500000920E-02 0.  1.
    10030    2    1    2    0    0  0.00000000000E+00  0.00000000000E+00 -0.53955975316E+03  0.25510837939E+04  0.24933719731E+04 0.  0.
        3    1    3    3  502    0  0.56415236063E+03  0.45701424761E+03  0.76713516813E+03  0.10562321170E+04  0.10100000352E+00 0. -1.
       -3    1    3    3    0  502 -0.56415236063E+03 -0.45701424761E+03 -0.13066949213E+04  0.14948516769E+04  0.10100000352E+00 0.  1.
</event>
<event>
 5   0  0.3704241E-05  0.2270286E+04  0.7818609E-02  0.8489730E-01
        2   -1    0    0  501    0  0.00000000000E+00  0.00000000000E+00  0.25871676461E+04  0.25871676461E+04  0.25500000920E-02 0.  1.
       -2   -1    0    0    0  501  0.00000000000E+00  0.00000000000E+00 -0.49805413909E+03  0.49805413909E+03  0.25500000920E-02 0. -1.
    10030    2    1    2    0    0  0.00000000000E+00  0.00000000000E+00  0.20891135070E+04  0.30852217851E+04  0.22702859332E+04 0.  0.
        2    1    3    3  502    0 -0.49733073687E+03 -0.85389078479E+03  0.28538446895E+03  0.10285483116E+04  0.25500000920E-02 0. -1.
       -2    1    3    3    0  502  0.49733073687E+03  0.85389078479E+03  0.18037290380E+04  0.20566734735E+04  0.25500000920E-02 0.  1.
</event>
<event>
 5   0  0.1492639E-05  0.2482266E+04  0.7818609E-02  0.8409331E-01
       -1   -1    0    0    0  501  0.00000000000E+00  0.00000000000E+00  0.96907656692E+03  0.96907656693E+03  0.50400001928E-02 0.  1.
        1   -1    0    0  501    0  0.00000000000E+00  0.00000000000E+00 -0.15895659714E+04  0.15895659714E+04  0.50400001928E-02 0. -1.
    10030    2    1    2    0    0  0.00000000000E+00  0.00000000000E+00 -0.62048940444E+03  0.25586425383E+04  0.24822660087E+04 0.  0.
        5    1    3    3  502    0 -0.24938890024E+03 -0.37265955558E+03  0.88265333234E+03  0.99003482920E+03  0.46999998093E+01 0.  1.
       -5    1    3    3    0  502  0.24938890024E+03  0.37265955558E+03 -0.15031427368E+04  0.15686077091E+04  0.46999998093E+01 0. -1.
</event>
<event>
 5   0  0.1456876E-05  0.2494887E+04  0.7818609E-02  0.8404809E-01
       -1   -1    0    0    0  501  0.00000000000E+00  0.00000000000E+00  0.97775895653E+03  0.97775895654E+03  0.50400001928E-02 0. -1.
        1   -1    0    0  501    0  0.00000000000E+00  0.00000000000E+00 -0.15915122221E+04  0.15915122221E+04  0.50400001928E-02 0.  1.
    10030    2    1    2    0    0  0.00000000000E+00  0.00000000000E+00 -0.61375326555E+03  0.25692711786E+04  0.24948870352E+04 0.  0.
        1    1    3    3  502    0  0.75205135150E+03  0.62803843314E+03  0.48821884458E+03  0.10947013972E+04  0.50400001928E-02 0. -1.
       -1    1    3    3    0  502 -0.75205135150E+03 -0.62803843314E+03 -0.11019721101E+04  0.14745697814E+04  0.50400001928E-02 0.  1.
</event>
<event>
 5   0  0.3581449E-05  0.2520820E+04  0.7818609E-02  0.8395606E-01
        2   -1    0    0  501    0  0.00000000000E+00  0.00000000000E+00  0.17369755770E+04  0.17369755770E+04  0.25500000920E-02 0.  1.
       -2   -1    0    0    0  501  0.00000000000E+00  0.00000000000E+00 -0.91459768130E+03  0.91459768130E+03  0.25500000920E-02 0. -1.
    10030    2    1    2    0    0  0.00000000000E+00  0.00000000000E+00  0.82237789572E+03  0.26515732583E+04  0.25208203706E+04 0.  0.
        1    1    3    3  502    0  0.35114552464E+03 -0.11190312755E+04  0.89676035948E+03  0.14763852198E+04  0.50400001928E-02 0. -1.
       -1    1    3    3    0  502 -0.35114552464E+03  0.11190312755E+04 -0.74382463762E+02  0.11751880385E+04  0.50400001928E-02 0.  1.
</event>
<event>
 5   0  0.3578670E-05  0.2758634E+04  0.7818609E-02  0.8316227E-01
        2   -1    0    0  501    0  0.00000000000E+00  0.00000000000E+00  0.26556068930E+04  0.26556068930E+04  0.25500000920E-02 0.  1.
       -2   -1    0    0    0  501  0.00000000000E+00  0.00000000000E+00 -0.71641435760E+03  0.71641435760E+03  0.25500000920E-02 0. -1.
    10030    2    1    2    0    0  0.00000000000E+00  0.00000000000E+00  0.19391925354E+04  0.33720212506E+04  0.27586336518E+04 0.  0.
        4    1    3    3  502    0 -0.13541214533E+04  0.32959630625E+02  0.12878354203E+04  0.18690245932E+04  0.12699999809E+01 0. -1.
       -4    1    3    3    0  502  0.13541214533E+04 -0.32959630625E+02  0.65135711510E+03  0.15029966573E+04  0.12699999809E+01 0.  1.
</event>
<event>
 5   0  0.1429483E-05  0.2510680E+04  0.7818609E-02  0.8399191E-01
       -1   -1    0    0    0  501  0.00000000000E+00  0.00000000000E+00  0.82583568758E+03  0.82583568760E+03  0.50400001928E-02 0. -1.
        1   -1    0    0  501    0  0.00000000000E+00  0.00000000000E+00 -0.19082226468E+04  0.19082226468E+04  0.50400001928E-02 0.  1.
    10030    2    1    2    0    0  0.00000000000E+00  0.00000000000E+00 -0.10823869592E+04  0.27340583344E+04  0.25106798773E+04 0.  0.
        2    1    3    3  502    0 -0.78763149499E+02  0.81655443786E+03 -0.15759532283E+04  0.17766804331E+04  0.25500000920E-02 0.  1.
       -2    1    3    3    0  502  0.78763149499E+02 -0.81655443786E+03  0.49356626913E+03  0.95737790122E+03  0.25500000920E-02 0. -1.
</event>
<event>
 5   0  0.3650620E-05  0.2506559E+04  0.7818609E-02  0.8400653E-01
        2   -1    0    0  501    0  0.00000000000E+00  0.00000000000E+00  0.10920976112E+04  0.10920976112E+04  0.25500000920E-02 0.  1.
       -2   -1    0    0    0  501  0.00000000000E+00  0.00000000000E+00 -0.14382495330E+04  0.14382495330E+04  0.25500000920E-02 0. -1.
    10030    2    1    2    0    0  0.00000000000E+00  0.00000000000E+00 -0.34615192172E+03  0.25303471442E+04  0.25065585007E+04 0.  0.
        3    1    3    3  502    0  0.73619452303E+03 -0.90217888895E+03  0.29478751554E+03  0.12011697686E+04  0.10100000352E+00 0.  1.
       -3    1    3    3    0  502 -0.73619452303E+03  0.90217888895E+03 -0.64093943726E+03  0.13291773756E+04  0.10100000352E+00 0. -1.
</event>
<event>
 5   0  0.3578670E-05  0.2511415E+04  0.7818609E-02  0.8398930E-01
       -2   -1    0    0    0  501  0.00000000000E+00  0.00000000000E+00  0.18322617251E+04  0.18322617251E+04  0.25500000920E-02 0.  1.
        2   -1    0    0  501    0  0.00000000000E+00  0.00000000000E+00 -0.86057615679E+03  0.86057615680E+03  0.25500000920E-02 0. -1.
    10030    2    1    2    0    0  0.00000000000E+00  0.00000000000E+00  0.97168556827E+03  0.26928378819E+04  0.25114145445E+04 0.  0.
        4    1    3    3  502    0 -0.89088316235E+03 -0.38888213303E+03  0.13381868780E+04  0.16539794000E+04  0.12699999809E+01 0.  1.
       -4    1    3    3    0  502  0.89088316235E+03  0.38888213303E+03 -0.36650130973E+03  0.10388584818E+04  0.12699999809E+01 0. -1.
</event>
<event>
 5   0  0.1492639E-05  0.2248083E+04  0.7818609E-02  0.8498677E-01
        1   -1    0    0  501    0  0.00000000000E+00  0.00000000000E+00  0.90905503803E+03  0.90905503804E+03  0.50400001928E-02 0. -1.
       -1   -1    0    0    0  501  0.00000000000E+00  0.00000000000E+00 -0.13898705300E+04  0.13898705300E+04  0.50400001928E-02 0.  1.
    10030    2    1    2    0    0  0.00000000000E+00  0.00000000000E+00 -0.48081549197E+03  0.22989255681E+04  0.22480825675E+04 0.  0.
        5    1    3    3  502    0  0.10803163338E+04 -0.10618389456E+03  0.57888384380E+02  0.10870747700E+04  0.46999998093E+01 0. -1.
       -5    1    3    3    0  502 -0.10803163338E+04  0.10618389456E+03 -0.53870387635E+03  0.12118507981E+04  0.46999998093E+01 0.  1.
</event>
<event>
 5   0  0.1429483E-05  0.1861568E+04  0.7818609E-02  0.8674227E-01
       -1   -1    0    0    0  501  0.00000000000E+00  0.00000000000E+00  0.73336363579E+03  0.73336363581E+03  0.50400001928E-02 0.  1.
        1   -1    0    0  501    0  0.00000000000E+00  0.00000000000E+00 -0.11813491785E+04  0.11813491785E+04  0.50400001928E-02 0. -1.
    10030    2    1    2    0    0  0.00000000000E+00  0.00000000000E+00 -0.44798554273E+03  0.19147128143E+04  0.18615676498E+04 0.  0.
        2    1    3    3  502    0  0.80974239651E+03 -0.41849945321E+03 -0.30106618064E+02  0.91199284509E+03  0.25500000920E-02 0.  1.
       -2    1    3    3    0  502 -0.80974239651E+03  0.41849945321E+03 -0.41787892467E+03  0.10027199693E+04  0.25500000920E-02 0. -1.
</event>
<event>
 5   0  0.3578670E-05  0.2509496E+04  0.7818609E-02  0.8399610E-01
       -2   -1    0    0    0  501  0.00000000000E+00  0.00000000000E+00  0.16062250982E+04  0.16062250982E+04  0.25500000920E-02 0.  1.
        2   -1    0    0  501    0  0.00000000000E+00  0.00000000000E+00 -0.98018209085E+03  0.98018209086E+03  0.25500000920E-02 0. -1.
    10030    2    1    2    0    0  0.00000000000E+00  0.00000000000E+00  0.62604300730E+03  0.25864071890E+04  0.25094964237E+04 0.  0.
        4    1    3    3  502    0 -0.96661417445E+02  0.74880399913E+03  0.13459037865E+04  0.15432140079E+04  0.12699999809E+01 0.  1.
       -4    1    3    3    0  502  0.96661417445E+02 -0.74880399913E+03 -0.71986077922E+03  0.10431931811E+04  0.12699999809E+01 0. -1.
</event>
<event>
 5   0  0.3650620E-05  0.2497679E+04  0.7818609E-02  0.8403813E-01
       -2   -1    0    0    0  501  0.00000000000E+00  0.00000000000E+00  0.67559957494E+03  0.67559957495E+03  0.25500000920E-02 0.  1.
        2   -1    0    0  501    0  0.00000000000E+00  0.00000000000E+00 -0.23084680057E+04  0.23084680057E+04  0.25500000920E-02 0. -1.
    10030    2    1    2    0    0  0.00000000000E+00  0.00000000000E+00 -0.16328684308E+04  0.29840675806E+04  0.24976789253E+04 0.  0.
        3    1    3    3  502    0 -0.38261330665E+03  0.48229323138E+03 -0.21145800609E+04  0.22023733896E+04  0.10100000352E+00 0. -1.
       -3    1    3    3    0  502  0.38261330665E+03 -0.48229323138E+03  0.48171163010E+03  0.78169419100E+03  0.10100000352E+00 0.  1.
</event>
<event>
 5   0  0.3704241E-05  0.2480943E+04  0.7818609E-02  0.8409806E-01
       -2   -1    0    0    0  501  0.00000000000E+00  0.00000000000E+00  0.74601621151E+03  0.74601621151E+03  0.25500000920E-02 0. -1.
        2   -1    0    0  501    0  0.00000000000E+00  0.00000000000E+00 -0.20626490984E+04  0.20626490984E+04  0.25500000920E-02 0.  1.
    10030    2    1    2    0    0  0.00000000000E+00  0.00000000000E+00 -0.13166328869E+04  0.28086653099E+04  0.24809430998E+04 0.  0.
        2    1    3    3  502    0 -0.29209596061E+03 -0.11015713330E+04 -0.12129165557E+04  0.16643154818E+04  0.25500000920E-02 0.  1.
       -2    1    3    3    0  502  0.29209596061E+03  0.11015713330E+04 -0.10371633118E+03  0.11443498281E+04  0.25500000920E-02 0. -1.
</event>
<event>
 5   0  0.3578670E-05  0.2525859E+04  0.7818609E-02  0.8393831E-01
       -2   -1    0    0    0  501  0.00000000000E+00  0.00000000000E+00  0.58841470322E+03  0.58841470323E+03  0.25500000920E-02 0.  1.
        2   -1    0    0  501    0  0.00000000000E+00  0.00000000000E+00 -0.27106571459E+04  0.27106571459E+04  0.25500000920E-02 0. -1.
    10030    2    1    2    0    0  0.00000000000E+00  0.00000000000E+00 -0.21222424427E+04  0.32990718492E+04  0.25258586818E+04 0.  0.
        4    1    3    3  502    0 -0.10864867002E+04  0.41858263007E+03 -0.42215782764E+03  0.12385005499E+04  0.12699999809E+01 0.  1.
       -4    1    3    3    0  502  0.10864867002E+04 -0.41858263007E+03 -0.17000846151E+04  0.20605712992E+04  0.12699999809E+01 0. -1.
</event>
<event>
 5   0  0.1456876E-05  0.2496399E+04  0.7818609E-02  0.8404269E-01
       -1   -1    0    0    0  501  0.00000000000E+00  0.00000000000E+00  0.76789041496E+03  0.76789041498E+03  0.50400001928E-02 0.  1.
        1   -1    0    0  501    0  0.00000000000E+00  0.00000000000E+00 -0.20289384274E+04  0.20289384275E+04  0.50400001928E-02 0. -1.
    10030    2    1    2    0    0  0.00000000000E+00  0.00000000000E+00 -0.12610480125E+04  0.27968288424E+04  0.24963993038E+04 0.  0.
        1    1    3    3  502    0  0.75320474891E+03 -0.80146496209E+03 -0.12917544181E+04  0.16965532576E+04  0.50400001928E-02 0. -1.
       -1    1    3    3    0  502 -0.75320474891E+03  0.80146496209E+03  0.30706405580E+02  0.11002755848E+04  0.50400001928E-02 0.  1.
</event>
<event>
 5   0  0.3704241E-05  0.2613006E+04  0.7818609E-02  0.8363797E-01
        2   -1    0    0  501    0  0.00000000000E+00  0.00000000000E+00  0.12560971186E+04  0.12560971186E+04  0.25500000920E-02 0.  1.
       -2   -1    0    0    0  501  0.00000000000E+00  0.00000000000E+00 -0.13589317991E+04  0.13589317991E+04  0.25500000920E-02 0. -1.
    10030    2    1    2    0    0  0.00000000000E+00  0.00000000000E+00 -0.10283468046E+03  0.26150289177E+04  0.26130061747E+04 0.  0.
        2    1    3    3  502    0  0.13501709819E+03 -0.12345091123E+04  0.35473909941E+03  0.12915425637E+04  0.25500000920E-02 0.  1.
       -2    1    3    3    0  502 -0.13501709819E+03  0.12345091123E+04 -0.45757377987E+03  0.13234863540E+04  0.25500000920E-02 0. -1.
</event>
<event>
 5   0  0.1492639E-05  0.2547811E+04  0.7818609E-02  0.8386148E-01
       -1   -1    0    0    0  501  0.00000000000E+00  0.00000000000E+00  0.76340411998E+03  0.76340411999E+03  0.50400001928E-02 0. -1.
        1   -1    0    0  501    0  0.00000000000E+00  0.00000000000E+00 -0.21257875317E+04  0.21257875317E+04  0.50400001928E-02 0.  1.
    10030    2    1    2    0    0  0.00000000000E+00  0.00000000000E+00 -0.13623834118E+04  0.28891916517E+04  0.25478107936E+04 0.  0.
        5    1    3    3  502    0 -0.47110865160E+03  0.27769032521E+03  0.62351654865E+03  0.82936738227E+03  0.46999998093E+01 0. -1.
       -5    1    3    3    0  502  0.47110865160E+03 -0.27769032521E+03 -0.19858999604E+04  0.20598242695E+04  0.46999998093E+01 0.  1.
</event>
<event>
 5   0  0.1421242E-05  0.2539756E+04  0.7818609E-02  0.8388958E-01
       -1   -1    0    0    0  501  0.00000000000E+00  0.00000000000E+00  0.97706715576E+03  0.97706715578E+03  0.50400001928E-02 0.  1.
        1   -1    0    0  501    0  0.00000000000E+00  0.00000000000E+00 -0.16504388368E+04  0.16504388368E+04  0.50400001928E-02 0. -1.
    10030    2    1    2    0    0  0.00000000000E+00  0.00000000000E+00 -0.67337168105E+03  0.26275059926E+04  0.25397555631E+04 0.  0.
        3    1    3    3  502    0  0.86001218585E+02  0.10786580363E+04 -0.10242459580E+04  0.14899594497E+04  0.10100000352E+00 0. -1.
       -3    1    3    3    0  502 -0.86001218585E+02 -0.10786580363E+04  0.35087427697E+03  0.11375465429E+04  0.10100000352E+00 0.  1.
</event>
<event>
 5   0  0.1201438E-05  0.2521751E+04  0.7818609E-02  0.8395278E-01
       -4   -1    0    0    0  501  0.00000000000E+00  0.00000000000E+00  0.13717567290E+04  0.13717573169E+04  0.12699999809E+01 0.  1.
        4   -1    0    0  501    0  0.00000000000E+00  0.00000000000E+00 -0.11589553330E+04  0.11589560288E+04  0.12699999809E+01 0. -1.
    10030    2    1    2    0    0  0.00000000000E+00  0.00000000000E+00  0.21280139597E+03  0.25307133457E+04  0.25217505039E+04 0.  0.
        1    1    3    3  502    0  0.67751448119E+03  0.39341477458E+03  0.10978418397E+04  0.13487244945E+04  0.50400001928E-02 0.  1.
       -1    1    3    3    0  502 -0.67751448119E+03 -0.39341477458E+03 -0.88504044377E+03  0.11819888511E+04  0.50400001928E-02 0. -1.
</event>
<event>
 5   0  0.1492639E-05  0.2393849E+04  0.7818609E-02  0.8441810E-01
       -1   -1    0    0    0  501  0.00000000000E+00  0.00000000000E+00  0.12150208120E+04  0.12150208120E+04  0.50400001928E-02 0. -1.
        1   -1    0    0  501    0  0.00000000000E+00  0.00000000000E+00 -0.11790980557E+04  0.11790980558E+04  0.50400001928E-02 0.  1.
    10030    2    1    2    0    0  0.00000000000E+00  0.00000000000E+00  0.35922756254E+02  0.23941188678E+04  0.23938493496E+04 0.  0.
        5    1    3    3  502    0  0.66609081064E+03 -0.78516979516E+03  0.62830708389E+03  0.12062174169E+04  0.46999998093E+01 0. -1.
       -5    1    3    3    0  502 -0.66609081064E+03  0.78516979516E+03 -0.59238432764E+03  0.11879014508E+04  0.46999998093E+01 0.  1.
</event>
<event>
 5   0  0.3650620E-05  0.2501981E+04  0.7818609E-02  0.8402280E-01
       -2   -1    0    0    0  501  0.00000000000E+00  0.00000000000E+00  0.66526151394E+03  0.66526151394E+03  0.25500000920E-02 0. -1.
        2   -1    0    0  501    0  0.00000000000E+00  0.00000000000E+00 -0.23524247502E+04  0.23524247502E+04  0.25500000920E-02 0.  1.
    10030    2    1    2    0    0  0.00000000000E+00  0.00000000000E+00 -0.16871632363E+04  0.30176862641E+04  0.25019813355E+04 0.  0.
        3    1    3    3  502    0 -0.25164974405E+03 -0.11082386269E+04 -0.21286438690E+03  0.11562143855E+04  0.10100000352E+00 0. -1.
       -3    1    3    3    0  502  0.25164974405E+03  0.11082386269E+04 -0.14742988493E+04  0.18614718787E+04  0.10100000352E+00 0.  1.
</event>
<event>
 5   0  0.1456876E-05  0.2475999E+04  0.7818609E-02  0.8411586E-01
        1   -1    0    0  501    0  0.00000000000E+00  0.00000000000E+00  0.18337868409E+04  0.18337868409E+04  0.50400001928E-02 0.  1.
       -1   -1    0    0    0  501  0.00000000000E+00  0.00000000000E+00 -0.83578053113E+03  0.83578053114E+03  0.50400001928E-02 0. -1.
    10030    2    1    2    0    0  0.00000000000E+00  0.00000000000E+00  0.99800630980E+03  0.26695673721E+04  0.24759994668E+04 0.  0.
        1    1    3    3  502    0  0.44455984816E+03 -0.15769943185E+03 -0.73509391080E+03  0.87342179222E+03  0.50400001928E-02 0. -1.
       -1    1    3    3    0  502 -0.44455984816E+03  0.15769943185E+03  0.17331002206E+04  0.17961455799E+04  0.50400001928E-02 0.  1.
</event>
<event>
 5   0  0.1492639E-05  0.2514685E+04  0.7818609E-02  0.8397773E-01
        1   -1    0    0  501    0  0.00000000000E+00  0.00000000000E+00  0.78124628897E+03  0.78124628898E+03  0.50400001928E-02 0. -1.
       -1   -1    0    0    0  501  0.00000000000E+00  0.00000000000E+00 -0.20235739533E+04  0.20235739533E+04  0.50400001928E-02 0.  1.
    10030    2    1    2    0    0  0.00000000000E+00  0.00000000000E+00 -0.12423276643E+04  0.28048202423E+04  0.25146845858E+04 0.  0.
        5    1    3    3  502    0 -0.45210893525E+02 -0.61089989318E+03  0.60354037710E+03  0.85995684843E+03  0.46999998093E+01 0. -1.
       -5    1    3    3    0  502  0.45210893525E+02  0.61089989318E+03 -0.18458680414E+04  0.19448633939E+04  0.46999998093E+01 0.  1.
</event>
<event>
 5   0  0.3650620E-05  0.2491096E+04  0.7818609E-02  0.8406165E-01
        2   -1    0    0  501    0  0.00000000000E+00  0.00000000000E+00  0.10488287302E+04  0.10488287302E+04  0.25500000920E-02 0.  1.
       -2   -1    0    0    0  501  0.00000000000E+00  0.00000000000E+00 -0.14791636730E+04  0.14791636730E+04  0.25500000920E-02 0. -1.
    10030    2    1    2    0    0  0.00000000000E+00  0.00000000000E+00 -0.43033494277E+03  0.25279924032E+04  0.24910956280E+04 0.  0.
        3    1    3    3  502    0  0.57094630685E+03 -0.40074010555E+03 -0.12623511364E+04  0.14422561212E+04  0.10100000352E+00 0. -1.
       -3    1    3    3    0  502 -0.57094630685E+03  0.40074010555E+03  0.83201619359E+03  0.10857362820E+04  0.10100000352E+00 0.  1.
</event>
<event>
 5   0  0.3579097E-05  0.2535640E+04  0.7818609E-02  0.8390397E-01
       -2   -1    0    0    0  501  0.00000000000E+00  0.00000000000E+00  0.83643262882E+03  0.83643262882E+03  0.25500000920E-02 0. -1.
        2   -1    0    0  501    0  0.00000000000E+00  0.00000000000E+00 -0.19216942849E+04  0.19216942849E+04  0.25500000920E-02 0.  1.
    10030    2    1    2    0    0  0.00000000000E+00  0.00000000000E+00 -0.10852616560E+04  0.27581269137E+04  0.25356401973E+04 0.  0.
        5    1    3    3  502    0 -0.30217205781E+03  0.44150506626E+03  0.70761748855E+03  0.88711852430E+03  0.46999998093E+01 0. -1.
       -5    1    3    3    0  502  0.30217205781E+03 -0.44150506626E+03 -0.17928791446E+04  0.18710083894E+04  0.46999998093E+01 0.  1.
</event>
<event>
 5   0  0.3579097E-05  0.2383702E+04  0.7818609E-02  0.8445630E-01
        2   -1    0    0  501    0  0.00000000000E+00  0.00000000000E+00  0.15405164204E+04  0.15405164204E+04  0.25500000920E-02 0.  1.
       -2   -1    0    0    0  501  0.00000000000E+00  0.00000000000E+00 -0.92209939407E+03  0.92209939407E+03  0.25500000920E-02 0. -1.
    10030    2    1    2    0    0  0.00000000000E+00  0.00000000000E+00  0.61841702637E+03  0.24626158145E+04  0.23837023789E+04 0.  0.
        5    1    3    3  502    0 -0.43254147094E+03  0.10761839094E+03  0.14511584450E+04  0.15180766663E+04  0.46999998093E+01 0.  1.
       -5    1    3    3    0  502  0.43254147094E+03 -0.10761839094E+03 -0.83274141867E+03  0.94453914822E+03  0.46999998093E+01 0. -1.
</event>
<event>
 5   0  0.1502886E-05  0.2494367E+04  0.7818609E-02  0.8404995E-01
       -1   -1    0    0    0  501  0.00000000000E+00  0.00000000000E+00  0.84405232911E+03  0.84405232912E+03  0.50400001928E-02 0.  1.
        1   -1    0    0  501    0  0.00000000000E+00  0.00000000000E+00 -0.18428563138E+04  0.18428563138E+04  0.50400001928E-02 0. -1.
    10030    2    1    2    0    0  0.00000000000E+00  0.00000000000E+00 -0.99880398474E+03  0.26869086430E+04  0.24943673859E+04 0.  0.
        4    1    3    3  502    0  0.53204844856E+03 -0.41427537835E+03  0.63075809726E+03  0.92334014907E+03  0.12699999809E+01 0.  1.
       -4    1    3    3    0  502 -0.53204844856E+03  0.41427537835E+03 -0.16295620820E+04  0.17635684939E+04  0.12699999809E+01 0. -1.
</event>
<event>
 5   0  0.1201438E-05  0.2453330E+04  0.7818609E-02  0.8419803E-01
        3   -1    0    0  501    0  0.00000000000E+00  0.00000000000E+00  0.15646005867E+04  0.15646005900E+04  0.10100000352E+00 0. -1.
       -3   -1    0    0    0  501  0.00000000000E+00  0.00000000000E+00 -0.96171936790E+03  0.96171937320E+03  0.10100000352E+00 0.  1.
    10030    2    1    2    0    0  0.00000000000E+00  0.00000000000E+00  0.60288121883E+03  0.25263199632E+04  0.24533297358E+04 0.  0.
        3    1    3    3  502    0  0.58997425400E+03  0.96861225937E+03  0.78270745926E+03  0.13780095451E+04  0.10100000352E+00 0. -1.
       -3    1    3    3    0  502 -0.58997425400E+03 -0.96861225937E+03 -0.17982624043E+03  0.11483104181E+04  0.10100000352E+00 0.  1.
</event>
<event>
 5   0  0.1502886E-05  0.2509098E+04  0.7818609E-02  0.8399752E-01
        1   -1    0    0  501    0  0.00000000000E+00  0.00000000000E+00  0.21409469274E+04  0.21409469274E+04  0.50400001928E-02 0. -1.
       -1   -1    0    0    0  501  0.00000000000E+00  0.00000000000E+00 -0.73513854093E+03  0.73513854095E+03  0.50400001928E-02 0.  1.
    10030    2    1    2    0    0  0.00000000000E+00  0.00000000000E+00  0.14058083865E+04  0.28760854684E+04  0.25090975274E+04 0.  0.
        4    1    3    3  502    0  0.12268856482E+03 -0.49663727477E+03 -0.61014982820E+03  0.79623205938E+03  0.12699999809E+01 0.  1.
       -4    1    3    3    0  502 -0.12268856482E+03  0.49663727477E+03  0.20159582147E+04  0.20798534090E+04  0.12699999809E+01 0. -1.
</event>
<event>
 5   0  0.1421242E-05  0.2580258E+04  0.7818609E-02  0.8374938E-01
       -1   -1    0    0    0  501  0.00000000000E+00  0.00000000000E+00  0.88585753796E+03  0.88585753798E+03  0.50400001928E-02 0. -1.
        1   -1    0    0  501    0  0.00000000000E+00  0.00000000000E+00 -0.18788950939E+04  0.18788950939E+04  0.50400001928E-02 0.  1.
    10030    2    1    2    0    0  0.00000000000E+00  0.00000000000E+00 -0.99303755594E+03  0.27647526319E+04  0.25802584227E+04 0.  0.
        3    1    3    3  502    0 -0.38054520291E+03  0.10212973058E+04  0.24318301082E+03  0.11166919115E+04  0.10100000352E+00 0. -1.
       -3    1    3    3    0  502  0.38054520291E+03 -0.10212973058E+04 -0.12362205668E+04  0.16480607204E+04  0.10100000352E+00 0.  1.
</event>
<event>
 5   0  0.1456876E-05  0.2507679E+04  0.7818609E-02  0.8400255E-01
       -1   -1    0    0    0  501  0.00000000000E+00  0.00000000000E+00  0.83072538850E+03  0.83072538852E+03  0.50400001928E-02 0.  1.
        1   -1    0    0  501    0  0.00000000000E+00  0.00000000000E+00 -0.18924586160E+04  0.18924586161E+04  0.50400001928E-02 0. -1.
    10030    2    1    2    0    0  0.00000000000E+00  0.00000000000E+00 -0.10617332275E+04  0.27231840046E+04  0.25076789420E+04 0.  0.
        1    1    3    3  502    0 -0.54954494143E+03 -0.87467141325E+03 -0.13026192655E+04  0.16624880976E+04  0.50400001928E-02 0. -1.
       -1    1    3    3    0  502  0.54954494143E+03  0.87467141325E+03  0.24088603792E+03  0.10606959070E+04  0.50400001928E-02 0.  1.
</event>
<event>
 5   0  0.3579097E-05  0.2311826E+04  0.7818609E-02  0.8473273E-01
        2   -1    0    0  501    0  0.00000000000E+00  0.00000000000E+00  0.10887529427E+04  0.10887529427E+04  0.25500000920E-02 0.  1.
       -2   -1    0    0    0  501  0.00000000000E+00  0.00000000000E+00 -0.12272161352E+04  0.12272161352E+04  0.25500000920E-02 0. -1.
    10030    2    1    2    0    0  0.00000000000E+00  0.00000000000E+00 -0.13846319251E+03  0.23159690779E+04  0.23118262724E+04 0.  0.
        5    1    3    3  502    0 -0.59496243472E+03  0.17017807920E+03 -0.10472865291E+04  0.12164588121E+04  0.46999998093E+01 0. -1.
       -5    1    3    3    0  502  0.59496243472E+03 -0.17017807920E+03  0.90882333664E+03  0.10995102658E+04  0.46999998093E+01 0.  1.
</event>
<event>
 5   0  0.3579097E-05  0.2676570E+04  0.7818609E-02  0.8342648E-01
       -2   -1    0    0    0  501  0.00000000000E+00  0.00000000000E+00  0.83546651943E+03  0.83546651944E+03  0.25500000920E-02 0.  1.
        2   -1    0    0  501    0  0.00000000000E+00  0.00000000000E+00 -0.21437200999E+04  0.21437200999E+04  0.25500000920E-02 0. -1.
    10030    2    1    2    0    0  0.00000000000E+00  0.00000000000E+00 -0.13082535804E+04  0.29791866193E+04  0.26765697230E+04 0.  0.
        5    1    3    3  502    0 -0.10184261605E+04  0.58482754024E+03  0.60116334777E+02  0.11759469206E+04  0.46999998093E+01 0.  1.
       -5    1    3    3    0  502  0.10184261605E+04 -0.58482754024E+03 -0.13683699152E+04  0.18032396987E+04  0.46999998093E+01 0. -1.
</event>
<event>
 5   0  0.1201438E-05  0.2491311E+04  0.7818609E-02  0.8406088E-01
       -4   -1    0    0    0  501  0.00000000000E+00  0.00000000000E+00  0.14942902658E+04  0.14942908055E+04  0.12699999809E+01 0. -1.
        4   -1    0    0  501    0  0.00000000000E+00  0.00000000000E+00 -0.10383895657E+04  0.10383903423E+04  0.12699999809E+01 0.  1.
    10030    2    1    2    0    0  0.00000000000E+00  0.00000000000E+00  0.45590070009E+03  0.25326811478E+04  0.24913105684E+04 0.  0.
        3    1    3    3  502    0 -0.93784597654E+02 -0.85330464344E+03  0.11455647582E+04  0.14315177228E+04  0.10100000352E+00 0. -1.
       -3    1    3    3    0  502  0.93784597654E+02  0.85330464344E+03 -0.68966405811E+03  0.11011634250E+04  0.10100000352E+00 0.  1.
</event>
<event>
 5   0  0.1456876E-05  0.2518870E+04  0.7818609E-02  0.8396294E-01
        1   -1    0    0  501    0  0.00000000000E+00  0.00000000000E+00  0.17377796427E+04  0.17377796427E+04  0.50400001928E-02 0. -1.
       -1   -1    0    0    0  501  0.00000000000E+00  0.00000000000E+00 -0.91276066880E+03  0.91276066882E+03  0.50400001928E-02 0.  1.
    10030    2    1    2    0    0  0.00000000000E+00  0.00000000000E+00  0.82501897393E+03  0.26505403116E+04  0.25188703095E+04 0.  0.
        1    1    3    3  502    0  0.10065408449E+04  0.73452159495E+03  0.21982427621E+03  0.12652940995E+04  0.50400001928E-02 0.  1.
       -1    1    3    3    0  502 -0.10065408449E+04 -0.73452159495E+03  0.60519469772E+03  0.13852462120E+04  0.50400001928E-02 0. -1.
</event>
<event>
 5   0  0.3581449E-05  0.2500617E+04  0.7818609E-02  0.8402766E-01
       -2   -1    0    0    0  501  0.00000000000E+00  0.00000000000E+00  0.63165011515E+03  0.63165011515E+03  0.25500000920E-02 0. -1.
        2   -1    0    0  501    0  0.00000000000E+00  0.00000000000E+00 -0.24749002023E+04  0.24749002023E+04  0.25500000920E-02 0.  1.
    10030    2    1    2    0    0  0.00000000000E+00  0.00000000000E+00 -0.18432500872E+04  0.31065503175E+04  0.25006167221E+04 0.  0.
        1    1    3    3  502    0 -0.63159415950E+03 -0.10351293652E+04 -0.54304126721E+03  0.13286451005E+04  0.50400001928E-02 0. -1.
       -1    1    3    3    0  502  0.63159415950E+03  0.10351293652E+04 -0.13002088199E+04  0.17779052170E+04  0.50400001928E-02 0.  1.
</event>
<event>
 5   0  0.3581449E-05  0.2485640E+04  0.7818609E-02  0.8408119E-01
        2   -1    0    0  501    0  0.00000000000E+00  0.00000000000E+00  0.11569037399E+04  0.11569037400E+04  0.25500000920E-02 0. -1.
       -2   -1    0    0    0  501  0.00000000000E+00  0.00000000000E+00 -0.13351167226E+04  0.13351167226E+04  0.25500000920E-02 0.  1.
    10030    2    1    2    0    0  0.00000000000E+00  0.00000000000E+00 -0.17821298269E+03  0.24920204626E+04  0.24856399817E+04 0.  0.
        1    1    3    3  502    0  0.50998761815E+03 -0.10392091724E+04 -0.54254885828E+03  0.12784374597E+04  0.50400001928E-02 0.  1.
       -1    1    3    3    0  502 -0.50998761815E+03  0.10392091724E+04  0.36433587559E+03  0.12135830029E+04  0.50400001928E-02 0. -1.
</event>
<event>
 5   0  0.1421242E-05  0.2496397E+04  0.7818609E-02  0.8404270E-01
        1   -1    0    0  501    0  0.00000000000E+00  0.00000000000E+00  0.18456303007E+04  0.18456303007E+04  0.50400001928E-02 0. -1.
       -1   -1    0    0    0  501  0.00000000000E+00  0.00000000000E+00 -0.84415557335E+03  0.84415557337E+03  0.50400001928E-02 0.  1.
    10030    2    1    2    0    0  0.00000000000E+00  0.00000000000E+00  0.10014747274E+04  0.26897858741E+04  0.24963966870E+04 0.  0.
        3    1    3    3  502    0  0.31339178002E+03 -0.70298147359E+02 -0.79886997179E+03  0.86101653836E+03  0.10100000352E+00 0.  1.
       -3    1    3    3    0  502 -0.31339178002E+03  0.70298147359E+02  0.18003446992E+04  0.18287693358E+04  0.10100000352E+00 0. -1.
</event>
<event>
 5   0  0.3578670E-05  0.2326620E+04  0.7818609E-02  0.8467499E-01
        2   -1    0    0  501    0  0.00000000000E+00  0.00000000000E+00  0.78770708657E+03  0.78770708658E+03  0.25500000920E-02 0.  1.
       -2   -1    0    0    0  501  0.00000000000E+00  0.00000000000E+00 -0.17180121343E+04  0.17180121343E+04  0.25500000920E-02 0. -1.
    10030    2    1    2    0    0  0.00000000000E+00  0.00000000000E+00 -0.93030504773E+03  0.25057192209E+04  0.23266201521E+04 0.  0.
        4    1    3    3  502    0  0.60715194064E+03  0.15390138362E+03 -0.15209041151E+04  0.16448313151E+04  0.12699999809E+01 0. -1.
       -4    1    3    3    0  502 -0.60715194064E+03 -0.15390138362E+03  0.59059906742E+03  0.86088790573E+03  0.12699999809E+01 0.  1.
</event>
<event>
 5   0  0.1429483E-05  0.2419945E+04  0.7818609E-02  0.8432074E-01
       -1   -1    0    0    0  501  0.00000000000E+00  0.00000000000E+00  0.10810096835E+04  0.10810096835E+04  0.50400001928E-02 0. -1.
        1   -1    0    0  501    0  0.00000000000E+00  0.00000000000E+00 -0.13543207308E+04  0.13543207308E+04  0.50400001928E-02 0.  1.
    10030    2    1    2    0    0  0.00000000000E+00  0.00000000000E+00 -0.27331104733E+03  0.24353304143E+04  0.24199453090E+04 0.  0.
        2    1    3    3  502    0 -0.40974489589E+03 -0.11384335616E+04 -0.14730441401E+03  0.12188603055E+04  0.25500000920E-02 0. -1.
       -2    1    3    3    0  502  0.40974489589E+03  0.11384335616E+04 -0.12600663332E+03  0.12164701088E+04  0.25500000920E-02 0.  1.
</event>
<event>
 5   0  0.3704241E-05  0.2482485E+04  0.7818609E-02  0.8409252E-01
        2   -1    0    0  501    0  0.00000000000E+00  0.00000000000E+00  0.13425860698E+04  0.13425860698E+04  0.25500000920E-02 0. -1.
       -2   -1    0    0    0  501  0.00000000000E+00  0.00000000000E+00 -0.11475489071E+04  0.11475489071E+04  0.25500000920E-02 0.  1.
    10030    2    1    2    0    0  0.00000000000E+00  0.00000000000E+00  0.19503716262E+03  0.24901349769E+04  0.24824851880E+04 0.  0.
        2    1    3    3  502    0  0.40398067535E+03 -0.10548139287E+04 -0.41870342213E+03  0.12046349514E+04  0.25500000920E-02 0. -1.
       -2    1    3    3    0  502 -0.40398067535E+03  0.10548139287E+04  0.61374058474E+03  0.12855000256E+04  0.25500000920E-02 0.  1.
</event>
<event>
 5   0  0.1421242E-05  0.2413213E+04  0.7818609E-02  0.8434573E-01
       -1   -1    0    0    0  501  0.00000000000E+00  0.00000000000E+00  0.77917709918E+03  0.77917709919E+03  0.50400001928E-02 0.  1.
        1   -1    0    0  501    0  0.00000000000E+00  0.00000000000E+00 -0.18685091989E+04  0.18685091990E+04  0.50400001928E-02 0. -1.
    10030    2    1    2    0    0  0.00000000000E+00  0.00000000000E+00 -0.10893320998E+04  0.26476862981E+04  0.24132132748E+04 0.  0.
        3    1    3    3  502    0 -0.10039528871E+04 -0.62428049280E+03 -0.27986093497E+03  0.12148949281E+04  0.10100000352E+00 0. -1.
       -3    1    3    3    0  502  0.10039528871E+04  0.62428049280E+03 -0.80947116480E+03  0.14327913700E+04  0.10100000352E+00 0.  1.
</event>
<event>
 5   0  0.3704241E-05  0.2158953E+04  0.7818609E-02  0.8535710E-01
        2   -1    0    0  501    0  0.00000000000E+00  0.00000000000E+00  0.10477509217E+04  0.10477509217E+04  0.25500000920E-02 0.  1.
       -2   -1    0    0    0  501  0.00000000000E+00  0.00000000000E+00 -0.11121627205E+04  0.11121627205E+04  0.25500000920E-02 0. -1.
    10030    2    1    2    0    0  0.00000000000E+00  0.00000000000E+00 -0.64411798836E+02  0.21599136421E+04  0.21589530013E+04 0.  0.
        2    1    3    3  502    0  0.90604445451E+02  0.47019093987E+03 -0.10000974002E+04  0.11088207680E+04  0.25500000920E-02 0. -1.
       -2    1    3    3    0  502 -0.90604445451E+02 -0.47019093987E+03  0.93568560141E+03  0.10510928742E+04  0.25500000920E-02 0.  1.
</event>
<event>
 5   0  0.3579097E-05  0.2500128E+04  0.7818609E-02  0.8402940E-01
       -2   -1    0    0    0  501  0.00000000000E+00  0.00000000000E+00  0.88753623155E+03  0.88753623156E+03  0.25500000920E-02 0. -1.
        2   -1    0    0  501    0  0.00000000000E+00  0.00000000000E+00 -0.17606715042E+04  0.17606715042E+04  0.25500000920E-02 0.  1.
    10030    2    1    2    0    0  0.00000000000E+00  0.00000000000E+00 -0.87313527261E+03  0.26482077357E+04  0.25001277982E+04 0.  0.
        5    1    3    3  502    0  0.19294576783E+03 -0.24947762512E+03 -0.17178277608E+04  0.17465455793E+04  0.46999998093E+01 0.  1.
       -5    1    3    3    0  502 -0.19294576783E+03  0.24947762512E+03  0.84469248819E+03  0.90166215644E+03  0.46999998093E+01 0. -1.
</event>
<event>
 5   0  0.3579097E-05  0.2484891E+04  0.7818609E-02  0.8408388E-01
       -2   -1    0    0    0  501  0.00000000000E+00  0.00000000000E+00  0.67630503803E+03  0.67630503804E+03  0.25500000920E-02 0.  1.
        2   -1    0    0  501    0  0.00000000000E+00  0.00000000000E+00 -0.22825073846E+04  0.22825073846E+04  0.25500000920E-02 0. -1.
    10030    2    1    2    0    0  0.00000000000E+00  0.00000000000E+00 -0.16062023466E+04  0.29588124226E+04  0.24848913405E+04 0.  0.
        5    1    3    3  502    0 -0.49230101382E+03  0.88836615272E+03 -0.16551903773E+04  0.19419660101E+04  0.46999998093E+01 0. -1.
       -5    1    3    3    0  502  0.49230101382E+03 -0.88836615272E+03  0.48988030695E+02  0.10168464125E+04  0.46999998093E+01 0.  1.
</event>
<event>
 5   0  0.1429483E-05  0.2512352E+04  0.7818609E-02  0.8398598E-01
        1   -1    0    0  501    0  0.00000000000E+00  0.00000000000E+00  0.19195801810E+04  0.19195801810E+04  0.50400001928E-02 0.  1.
       -1   -1    0    0    0  501  0.00000000000E+00  0.00000000000E+00 -0.82204312624E+03  0.82204312625E+03  0.50400001928E-02 0. -1.
    10030    2    1    2    0    0  0.00000000000E+00  0.00000000000E+00  0.10975370547E+04  0.27416233072E+04  0.25123516418E+04 0.  0.
        2    1    3    3  502    0  0.93976248900E+02 -0.12244564643E+04  0.26035314976E+03  0.12553521143E+04  0.25500000920E-02 0. -1.
       -2    1    3    3    0  502 -0.93976248900E+02  0.12244564643E+04  0.83718390496E+03  0.14862711929E+04  0.25500000920E-02 0.  1.
</event>
<event>
 5   0  0.1421242E-05  0.2472805E+04  0.7818609E-02  0.8412738E-01
       -1   -1    0    0    0  501  0.00000000000E+00  0.00000000000E+00  0.87755567280E+03  0.87755567281E+03  0.50400001928E-02 0.  1.
        1   -1    0    0  501    0  0.00000000000E+00  0.00000000000E+00 -0.17419881702E+04  0.17419881702E+04  0.50400001928E-02 0. -1.
    10030    2    1    2    0    0  0.00000000000E+00  0.00000000000E+00 -0.86443249742E+03  0.26195438430E+04  0.24728053710E+04 0.  0.
        3    1    3    3  502    0  0.51110649013E+03 -0.24488415766E+03 -0.15962836738E+04  0.16939066304E+04  0.10100000352E+00 0. -1.
       -3    1    3    3    0  502 -0.51110649013E+03  0.24488415766E+03  0.73185117638E+03  0.92563721268E+03  0.10100000352E+00 0.  1.
</event>
<event>
 5   0  0.1421242E-05  0.2516101E+04  0.7818609E-02  0.8397272E-01
       -1   -1    0    0    0  501  0.00000000000E+00  0.00000000000E+00  0.16209200436E+04  0.16209200436E+04  0.50400001928E-02 0. -1.
        1   -1    0    0  501    0  0.00000000000E+00  0.00000000000E+00 -0.97641562356E+03  0.97641562358E+03  0.50400001928E-02 0.  1.
    10030    2    1    2    0    0  0.00000000000E+00  0.00000000000E+00  0.64450442004E+03  0.25973356672E+04  0.25161014726E+04 0.  0.
        3    1    3    3  502    0 -0.80436827593E+03 -0.18697903543E+03  0.13019572714E+04  0.15417724313E+04  0.10100000352E+00 0. -1.
       -3    1    3    3    0  502  0.80436827593E+03  0.18697903543E+03 -0.65745285139E+03  0.10555632359E+04  0.10100000352E+00 0.  1.
</event>
<event>
 5   0  0.1492639E-05  0.2502355E+04  0.7818609E-02  0.8402147E-01
       -1   -1    0    0    0  501  0.00000000000E+00  0.00000000000E+00  0.14652497882E+04  0.14652497882E+04  0.50400001928E-02 0.  1.
        1   -1    0    0  501    0  0.00000000000E+00  0.00000000000E+00 -0.10683806956E+04  0.10683806956E+04  0.50400001928E-02 0. -1.
    10030    2    1    2    0    0  0.00000000000E+00  0.00000000000E+00  0.39686909260E+03  0.25336304839E+04  0.25023545616E+04 0.  0.
        5    1    3    3  502    0  0.71863714785E+03 -0.92453216345E+03 -0.24778155377E+03  0.11969197383E+04  0.46999998093E+01 0. -1.
       -5    1    3    3    0  502 -0.71863714785E+03  0.92453216345E+03  0.64465064637E+03  0.13367107456E+04  0.46999998093E+01 0.  1.
</event>
<event>
 5   0  0.3581449E-05  0.2325846E+04  0.7818609E-02  0.8467800E-01
        2   -1    0    0  501    0  0.00000000000E+00  0.00000000000E+00  0.34412572614E+04  0.34412572614E+04  0.25500000920E-02 0.  1.
       -2   -1    0    0    0  501  0.00000000000E+00  0.00000000000E+00 -0.39299295293E+03  0.39299295294E+03  0.25500000920E-02 0. -1.
    10030    2    1    2    0    0  0.00000000000E+00  0.00000000000E+00  0.30482643085E+04  0.38342502143E+04  0.23258459562E+04 0.  0.
        1    1    3    3  502    0 -0.10426256676E+04  0.92634393281E+02  0.23594401589E+04  0.25812026803E+04  0.50400001928E-02 0.  1.
       -1    1    3    3    0  502  0.10426256676E+04 -0.92634393281E+02  0.68882414962E+03  0.12530475341E+04  0.50400001928E-02 0. -1.
</event>
<event>
 5   0  0.1492639E-05  0.2360745E+04  0.7818609E-02  0.8454348E-01
       -1   -1    0    0    0  501  0.00000000000E+00  0.00000000000E+00  0.81524298995E+03  0.81524298997E+03  0.50400001928E-02 0.  1.
        1   -1    0    0  501    0  0.00000000000E+00  0.00000000000E+00 -0.17090360299E+04  0.17090360299E+04  0.50400001928E-02 0. -1.
    10030    2    1    2    0    0  0.00000000000E+00  0.00000000000E+00 -0.89379303992E+03  0.25242790198E+04  0.23607453424E+04 0.  0.
        5    1    3    3  502    0 -0.60175591613E+03 -0.41032835990E+03 -0.14400988948E+04  0.16138111607E+04  0.46999998093E+01 0. -1.
       -5    1    3    3    0  502  0.60175591613E+03  0.41032835990E+03  0.54630585487E+03  0.91046785918E+03  0.46999998093E+01 0.  1.
</event>
<event>
 5   0  0.3581449E-05  0.2473223E+04  0.7818609E-02  0.8412588E-01
       -2   -1    0    0    0  501  0.00000000000E+00  0.00000000000E+00  0.11614797755E+04  0.11614797755E+04  0.25500000920E-02 0.  1.
        2   -1    0    0  501    0  0.00000000000E+00  0.00000000000E+00 -0.13166030119E+04  0.13166030119E+04  0.25500000920E-02 0. -1.
    10030    2    1    2    0    0  0.00000000000E+00  0.00000000000E+00 -0.15512323643E+03  0.24780827874E+04  0.24732228130E+04 0.  0.
        1    1    3    3  502    0 -0.11703321870E+04  0.39813682229E+03 -0.45602021027E+02  0.12370407841E+04  0.50400001928E-02 0.  1.
       -1    1    3    3    0  502  0.11703321870E+04 -0.39813682229E+03 -0.10952121540E+03  0.12410420033E+04  0.50400001928E-02 0. -1.
</event>
<event>
 5   0  0.3650620E-05  0.2477806E+04  0.7818609E-02  0.8410935E-01
        2   -1    0    0  501    0  0.00000000000E+00  0.00000000000E+00  0.13806634057E+04  0.13806634057E+04  0.25500000920E-02 0.  1.
       -2   -1    0    0    0  501  0.00000000000E+00  0.00000000000E+00 -0.11116974875E+04  0.11116974875E+04  0.25500000920E-02 0. -1.
    10030    2    1    2    0    0  0.00000000000E+00  0.00000000000E+00  0.26896591815E+03  0.24923608932E+04  0.24778055123E+04 0.  0.
        3    1    3    3  502    0 -0.98116884889E+02 -0.27329223591E+03 -0.10769858296E+04  0.11154434350E+04  0.10100000352E+00 0. -1.
       -3    1    3    3    0  502  0.98116884889E+02  0.27329223591E+03  0.13459517477E+04  0.13769174582E+04  0.10100000352E+00 0.  1.
</event>
<event>
 5   0  0.3704241E-05  0.2553038E+04  0.7818609E-02  0.8384330E-01
        2   -1    0    0  501    0  0.00000000000E+00  0.00000000000E+00  0.12693603637E+04  0.12693603637E+04  0.25500000920E-02 0.  1.
       -2   -1    0    0    0  501  0.00000000000E+00  0.00000000000E+00 -0.12837182422E+04  0.12837182422E+04  0.25500000920E-02 0. -1.
    10030    2    1    2    0    0  0.00000000000E+00  0.00000000000E+00 -0.14357878503E+02  0.25530786059E+04  0.25530382330E+04 0.  0.
        2    1    3    3  502    0  0.11560132262E+04  0.39841911341E+03 -0.37378627209E+03  0.12786010113E+04  0.25500000920E-02 0.  1.
       -2    1    3    3    0  502 -0.11560132262E+04 -0.39841911341E+03  0.35942839358E+03  0.12744775946E+04  0.25500000920E-02 0. -1.
</event>
<event>
 5   0  0.1502886E-05  0.2528663E+04  0.7818609E-02  0.8392845E-01
       -1   -1    0    0    0  501  0.00000000000E+00  0.00000000000E+00  0.15859651288E+04  0.15859651288E+04  0.50400001928E-02 0.  1.
        1   -1    0    0  501    0  0.00000000000E+00  0.00000000000E+00 -0.10079253642E+04  0.10079253642E+04  0.50400001928E-02 0. -1.
    10030    2    1    2    0    0  0.00000000000E+00  0.00000000000E+00  0.57803976456E+03  0.25938904930E+04  0.25286632675E+04 0.  0.
        4    1    3    3  502    0 -0.14115809117E+03  0.26190129647E+03  0.15495443039E+04  0.15778488705E+04  0.12699999809E+01 0.  1.
       -4    1    3    3    0  502  0.14115809117E+03 -0.26190129647E+03 -0.97150453929E+03  0.10160416225E+04  0.12699999809E+01 0. -1.
</event>
<event>
 5   0  0.3579097E-05  0.2511262E+04  0.7818609E-02  0.8398984E-01
       -2   -1    0    0    0  501  0.00000000000E+00  0.00000000000E+00  0.11241315495E+04  0.11241315495E+04  0.25500000920E-02 0. -1.
        2   -1    0    0  501    0  0.00000000000E+00  0.00000000000E+00 -0.14025129572E+04  0.14025129572E+04  0.25500000920E-02 0.  1.
    10030    2    1    2    0    0  0.00000000000E+00  0.00000000000E+00 -0.27838140769E+03  0.25266445067E+04  0.25112618850E+04 0.  0.
        5    1    3    3  502    0  0.55925529566E+03  0.11175627829E+04 -0.16484993962E+02  0.12498027463E+04  0.46999998093E+01 0.  1.
       -5    1    3    3    0  502 -0.55925529566E+03 -0.11175627829E+04 -0.26189641373E+03  0.12768417604E+04  0.46999998093E+01 0. -1.
</event>
<event>
 5   0  0.3579097E-05  0.2524559E+04  0.7818609E-02  0.8394288E-01
       -2   -1    0    0    0  501  0.00000000000E+00  0.00000000000E+00  0.74853983961E+03  0.74853983962E+03  0.25500000920E-02 0.  1.
        2   -1    0    0  501    0  0.00000000000E+00  0.00000000000E+00 -0.21286099627E+04  0.21286099627E+04  0.25500000920E-02 0. -1.
    10030    2    1    2    0    0  0.00000000000E+00  0.00000000000E+00 -0.13800701231E+04  0.28771498023E+04  0.25245588605E+04 0.  0.
        5    1    3    3  502    0  0.62422077650E+03 -0.33318660402E+03  0.50126172128E+03  0.86715067557E+03  0.46999998093E+01 0.  1.
       -5    1    3    3    0  502 -0.62422077650E+03  0.33318660402E+03 -0.18813318444E+04  0.20099991268E+04  0.46999998093E+01 0. -1.
</event>
<event>
 5   0  0.3581449E-05  0.2500436E+04  0.7818609E-02  0.8402830E-01
       -2   -1    0    0    0  501  0.00000000000E+00  0.00000000000E+00  0.11078764883E+04  0.11078764883E+04  0.25500000920E-02 0. -1.
        2   -1    0    0  501    0  0.00000000000E+00  0.00000000000E+00 -0.14108479131E+04  0.14108479131E+04  0.25500000920E-02 0.  1.
    10030    2    1    2    0    0  0.00000000000E+00  0.00000000000E+00 -0.30297142485E+03  0.25187244014E+04  0.25004361471E+04 0.  0.
        1    1    3    3  502    0 -0.42963825164E+03  0.10790768695E+04  0.31455279325E+03  0.12033035267E+04  0.50400001928E-02 0. -1.
       -1    1    3    3    0  502  0.42963825164E+03 -0.10790768695E+04 -0.61752421810E+03  0.13154208747E+04  0.50400001928E-02 0.  1.
</event>
<event>
 5   0  0.3578670E-05  0.2517406E+04  0.7818609E-02  0.8396811E-01
       -2   -1    0    0    0  501  0.00000000000E+00  0.00000000000E+00  0.77783783385E+03  0.77783783385E+03  0.25500000920E-02 0.  1.
        2   -1    0    0  501    0  0.00000000000E+00  0.00000000000E+00 -0.20368422259E+04  0.20368422259E+04  0.25500000920E-02 0. -1.
    10030    2    1    2    0    0  0.00000000000E+00  0.00000000000E+00 -0.12590043920E+04  0.28146800597E+04  0.25174057638E+04 0.  0.
        4    1    3    3  502    0  0.33652318065E+03  0.10823889077E+04 -0.12414115392E+04  0.16810466446E+04  0.12699999809E+01 0. -1.
       -4    1    3    3    0  502 -0.33652318065E+03 -0.10823889077E+04 -0.17592852794E+02  0.11336334152E+04  0.12699999809E+01 0.  1.
</event>
<event>
 5   0  0.1502886E-05  0.2529916E+04  0.7818609E-02  0.8392405E-01
        1   -1    0    0  501    0  0.00000000000E+00  0.00000000000E+00  0.22272598757E+04  0.22272598757E+04  0.50400001928E-02 0.  1.
       -1   -1    0    0    0  501  0.00000000000E+00  0.00000000000E+00 -0.71842462227E+03  0.71842462229E+03  0.50400001928E-02 0. -1.
    10030    2    1    2    0    0  0.00000000000E+00  0.00000000000E+00  0.15088352534E+04  0.29456844980E+04  0.25299156784E+04 0.  0.
        4    1    3    3  502    0 -0.10437110088E+03 -0.13023431903E+03 -0.70554823044E+03  0.72502015346E+03  0.12699999809E+01 0. -1.
       -4    1    3    3    0  502  0.10437110088E+03  0.13023431903E+03  0.22143834839E+04  0.22206643445E+04  0.12699999809E+01 0.  1.
</event>
<event>
 5   0  0.1429483E-05  0.2484134E+04  0.7818609E-02  0.8408660E-01
        1   -1    0    0  501    0  0.00000000000E+00  0.00000000000E+00  0.15765601028E+04  0.15765601028E+04  0.50400001928E-02 0.  1.
       -1   -1    0    0    0  501  0.00000000000E+00  0.00000000000E+00 -0.97854196993E+03  0.97854196995E+03  0.50400001928E-02 0. -1.
    10030    2    1    2    0    0  0.00000000000E+00  0.00000000000E+00  0.59801813286E+03  0.25551020727E+04  0.24841338360E+04 0.  0.
        2    1    3    3  502    0  0.51067345547E+03 -0.75298327530E+03 -0.57069969297E+03  0.10739968950E+04  0.25500000920E-02 0. -1.
       -2    1    3    3    0  502 -0.51067345547E+03  0.75298327530E+03  0.11687178258E+04  0.14811051777E+04  0.25500000920E-02 0.  1.
</event>
<event>
 5   0  0.3579097E-05  0.2474969E+04  0.7818609E-02  0.8411957E-01
        2   -1    0    0  501    0  0.00000000000E+00  0.00000000000E+00  0.12148890321E+04  0.12148890321E+04  0.25500000920E-02 0.  1.
       -2   -1    0    0    0  501  0.00000000000E+00  0.00000000000E+00 -0.12605004770E+04  0.12605004770E+04  0.25500000920E-02 0. -1.
    10030    2    1    2    0    0  0.00000000000E+00  0.00000000000E+00 -0.45611444851E+02  0.24753895091E+04  0.24749692560E+04 0.  0.
        5    1    3    3  502    0  0.70348419366E+03  0.94489908868E+03 -0.40184476331E+03  0.12446789153E+04  0.46999998093E+01 0. -1.
       -5    1    3    3    0  502 -0.70348419366E+03 -0.94489908868E+03  0.35623331846E+03  0.12307105938E+04  0.46999998093E+01 0.  1.
</event>
<event>
 5   0  0.3650620E-05  0.2650959E+04  0.7818609E-02  0.8351095E-01
        2   -1    0    0  501    0  0.00000000000E+00  0.00000000000E+00  0.10768043753E+04  0.10768043753E+04  0.25500000920E-02 0.  1.
       -2   -1    0    0    0  501  0.00000000000E+00  0.00000000000E+00 -0.16315829862E+04  0.16315829862E+04  0.25500000920E-02 0. -1.
    10030    2    1    2    0    0  0.00000000000E+00  0.00000000000E+00 -0.55477861090E+03  0.27083873616E+04  0.26509588441E+04 0.  0.
        3    1    3    3  502    0 -0.32342867941E+03  0.24930934311E+03  0.10109335562E+04  0.10902971726E+04  0.10100000352E+00 0.  1.
       -3    1    3    3    0  502  0.32342867941E+03 -0.24930934311E+03 -0.15657121671E+04  0.16180901890E+04  0.10100000352E+00 0. -1.
</event>
<event>
 5   0  0.1429483E-05  0.2541151E+04  0.7818609E-02  0.8388470E-01
       -1   -1    0    0    0  501  0.00000000000E+00  0.00000000000E+00  0.62068524264E+03  0.62068524266E+03  0.50400001928E-02 0.  1.
        1   -1    0    0  501    0  0.00000000000E+00  0.00000000000E+00 -0.26009354734E+04  0.26009354734E+04  0.50400001928E-02 0. -1.
    10030    2    1    2    0    0  0.00000000000E+00  0.00000000000E+00 -0.19802502308E+04  0.32216207161E+04  0.25411511293E+04 0.  0.
        2    1    3    3  502    0  0.40615677444E+03  0.51594280210E+03 -0.23691539779E+04  0.24584651455E+04  0.25500000920E-02 0. -1.
       -2    1    3    3    0  502 -0.40615677444E+03 -0.51594280210E+03  0.38890374712E+03  0.76315557063E+03  0.25500000920E-02 0.  1.
</event>
<event>
 5   0  0.3578670E-05  0.2551521E+04  0.7818609E-02  0.8384857E-01
       -2   -1    0    0    0  501  0.00000000000E+00  0.00000000000E+00  0.13763754744E+04  0.13763754744E+04  0.25500000920E-02 0.  1.
        2   -1    0    0  501    0  0.00000000000E+00  0.00000000000E+00 -0.11825006132E+04  0.11825006132E+04  0.25500000920E-02 0. -1.
    10030    2    1    2    0    0  0.00000000000E+00  0.00000000000E+00  0.19387486123E+03  0.25588760876E+04  0.25515209915E+04 0.  0.
        4    1    3    3  502    0 -0.10615423690E+04  0.25692058449E+03  0.75814278079E+03  0.13295346843E+04  0.12699999809E+01 0. -1.
       -4    1    3    3    0  502  0.10615423690E+04 -0.25692058449E+03 -0.56426791956E+03  0.12293414033E+04  0.12699999809E+01 0.  1.
</event>
<event>
 5   0  0.1502886E-05  0.2485897E+04  0.7818609E-02  0.8408027E-01
       -1   -1    0    0    0  501  0.00000000000E+00  0.00000000000E+00  0.66198196926E+03  0.66198196928E+03  0.50400001928E-02 0. -1.
        1   -1    0    0  501    0  0.00000000000E+00  0.00000000000E+00 -0.23337804652E+04  0.23337804652E+04  0.50400001928E-02 0.  1.
    10030    2    1    2    0    0  0.00000000000E+00  0.00000000000E+00 -0.16717984959E+04  0.29957624345E+04  0.24858966899E+04 0.  0.
        4    1    3    3  502    0 -0.12079433634E+04 -0.27612581312E+03 -0.95364433018E+03  0.15635893819E+04  0.12699999809E+01 0.  1.
       -4    1    3    3    0  502  0.12079433634E+04  0.27612581312E+03 -0.71815416573E+03  0.14321730526E+04  0.12699999809E+01 0. -1.
</event>
<event>
 5   0  0.1421242E-05  0.2449211E+04  0.7818609E-02  0.8421306E-01
        1   -1    0    0  501    0  0.00000000000E+00  0.00000000000E+00  0.14734319243E+04  0.14734319243E+04  0.50400001928E-02 0. -1.
       -1   -1    0    0    0  501  0.00000000000E+00  0.00000000000E+00 -0.10177995476E+04  0.10177995476E+04  0.50400001928E-02 0.  1.
    10030    2    1    2    0    0  0.00000000000E+00  0.00000000000E+00  0.45563237665E+03  0.24912314719E+04  0.24492107676E+04 0.  0.
        3    1    3    3  502    0  0.47928023170E+01  0.11498321522E+04 -0.20074541917E+03  0.11672342022E+04  0.10100000352E+00 0.  1.
       -3    1    3    3    0  502 -0.47928023170E+01 -0.11498321522E+04  0.65637779581E+03  0.13239972697E+04  0.10100000352E+00 0. -1.
</event>
<event>
 5   0  0.3650620E-05  0.2506810E+04  0.7818609E-02  0.8400564E-01
       -2   -1    0    0    0  501  0.00000000000E+00  0.00000000000E+00  0.68068130412E+03  0.68068130412E+03  0.25500000920E-02 0.  1.
        2   -1    0    0  501    0  0.00000000000E+00  0.00000000000E+00 -0.23080163241E+04  0.23080163241E+04  0.25500000920E-02 0. -1.
    10030    2    1    2    0    0  0.00000000000E+00  0.00000000000E+00 -0.16273350200E+04  0.29886976283E+04  0.25068095751E+04 0.  0.
        3    1    3    3  502    0 -0.90096754230E+03 -0.87085424991E+03 -0.77802169097E+03  0.14749397949E+04  0.10100000352E+00 0.  1.
       -3    1    3    3    0  502  0.90096754230E+03  0.87085424991E+03 -0.84931332906E+03  0.15137578333E+04  0.10100000352E+00 0. -1.
</event>
<event>
 5   0  0.1429483E-05  0.2569094E+04  0.7818609E-02  0.8378776E-01
       -1   -1    0    0    0  501  0.00000000000E+00  0.00000000000E+00  0.10969246535E+04  0.10969246535E+04  0.50400001928E-02 0. -1.
        1   -1    0    0  501    0  0.00000000000E+00  0.00000000000E+00 -0.15042611185E+04  0.15042611185E+04  0.50400001928E-02 0.  1.
    10030    2    1    2    0    0  0.00000000000E+00  0.00000000000E+00 -0.40733646500E+03  0.26011857720E+04  0.25690940863E+04 0.  0.
        2    1    3    3  502    0 -0.25816765226E+03  0.56875148901E+03 -0.13401565285E+04  0.14785629218E+04  0.25500000920E-02 0.  1.
       -2    1    3    3    0  502  0.25816765226E+03 -0.56875148901E+03  0.93282006346E+03  0.11226228502E+04  0.25500000920E-02 0. -1.
</event>
<event>
 5   0  0.3581449E-05  0.2529219E+04  0.7818609E-02  0.8392649E-01
        2   -1    0    0  501    0  0.00000000000E+00  0.00000000000E+00  0.31391326311E+04  0.31391326311E+04  0.25500000920E-02 0. -1.
       -2   -1    0    0    0  501  0.00000000000E+00  0.00000000000E+00 -0.50945195761E+03  0.50945195761E+03  0.25500000920E-02 0.  1.
    10030    2    1    2    0    0  0.00000000000E+00  0.00000000000E+00  0.26296806735E+04  0.36485845887E+04  0.25292190606E+04 0.  0.
        1    1    3    3  502    0  0.56593773651E+02  0.45147354903E+03  0.30169585963E+04  0.30510769234E+04  0.50400001928E-02 0. -1.
       -1    1    3    3    0  502 -0.56593773651E+02 -0.45147354903E+03 -0.38727792276E+03  0.59750766536E+03  0.50400001928E-02 0.  1.
</event>
<event>
 5   0  0.3650620E-05  0.2467657E+04  0.7818609E-02  0.8414599E-01
        2   -1    0    0  501    0  0.00000000000E+00  0.00000000000E+00  0.10692537471E+04  0.10692537471E+04  0.25500000920E-02 0.  1.
       -2   -1    0    0    0  501  0.00000000000E+00  0.00000000000E+00 -0.14237341351E+04  0.14237341351E+04  0.25500000920E-02 0. -1.
    10030    2    1    2    0    0  0.00000000000E+00  0.00000000000E+00 -0.35448038803E+03  0.24929878822E+04  0.24676572362E+04 0.  0.
        3    1    3    3  502    0  0.40303108007E+03  0.10453806029E+04 -0.69934141542E+03  0.13207320250E+04  0.10100000352E+00 0. -1.
       -3    1    3    3    0  502 -0.40303108007E+03 -0.10453806029E+04  0.34486102739E+03  0.11722558572E+04  0.10100000352E+00 0.  1.
</event>
<event>
 5   0  0.1421242E-05  0.2490473E+04  0.7818609E-02  0.8406387E-01
        1   -1    0    0  501    0  0.00000000000E+00  0.00000000000E+00  0.20947630223E+04  0.20947630224E+04  0.50400001928E-02 0.  1.
       -1   -1    0    0    0  501  0.00000000000E+00  0.00000000000E+00 -0.74023362973E+03  0.74023362974E+03  0.50400001928E-02 0. -1.
    10030    2    1    2    0    0  0.00000000000E+00  0.00000000000E+00  0.13545293926E+04  0.28349966521E+04  0.24904730759E+04 0.  0.
        3    1    3    3  502    0  0.49360510568E+03  0.21608347088E+03  0.19551842786E+04  0.20280738745E+04  0.10100000352E+00 0.  1.
       -3    1    3    3    0  502 -0.49360510568E+03 -0.21608347088E+03 -0.60065488601E+03  0.80692277761E+03  0.10100000352E+00 0. -1.
</event>
<event>
 5   0  0.1456876E-05  0.2521407E+04  0.7818609E-02  0.8395399E-01
       -1   -1    0    0    0  501  0.00000000000E+00  0.00000000000E+00  0.13143842099E+04  0.13143842099E+04  0.50400001928E-02 0.  1.
        1   -1    0    0  501    0  0.00000000000E+00  0.00000000000E+00 -0.12092148325E+04  0.12092148325E+04  0.50400001928E-02 0. -1.
    10030    2    1    2    0    0  0.00000000000E+00  0.00000000000E+00  0.10516937733E+03  0.25235990424E+04  0.25214066568E+04 0.  0.
        1    1    3    3  502    0  0.28011910289E+03  0.43551230441E+03  0.12030341024E+04  0.13097437653E+04  0.50400001928E-02 0.  1.
       -1    1    3    3    0  502 -0.28011910289E+03 -0.43551230441E+03 -0.10978647251E+04  0.12138552771E+04  0.50400001928E-02 0. -1.
</event>
<event>
 5   0  0.3581449E-05  0.2480171E+04  0.7818609E-02  0.8410084E-01
        2   -1    0    0  501    0  0.00000000000E+00  0.00000000000E+00  0.10592335288E+04  0.10592335288E+04  0.25500000920E-02 0.  1.
       -2   -1    0    0    0  501  0.00000000000E+00  0.00000000000E+00 -0.14518160899E+04  0.14518160899E+04  0.25500000920E-02 0. -1.
    10030    2    1    2    0    0  0.00000000000E+00  0.00000000000E+00 -0.39258256110E+03  0.25110496187E+04  0.24801711877E+04 0.  0.
        1    1    3    3  502    0  0.31988365427E+03 -0.23485143726E+03 -0.13857937303E+04  0.14414940211E+04  0.50400001928E-02 0. -1.
       -1    1    3    3    0  502 -0.31988365427E+03  0.23485143726E+03  0.99321116917E+03  0.10695555976E+04  0.50400001928E-02 0.  1.
</event>
<event>
 5   0  0.1429483E-05  0.2485489E+04  0.7818609E-02  0.8408173E-01
       -1   -1    0    0    0  501  0.00000000000E+00  0.00000000000E+00  0.25053302249E+04  0.25053302250E+04  0.50400001928E-02 0.  1.
        1   -1    0    0  501    0  0.00000000000E+00  0.00000000000E+00 -0.61645145483E+03  0.61645145485E+03  0.50400001928E-02 0. -1.
    10030    2    1    2    0    0  0.00000000000E+00  0.00000000000E+00  0.18888787701E+04  0.31217816798E+04  0.24854894585E+04 0.  0.
        2    1    3    3  502    0  0.30882600429E+03  0.10345692599E+04  0.17150522381E+03  0.10932159422E+04  0.25500000920E-02 0. -1.
       -2    1    3    3    0  502 -0.30882600429E+03 -0.10345692599E+04  0.17173735463E+04  0.20285657376E+04  0.25500000920E-02 0.  1.
</event>
<event>
 5   0  0.1456876E-05  0.2523204E+04  0.7818609E-02  0.8394765E-01
       -1   -1    0    0    0  501  0.00000000000E+00  0.00000000000E+00  0.11975876452E+04  0.11975876452E+04  0.50400001928E-02 0. -1.
        1   -1    0    0  501    0  0.00000000000E+00  0.00000000000E+00 -0.13290382313E+04  0.13290382313E+04  0.50400001928E-02 0.  1.
    10030    2    1    2    0    0  0.00000000000E+00  0.00000000000E+00 -0.13145058604E+03  0.25266258765E+04  0.25232041264E+04 0.  0.
        1    1    3    3  502    0  0.23506734767E+03 -0.12087435420E+04 -0.34054630148E+03  0.12776108139E+04  0.50400001928E-02 0.  1.
       -1    1    3    3    0  502 -0.23506734767E+03  0.12087435420E+04  0.20909571544E+03  0.12490150626E+04  0.50400001928E-02 0. -1.
</event>
<event>
 5   0  0.3650620E-05  0.2490799E+04  0.7818609E-02  0.8406271E-01
       -2   -1    0    0    0  501  0.00000000000E+00  0.00000000000E+00  0.11688815119E+04  0.11688815119E+04  0.25500000920E-02 0.  1.
        2   -1    0    0  501    0  0.00000000000E+00  0.00000000000E+00 -0.13269268244E+04  0.13269268244E+04  0.25500000920E-02 0. -1.
    10030    2    1    2    0    0  0.00000000000E+00  0.00000000000E+00 -0.15804531242E+03  0.24958083363E+04  0.24907992554E+04 0.  0.
        3    1    3    3  502    0 -0.82726595821E+03  0.89936917531E+03  0.16184867383E+03  0.12326511601E+04  0.10100000352E+00 0.  1.
       -3    1    3    3    0  502  0.82726595821E+03 -0.89936917531E+03 -0.31989398625E+03  0.12631571762E+04  0.10100000352E+00 0. -1.
</event>
<event>
 5   0  0.1502886E-05  0.2515575E+04  0.7818609E-02  0.8397458E-01
        1   -1    0    0  501    0  0.00000000000E+00  0.00000000000E+00  0.17253768990E+04  0.17253768990E+04  0.50400001928E-02 0.  1.
       -1   -1    0    0    0  501  0.00000000000E+00  0.00000000000E+00 -0.91691831779E+03  0.91691831780E+03  0.50400001928E-02 0. -1.
    10030    2    1    2    0    0  0.00000000000E+00  0.00000000000E+00  0.80845858118E+03  0.26422952168E+04  0.25155752295E+04 0.  0.
        4    1    3    3  502    0  0.28306954851E+03  0.20749908536E+03 -0.86444000912E+03  0.93297501680E+03  0.12699999809E+01 0. -1.
       -4    1    3    3    0  502 -0.28306954851E+03 -0.20749908536E+03  0.16728985903E+04  0.17093202000E+04  0.12699999809E+01 0.  1.
</event>
<event>
 5   0  0.1456876E-05  0.2450077E+04  0.7818609E-02  0.8420990E-01
        1   -1    0    0  501    0  0.00000000000E+00  0.00000000000E+00  0.12897970717E+04  0.12897970717E+04  0.50400001928E-02 0.  1.
       -1   -1    0    0    0  501  0.00000000000E+00  0.00000000000E+00 -0.11635317249E+04  0.11635317249E+04  0.50400001928E-02 0. -1.
    10030    2    1    2    0    0  0.00000000000E+00  0.00000000000E+00  0.12626534685E+03  0.24533287966E+04  0.24500773960E+04 0.  0.
        1    1    3    3  502    0 -0.29303073244E+03 -0.68505304745E+03  0.10368196900E+04  0.12767770978E+04  0.50400001928E-02 0.  1.
       -1    1    3    3    0  502  0.29303073244E+03  0.68505304745E+03 -0.91055434315E+03  0.11765516988E+04  0.50400001928E-02 0. -1.
</event>
<event>
 5   0  0.1456876E-05  0.2486044E+04  0.7818609E-02  0.8407974E-01
       -1   -1    0    0    0  501  0.00000000000E+00  0.00000000000E+00  0.74404052658E+03  0.74404052660E+03  0.50400001928E-02 0. -1.
        1   -1    0    0  501    0  0.00000000000E+00  0.00000000000E+00 -0.20766391566E+04  0.20766391566E+04  0.50400001928E-02 0.  1.
    10030    2    1    2    0    0  0.00000000000E+00  0.00000000000E+00 -0.13325986300E+04  0.28206796832E+04  0.24860439993E+04 0.  0.
        1    1    3    3  502    0  0.40735973944E+03 -0.10156946935E+04  0.25659228934E+01  0.10943419263E+04  0.50400001928E-02 0. -1.
       -1    1    3    3    0  502 -0.40735973944E+03  0.10156946935E+04 -0.13351645529E+04  0.17263377569E+04  0.50400001928E-02 0.  1.
</event>
<event>
 5   0  0.3704241E-05  0.2490766E+04  0.7818609E-02  0.8406283E-01
        2   -1    0    0  501    0  0.00000000000E+00  0.00000000000E+00  0.12930859230E+04  0.12930859230E+04  0.25500000920E-02 0.  1.
       -2   -1    0    0    0  501  0.00000000000E+00  0.00000000000E+00 -0.11994397946E+04  0.11994397946E+04  0.25500000920E-02 0. -1.
    10030    2    1    2    0    0  0.00000000000E+00  0.00000000000E+00  0.93646128332E+02  0.24925257176E+04  0.24907659175E+04 0.  0.
        2    1    3    3  502    0  0.88044706999E+03  0.29250886035E+03  0.87821101114E+03  0.12774987501E+04  0.25500000920E-02 0.  1.
       -2    1    3    3    0  502 -0.88044706999E+03 -0.29250886035E+03 -0.78456488281E+03  0.12150269675E+04  0.25500000920E-02 0. -1.
</event>
<event>
 5   0  0.3578670E-05  0.2449586E+04  0.7818609E-02  0.8421169E-01
       -2   -1    0    0    0  501  0.00000000000E+00  0.00000000000E+00  0.20398340363E+04  0.20398340363E+04  0.25500000920E-02 0. -1.
        2   -1    0    0  501    0  0.00000000000E+00  0.00000000000E+00 -0.73541173356E+03  0.73541173356E+03  0.25500000920E-02 0.  1.
    10030    2    1    2    0    0  0.00000000000E+00  0.00000000000E+00  0.13044223027E+04  0.27752457698E+04  0.24495859934E+04 0.  0.
        4    1    3    3  502    0  0.59686470728E+03  0.73864707994E+03  0.15285198293E+04  0.17995058958E+04  0.12699999809E+01 0. -1.
       -4    1    3    3    0  502 -0.59686470728E+03 -0.73864707994E+03 -0.22409752659E+03  0.97573987405E+03  0.12699999809E+01 0.  1.
</event>
<event>
 5   0  0.3650620E-05  0.2536175E+04  0.7818609E-02  0.8390210E-01
       -2   -1    0    0    0  501  0.00000000000E+00  0.00000000000E+00  0.58336093344E+03  0.58336093344E+03  0.25500000920E-02 0. -1.
        2   -1    0    0  501    0  0.00000000000E+00  0.00000000000E+00 -0.27565188565E+04  0.27565188565E+04  0.25500000920E-02 0.  1.
    10030    2    1    2    0    0  0.00000000000E+00  0.00000000000E+00 -0.21731579231E+04  0.33398797900E+04  0.25361746101E+04 0.  0.
        3    1    3    3  502    0  0.82165674738E+02 -0.22152127063E+03 -0.27272770684E+04  0.27374921168E+04  0.10100000352E+00 0.  1.
       -3    1    3    3    0  502 -0.82165674738E+02  0.22152127063E+03  0.55411914529E+03  0.60238767320E+03  0.10100000352E+00 0. -1.
</event>
<event>
 5   0  0.1421242E-05  0.2492679E+04  0.7818609E-02  0.8405598E-01
        1   -1    0    0  501    0  0.00000000000E+00  0.00000000000E+00  0.87918651653E+03  0.87918651655E+03  0.50400001928E-02 0.  1.
       -1   -1    0    0    0  501  0.00000000000E+00  0.00000000000E+00 -0.17668169916E+04  0.17668169916E+04  0.50400001928E-02 0. -1.
    10030    2    1    2    0    0  0.00000000000E+00  0.00000000000E+00 -0.88763047510E+03  0.26460035082E+04  0.24926786205E+04 0.  0.
        3    1    3    3  502    0  0.63279640986E+03  0.84616165682E+02  0.69243226104E+03  0.94183525001E+03  0.10100000352E+00 0.  1.
       -3    1    3    3    0  502 -0.63279640986E+03 -0.84616165682E+02 -0.15800627361E+04  0.17041682582E+04  0.10100000352E+00 0. -1.
</event>
<event>
 5   0  0.3579097E-05  0.2504608E+04  0.7818609E-02  0.8401346E-01
       -2   -1    0    0    0  501  0.00000000000E+00  0.00000000000E+00  0.11390980483E+04  0.11390980483E+04  0.25500000920E-02 0. -1.
        2   -1    0    0  501    0  0.00000000000E+00  0.00000000000E+00 -0.13767600628E+04  0.13767600628E+04  0.25500000920E-02 0.  1.
    10030    2    1    2    0    0  0.00000000000E+00  0.00000000000E+00 -0.23766201456E+03  0.25158581111E+04  0.25046075146E+04 0.  0.
        5    1    3    3  502    0 -0.11838674357E+04 -0.37192448351E+03  0.50367556967E+02  0.12419456138E+04  0.46999998093E+01 0. -1.
       -5    1    3    3    0  502  0.11838674357E+04  0.37192448351E+03 -0.28802957153E+03  0.12739124973E+04  0.46999998093E+01 0.  1.
</event>
<event>
 5   0  0.3704241E-05  0.2429414E+04  0.7818609E-02  0.8428573E-01
        2   -1    0    0  501    0  0.00000000000E+00  0.00000000000E+00  0.13785039327E+04  0.13785039327E+04  0.25500000920E-02 0.  1.
       -2   -1    0    0    0  501  0.00000000000E+00  0.00000000000E+00 -0.10703729894E+04  0.10703729894E+04  0.25500000920E-02 0. -1.
    10030    2    1    2    0    0  0.00000000000E+00  0.00000000000E+00  0.30813094327E+03  0.24488769220E+04  0.24294142300E+04 0.  0.
        2    1    3    3  502    0 -0.32645637771E+02 -0.87686158884E+03  0.10007717724E+04  0.13309756286E+04  0.25500000920E-02 0.  1.
       -2    1    3    3    0  502  0.32645637771E+02  0.87686158884E+03 -0.69264082910E+03  0.11179012934E+04  0.25500000920E-02 0. -1.
</event>
<event>
 5   0  0.1421242E-05  0.2539124E+04  0.7818609E-02  0.8389178E-01
        1   -1    0    0  501    0  0.00000000000E+00  0.00000000000E+00  0.15387295307E+04  0.15387295307E+04  0.50400001928E-02 0.  1.
       -1   -1    0    0    0  501  0.00000000000E+00  0.00000000000E+00 -0.10474797879E+04  0.10474797880E+04  0.50400001928E-02 0. -1.
    10030    2    1    2    0    0  0.00000000000E+00  0.00000000000E+00  0.49124974271E+03  0.25862093186E+04  0.25391243235E+04 0.  0.
        3    1    3    3  502    0 -0.61690642601E+03  0.11049755169E+04  0.34871257778E+03  0.13126861405E+04  0.10100000352E+00 0.  1.
       -3    1    3    3    0  502  0.61690642601E+03 -0.11049755169E+04  0.14253716493E+03  0.12735231781E+04  0.10100000352E+00 0. -1.
</event>
<event>
 5   0  0.3579097E-05  0.2482887E+04  0.7818609E-02  0.8409108E-01
        2   -1    0    0  501    0  0.00000000000E+00  0.00000000000E+00  0.16467134363E+04  0.16467134363E+04  0.25500000920E-02 0. -1.
       -2   -1    0    0    0  501  0.00000000000E+00  0.00000000000E+00 -0.93591403135E+03  0.93591403136E+03  0.25500000920E-02 0.  1.
    10030    2    1    2    0    0  0.00000000000E+00  0.00000000000E+00  0.71079940490E+03  0.25826274676E+04  0.24828871989E+04 0.  0.
        5    1    3    3  502    0 -0.82734117084E+03 -0.13036486410E+03 -0.59774653294E+03  0.10289856259E+04  0.46999998093E+01 0.  1.
       -5    1    3    3    0  502  0.82734117084E+03  0.13036486410E+03  0.13085459378E+04  0.15536418417E+04  0.46999998093E+01 0. -1.
</event>
<event>
 5   0  0.1201438E-05  0.2484821E+04  0.7818609E-02  0.8408413E-01
       -3   -1    0    0    0  501  0.00000000000E+00  0.00000000000E+00  0.22581861294E+04  0.22581861316E+04  0.10100000352E+00 0. -1.
        3   -1    0    0  501    0  0.00000000000E+00  0.00000000000E+00 -0.68355019692E+03  0.68355020438E+03  0.10100000352E+00 0.  1.
    10030    2    1    2    0    0  0.00000000000E+00  0.00000000000E+00  0.15746359325E+04  0.29417363360E+04  0.24848207885E+04 0.  0.
        5    1    3    3  502    0  0.99893352553E+03 -0.70223900731E+03  0.51591770359E+03  0.13255945755E+04  0.46999998093E+01 0.  1.
       -5    1    3    3    0  502 -0.99893352553E+03  0.70223900731E+03  0.10587182289E+04  0.16161417605E+04  0.46999998093E+01 0. -1.
</event>
<event>
 5   0  0.3579097E-05  0.2525787E+04  0.7818609E-02  0.8393856E-01
       -2   -1    0    0    0  501  0.00000000000E+00  0.00000000000E+00  0.20608520216E+04  0.20608520216E+04  0.25500000920E-02 0.  1.
        2   -1    0    0  501    0  0.00000000000E+00  0.00000000000E+00 -0.77390307958E+03  0.77390307959E+03  0.25500000920E-02 0. -1.
    10030    2    1    2    0    0  0.00000000000E+00  0.00000000000E+00  0.12869489420E+04  0.28347551011E+04  0.25257867891E+04 0.  0.
        5    1    3    3  502    0 -0.10986501473E+04  0.53211723169E+03  0.10066239629E+04  0.15822435929E+04  0.46999998093E+01 0. -1.
       -5    1    3    3    0  502  0.10986501473E+04 -0.53211723169E+03  0.28032497905E+03  0.12525115083E+04  0.46999998093E+01 0.  1.
</event>
<event>
 5   0  0.3581449E-05  0.2481152E+04  0.7818609E-02  0.8409731E-01
        2   -1    0    0  501    0  0.00000000000E+00  0.00000000000E+00  0.23264093653E+04  0.23264093653E+04  0.25500000920E-02 0.  1.
       -2   -1    0    0    0  501  0.00000000000E+00  0.00000000000E+00 -0.66154687571E+03  0.66154687571E+03  0.25500000920E-02 0. -1.
    10030    2    1    2    0    0  0.00000000000E+00  0.00000000000E+00  0.16648624896E+04  0.29879562410E+04  0.24811520286E+04 0.  0.
        1    1    3    3  502    0  0.66630146230E+03 -0.97791729136E+03  0.12810069581E+04  0.17439204954E+04  0.50400001928E-02 0. -1.
       -1    1    3    3    0  502 -0.66630146230E+03  0.97791729136E+03  0.38385553149E+03  0.12440357457E+04  0.50400001928E-02 0.  1.
</event>
<event>
 5   0  0.3578670E-05  0.2524721E+04  0.7818609E-02  0.8394231E-01
       -2   -1    0    0    0  501  0.00000000000E+00  0.00000000000E+00  0.60484155010E+03  0.60484155010E+03  0.25500000920E-02 0.  1.
        2   -1    0    0  501    0  0.00000000000E+00  0.00000000000E+00 -0.26346629787E+04  0.26346629787E+04  0.25500000920E-02 0. -1.
    10030    2    1    2    0    0  0.00000000000E+00  0.00000000000E+00 -0.20298214286E+04  0.32395045288E+04  0.25247206895E+04 0.  0.
        4    1    3    3  502    0  0.11121824723E+04  0.37584015586E+03 -0.41947618929E+03  0.12466625689E+04  0.12699999809E+01 0.  1.
       -4    1    3    3    0  502 -0.11121824723E+04 -0.37584015586E+03 -0.16103452393E+04  0.19928419599E+04  0.12699999809E+01 0. -1.
</event>
<event>
 5   0  0.1421242E-05  0.2493574E+04  0.7818609E-02  0.8405278E-01
        1   -1    0    0  501    0  0.00000000000E+00  0.00000000000E+00  0.90558066971E+03  0.90558066973E+03  0.50400001928E-02 0. -1.
       -1   -1    0    0    0  501  0.00000000000E+00  0.00000000000E+00 -0.17165543455E+04  0.17165543455E+04  0.50400001928E-02 0.  1.
    10030    2    1    2    0    0  0.00000000000E+00  0.00000000000E+00 -0.81097367583E+03  0.26221350153E+04  0.24935744896E+04 0.  0.
        3    1    3    3  502    0  0.20709504776E+03 -0.82748259692E+03  0.55071457802E+03  0.10153336219E+04  0.10100000352E+00 0. -1.
       -3    1    3    3    0  502 -0.20709504776E+03  0.82748259692E+03 -0.13616882538E+04  0.16068013934E+04  0.10100000352E+00 0.  1.
</event>
<event>
 5   0  0.1502886E-05  0.2670711E+04  0.7818609E-02  0.8344571E-01
        1   -1    0    0  501    0  0.00000000000E+00  0.00000000000E+00  0.24612676663E+04  0.24612676663E+04  0.50400001928E-02 0. -1.
       -1   -1    0    0    0  501  0.00000000000E+00  0.00000000000E+00 -0.72449435938E+03  0.72449435940E+03  0.50400001928E-02 0.  1.
    10030    2    1    2    0    0  0.00000000000E+00  0.00000000000E+00  0.17367733069E+04  0.31857620257E+04  0.26707111721E+04 0.  0.
        4    1    3    3  502    0 -0.55472243337E+03 -0.46006751962E+03  0.22093735155E+04  0.23239432102E+04  0.12699999809E+01 0. -1.
       -4    1    3    3    0  502  0.55472243337E+03  0.46006751962E+03 -0.47260020853E+03  0.86181881547E+03  0.12699999809E+01 0.  1.
</event>
<event>
 5   0  0.3581449E-05  0.2482913E+04  0.7818609E-02  0.8409098E-01
        2   -1    0    0  501    0  0.00000000000E+00  0.00000000000E+00  0.31466675561E+04  0.31466675561E+04  0.25500000920E-02 0.  1.
       -2   -1    0    0    0  501  0.00000000000E+00  0.00000000000E+00 -0.48979256178E+03  0.48979256178E+03  0.25500000920E-02 0. -1.
    10030    2    1    2    0    0  0.00000000000E+00  0.00000000000E+00  0.26568749943E+04  0.36364601179E+04  0.24829130983E+04 0.  0.
        1    1    3    3  502    0 -0.19985973752E+02 -0.83845010901E+03  0.26690143679E+04  0.27976839923E+04  0.50400001928E-02 0.  1.
       -1    1    3    3    0  502  0.19985973752E+02  0.83845010901E+03 -0.12139373614E+02  0.83877612559E+03  0.50400001928E-02 0. -1.
</event>
<event>
 5   0  0.1456876E-05  0.2536394E+04  0.7818609E-02  0.8390133E-01
       -1   -1    0    0    0  501  0.00000000000E+00  0.00000000000E+00  0.11297445969E+04  0.11297445969E+04  0.50400001928E-02 0. -1.
        1   -1    0    0  501    0  0.00000000000E+00  0.00000000000E+00 -0.14236173388E+04  0.14236173388E+04  0.50400001928E-02 0.  1.
    10030    2    1    2    0    0  0.00000000000E+00  0.00000000000E+00 -0.29387274186E+03  0.25533619357E+04  0.25363942884E+04 0.  0.
        1    1    3    3  502    0 -0.10422588299E+04 -0.71761898007E+03 -0.62449209295E+02  0.12669571314E+04  0.50400001928E-02 0. -1.
       -1    1    3    3    0  502  0.10422588299E+04  0.71761898007E+03 -0.23142353257E+03  0.12864048043E+04  0.50400001928E-02 0.  1.
</event>
<event>
 5   0  0.3578670E-05  0.2307363E+04  0.7818609E-02  0.8475024E-01
        2   -1    0    0  501    0  0.00000000000E+00  0.00000000000E+00  0.14234025214E+04  0.14234025214E+04  0.25500000920E-02 0. -1.
       -2   -1    0    0    0  501  0.00000000000E+00  0.00000000000E+00 -0.93507006356E+03  0.93507006356E+03  0.25500000920E-02 0.  1.
    10030    2    1    2    0    0  0.00000000000E+00  0.00000000000E+00  0.48833245782E+03  0.23584725849E+04  0.23073630717E+04 0.  0.
        4    1    3    3  502    0  0.49396101799E+03 -0.58423775466E+01  0.13098276630E+04  0.13998863313E+04  0.12699999809E+01 0. -1.
       -4    1    3    3    0  502 -0.49396101799E+03  0.58423775466E+01 -0.82149520522E+03  0.95858625369E+03  0.12699999809E+01 0.  1.
</event>
<event>
 5   0  0.3579097E-05  0.2524622E+04  0.7818609E-02  0.8394266E-01
       -2   -1    0    0    0  501  0.00000000000E+00  0.00000000000E+00  0.64752415789E+03  0.64752415790E+03  0.25500000920E-02 0.  1.
        2   -1    0    0  501    0  0.00000000000E+00  0.00000000000E+00 -0.24608017382E+04  0.24608017382E+04  0.25500000920E-02 0. -1.
    10030    2    1    2    0    0  0.00000000000E+00  0.00000000000E+00 -0.18132775803E+04  0.31083258961E+04  0.25246216138E+04 0.  0.
        5    1    3    3  502    0  0.60394678805E+03 -0.89988979050E+03 -0.10981713041E+03  0.10893278891E+04  0.46999998093E+01 0.  1.
       -5    1    3    3    0  502 -0.60394678805E+03  0.89988979050E+03 -0.17034604499E+04  0.20189980069E+04  0.46999998093E+01 0. -1.
</event>
<event>
 5   0  0.1201438E-05  0.2500128E+04  0.7818609E-02  0.8402940E-01
       -4   -1    0    0    0  501  0.00000000000E+00  0.00000000000E+00  0.11597738283E+04  0.11597745236E+04  0.12699999809E+01 0.  1.
        4   -1    0    0  501    0  0.00000000000E+00  0.00000000000E+00 -0.13473825184E+04  0.13473831169E+04  0.12699999809E+01 0. -1.
    10030    2    1    2    0    0  0.00000000000E+00  0.00000000000E+00 -0.18760869008E+03  0.25071576405E+04  0.25001284795E+04 0.  0.
        4    1    3    3  502    0 -0.15303815298E+03  0.52510795718E+03  0.10334110939E+04  0.11692301505E+04  0.12699999809E+01 0.  1.
       -4    1    3    3    0  502  0.15303815298E+03 -0.52510795718E+03 -0.12210197839E+04  0.13379274900E+04  0.12699999809E+01 0. -1.
</event>
<event>
 5   0  0.1502886E-05  0.2509862E+04  0.7818609E-02  0.8399481E-01
        1   -1    0    0  501    0  0.00000000000E+00  0.00000000000E+00  0.17241285015E+04  0.17241285015E+04  0.50400001928E-02 0.  1.
       -1   -1    0    0    0  501  0.00000000000E+00  0.00000000000E+00 -0.91341868465E+03  0.91341868466E+03  0.50400001928E-02 0. -1.
    10030    2    1    2    0    0  0.00000000000E+00  0.00000000000E+00  0.81070981682E+03  0.26375471861E+04  0.25098615006E+04 0.  0.
        4    1    3    3  502    0  0.10186647177E+04  0.72394132440E+03  0.28516543850E+03  0.12818306395E+04  0.12699999809E+01 0. -1.
       -4    1    3    3    0  502 -0.10186647177E+04 -0.72394132440E+03  0.52554437833E+03  0.13557165466E+04  0.12699999809E+01 0.  1.
</event>
<event>
 5   0  0.1502886E-05  0.2324282E+04  0.7818609E-02  0.8468408E-01
        1   -1    0    0  501    0  0.00000000000E+00  0.00000000000E+00  0.13936331355E+04  0.13936331355E+04  0.50400001928E-02 0. -1.
       -1   -1    0    0    0  501  0.00000000000E+00  0.00000000000E+00 -0.96910168035E+03  0.96910168036E+03  0.50400001928E-02 0.  1.
    10030    2    1    2    0    0  0.00000000000E+00  0.00000000000E+00  0.42453145513E+03  0.23627348158E+04  0.23242824384E+04 0.  0.
        4    1    3    3  502    0 -0.37778410605E+03 -0.10112550443E+04  0.64974936987E+03  0.12599735917E+04  0.12699999809E+01 0. -1.
       -4    1    3    3    0  502  0.37778410605E+03  0.10112550443E+04 -0.22521791474E+03  0.11027612241E+04  0.12699999809E+01 0.  1.
</event>
<event>
 5   0  0.1456876E-05  0.2481958E+04  0.7818609E-02  0.8409441E-01
       -1   -1    0    0    0  501  0.00000000000E+00  0.00000000000E+00  0.15782014319E+04  0.15782014319E+04  0.50400001928E-02 0.  1.
        1   -1    0    0  501    0  0.00000000000E+00  0.00000000000E+00 -0.97581285355E+03  0.97581285357E+03  0.50400001928E-02 0. -1.
    10030    2    1    2    0    0  0.00000000000E+00  0.00000000000E+00  0.60238857838E+03  0.25540142855E+04  0.24819582936E+04 0.  0.
        1    1    3    3  502    0  0.61393572263E+03 -0.88353561042E+03  0.93759624074E+03  0.14271086003E+04  0.50400001928E-02 0.  1.
       -1    1    3    3    0  502 -0.61393572263E+03  0.88353561042E+03 -0.33520766235E+03  0.11269056852E+04  0.50400001928E-02 0. -1.
</event>
<event>
 5   0  0.1201438E-05  0.2463529E+04  0.7818609E-02  0.8416095E-01
       -4   -1    0    0    0  501  0.00000000000E+00  0.00000000000E+00  0.10250547305E+04  0.10250555172E+04  0.12699999809E+01 0. -1.
        4   -1    0    0  501    0  0.00000000000E+00  0.00000000000E+00 -0.14801577772E+04  0.14801583220E+04  0.12699999809E+01 0.  1.
    10030    2    1    2    0    0  0.00000000000E+00  0.00000000000E+00 -0.45510304673E+03  0.25052138392E+04  0.24635295000E+04 0.  0.
        1    1    3    3  502    0  0.11889777340E+04  0.19578867479E+03 -0.48730087343E+03  0.12997935984E+04  0.50400001928E-02 0. -1.
       -1    1    3    3    0  502 -0.11889777340E+04 -0.19578867479E+03  0.32197826700E+02  0.12054202409E+04  0.50400001928E-02 0.  1.
</event>
<event>
 5   0  0.3581449E-05  0.2477974E+04  0.7818609E-02  0.8410875E-01
        2   -1    0    0  501    0  0.00000000000E+00  0.00000000000E+00  0.14443926164E+04  0.14443926164E+04  0.25500000920E-02 0. -1.
       -2   -1    0    0    0  501  0.00000000000E+00  0.00000000000E+00 -0.10627921939E+04  0.10627921939E+04  0.25500000920E-02 0.  1.
    10030    2    1    2    0    0  0.00000000000E+00  0.00000000000E+00  0.38160042250E+03  0.25071848103E+04  0.24779743321E+04 0.  0.
        1    1    3    3  502    0  0.40690422653E+03  0.44373401411E+03  0.12864401961E+04  0.14203518237E+04  0.50400001928E-02 0.  1.
       -1    1    3    3    0  502 -0.40690422653E+03 -0.44373401411E+03 -0.90483977363E+03  0.10868329866E+04  0.50400001928E-02 0. -1.
</event>
<event>
 5   0  0.3581449E-05  0.2441677E+04  0.7818609E-02  0.8424063E-01
       -2   -1    0    0    0  501  0.00000000000E+00  0.00000000000E+00  0.77824110955E+03  0.77824110955E+03  0.25500000920E-02 0. -1.
        2   -1    0    0  501    0  0.00000000000E+00  0.00000000000E+00 -0.19151475261E+04  0.19151475261E+04  0.25500000920E-02 0.  1.
    10030    2    1    2    0    0  0.00000000000E+00  0.00000000000E+00 -0.11369064165E+04  0.26933886356E+04  0.24416769120E+04 0.  0.
        1    1    3    3  502    0  0.19389968309E+03  0.49722683884E+03  0.64274475974E+03  0.83543548079E+03  0.50400001928E-02 0. -1.
       -1    1    3    3    0  502 -0.19389968309E+03 -0.49722683884E+03 -0.17796511763E+04  0.18579531549E+04  0.50400001928E-02 0.  1.
</event>
<event>
 5   0  0.3581449E-05  0.2483427E+04  0.7818609E-02  0.8408914E-01
       -2   -1    0    0    0  501  0.00000000000E+00  0.00000000000E+00  0.98283602802E+03  0.98283602802E+03  0.25500000920E-02 0. -1.
        2   -1    0    0  501    0  0.00000000000E+00  0.00000000000E+00 -0.15687787604E+04  0.15687787604E+04  0.25500000920E-02 0.  1.
    10030    2    1    2    0    0  0.00000000000E+00  0.00000000000E+00 -0.58594273235E+03  0.25516147884E+04  0.24834268950E+04 0.  0.
        1    1    3    3  502    0 -0.49471765928E+02 -0.12117761429E+04 -0.56675238295E+03  0.13386773845E+04  0.50400001928E-02 0.  1.
       -1    1    3    3    0  502  0.49471765928E+02  0.12117761429E+04 -0.19190349403E+02  0.12129374039E+04  0.50400001928E-02 0. -1.
</event>
<event>
 5   0  0.1429483E-05  0.2401341E+04  0.7818609E-02  0.8439002E-01
        1   -1    0    0  501    0  0.00000000000E+00  0.00000000000E+00  0.99379964282E+03  0.99379964283E+03  0.50400001928E-02 0.  1.
       -1   -1    0    0    0  501  0.00000000000E+00  0.00000000000E+00 -0.14506043599E+04  0.14506043599E+04  0.50400001928E-02 0. -1.
    10030    2    1    2    0    0  0.00000000000E+00  0.00000000000E+00 -0.45680471704E+03  0.24444040027E+04  0.24013413708E+04 0.  0.
        2    1    3    3  502    0 -0.55369948941E+03  0.49862964229E+03  0.72996682881E+03  0.10431041252E+04  0.25500000920E-02 0.  1.
       -2    1    3    3    0  502  0.55369948941E+03 -0.49862964229E+03 -0.11867715459E+04  0.14012998775E+04  0.25500000920E-02 0. -1.
</event>
<event>
 5   0  0.1492639E-05  0.2550144E+04  0.7818609E-02  0.8385336E-01
       -1   -1    0    0    0  501  0.00000000000E+00  0.00000000000E+00  0.12191292249E+04  0.12191292249E+04  0.50400001928E-02 0.  1.
        1   -1    0    0  501    0  0.00000000000E+00  0.00000000000E+00 -0.13335818599E+04  0.13335818599E+04  0.50400001928E-02 0. -1.
    10030    2    1    2    0    0  0.00000000000E+00  0.00000000000E+00 -0.11445263500E+03  0.25527110848E+04  0.25501440110E+04 0.  0.
        5    1    3    3  502    0  0.63875117123E+03  0.34850438623E+03  0.99088459598E+03  0.12293627368E+04  0.46999998093E+01 0.  1.
       -5    1    3    3    0  502 -0.63875117123E+03 -0.34850438623E+03 -0.11053372310E+04  0.13233483480E+04  0.46999998093E+01 0. -1.
</event>
<event>
 5   0  0.3579097E-05  0.2206340E+04  0.7818609E-02  0.8515794E-01
        2   -1    0    0  501    0  0.00000000000E+00  0.00000000000E+00  0.19938474332E+04  0.19938474332E+04  0.25500000920E-02 0. -1.
       -2   -1    0    0    0  501  0.00000000000E+00  0.00000000000E+00 -0.61036959863E+03  0.61036959863E+03  0.25500000920E-02 0.  1.
    10030    2    1    2    0    0  0.00000000000E+00  0.00000000000E+00  0.13834778345E+04  0.26042170318E+04  0.22063398265E+04 0.  0.
        5    1    3    3  502    0 -0.45626495530E+03 -0.76727359917E+03 -0.73273235461E+02  0.89569947106E+03  0.46999998093E+01 0.  1.
       -5    1    3    3    0  502  0.45626495530E+03  0.76727359917E+03  0.14567510700E+04  0.17085175607E+04  0.46999998093E+01 0. -1.
</event>
<event>
 5   0  0.1502886E-05  0.2464393E+04  0.7818609E-02  0.8415782E-01
       -1   -1    0    0    0  501  0.00000000000E+00  0.00000000000E+00  0.12435115198E+04  0.12435115198E+04  0.50400001928E-02 0. -1.
        1   -1    0    0  501    0  0.00000000000E+00  0.00000000000E+00 -0.12209841913E+04  0.12209841913E+04  0.50400001928E-02 0.  1.
    10030    2    1    2    0    0  0.00000000000E+00  0.00000000000E+00  0.22527328451E+02  0.24644957111E+04  0.24643927507E+04 0.  0.
        4    1    3    3  502    0  0.56568083313E+03  0.57806838929E+01  0.11059682826E+04  0.12422542720E+04  0.12699999809E+01 0. -1.
       -4    1    3    3    0  502 -0.56568083313E+03 -0.57806838929E+01 -0.10834409542E+04  0.12222414391E+04  0.12699999809E+01 0.  1.
</event>
<event>
 5   0  0.3704241E-05  0.2465024E+04  0.7818609E-02  0.8415553E-01
       -2   -1    0    0    0  501  0.00000000000E+00  0.00000000000E+00  0.76818679313E+03  0.76818679314E+03  0.25500000920E-02 0.  1.
        2   -1    0    0  501    0  0.00000000000E+00  0.00000000000E+00 -0.19774956647E+04  0.19774956647E+04  0.25500000920E-02 0. -1.
    10030    2    1    2    0    0  0.00000000000E+00  0.00000000000E+00 -0.12093088716E+04  0.27456824578E+04  0.24650241809E+04 0.  0.
        2    1    3    3  502    0 -0.53426558827E+03 -0.10804569605E+04 -0.31793848058E+03  0.12465600025E+04  0.25500000920E-02 0. -1.
       -2    1    3    3    0  502  0.53426558827E+03  0.10804569605E+04 -0.89137039098E+03  0.14991224554E+04  0.25500000920E-02 0.  1.
</event>
<event>
 5   0  0.1456876E-05  0.2511794E+04  0.7818609E-02  0.8398796E-01
       -1   -1    0    0    0  501  0.00000000000E+00  0.00000000000E+00  0.11361117316E+04  0.11361117316E+04  0.50400001928E-02 0. -1.
        1   -1    0    0  501    0  0.00000000000E+00  0.00000000000E+00 -0.13883120952E+04  0.13883120952E+04  0.50400001928E-02 0.  1.
    10030    2    1    2    0    0  0.00000000000E+00  0.00000000000E+00 -0.25220036360E+03  0.25244238268E+04  0.25117943056E+04 0.  0.
        1    1    3    3  502    0 -0.99634102366E+03  0.67851989288E+03 -0.48028237228E+03  0.12975961766E+04  0.50400001928E-02 0. -1.
       -1    1    3    3    0  502  0.99634102366E+03 -0.67851989288E+03  0.22808200868E+03  0.12268276501E+04  0.50400001928E-02 0.  1.
</event>
<event>
 5   0  0.3650620E-05  0.2509224E+04  0.7818609E-02  0.8399707E-01
        2   -1    0    0  501    0  0.00000000000E+00  0.00000000000E+00  0.12515321050E+04  0.12515321050E+04  0.25500000920E-02 0. -1.
       -2   -1    0    0    0  501  0.00000000000E+00  0.00000000000E+00 -0.12576991054E+04  0.12576991054E+04  0.25500000920E-02 0.  1.
    10030    2    1    2    0    0  0.00000000000E+00  0.00000000000E+00 -0.61670004087E+01  0.25092312104E+04  0.25092236320E+04 0.  0.
        3    1    3    3  502    0 -0.11968624969E+04  0.27208718616E+03  0.25680096123E+03  0.12539768807E+04  0.10100000352E+00 0. -1.
       -3    1    3    3    0  502  0.11968624969E+04 -0.27208718616E+03 -0.26296796163E+03  0.12552543298E+04  0.10100000352E+00 0.  1.
</event>
<event>
 5   0  0.1201438E-05  0.2449301E+04  0.7818609E-02  0.8421273E-01
       -4   -1    0    0    0  501  0.00000000000E+00  0.00000000000E+00  0.11548107390E+04  0.11548114373E+04  0.12699999809E+01 0. -1.
        4   -1    0    0  501    0  0.00000000000E+00  0.00000000000E+00 -0.12987122827E+04  0.12987129036E+04  0.12699999809E+01 0.  1.
    10030    2    1    2    0    0  0.00000000000E+00  0.00000000000E+00 -0.14390154371E+03  0.24535243410E+04  0.24493007242E+04 0.  0.
        5    1    3    3  502    0 -0.74430769126E+03  0.35193651076E+03 -0.98009734056E+03  0.12800258333E+04  0.46999998093E+01 0.  1.
       -5    1    3    3    0  502  0.74430769126E+03 -0.35193651076E+03  0.83619579684E+03  0.11734985077E+04  0.46999998093E+01 0. -1.
</event>
<event>
 5   0  0.1456876E-05  0.2504748E+04  0.7818609E-02  0.8401296E-01
        1   -1    0    0  501    0  0.00000000000E+00  0.00000000000E+00  0.89490744476E+03  0.89490744477E+03  0.50400001928E-02 0. -1.
       -1   -1    0    0    0  501  0.00000000000E+00  0.00000000000E+00 -0.17526285471E+04  0.17526285471E+04  0.50400001928E-02 0.  1.
    10030    2    1    2    0    0  0.00000000000E+00  0.00000000000E+00 -0.85772110235E+03  0.26475359919E+04  0.25047477595E+04 0.  0.
        1    1    3    3  502    0  0.77311240537E+03  0.50338836935E+03  0.46637990916E+03  0.10337373271E+04  0.50400001928E-02 0. -1.
       -1    1    3    3    0  502 -0.77311240537E+03 -0.50338836935E+03 -0.13241010115E+04  0.16137986648E+04  0.50400001928E-02 0.  1.
</event>
<event>
 5   0  0.1502886E-05  0.2450980E+04  0.7818609E-02  0.8420660E-01
        1   -1    0    0  501    0  0.00000000000E+00  0.00000000000E+00  0.11607546903E+04  0.11607546903E+04  0.50400001928E-02 0. -1.
       -1   -1    0    0    0  501  0.00000000000E+00  0.00000000000E+00 -0.12938353024E+04  0.12938353025E+04  0.50400001928E-02 0.  1.
    10030    2    1    2    0    0  0.00000000000E+00  0.00000000000E+00 -0.13308061217E+03  0.24545899927E+04  0.24509797190E+04 0.  0.
        4    1    3    3  502    0  0.77307071043E+03 -0.95070580872E+03 -0.85112833048E+02  0.12283019439E+04  0.12699999809E+01 0.  1.
       -4    1    3    3    0  502 -0.77307071043E+03  0.95070580872E+03 -0.47967779126E+02  0.12262880489E+04  0.12699999809E+01 0. -1.
</event>
<event>
 5   0  0.1201438E-05  0.2525352E+04  0.7818609E-02  0.8394009E-01
       -3   -1    0    0    0  501  0.00000000000E+00  0.00000000000E+00  0.15142593762E+04  0.15142593795E+04  0.10100000352E+00 0. -1.
        3   -1    0    0  501    0  0.00000000000E+00  0.00000000000E+00 -0.10528912449E+04  0.10528912497E+04  0.10100000352E+00 0.  1.
    10030    2    1    2    0    0  0.00000000000E+00  0.00000000000E+00  0.46136813129E+03  0.25671506292E+04  0.25253518172E+04 0.  0.
        3    1    3    3  502    0 -0.51420244864E+03  0.82084179565E+03  0.10541317297E+04  0.14315652711E+04  0.10100000352E+00 0. -1.
       -3    1    3    3    0  502  0.51420244864E+03 -0.82084179565E+03 -0.59276359845E+03  0.11355853581E+04  0.10100000352E+00 0.  1.
</event>
<event>
 5   0  0.1492639E-05  0.2525336E+04  0.7818609E-02  0.8394015E-01
        1   -1    0    0  501    0  0.00000000000E+00  0.00000000000E+00  0.16767120637E+04  0.16767120637E+04  0.50400001928E-02 0.  1.
       -1   -1    0    0    0  501  0.00000000000E+00  0.00000000000E+00 -0.95086703035E+03  0.95086703036E+03  0.50400001928E-02 0. -1.
    10030    2    1    2    0    0  0.00000000000E+00  0.00000000000E+00  0.72584503336E+03  0.26275790941E+04  0.25253357961E+04 0.  0.
        5    1    3    3  502    0  0.69041127037E+03 -0.96710532757E+03 -0.81388212488E+02  0.11910527142E+04  0.46999998093E+01 0. -1.
       -5    1    3    3    0  502 -0.69041127037E+03  0.96710532757E+03  0.80723324585E+03  0.14365263799E+04  0.46999998093E+01 0.  1.
</event>
<event>
 5   0  0.1201438E-05  0.2517410E+04  0.7818609E-02  0.8396809E-01
       -4   -1    0    0    0  501  0.00000000000E+00  0.00000000000E+00  0.24682472307E+04  0.24682475574E+04  0.12699999809E+01 0.  1.
        4   -1    0    0  501    0  0.00000000000E+00  0.00000000000E+00 -0.64188680462E+03  0.64188806100E+03  0.12699999809E+01 0. -1.
    10030    2    1    2    0    0  0.00000000000E+00  0.00000000000E+00  0.18263604261E+04  0.31101356184E+04  0.25174096129E+04 0.  0.
        3    1    3    3  502    0 -0.47490290015E+03  0.11603812402E+04  0.77604856039E+03  0.14745401878E+04  0.10100000352E+00 0.  1.
       -3    1    3    3    0  502  0.47490290015E+03 -0.11603812402E+04  0.10503118657E+04  0.16355954306E+04  0.10100000352E+00 0. -1.
</event>
<event>
 5   0  0.3579097E-05  0.2346351E+04  0.7818609E-02  0.8459866E-01
        2   -1    0    0  501    0  0.00000000000E+00  0.00000000000E+00  0.60068551989E+03  0.60068551990E+03  0.25500000920E-02 0.  1.
       -2   -1    0    0    0  501  0.00000000000E+00  0.00000000000E+00 -0.22912838408E+04  0.22912838408E+04  0.25500000920E-02 0. -1.
    10030    2    1    2    0    0  0.00000000000E+00  0.00000000000E+00 -0.16905983209E+04  0.28919693607E+04  0.23463512313E+04 0.  0.
        5    1    3    3  502    0  0.25390337208E+03 -0.10437660291E+04 -0.26403648187E+03  0.11061879585E+04  0.46999998093E+01 0.  1.
       -5    1    3    3    0  502 -0.25390337208E+03  0.10437660291E+04 -0.14265618390E+04  0.17857814022E+04  0.46999998093E+01 0. -1.
</event>
<event>
 5   0  0.3579097E-05  0.2511579E+04  0.7818609E-02  0.8398872E-01
       -2   -1    0    0    0  501  0.00000000000E+00  0.00000000000E+00  0.80398506368E+03  0.80398506368E+03  0.25500000920E-02 0. -1.
        2   -1    0    0  501    0  0.00000000000E+00  0.00000000000E+00 -0.19614881732E+04  0.19614881732E+04  0.25500000920E-02 0.  1.
    10030    2    1    2    0    0  0.00000000000E+00  0.00000000000E+00 -0.11575031095E+04  0.27654732369E+04  0.25115789407E+04 0.  0.
        5    1    3    3  502    0  0.27902771135E+03  0.71603646148E+03  0.51483624204E+03  0.92500979670E+03  0.46999998093E+01 0. -1.
       -5    1    3    3    0  502 -0.27902771135E+03 -0.71603646148E+03 -0.16723393515E+04  0.18404634402E+04  0.46999998093E+01 0.  1.
</event>
<event>
 5   0  0.3579097E-05  0.2477793E+04  0.7818609E-02  0.8410940E-01
        2   -1    0    0  501    0  0.00000000000E+00  0.00000000000E+00  0.66523736428E+03  0.66523736429E+03  0.25500000920E-02 0. -1.
       -2   -1    0    0    0  501  0.00000000000E+00  0.00000000000E+00 -0.23072437668E+04  0.23072437668E+04  0.25500000920E-02 0.  1.
    10030    2    1    2    0    0  0.00000000000E+00  0.00000000000E+00 -0.16420064025E+04  0.29724811311E+04  0.24777931812E+04 0.  0.
        5    1    3    3  502    0 -0.63023930269E+03 -0.54112296388E+03 -0.19236538915E+04  0.20953477098E+04  0.46999998093E+01 0.  1.
       -5    1    3    3    0  502  0.63023930269E+03  0.54112296388E+03  0.28164748898E+03  0.87713342129E+03  0.46999998093E+01 0. -1.
</event>
<event>
 5   0  0.1429483E-05  0.2569361E+04  0.7818609E-02  0.8378684E-01
       -1   -1    0    0    0  501  0.00000000000E+00  0.00000000000E+00  0.10431500117E+04  0.10431500117E+04  0.50400001928E-02 0.  1.
        1   -1    0    0  501    0  0.00000000000E+00  0.00000000000E+00 -0.15821347372E+04  0.15821347372E+04  0.50400001928E-02 0. -1.
    10030    2    1    2    0    0  0.00000000000E+00  0.00000000000E+00 -0.53898472551E+03  0.26252847489E+04  0.25693609086E+04 0.  0.
        2    1    3    3  502    0 -0.73385814691E+03 -0.89453092256E+03  0.30093344367E+03  0.11955309652E+04  0.25500000920E-02 0.  1.
       -2    1    3    3    0  502  0.73385814691E+03  0.89453092256E+03 -0.83991816918E+03  0.14297537837E+04  0.25500000920E-02 0. -1.
</event>
<event>
 5   0  0.3650620E-05  0.2521015E+04  0.7818609E-02  0.8395537E-01
        2   -1    0    0  501    0  0.00000000000E+00  0.00000000000E+00  0.12389534610E+04  0.12389534610E+04  0.25500000920E-02 0. -1.
       -2   -1    0    0    0  501  0.00000000000E+00  0.00000000000E+00 -0.12824364074E+04  0.12824364074E+04  0.25500000920E-02 0.  1.
    10030    2    1    2    0    0  0.00000000000E+00  0.00000000000E+00 -0.43482946369E+02  0.25213898684E+04  0.25210148952E+04 0.  0.
        3    1    3    3  502    0  0.11166696357E+04 -0.58311309660E+03  0.21934881000E+02  0.12599417081E+04  0.10100000352E+00 0. -1.
       -3    1    3    3    0  502 -0.11166696357E+04  0.58311309660E+03 -0.65417827369E+02  0.12614481603E+04  0.10100000352E+00 0.  1.
</event>
<event>
 5   0  0.3578670E-05  0.2498891E+04  0.7818609E-02  0.8403381E-01
       -2   -1    0    0    0  501  0.00000000000E+00  0.00000000000E+00  0.10768293749E+04  0.10768293749E+04  0.25500000920E-02 0. -1.
        2   -1    0    0  501    0  0.00000000000E+00  0.00000000000E+00 -0.14497323002E+04  0.14497323002E+04  0.25500000920E-02 0.  1.
    10030    2    1    2    0    0  0.00000000000E+00  0.00000000000E+00 -0.37290292531E+03  0.25265616751E+04  0.24988912154E+04 0.  0.
        4    1    3    3  502    0  0.50731149084E+03  0.63644999831E+03  0.77203258740E+03  0.11218152602E+04  0.12699999809E+01 0. -1.
       -4    1    3    3    0  502 -0.50731149084E+03 -0.63644999831E+03 -0.11449355127E+04  0.14047464149E+04  0.12699999809E+01 0.  1.
</event>
<event>
 5   0  0.3650620E-05  0.2482264E+04  0.7818609E-02  0.8409331E-01
       -2   -1    0    0    0  501  0.00000000000E+00  0.00000000000E+00  0.14984924118E+04  0.14984924118E+04  0.25500000920E-02 0.  1.
        2   -1    0    0  501    0  0.00000000000E+00  0.00000000000E+00 -0.10279725760E+04  0.10279725760E+04  0.25500000920E-02 0. -1.
    10030    2    1    2    0    0  0.00000000000E+00  0.00000000000E+00  0.47051983581E+03  0.25264649879E+04  0.24822643733E+04 0.  0.
        3    1    3    3  502    0 -0.17530289430E+03  0.21773287971E+03 -0.99551628874E+03  0.10340171193E+04  0.10100000352E+00 0. -1.
       -3    1    3    3    0  502  0.17530289430E+03 -0.21773287971E+03  0.14660361246E+04  0.14924478686E+04  0.10100000352E+00 0.  1.
</event>
<event>
 5   0  0.1429483E-05  0.2429813E+04  0.7818609E-02  0.8428425E-01
        1   -1    0    0  501    0  0.00000000000E+00  0.00000000000E+00  0.78538769176E+03  0.78538769178E+03  0.50400001928E-02 0. -1.
       -1   -1    0    0    0  501  0.00000000000E+00  0.00000000000E+00 -0.18793244205E+04  0.18793244205E+04  0.50400001928E-02 0.  1.
    10030    2    1    2    0    0  0.00000000000E+00  0.00000000000E+00 -0.10939367287E+04  0.26647121123E+04  0.24298133827E+04 0.  0.
        2    1    3    3  502    0 -0.11661747439E+04  0.13810605786E+03 -0.20547919695E+03  0.11921654738E+04  0.25500000920E-02 0. -1.
       -2    1    3    3    0  502  0.11661747439E+04 -0.13810605786E+03 -0.88845753176E+03  0.14725466384E+04  0.25500000920E-02 0.  1.
</event>
<event>
 5   0  0.3704241E-05  0.2488496E+04  0.7818609E-02  0.8407095E-01
       -2   -1    0    0    0  501  0.00000000000E+00  0.00000000000E+00  0.71844073758E+03  0.71844073758E+03  0.25500000920E-02 0.  1.
        2   -1    0    0  501    0  0.00000000000E+00  0.00000000000E+00 -0.21548798772E+04  0.21548798772E+04  0.25500000920E-02 0. -1.
    10030    2    1    2    0    0  0.00000000000E+00  0.00000000000E+00 -0.14364391396E+04  0.28733206147E+04  0.24884963238E+04 0.  0.
        2    1    3    3  502    0  0.42901244036E+02  0.18092833185E+02 -0.21538736526E+04  0.21543768423E+04  0.25500000920E-02 0. -1.
       -2    1    3    3    0  502 -0.42901244036E+02 -0.18092833185E+02  0.71743451305E+03  0.71894377240E+03  0.25500000920E-02 0.  1.
</event>
<event>
 5   0  0.1502886E-05  0.2619565E+04  0.7818609E-02  0.8361586E-01
        1   -1    0    0  501    0  0.00000000000E+00  0.00000000000E+00  0.13772232309E+04  0.13772232309E+04  0.50400001928E-02 0.  1.
       -1   -1    0    0    0  501  0.00000000000E+00  0.00000000000E+00 -0.12456440379E+04  0.12456440379E+04  0.50400001928E-02 0. -1.
    10030    2    1    2    0    0  0.00000000000E+00  0.00000000000E+00  0.13157919300E+03  0.26228672687E+04  0.26195647778E+04 0.  0.
        4    1    3    3  502    0 -0.44521665890E+03 -0.62947916629E+03  0.11259286641E+04  0.13646167461E+04  0.12699999809E+01 0.  1.
       -4    1    3    3    0  502  0.44521665890E+03  0.62947916629E+03 -0.99434947110E+03  0.12582505226E+04  0.12699999809E+01 0. -1.
</event>
<event>
 5   0  0.1502886E-05  0.2557608E+04  0.7818609E-02  0.8382745E-01
       -1   -1    0    0    0  501  0.00000000000E+00  0.00000000000E+00  0.90668843610E+03  0.90668843611E+03  0.50400001928E-02 0. -1.
        1   -1    0    0  501    0  0.00000000000E+00  0.00000000000E+00 -0.18036396061E+04  0.18036396061E+04  0.50400001928E-02 0.  1.
    10030    2    1    2    0    0  0.00000000000E+00  0.00000000000E+00 -0.89695116997E+03  0.27103280422E+04  0.25576076116E+04 0.  0.
        4    1    3    3  502    0  0.41545736821E+03  0.57933372561E+03 -0.15735212842E+04  0.17274846555E+04  0.12699999809E+01 0.  1.
       -4    1    3    3    0  502 -0.41545736821E+03 -0.57933372561E+03  0.67657011419E+03  0.98284338668E+03  0.12699999809E+01 0. -1.
</event>
<event>
 5   0  0.3578670E-05  0.2476148E+04  0.7818609E-02  0.8411532E-01
        2   -1    0    0  501    0  0.00000000000E+00  0.00000000000E+00  0.15684025471E+04  0.15684025472E+04  0.25500000920E-02 0. -1.
       -2   -1    0    0    0  501  0.00000000000E+00  0.00000000000E+00 -0.97731769945E+03  0.97731769946E+03  0.25500000920E-02 0.  1.
    10030    2    1    2    0    0  0.00000000000E+00  0.00000000000E+00  0.59108484769E+03  0.25457202466E+04  0.24761482744E+04 0.  0.
        4    1    3    3  502    0 -0.70863584688E+03  0.10148495746E+04  0.32353864995E+03  0.12793605018E+04  0.12699999809E+01 0.  1.
       -4    1    3    3    0  502  0.70863584688E+03 -0.10148495746E+04  0.26754619774E+03  0.12663597448E+04  0.12699999809E+01 0. -1.
</event>
<event>
 5   0  0.1492639E-05  0.2239343E+04  0.7818609E-02  0.8502229E-01
        1   -1    0    0  501    0  0.00000000000E+00  0.00000000000E+00  0.12839806651E+04  0.12839806651E+04  0.50400001928E-02 0.  1.
       -1   -1    0    0    0  501  0.00000000000E+00  0.00000000000E+00 -0.97638909908E+03  0.97638909910E+03  0.50400001928E-02 0. -1.
    10030    2    1    2    0    0  0.00000000000E+00  0.00000000000E+00  0.30759156605E+03  0.22603697642E+04  0.22393434081E+04 0.  0.
        5    1    3    3  502    0  0.75771915347E+03  0.81876231222E+03  0.25025770266E+03  0.11433114393E+04  0.46999998093E+01 0. -1.
       -5    1    3    3    0  502 -0.75771915347E+03 -0.81876231222E+03  0.57333863383E+02  0.11170583250E+04  0.46999998093E+01 0.  1.
</event>
<event>
 5   0  0.1429483E-05  0.2390550E+04  0.7818609E-02  0.8443050E-01
        1   -1    0    0  501    0  0.00000000000E+00  0.00000000000E+00  0.87949976960E+03  0.87949976961E+03  0.50400001928E-02 0. -1.
       -1   -1    0    0    0  501  0.00000000000E+00  0.00000000000E+00 -0.16244260496E+04  0.16244260496E+04  0.50400001928E-02 0.  1.
    10030    2    1    2    0    0  0.00000000000E+00  0.00000000000E+00 -0.74492627997E+03  0.25039258192E+04  0.23905500090E+04 0.  0.
        2    1    3    3  502    0 -0.10874983632E+04 -0.18026966654E+03 -0.85647456255E+03  0.13959579216E+04  0.25500000920E-02 0.  1.
       -2    1    3    3    0  502  0.10874983632E+04  0.18026966654E+03  0.11154828257E+03  0.11079678976E+04  0.25500000920E-02 0. -1.
</event>
<event>
 5   0  0.3650620E-05  0.2545809E+04  0.7818609E-02  0.8386845E-01
       -2   -1    0    0    0  501  0.00000000000E+00  0.00000000000E+00  0.83614760543E+03  0.83614760544E+03  0.25500000920E-02 0. -1.
        2   -1    0    0  501    0  0.00000000000E+00  0.00000000000E+00 -0.19377995117E+04  0.19377995117E+04  0.25500000920E-02 0.  1.
    10030    2    1    2    0    0  0.00000000000E+00  0.00000000000E+00 -0.11016519063E+04  0.27739471172E+04  0.25458094363E+04 0.  0.
        3    1    3    3  502    0  0.11412794972E+04 -0.45634859233E+03 -0.19024226120E+03  0.12437705000E+04  0.10100000352E+00 0. -1.
       -3    1    3    3    0  502 -0.11412794972E+04  0.45634859233E+03 -0.91140964509E+03  0.15301766172E+04  0.10100000352E+00 0.  1.
</event>
<event>
 5   0  0.3650620E-05  0.2547972E+04  0.7818609E-02  0.8386092E-01
       -2   -1    0    0    0  501  0.00000000000E+00  0.00000000000E+00  0.16254804572E+04  0.16254804572E+04  0.25500000920E-02 0. -1.
        2   -1    0    0  501    0  0.00000000000E+00  0.00000000000E+00 -0.99849914103E+03  0.99849914104E+03  0.25500000920E-02 0.  1.
    10030    2    1    2    0    0  0.00000000000E+00  0.00000000000E+00  0.62698131612E+03  0.26239795982E+04  0.25479724019E+04 0.  0.
        3    1    3    3  502    0  0.35671358043E+03 -0.50918955197E+02  0.15719095678E+04  0.16126800731E+04  0.10100000352E+00 0. -1.
       -3    1    3    3    0  502 -0.35671358043E+03  0.50918955197E+02 -0.94492825170E+03  0.10112995251E+04  0.10100000352E+00 0.  1.
</event>
<event>
 5   0  0.3578670E-05  0.1974244E+04  0.7818609E-02  0.8618758E-01
       -2   -1    0    0    0  501  0.00000000000E+00  0.00000000000E+00  0.93562462755E+03  0.93562462755E+03  0.25500000920E-02 0. -1.
        2   -1    0    0  501    0  0.00000000000E+00  0.00000000000E+00 -0.10414537620E+04  0.10414537620E+04  0.25500000920E-02 0.  1.
    10030    2    1    2    0    0  0.00000000000E+00  0.00000000000E+00 -0.10582913445E+03  0.19770783896E+04  0.19742439446E+04 0.  0.
        4    1    3    3  502    0  0.48279433336E+03 -0.60966964141E+03  0.55592271379E+03  0.95594932742E+03  0.12699999809E+01 0. -1.
       -4    1    3    3    0  502 -0.48279433336E+03  0.60966964141E+03 -0.66175184824E+03  0.10211290621E+04  0.12699999809E+01 0.  1.
</event>
<event>
 5   0  0.1456876E-05  0.2536795E+04  0.7818609E-02  0.8389993E-01
       -1   -1    0    0    0  501  0.00000000000E+00  0.00000000000E+00  0.11088182250E+04  0.11088182250E+04  0.50400001928E-02 0. -1.
        1   -1    0    0  501    0  0.00000000000E+00  0.00000000000E+00 -0.14509434189E+04  0.14509434189E+04  0.50400001928E-02 0.  1.
    10030    2    1    2    0    0  0.00000000000E+00  0.00000000000E+00 -0.34212519389E+03  0.25597616439E+04  0.25367952273E+04 0.  0.
        1    1    3    3  502    0 -0.11990558395E+04 -0.15757844034E+03  0.21484804105E+03  0.12283018977E+04  0.50400001928E-02 0.  1.
       -1    1    3    3    0  502  0.11990558395E+04  0.15757844034E+03 -0.55697323494E+03  0.13314597462E+04  0.50400001928E-02 0. -1.
</event>
<event>
 5   0  0.3578670E-05  0.2497097E+04  0.7818609E-02  0.8404020E-01
       -2   -1    0    0    0  501  0.00000000000E+00  0.00000000000E+00  0.13349760664E+04  0.13349760664E+04  0.25500000920E-02 0. -1.
        2   -1    0    0  501    0  0.00000000000E+00  0.00000000000E+00 -0.11677164905E+04  0.11677164905E+04  0.25500000920E-02 0.  1.
    10030    2    1    2    0    0  0.00000000000E+00  0.00000000000E+00  0.16725957592E+03  0.25026925569E+04  0.24970971684E+04 0.  0.
        4    1    3    3  502    0 -0.73028165695E+03 -0.97160822352E+03  0.36981843098E+03  0.12704727952E+04  0.12699999809E+01 0.  1.
       -4    1    3    3    0  502  0.73028165695E+03  0.97160822352E+03 -0.20255885506E+03  0.12322197617E+04  0.12699999809E+01 0. -1.
</event>
<event>
 5   0  0.1421242E-05  0.2578714E+04  0.7818609E-02  0.8375468E-01
       -1   -1    0    0    0  501  0.00000000000E+00  0.00000000000E+00  0.17231213094E+04  0.17231213094E+04  0.50400001928E-02 0.  1.
        1   -1    0    0  501    0  0.00000000000E+00  0.00000000000E+00 -0.96478517820E+03  0.96478517821E+03  0.50400001928E-02 0. -1.
    10030    2    1    2    0    0  0.00000000000E+00  0.00000000000E+00  0.75833613119E+03  0.26879064876E+04  0.25787143305E+04 0.  0.
        3    1    3    3  502    0 -0.12340600612E+04 -0.33714921442E+03  0.54681393895E+03  0.13912509916E+04  0.10100000352E+00 0.  1.
       -3    1    3    3    0  502  0.12340600612E+04  0.33714921442E+03  0.21152219224E+03  0.12966554961E+04  0.10100000352E+00 0. -1.
</event>
<event>
 5   0  0.3650620E-05  0.2492828E+04  0.7818609E-02  0.8405545E-01
       -2   -1    0    0    0  501  0.00000000000E+00  0.00000000000E+00  0.78695357931E+03  0.78695357932E+03  0.25500000920E-02 0.  1.
        2   -1    0    0  501    0  0.00000000000E+00  0.00000000000E+00 -0.19741295748E+04  0.19741295748E+04  0.25500000920E-02 0. -1.
    10030    2    1    2    0    0  0.00000000000E+00  0.00000000000E+00 -0.11871759955E+04  0.27610831541E+04  0.24928283815E+04 0.  0.
        3    1    3    3  502    0  0.10537616492E+04 -0.63243636832E+03 -0.82369113917E+03  0.14794784474E+04  0.10100000352E+00 0. -1.
       -3    1    3    3    0  502 -0.10537616492E+04  0.63243636832E+03 -0.36348485634E+03  0.12816047067E+04  0.10100000352E+00 0.  1.
</event>
<event>
 5   0  0.3579097E-05  0.2472986E+04  0.7818609E-02  0.8412673E-01
       -2   -1    0    0    0  501  0.00000000000E+00  0.00000000000E+00  0.12059823685E+04  0.12059823685E+04  0.25500000920E-02 0. -1.
        2   -1    0    0  501    0  0.00000000000E+00  0.00000000000E+00 -0.12677757537E+04  0.12677757537E+04  0.25500000920E-02 0.  1.
    10030    2    1    2    0    0  0.00000000000E+00  0.00000000000E+00 -0.61793385266E+02  0.24737581222E+04  0.24729862161E+04 0.  0.
        5    1    3    3  502    0 -0.95801915989E+03 -0.63129921903E+03  0.43028267949E+03  0.12253590041E+04  0.46999998093E+01 0. -1.
       -5    1    3    3    0  502  0.95801915989E+03  0.63129921903E+03 -0.49207606475E+03  0.12483991181E+04  0.46999998093E+01 0.  1.
</event>
<event>
 5   0  0.1456876E-05  0.2477218E+04  0.7818609E-02  0.8411147E-01
       -1   -1    0    0    0  501  0.00000000000E+00  0.00000000000E+00  0.89714104484E+03  0.89714104485E+03  0.50400001928E-02 0. -1.
        1   -1    0    0  501    0  0.00000000000E+00  0.00000000000E+00 -0.17100463150E+04  0.17100463150E+04  0.50400001928E-02 0.  1.
    10030    2    1    2    0    0  0.00000000000E+00  0.00000000000E+00 -0.81290527019E+03  0.26071873599E+04  0.24772183899E+04 0.  0.
        1    1    3    3  502    0 -0.82543192468E+03 -0.89853489559E+03 -0.63082764924E+03  0.13735524540E+04  0.50400001928E-02 0.  1.
       -1    1    3    3    0  502  0.82543192468E+03  0.89853489559E+03 -0.18207762094E+03  0.12336349059E+04  0.50400001928E-02 0. -1.
</event>
<event>
 5   0  0.1456876E-05  0.2519149E+04  0.7818609E-02  0.8396195E-01
        1   -1    0    0  501    0  0.00000000000E+00  0.00000000000E+00  0.16412664193E+04  0.16412664193E+04  0.50400001928E-02 0. -1.
       -1   -1    0    0    0  501  0.00000000000E+00  0.00000000000E+00 -0.96664856364E+03  0.96664856365E+03  0.50400001928E-02 0.  1.
    10030    2    1    2    0    0  0.00000000000E+00  0.00000000000E+00  0.67461785564E+03  0.26079149829E+04  0.25191489251E+04 0.  0.
        1    1    3    3  502    0 -0.57963602961E+03 -0.28208407713E+03  0.14575565804E+04  0.15937441886E+04  0.50400001928E-02 0. -1.
       -1    1    3    3    0  502  0.57963602961E+03  0.28208407713E+03 -0.78293872478E+03  0.10141707944E+04  0.50400001928E-02 0.  1.
</event>
<event>
 5   0  0.3581449E-05  0.2276190E+04  0.7818609E-02  0.8487369E-01
       -2   -1    0    0    0  501  0.00000000000E+00  0.00000000000E+00  0.59067740188E+03  0.59067740189E+03  0.25500000920E-02 0.  1.
        2   -1    0    0  501    0  0.00000000000E+00  0.00000000000E+00 -0.21928390442E+04  0.21928390442E+04  0.25500000920E-02 0. -1.
    10030    2    1    2    0    0  0.00000000000E+00  0.00000000000E+00 -0.16021616423E+04  0.27835164461E+04  0.22761902112E+04 0.  0.
        1    1    3    3  502    0 -0.63306467791E+03 -0.14613247034E+03 -0.19437641998E+04  0.20494742862E+04  0.50400001928E-02 0. -1.
       -1    1    3    3    0  502  0.63306467791E+03  0.14613247034E+03  0.34160255743E+03  0.73404215995E+03  0.50400001928E-02 0.  1.
</event>
<event>
 5   0  0.1502886E-05  0.2414871E+04  0.7818609E-02  0.8433957E-01
        1   -1    0    0  501    0  0.00000000000E+00  0.00000000000E+00  0.18346129734E+04  0.18346129734E+04  0.50400001928E-02 0.  1.
       -1   -1    0    0    0  501  0.00000000000E+00  0.00000000000E+00 -0.79466375536E+03  0.79466375537E+03  0.50400001928E-02 0. -1.
    10030    2    1    2    0    0  0.00000000000E+00  0.00000000000E+00  0.10399492181E+04  0.26292767288E+04  0.24148709573E+04 0.  0.
        4    1    3    3  502    0  0.90095320876E+02  0.35069328488E+03 -0.73416078753E+03  0.81859429619E+03  0.12699999809E+01 0. -1.
       -4    1    3    3    0  502 -0.90095320876E+02 -0.35069328488E+03  0.17741100056E+04  0.18106824326E+04  0.12699999809E+01 0.  1.
</event>
<event>
 5   0  0.3579097E-05  0.2488566E+04  0.7818609E-02  0.8407070E-01
       -2   -1    0    0    0  501  0.00000000000E+00  0.00000000000E+00  0.13509466368E+04  0.13509466369E+04  0.25500000920E-02 0. -1.
        2   -1    0    0  501    0  0.00000000000E+00  0.00000000000E+00 -0.11460414112E+04  0.11460414112E+04  0.25500000920E-02 0.  1.
    10030    2    1    2    0    0  0.00000000000E+00  0.00000000000E+00  0.20490522563E+03  0.24969880481E+04  0.24885664871E+04 0.  0.
        5    1    3    3  502    0  0.49501407276E+03 -0.11032935288E+04 -0.19166587793E+03  0.12243583796E+04  0.46999998093E+01 0. -1.
       -5    1    3    3    0  502 -0.49501407276E+03  0.11032935288E+04  0.39657110356E+03  0.12726296685E+04  0.46999998093E+01 0.  1.
</event>
<event>
 5   0  0.1429483E-05  0.2456282E+04  0.7818609E-02  0.8418728E-01
       -1   -1    0    0    0  501  0.00000000000E+00  0.00000000000E+00  0.15003074278E+04  0.15003074278E+04  0.50400001928E-02 0. -1.
        1   -1    0    0  501    0  0.00000000000E+00  0.00000000000E+00 -0.10053476571E+04  0.10053476571E+04  0.50400001928E-02 0.  1.
    10030    2    1    2    0    0  0.00000000000E+00  0.00000000000E+00  0.49495977075E+03  0.25056550849E+04  0.24562821967E+04 0.  0.
        2    1    3    3  502    0  0.59447694192E+03 -0.64327128626E+03  0.11256732644E+04  0.14263032918E+04  0.25500000920E-02 0. -1.
       -2    1    3    3    0  502 -0.59447694192E+03  0.64327128626E+03 -0.63071349361E+03  0.10793517931E+04  0.25500000920E-02 0.  1.
</event>
<event>
 5   0  0.1492639E-05  0.2496100E+04  0.7818609E-02  0.8404376E-01
        1   -1    0    0  501    0  0.00000000000E+00  0.00000000000E+00  0.93647280898E+03  0.93647280899E+03  0.50400001928E-02 0.  1.
       -1   -1    0    0    0  501  0.00000000000E+00  0.00000000000E+00 -0.16632926492E+04  0.16632926492E+04  0.50400001928E-02 0. -1.
    10030    2    1    2    0    0  0.00000000000E+00  0.00000000000E+00 -0.72681984020E+03  0.25997654582E+04  0.24960996289E+04 0.  0.
        5    1    3    3  502    0 -0.36193692979E+03 -0.72234133746E+03  0.62732156571E+03  0.10229026277E+04  0.46999998093E+01 0.  1.
       -5    1    3    3    0  502  0.36193692979E+03  0.72234133746E+03 -0.13541414059E+04  0.15768628305E+04  0.46999998093E+01 0. -1.
</event>
<event>
 5   0  0.1421242E-05  0.2523982E+04  0.7818609E-02  0.8394491E-01
       -1   -1    0    0    0  501  0.00000000000E+00  0.00000000000E+00  0.84363460360E+03  0.84363460362E+03  0.50400001928E-02 0.  1.
        1   -1    0    0  501    0  0.00000000000E+00  0.00000000000E+00 -0.18878097262E+04  0.18878097262E+04  0.50400001928E-02 0. -1.
    10030    2    1    2    0    0  0.00000000000E+00  0.00000000000E+00 -0.10441751226E+04  0.27314443298E+04  0.25239822583E+04 0.  0.
        3    1    3    3  502    0 -0.24435074307E+03  0.60242549841E+03  0.64848565905E+03  0.91823604099E+03  0.10100000352E+00 0.  1.
       -3    1    3    3    0  502  0.24435074307E+03 -0.60242549841E+03 -0.16926607816E+04  0.18132082888E+04  0.10100000352E+00 0. -1.
</event>
<event>
 5   0  0.3579097E-05  0.2460558E+04  0.7818609E-02  0.8417173E-01
       -2   -1    0    0    0  501  0.00000000000E+00  0.00000000000E+00  0.58168712405E+03  0.58168712405E+03  0.25500000920E-02 0.  1.
        2   -1    0    0  501    0  0.00000000000E+00  0.00000000000E+00 -0.26020619964E+04  0.26020619964E+04  0.25500000920E-02 0. -1.
    10030    2    1    2    0    0  0.00000000000E+00  0.00000000000E+00 -0.20203748724E+04  0.31837491205E+04  0.24605576273E+04 0.  0.
        5    1    3    3  502    0  0.84363753487E+03 -0.61017666668E+03 -0.16218124660E+03  0.10537384408E+04  0.46999998093E+01 0.  1.
       -5    1    3    3    0  502 -0.84363753487E+03  0.61017666668E+03 -0.18581936258E+04  0.21300106797E+04  0.46999998093E+01 0. -1.
</event>
<event>
 5   0  0.1429483E-05  0.2408563E+04  0.7818609E-02  0.8436305E-01
        1   -1    0    0  501    0  0.00000000000E+00  0.00000000000E+00  0.14736649288E+04  0.14736649288E+04  0.50400001928E-02 0.  1.
       -1   -1    0    0    0  501  0.00000000000E+00  0.00000000000E+00 -0.98414114752E+03  0.98414114753E+03  0.50400001928E-02 0. -1.
    10030    2    1    2    0    0  0.00000000000E+00  0.00000000000E+00  0.48952378130E+03  0.24578060764E+04  0.24085633013E+04 0.  0.
        2    1    3    3  502    0 -0.43259750034E+03  0.71206908174E+03 -0.64256249833E+03  0.10521737208E+04  0.25500000920E-02 0. -1.
       -2    1    3    3    0  502  0.43259750034E+03 -0.71206908174E+03  0.11320862796E+04  0.14056323556E+04  0.25500000920E-02 0.  1.
</event>
<event>
 5   0  0.1421242E-05  0.2594226E+04  0.7818609E-02  0.8370165E-01
        1   -1    0    0  501    0  0.00000000000E+00  0.00000000000E+00  0.23663362430E+04  0.23663362430E+04  0.50400001928E-02 0. -1.
       -1   -1    0    0    0  501  0.00000000000E+00  0.00000000000E+00 -0.71101559666E+03  0.71101559668E+03  0.50400001928E-02 0.  1.
    10030    2    1    2    0    0  0.00000000000E+00  0.00000000000E+00  0.16553206464E+04  0.30773518397E+04  0.25942258774E+04 0.  0.
        3    1    3    3  502    0  0.10789733346E+04 -0.69497602768E+03  0.10506176242E+04  0.16586056006E+04  0.10100000352E+00 0.  1.
       -3    1    3    3    0  502 -0.10789733346E+04  0.69497602768E+03  0.60470302219E+03  0.14187462391E+04  0.10100000352E+00 0. -1.
</event>
<event>
 5   0  0.3579097E-05  0.2476957E+04  0.7818609E-02  0.8411241E-01
        2   -1    0    0  501    0  0.00000000000E+00  0.00000000000E+00  0.14386882434E+04  0.14386882434E+04  0.25500000920E-02 0. -1.
       -2   -1    0    0    0  501  0.00000000000E+00  0.00000000000E+00 -0.10661303054E+04  0.10661303054E+04  0.25500000920E-02 0.  1.
    10030    2    1    2    0    0  0.00000000000E+00  0.00000000000E+00  0.37255793801E+03  0.25048185487E+04  0.24769571141E+04 0.  0.
        5    1    3    3  502    0  0.89154381839E+03  0.74744362836E+03 -0.24309647684E+03  0.11885454744E+04  0.46999998093E+01 0.  1.
       -5    1    3    3    0  502 -0.89154381839E+03 -0.74744362836E+03  0.61565441485E+03  0.13162730743E+04  0.46999998093E+01 0. -1.
</event>
<event>
 5   0  0.1201438E-05  0.2484473E+04  0.7818609E-02  0.8408538E-01
        4   -1    0    0  501    0  0.00000000000E+00  0.00000000000E+00  0.18462036784E+04  0.18462041153E+04  0.12699999809E+01 0.  1.
       -4   -1    0    0    0  501  0.00000000000E+00  0.00000000000E+00 -0.83585021906E+03  0.83585118388E+03  0.12699999809E+01 0. -1.
    10030    2    1    2    0    0  0.00000000000E+00  0.00000000000E+00  0.10103534594E+04  0.26820552991E+04  0.24844730859E+04 0.  0.
        1    1    3    3  502    0  0.23431611216E+03  0.92883895957E+02  0.18183092381E+04  0.18356960380E+04  0.50400001928E-02 0.  1.
       -1    1    3    3    0  502 -0.23431611216E+03 -0.92883895957E+02 -0.80795577871E+03  0.84635926114E+03  0.50400001928E-02 0. -1.
</event>
<event>
 5   0  0.3581449E-05  0.2476673E+04  0.7818609E-02  0.8411343E-01
       -2   -1    0    0    0  501  0.00000000000E+00  0.00000000000E+00  0.10572851398E+04  0.10572851398E+04  0.25500000920E-02 0.  1.
        2   -1    0    0  501    0  0.00000000000E+00  0.00000000000E+00 -0.14503914799E+04  0.14503914799E+04  0.25500000920E-02 0. -1.
    10030    2    1    2    0    0  0.00000000000E+00  0.00000000000E+00 -0.39310634017E+03  0.25076766197E+04  0.24766730576E+04 0.  0.
        1    1    3    3  502    0 -0.15497685059E+03 -0.96495654675E+03 -0.96654542215E+03  0.13745432021E+04  0.50400001928E-02 0. -1.
       -1    1    3    3    0  502  0.15497685059E+03  0.96495654675E+03  0.57343908198E+03  0.11331334176E+04  0.50400001928E-02 0.  1.
</event>
<event>
 5   0  0.1502886E-05  0.2499008E+04  0.7818609E-02  0.8403339E-01
        1   -1    0    0  501    0  0.00000000000E+00  0.00000000000E+00  0.20502201574E+04  0.20502201574E+04  0.50400001928E-02 0. -1.
       -1   -1    0    0    0  501  0.00000000000E+00  0.00000000000E+00 -0.76150836963E+03  0.76150836964E+03  0.50400001928E-02 0.  1.
    10030    2    1    2    0    0  0.00000000000E+00  0.00000000000E+00  0.12887117878E+04  0.28117285271E+04  0.24990076506E+04 0.  0.
        4    1    3    3  502    0  0.10467346330E+04 -0.68187062923E+03  0.67320092180E+03  0.14190849309E+04  0.12699999809E+01 0.  1.
       -4    1    3    3    0  502 -0.10467346330E+04  0.68187062923E+03  0.61551086599E+03  0.13926435962E+04  0.12699999809E+01 0. -1.
</event>
<event>
 5   0  0.1492639E-05  0.2504599E+04  0.7818609E-02  0.8401349E-01
        1   -1    0    0  501    0  0.00000000000E+00  0.00000000000E+00  0.15684573266E+04  0.15684573266E+04  0.50400001928E-02 0.  1.
       -1   -1    0    0    0  501  0.00000000000E+00  0.00000000000E+00 -0.99987006488E+03  0.99987006489E+03  0.50400001928E-02 0. -1.
    10030    2    1    2    0    0  0.00000000000E+00  0.00000000000E+00  0.56858726170E+03  0.25683273915E+04  0.25045985937E+04 0.  0.
        5    1    3    3  502    0  0.56659274954E+03 -0.89151599705E+02  0.14258379618E+04  0.15368836439E+04  0.46999998093E+01 0.  1.
       -5    1    3    3    0  502 -0.56659274954E+03  0.89151599705E+02 -0.85725070011E+03  0.10314437476E+04  0.46999998093E+01 0. -1.
</event>
<event>
 5   0  0.1421242E-05  0.2429048E+04  0.7818609E-02  0.8428708E-01
        1   -1    0    0  501    0  0.00000000000E+00  0.00000000000E+00  0.24889698694E+04  0.24889698694E+04  0.50400001928E-02 0. -1.
       -1   -1    0    0    0  501  0.00000000000E+00  0.00000000000E+00 -0.59264221484E+03  0.59264221486E+03  0.50400001928E-02 0.  1.
    10030    2    1    2    0    0  0.00000000000E+00  0.00000000000E+00  0.18963276545E+04  0.30816120843E+04  0.24290480572E+04 0.  0.
        3    1    3    3  502    0 -0.54204798425E+03 -0.76591442537E+02  0.23235738376E+04  0.23871903266E+04  0.10100000352E+00 0. -1.
       -3    1    3    3    0  502  0.54204798425E+03  0.76591442537E+02 -0.42724618311E+03  0.69442175763E+03  0.10100000352E+00 0.  1.
</event>
<event>
 5   0  0.3704241E-05  0.2538566E+04  0.7818609E-02  0.8389373E-01
       -2   -1    0    0    0  501  0.00000000000E+00  0.00000000000E+00  0.82277461187E+03  0.82277461188E+03  0.25500000920E-02 0.  1.
        2   -1    0    0  501    0  0.00000000000E+00  0.00000000000E+00 -0.19581058631E+04  0.19581058631E+04  0.25500000920E-02 0. -1.
    10030    2    1    2    0    0  0.00000000000E+00  0.00000000000E+00 -0.11353312512E+04  0.27808804749E+04  0.25385663604E+04 0.  0.
        2    1    3    3  502    0 -0.69044855549E+03 -0.47515913429E+03  0.47651693479E+03  0.96413889032E+03  0.25500000920E-02 0.  1.
       -2    1    3    3    0  502  0.69044855549E+03  0.47515913429E+03 -0.16118481860E+04  0.18167415846E+04  0.25500000920E-02 0. -1.
</event>
<event>
 5   0  0.1421242E-05  0.2480932E+04  0.7818609E-02  0.8409810E-01
        1   -1    0    0  501    0  0.00000000000E+00  0.00000000000E+00  0.21954530690E+04  0.21954530690E+04  0.50400001928E-02 0.  1.
       -1   -1    0    0    0  501  0.00000000000E+00  0.00000000000E+00 -0.70088283584E+03  0.70088283586E+03  0.50400001928E-02 0. -1.
    10030    2    1    2    0    0  0.00000000000E+00  0.00000000000E+00  0.14945702332E+04  0.28963359049E+04  0.24809315775E+04 0.  0.
        3    1    3    3  502    0  0.54941238681E+03  0.17094911716E+03 -0.53566473599E+03  0.78613884971E+03  0.10100000352E+00 0. -1.
       -3    1    3    3    0  502 -0.54941238681E+03 -0.17094911716E+03  0.20302349692E+04  0.21101970552E+04  0.10100000352E+00 0.  1.
</event>
<event>
 5   0  0.1429483E-05  0.2344824E+04  0.7818609E-02  0.8460454E-01
       -1   -1    0    0    0  501  0.00000000000E+00  0.00000000000E+00  0.64946231654E+03  0.64946231656E+03  0.50400001928E-02 0.  1.
        1   -1    0    0  501    0  0.00000000000E+00  0.00000000000E+00 -0.21164436467E+04  0.21164436467E+04  0.50400001928E-02 0. -1.
    10030    2    1    2    0    0  0.00000000000E+00  0.00000000000E+00 -0.14669813302E+04  0.27659059633E+04  0.23448244230E+04 0.  0.
        2    1    3    3  502    0  0.26748464477E+03 -0.56684950914E+03 -0.19022172861E+04  0.20028222599E+04  0.25500000920E-02 0. -1.
       -2    1    3    3    0  502 -0.26748464477E+03  0.56684950914E+03  0.43523595585E+03  0.76308370345E+03  0.25500000920E-02 0.  1.
</event>
<event>
 5   0  0.1502886E-05  0.2498898E+04  0.7818609E-02  0.8403378E-01
        1   -1    0    0  501    0  0.00000000000E+00  0.00000000000E+00  0.14593600267E+04  0.14593600267E+04  0.50400001928E-02 0.  1.
       -1   -1    0    0    0  501  0.00000000000E+00  0.00000000000E+00 -0.10697307093E+04  0.10697307093E+04  0.50400001928E-02 0. -1.
    10030    2    1    2    0    0  0.00000000000E+00  0.00000000000E+00  0.38962931734E+03  0.25290907360E+04  0.24988975461E+04 0.  0.
        4    1    3    3  502    0  0.37586482180E+03 -0.17748249371E+02  0.14006511998E+04  0.14503154006E+04  0.12699999809E+01 0.  1.
       -4    1    3    3    0  502 -0.37586482180E+03  0.17748249371E+02 -0.10110218825E+04  0.10787753355E+04  0.12699999809E+01 0. -1.
</event>
<event>
 5   0  0.3650620E-05  0.2529653E+04  0.7818609E-02  0.8392497E-01
        2   -1    0    0  501    0  0.00000000000E+00  0.00000000000E+00  0.10404239301E+04  0.10404239301E+04  0.25500000920E-02 0. -1.
       -2   -1    0    0    0  501  0.00000000000E+00  0.00000000000E+00 -0.15376292081E+04  0.15376292081E+04  0.25500000920E-02 0.  1.
    10030    2    1    2    0    0  0.00000000000E+00  0.00000000000E+00 -0.49720527797E+03  0.25780531381E+04  0.25296531175E+04 0.  0.
        3    1    3    3  502    0  0.56394813926E+03  0.29226950838E+03 -0.13632972185E+04  0.15040074087E+04  0.10100000352E+00 0.  1.
       -3    1    3    3    0  502 -0.56394813926E+03 -0.29226950838E+03  0.86609194051E+03  0.10740457294E+04  0.10100000352E+00 0. -1.
</event>
<event>
 5   0  0.3650620E-05  0.2479767E+04  0.7818609E-02  0.8410229E-01
        2   -1    0    0  501    0  0.00000000000E+00  0.00000000000E+00  0.13506750245E+04  0.13506750245E+04  0.25500000920E-02 0.  1.
       -2   -1    0    0    0  501  0.00000000000E+00  0.00000000000E+00 -0.11381799984E+04  0.11381799984E+04  0.25500000920E-02 0. -1.
    10030    2    1    2    0    0  0.00000000000E+00  0.00000000000E+00  0.21249502603E+03  0.24888550229E+04  0.24797671642E+04 0.  0.
        3    1    3    3  502    0 -0.72008081567E+03 -0.99526621522E+03 -0.62416160019E+02  0.12300272385E+04  0.10100000352E+00 0.  1.
       -3    1    3    3    0  502  0.72008081567E+03  0.99526621522E+03  0.27491118605E+03  0.12588277844E+04  0.10100000352E+00 0. -1.
</event>
<event>
 5   0  0.1429483E-05  0.2489305E+04  0.7818609E-02  0.8406806E-01
       -1   -1    0    0    0  501  0.00000000000E+00  0.00000000000E+00  0.10170893209E+04  0.10170893209E+04  0.50400001928E-02 0.  1.
        1   -1    0    0  501    0  0.00000000000E+00  0.00000000000E+00 -0.15231300403E+04  0.15231300403E+04  0.50400001928E-02 0. -1.
    10030    2    1    2    0    0  0.00000000000E+00  0.00000000000E+00 -0.50604071940E+03  0.25402193612E+04  0.24893045602E+04 0.  0.
        2    1    3    3  502    0  0.40400108274E+03 -0.38710619087E+03 -0.13875567959E+04  0.14961223011E+04  0.25500000920E-02 0. -1.
       -2    1    3    3    0  502 -0.40400108274E+03  0.38710619087E+03  0.88151607650E+03  0.10440970601E+04  0.25500000920E-02 0.  1.
</event>
<event>
 5   0  0.1492639E-05  0.2496203E+04  0.7818609E-02  0.8404339E-01
       -1   -1    0    0    0  501  0.00000000000E+00  0.00000000000E+00  0.95153080655E+03  0.95153080657E+03  0.50400001928E-02 0. -1.
        1   -1    0    0  501    0  0.00000000000E+00  0.00000000000E+00 -0.16371071055E+04  0.16371071055E+04  0.50400001928E-02 0.  1.
    10030    2    1    2    0    0  0.00000000000E+00  0.00000000000E+00 -0.68557629897E+03  0.25886379121E+04  0.24962033928E+04 0.  0.
        5    1    3    3  502    0  0.11472264705E+04 -0.36049818000E+03  0.37230557476E+01  0.12025487365E+04  0.46999998093E+01 0.  1.
       -5    1    3    3    0  502 -0.11472264705E+04  0.36049818000E+03 -0.68929935471E+03  0.13860891756E+04  0.46999998093E+01 0. -1.
</event>
<event>
 5   0  0.3579097E-05  0.2452982E+04  0.7818609E-02  0.8419930E-01
       -2   -1    0    0    0  501  0.00000000000E+00  0.00000000000E+00  0.10461746046E+04  0.10461746046E+04  0.25500000920E-02 0.  1.
        2   -1    0    0  501    0  0.00000000000E+00  0.00000000000E+00 -0.14378864741E+04  0.14378864741E+04  0.25500000920E-02 0. -1.
    10030    2    1    2    0    0  0.00000000000E+00  0.00000000000E+00 -0.39171186954E+03  0.24840610786E+04  0.24529821144E+04 0.  0.
        5    1    3    3  502    0  0.53013255858E+03  0.59216271547E+03 -0.11418007268E+04  0.13911966795E+04  0.46999998093E+01 0. -1.
       -5    1    3    3    0  502 -0.53013255858E+03 -0.59216271547E+03  0.75008885724E+03  0.10928643992E+04  0.46999998093E+01 0.  1.
</event>
<event>
 5   0  0.3581449E-05  0.2464746E+04  0.7818609E-02  0.8415654E-01
        2   -1    0    0  501    0  0.00000000000E+00  0.00000000000E+00  0.12790062183E+04  0.12790062183E+04  0.25500000920E-02 0.  1.
       -2   -1    0    0    0  501  0.00000000000E+00  0.00000000000E+00 -0.11874401413E+04  0.11874401413E+04  0.25500000920E-02 0. -1.
    10030    2    1    2    0    0  0.00000000000E+00  0.00000000000E+00  0.91566077044E+02  0.24664463596E+04  0.24647460921E+04 0.  0.
        1    1    3    3  502    0  0.93431081757E+02 -0.12266871600E+04 -0.26741566509E+02  0.12305307257E+04  0.50400001928E-02 0.  1.
       -1    1    3    3    0  502 -0.93431081757E+02  0.12266871600E+04  0.11830764355E+03  0.12359156339E+04  0.50400001928E-02 0. -1.
</event>
<event>
 5   0  0.1201438E-05  0.2305229E+04  0.7818609E-02  0.8475862E-01
       -3   -1    0    0    0  501  0.00000000000E+00  0.00000000000E+00  0.84962137896E+03  0.84962138496E+03  0.10100000352E+00 0. -1.
        3   -1    0    0  501    0  0.00000000000E+00  0.00000000000E+00 -0.15636610790E+04  0.15636610822E+04  0.10100000352E+00 0.  1.
    10030    2    1    2    0    0  0.00000000000E+00  0.00000000000E+00 -0.71403970000E+03  0.24132824672E+04  0.23052287464E+04 0.  0.
        3    1    3    3  502    0  0.50493161390E+03 -0.80171821706E+03 -0.10441483320E+04  0.14099481493E+04  0.10100000352E+00 0.  1.
       -3    1    3    3    0  502 -0.50493161390E+03  0.80171821706E+03  0.33010863203E+03  0.10033343179E+04  0.10100000352E+00 0. -1.
</event>
<event>
 5   0  0.1502886E-05  0.2522218E+04  0.7818609E-02  0.8395113E-01
        1   -1    0    0  501    0  0.00000000000E+00  0.00000000000E+00  0.16582053594E+04  0.16582053594E+04  0.50400001928E-02 0.  1.
       -1   -1    0    0    0  501  0.00000000000E+00  0.00000000000E+00 -0.95910651925E+03  0.95910651926E+03  0.50400001928E-02 0. -1.
    10030    2    1    2    0    0  0.00000000000E+00  0.00000000000E+00  0.69909884015E+03  0.26173118787E+04  0.25222177309E+04 0.  0.
        4    1    3    3  502    0 -0.26636529366E+03 -0.12186976779E+04  0.15758998491E+03  0.12573824860E+04  0.12699999809E+01 0.  1.
       -4    1    3    3    0  502  0.26636529366E+03  0.12186976779E+04  0.54150885524E+03  0.13599293927E+04  0.12699999809E+01 0. -1.
</event>
<event>
 5   0  0.3578670E-05  0.2252788E+04  0.7818609E-02  0.8496772E-01
        2   -1    0    0  501    0  0.00000000000E+00  0.00000000000E+00  0.18302052636E+04  0.18302052636E+04  0.25500000920E-02 0. -1.
       -2   -1    0    0    0  501  0.00000000000E+00  0.00000000000E+00 -0.69323573756E+03  0.69323573756E+03  0.25500000920E-02 0.  1.
    10030    2    1    2    0    0  0.00000000000E+00  0.00000000000E+00  0.11369695260E+04  0.25234410011E+04  0.22527882242E+04 0.  0.
        4    1    3    3  502    0 -0.73843889273E+03  0.48804245941E+03  0.13488017507E+04  0.16133025804E+04  0.12699999809E+01 0. -1.
       -4    1    3    3    0  502  0.73843889273E+03 -0.48804245941E+03 -0.21183222469E+03  0.91013842068E+03  0.12699999809E+01 0.  1.
</event>
<event>
 5   0  0.3650620E-05  0.2490078E+04  0.7818609E-02  0.8406529E-01
        2   -1    0    0  501    0  0.00000000000E+00  0.00000000000E+00  0.80472507666E+03  0.80472507666E+03  0.25500000920E-02 0. -1.
       -2   -1    0    0    0  501  0.00000000000E+00  0.00000000000E+00 -0.19262756134E+04  0.19262756134E+04  0.25500000920E-02 0.  1.
    10030    2    1    2    0    0  0.00000000000E+00  0.00000000000E+00 -0.11215505367E+04  0.27310006900E+04  0.24900781439E+04 0.  0.
        3    1    3    3  502    0 -0.49767896453E+03 -0.11259013818E+04 -0.35622566627E+03  0.12814971747E+04  0.10100000352E+00 0. -1.
       -3    1    3    3    0  502  0.49767896453E+03  0.11259013818E+04 -0.76532487043E+03  0.14495035153E+04  0.10100000352E+00 0.  1.
</event>
<event>
 5   0  0.3579097E-05  0.2471060E+04  0.7818609E-02  0.8413369E-01
        2   -1    0    0  501    0  0.00000000000E+00  0.00000000000E+00  0.13426127103E+04  0.13426127103E+04  0.25500000920E-02 0.  1.
       -2   -1    0    0    0  501  0.00000000000E+00  0.00000000000E+00 -0.11369878535E+04  0.11369878535E+04  0.25500000920E-02 0. -1.
    10030    2    1    2    0    0  0.00000000000E+00  0.00000000000E+00  0.20562485675E+03  0.24796005638E+04  0.24710599698E+04 0.  0.
        5    1    3    3  502    0 -0.67315089965E+03 -0.15902282096E+03 -0.92448952891E+03  0.11546096182E+04  0.46999998093E+01 0. -1.
       -5    1    3    3    0  502  0.67315089965E+03  0.15902282096E+03  0.11301143857E+04  0.13249909456E+04  0.46999998093E+01 0.  1.
</event>
<event>
 5   0  0.3579097E-05  0.2511124E+04  0.7818609E-02  0.8399033E-01
        2   -1    0    0  501    0  0.00000000000E+00  0.00000000000E+00  0.94078944396E+03  0.94078944396E+03  0.25500000920E-02 0. -1.
       -2   -1    0    0    0  501  0.00000000000E+00  0.00000000000E+00 -0.16756519440E+04  0.16756519440E+04  0.25500000920E-02 0.  1.
    10030    2    1    2    0    0  0.00000000000E+00  0.00000000000E+00 -0.73486250009E+03  0.26164413880E+04  0.25111237809E+04 0.  0.
        5    1    3    3  502    0 -0.10265942309E+04  0.32817696262E+03  0.30364450450E+03  0.11197401077E+04  0.46999998093E+01 0. -1.
       -5    1    3    3    0  502  0.10265942309E+04 -0.32817696262E+03 -0.10385070046E+04  0.14967012803E+04  0.46999998093E+01 0.  1.
</event>
<event>
 5   0  0.3579097E-05  0.2496803E+04  0.7818609E-02  0.8404125E-01
       -2   -1    0    0    0  501  0.00000000000E+00  0.00000000000E+00  0.14796105774E+04  0.14796105774E+04  0.25500000920E-02 0.  1.
        2   -1    0    0  501    0  0.00000000000E+00  0.00000000000E+00 -0.10533221819E+04  0.10533221819E+04  0.25500000920E-02 0. -1.
    10030    2    1    2    0    0  0.00000000000E+00  0.00000000000E+00  0.42628839551E+03  0.25329327592E+04  0.24968032695E+04 0.  0.
        5    1    3    3  502    0  0.51523367909E+03  0.46955025293E+03 -0.83747749200E+03  0.10896484863E+04  0.46999998093E+01 0. -1.
       -5    1    3    3    0  502 -0.51523367909E+03 -0.46955025293E+03  0.12637658875E+04  0.14432842729E+04  0.46999998093E+01 0.  1.
</event>
<event>
 5   0  0.1492639E-05  0.2517838E+04  0.7818609E-02  0.8396658E-01
        1   -1    0    0  501    0  0.00000000000E+00  0.00000000000E+00  0.16822805565E+04  0.16822805565E+04  0.50400001928E-02 0.  1.
       -1   -1    0    0    0  501  0.00000000000E+00  0.00000000000E+00 -0.94210049569E+03  0.94210049570E+03  0.50400001928E-02 0. -1.
    10030    2    1    2    0    0  0.00000000000E+00  0.00000000000E+00  0.74018006085E+03  0.26243810522E+04  0.25178382364E+04 0.  0.
        5    1    3    3  502    0 -0.11381106328E+03  0.39833815740E+03 -0.86900707076E+03  0.96271575493E+03  0.46999998093E+01 0. -1.
       -5    1    3    3    0  502  0.11381106328E+03 -0.39833815740E+03  0.16091871316E+04  0.16616652973E+04  0.46999998093E+01 0.  1.
</event>
<event>
 5   0  0.3581449E-05  0.2162585E+04  0.7818609E-02  0.8534164E-01
        2   -1    0    0  501    0  0.00000000000E+00  0.00000000000E+00  0.11048737770E+04  0.11048737770E+04  0.25500000920E-02 0.  1.
       -2   -1    0    0    0  501  0.00000000000E+00  0.00000000000E+00 -0.10582149980E+04  0.10582149980E+04  0.25500000920E-02 0. -1.
    10030    2    1    2    0    0  0.00000000000E+00  0.00000000000E+00  0.46658778995E+02  0.21630887750E+04  0.21625854912E+04 0.  0.
        1    1    3    3  502    0 -0.12675096744E+03 -0.45967824749E+03  0.99403146650E+03  0.11024828595E+04  0.50400001928E-02 0.  1.
       -1    1    3    3    0  502  0.12675096744E+03  0.45967824749E+03 -0.94737268751E+03  0.10606059155E+04  0.50400001928E-02 0. -1.
</event>
<event>
 5   0  0.1429483E-05  0.2521605E+04  0.7818609E-02  0.8395329E-01
       -1   -1    0    0    0  501  0.00000000000E+00  0.00000000000E+00  0.96596114424E+03  0.96596114425E+03  0.50400001928E-02 0.  1.
        1   -1    0    0  501    0  0.00000000000E+00  0.00000000000E+00 -0.16456388475E+04  0.16456388475E+04  0.50400001928E-02 0. -1.
    10030    2    1    2    0    0  0.00000000000E+00  0.00000000000E+00 -0.67967770322E+03  0.26115999917E+04  0.25216051904E+04 0.  0.
        2    1    3    3  502    0  0.12049613560E+04  0.24068496770E+03 -0.63234011926E+03  0.13819244370E+04  0.25500000920E-02 0.  1.
       -2    1    3    3    0  502 -0.12049613560E+04 -0.24068496770E+03 -0.47337583954E+02  0.12296755547E+04  0.25500000920E-02 0. -1.
</event>
<event>
 5   0  0.1502886E-05  0.2568334E+04  0.7818609E-02  0.8379038E-01
        1   -1    0    0  501    0  0.00000000000E+00  0.00000000000E+00  0.13777208447E+04  0.13777208447E+04  0.50400001928E-02 0. -1.
       -1   -1    0    0    0  501  0.00000000000E+00  0.00000000000E+00 -0.11969657192E+04  0.11969657192E+04  0.50400001928E-02 0.  1.
    10030    2    1    2    0    0  0.00000000000E+00  0.00000000000E+00  0.18075512549E+03  0.25746865639E+04  0.25683337959E+04 0.  0.
        4    1    3    3  502    0  0.46804604943E+03 -0.10144478577E+04 -0.54436428127E+03  0.12427814144E+04  0.12699999809E+01 0.  1.
       -4    1    3    3    0  502 -0.46804604943E+03  0.10144478577E+04  0.72511940675E+03  0.13319051495E+04  0.12699999809E+01 0. -1.
</event>
<event>
 5   0  0.1421242E-05  0.2461904E+04  0.7818609E-02  0.8416684E-01
       -1   -1    0    0    0  501  0.00000000000E+00  0.00000000000E+00  0.12826024015E+04  0.12826024015E+04  0.50400001928E-02 0.  1.
        1   -1    0    0  501    0  0.00000000000E+00  0.00000000000E+00 -0.11813819672E+04  0.11813819672E+04  0.50400001928E-02 0. -1.
    10030    2    1    2    0    0  0.00000000000E+00  0.00000000000E+00  0.10122043435E+03  0.24639843687E+04  0.24619044240E+04 0.  0.
        3    1    3    3  502    0  0.63954434546E+02 -0.12205599465E+04 -0.95754865663E+02  0.12259795093E+04  0.10100000352E+00 0.  1.
       -3    1    3    3    0  502 -0.63954434546E+02  0.12205599465E+04  0.19697530002E+03  0.12380048594E+04  0.10100000352E+00 0. -1.
</event>
<event>
 5   0  0.3581449E-05  0.2585877E+04  0.7818609E-02  0.8373014E-01
       -2   -1    0    0    0  501  0.00000000000E+00  0.00000000000E+00  0.90852750961E+03  0.90852750962E+03  0.25500000920E-02 0.  1.
        2   -1    0    0  501    0  0.00000000000E+00  0.00000000000E+00 -0.18399992740E+04  0.18399992740E+04  0.25500000920E-02 0. -1.
    10030    2    1    2    0    0  0.00000000000E+00  0.00000000000E+00 -0.93147176443E+03  0.27485267837E+04  0.25858769949E+04 0.  0.
        1    1    3    3  502    0  0.10624904484E+04 -0.14297860384E+02  0.31721016535E+03  0.11089241051E+04  0.50400001928E-02 0.  1.
       -1    1    3    3    0  502 -0.10624904484E+04  0.14297860384E+02 -0.12486819298E+04  0.16396026786E+04  0.50400001928E-02 0. -1.
</event>
<event>
 5   0  0.1502886E-05  0.2476553E+04  0.7818609E-02  0.8411387E-01
       -1   -1    0    0    0  501  0.00000000000E+00  0.00000000000E+00  0.14726030492E+04  0.14726030492E+04  0.50400001928E-02 0.  1.
        1   -1    0    0  501    0  0.00000000000E+00  0.00000000000E+00 -0.10412368020E+04  0.10412368020E+04  0.50400001928E-02 0. -1.
    10030    2    1    2    0    0  0.00000000000E+00  0.00000000000E+00  0.43136624717E+03  0.25138398512E+04  0.24765528378E+04 0.  0.
        4    1    3    3  502    0  0.78010554369E+03  0.18598860087E+03  0.11733767499E+04  0.14212568484E+04  0.12699999809E+01 0.  1.
       -4    1    3    3    0  502 -0.78010554369E+03 -0.18598860087E+03 -0.74201050274E+03  0.10925830028E+04  0.12699999809E+01 0. -1.
</event>
<event>
 5   0  0.1502886E-05  0.2511021E+04  0.7818609E-02  0.8399070E-01
       -1   -1    0    0    0  501  0.00000000000E+00  0.00000000000E+00  0.10039374176E+04  0.10039374176E+04  0.50400001928E-02 0. -1.
        1   -1    0    0  501    0  0.00000000000E+00  0.00000000000E+00 -0.15701243355E+04  0.15701243355E+04  0.50400001928E-02 0.  1.
    10030    2    1    2    0    0  0.00000000000E+00  0.00000000000E+00 -0.56618691789E+03  0.25740617531E+04  0.25110209643E+04 0.  0.
        4    1    3    3  502    0 -0.80296040169E+03  0.45876007978E+03  0.58740096093E+03  0.10955581770E+04  0.12699999809E+01 0. -1.
       -4    1    3    3    0  502  0.80296040169E+03 -0.45876007978E+03 -0.11535878788E+04  0.14785035761E+04  0.12699999809E+01 0.  1.
</event>
<event>
 5   0  0.1492639E-05  0.2500571E+04  0.7818609E-02  0.8402782E-01
       -1   -1    0    0    0  501  0.00000000000E+00  0.00000000000E+00  0.12479858325E+04  0.12479858325E+04  0.50400001928E-02 0.  1.
        1   -1    0    0  501    0  0.00000000000E+00  0.00000000000E+00 -0.12525893676E+04  0.12525893676E+04  0.50400001928E-02 0. -1.
    10030    2    1    2    0    0  0.00000000000E+00  0.00000000000E+00 -0.46035351860E+01  0.25005752001E+04  0.25005709626E+04 0.  0.
        5    1    3    3  502    0 -0.33867723366E+03 -0.64655931313E+03 -0.10174145560E+04  0.12521564131E+04  0.46999998093E+01 0. -1.
       -5    1    3    3    0  502  0.33867723366E+03  0.64655931313E+03  0.10128110208E+04  0.12484187871E+04  0.46999998093E+01 0.  1.
</event>
<event>
 5   0  0.3704241E-05  0.2529879E+04  0.7818609E-02  0.8392418E-01
        2   -1    0    0  501    0  0.00000000000E+00  0.00000000000E+00  0.17668871909E+04  0.17668871909E+04  0.25500000920E-02 0. -1.
       -2   -1    0    0    0  501  0.00000000000E+00  0.00000000000E+00 -0.90558793875E+03  0.90558793875E+03  0.25500000920E-02 0.  1.
    10030    2    1    2    0    0  0.00000000000E+00  0.00000000000E+00  0.86129925218E+03  0.26724751297E+04  0.25298788344E+04 0.  0.
        2    1    3    3  502    0 -0.41890475454E+02 -0.52923208956E+03 -0.78220736997E+03  0.94535167329E+03  0.25500000920E-02 0.  1.
       -2    1    3    3    0  502  0.41890475454E+02  0.52923208956E+03  0.16435066222E+04  0.17271234564E+04  0.25500000920E-02 0. -1.
</event>
<event>
 5   0  0.3578670E-05  0.2539849E+04  0.7818609E-02  0.8388925E-01
       -2   -1    0    0    0  501  0.00000000000E+00  0.00000000000E+00  0.10293737326E+04  0.10293737326E+04  0.25500000920E-02 0.  1.
        2   -1    0    0  501    0  0.00000000000E+00  0.00000000000E+00 -0.15666888066E+04  0.15666888066E+04  0.25500000920E-02 0. -1.
    10030    2    1    2    0    0  0.00000000000E+00  0.00000000000E+00 -0.53731507398E+03  0.25960625392E+04  0.25398490544E+04 0.  0.
        4    1    3    3  502    0 -0.75846070307E+03  0.81147854846E+03 -0.89786847250E+03  0.14282609984E+04  0.12699999809E+01 0. -1.
       -4    1    3    3    0  502  0.75846070307E+03 -0.81147854846E+03  0.36055339853E+03  0.11678015408E+04  0.12699999809E+01 0.  1.
</event>
<event>
 5   0  0.3579097E-05  0.2543099E+04  0.7818609E-02  0.8387790E-01
        2   -1    0    0  501    0  0.00000000000E+00  0.00000000000E+00  0.21564026799E+04  0.21564026799E+04  0.25500000920E-02 0.  1.
       -2   -1    0    0    0  501  0.00000000000E+00  0.00000000000E+00 -0.74978476645E+03  0.74978476645E+03  0.25500000920E-02 0. -1.
    10030    2    1    2    0    0  0.00000000000E+00  0.00000000000E+00  0.14066179134E+04  0.29061874463E+04  0.25430988024E+04 0.  0.
        5    1    3    3  502    0  0.42727491378E+03  0.25327605522E+03  0.20409421150E+04  0.21005188452E+04  0.46999998093E+01 0.  1.
       -5    1    3    3    0  502 -0.42727491378E+03 -0.25327605522E+03 -0.63432420162E+03  0.80566860113E+03  0.46999998093E+01 0. -1.
</event>
<event>
 5   0  0.3650620E-05  0.2437185E+04  0.7818609E-02  0.8425712E-01
       -2   -1    0    0    0  501  0.00000000000E+00  0.00000000000E+00  0.10184651643E+04  0.10184651643E+04  0.25500000920E-02 0. -1.
        2   -1    0    0  501    0  0.00000000000E+00  0.00000000000E+00 -0.14580448062E+04  0.14580448062E+04  0.25500000920E-02 0.  1.
    10030    2    1    2    0    0  0.00000000000E+00  0.00000000000E+00 -0.43957964193E+03  0.24765099706E+04  0.24371851330E+04 0.  0.
        3    1    3    3  502    0 -0.50165091513E+03 -0.84490387422E+03  0.51256934199E+03  0.11082614935E+04  0.10100000352E+00 0. -1.
       -3    1    3    3    0  502  0.50165091513E+03  0.84490387422E+03 -0.95214898392E+03  0.13682484771E+04  0.10100000352E+00 0.  1.
</event>
<event>
 5   0  0.3579097E-05  0.2580913E+04  0.7818609E-02  0.8374714E-01
        2   -1    0    0  501    0  0.00000000000E+00  0.00000000000E+00  0.83343165334E+03  0.83343165335E+03  0.25500000920E-02 0. -1.
       -2   -1    0    0    0  501  0.00000000000E+00  0.00000000000E+00 -0.19980975540E+04  0.19980975540E+04  0.25500000920E-02 0.  1.
    10030    2    1    2    0    0  0.00000000000E+00  0.00000000000E+00 -0.11646659007E+04  0.28315292074E+04  0.25809128215E+04 0.  0.
        5    1    3    3  502    0  0.72574042954E+03 -0.52409543109E+03 -0.16020379240E+04  0.18351901242E+04  0.46999998093E+01 0.  1.
       -5    1    3    3    0  502 -0.72574042954E+03  0.52409543109E+03  0.43737202330E+03  0.99633908321E+03  0.46999998093E+01 0. -1.
</event>
<event>
 5   0  0.3704241E-05  0.2498964E+04  0.7818609E-02  0.8403355E-01
        2   -1    0    0  501    0  0.00000000000E+00  0.00000000000E+00  0.97744241618E+03  0.97744241618E+03  0.25500000920E-02 0. -1.
       -2   -1    0    0    0  501  0.00000000000E+00  0.00000000000E+00 -0.15972347091E+04  0.15972347091E+04  0.25500000920E-02 0.  1.
    10030    2    1    2    0    0  0.00000000000E+00  0.00000000000E+00 -0.61979229288E+03  0.25746771252E+04  0.24989637478E+04 0.  0.
        2    1    3    3  502    0 -0.11695131722E+04 -0.21382070202E+02  0.14271631705E+03  0.11783828750E+04  0.25500000920E-02 0.  1.
       -2    1    3    3    0  502  0.11695131722E+04  0.21382070202E+02 -0.76250860993E+03  0.13962942502E+04  0.25500000920E-02 0. -1.
</event>
<event>
 5   0  0.1456876E-05  0.2293179E+04  0.7818609E-02  0.8480615E-01
       -1   -1    0    0    0  501  0.00000000000E+00  0.00000000000E+00  0.58765635136E+03  0.58765635138E+03  0.50400001928E-02 0. -1.
        1   -1    0    0  501    0  0.00000000000E+00  0.00000000000E+00 -0.22371366162E+04  0.22371366162E+04  0.50400001928E-02 0.  1.
    10030    2    1    2    0    0  0.00000000000E+00  0.00000000000E+00 -0.16494802648E+04  0.28247929676E+04  0.22931790522E+04 0.  0.
        1    1    3    3  502    0 -0.99151418285E+02 -0.88250465207E+03 -0.17181497908E+04  0.19340848400E+04  0.50400001928E-02 0.  1.
       -1    1    3    3    0  502  0.99151418285E+02  0.88250465207E+03  0.68669525985E+02  0.89070812756E+03  0.50400001928E-02 0. -1.
</event>
<event>
 5   0  0.1502886E-05  0.2436346E+04  0.7818609E-02  0.8426020E-01
       -1   -1    0    0    0  501  0.00000000000E+00  0.00000000000E+00  0.11077094825E+04  0.11077094825E+04  0.50400001928E-02 0.  1.
        1   -1    0    0  501    0  0.00000000000E+00  0.00000000000E+00 -0.13396518827E+04  0.13396518827E+04  0.50400001928E-02 0. -1.
    10030    2    1    2    0    0  0.00000000000E+00  0.00000000000E+00 -0.23194240020E+03  0.24473613652E+04  0.24363457010E+04 0.  0.
        4    1    3    3  502    0  0.60585203974E+02  0.39588842392E+03  0.10396848258E+04  0.11141563450E+04  0.12699999809E+01 0.  1.
       -4    1    3    3    0  502 -0.60585203974E+02 -0.39588842392E+03 -0.12716272260E+04  0.13332050202E+04  0.12699999809E+01 0. -1.
</event>
<event>
 5   0  0.3581449E-05  0.2566871E+04  0.7818609E-02  0.8379542E-01
       -2   -1    0    0    0  501  0.00000000000E+00  0.00000000000E+00  0.90684059785E+03  0.90684059785E+03  0.25500000920E-02 0. -1.
        2   -1    0    0  501    0  0.00000000000E+00  0.00000000000E+00 -0.18164231272E+04  0.18164231272E+04  0.25500000920E-02 0.  1.
    10030    2    1    2    0    0  0.00000000000E+00  0.00000000000E+00 -0.90958252937E+03  0.27232637251E+04  0.25668706509E+04 0.  0.
        1    1    3    3  502    0 -0.86812566498E+03  0.93175002323E+03 -0.28568740897E+03  0.13051504019E+04  0.50400001928E-02 0. -1.
       -1    1    3    3    0  502  0.86812566498E+03 -0.93175002323E+03 -0.62389512040E+03  0.14181133231E+04  0.50400001928E-02 0.  1.
</event>
<event>
 5   0  0.3578670E-05  0.2580775E+04  0.7818609E-02  0.8374761E-01
        2   -1    0    0  501    0  0.00000000000E+00  0.00000000000E+00  0.13415444032E+04  0.13415444032E+04  0.25500000920E-02 0. -1.
       -2   -1    0    0    0  501  0.00000000000E+00  0.00000000000E+00 -0.12411809295E+04  0.12411809295E+04  0.25500000920E-02 0.  1.
    10030    2    1    2    0    0  0.00000000000E+00  0.00000000000E+00  0.10036347363E+03  0.25827253327E+04  0.25807745576E+04 0.  0.
        4    1    3    3  502    0  0.13868112413E+03 -0.10465953365E+04 -0.69233830723E+03  0.12625086919E+04  0.12699999809E+01 0.  1.
       -4    1    3    3    0  502 -0.13868112413E+03  0.10465953365E+04  0.79270178086E+03  0.13202166408E+04  0.12699999809E+01 0. -1.
</event>
<event>
 5   0  0.1429483E-05  0.2537843E+04  0.7818609E-02  0.8389627E-01
       -1   -1    0    0    0  501  0.00000000000E+00  0.00000000000E+00  0.16404445949E+04  0.16404445949E+04  0.50400001928E-02 0. -1.
        1   -1    0    0  501    0  0.00000000000E+00  0.00000000000E+00 -0.98153968462E+03  0.98153968463E+03  0.50400001928E-02 0.  1.
    10030    2    1    2    0    0  0.00000000000E+00  0.00000000000E+00  0.65890491023E+03  0.26219842795E+04  0.25378427613E+04 0.  0.
        2    1    3    3  502    0 -0.78218935612E+03  0.11349440907E+03 -0.69616390390E+03  0.10532546467E+04  0.25500000920E-02 0.  1.
       -2    1    3    3    0  502  0.78218935612E+03 -0.11349440907E+03  0.13550688141E+04  0.15687296328E+04  0.25500000920E-02 0. -1.
</event>
<event>
 5   0  0.1429483E-05  0.2511622E+04  0.7818609E-02  0.8398857E-01
        1   -1    0    0  501    0  0.00000000000E+00  0.00000000000E+00  0.10428715823E+04  0.10428715823E+04  0.50400001928E-02 0. -1.
       -1   -1    0    0    0  501  0.00000000000E+00  0.00000000000E+00 -0.15122301216E+04  0.15122301216E+04  0.50400001928E-02 0.  1.
    10030    2    1    2    0    0  0.00000000000E+00  0.00000000000E+00 -0.46935853933E+03  0.25551017039E+04  0.25116224396E+04 0.  0.
        2    1    3    3  502    0 -0.84008004172E+03 -0.62643787463E+03 -0.93868725501E+03  0.14068733596E+04  0.25500000920E-02 0.  1.
       -2    1    3    3    0  502  0.84008004172E+03  0.62643787463E+03  0.46932871568E+03  0.11482283443E+04  0.25500000920E-02 0. -1.
</event>
<event>
 5   0  0.3704241E-05  0.1840026E+04  0.7818609E-02  0.8685299E-01
        2   -1    0    0  501    0  0.00000000000E+00  0.00000000000E+00  0.13484580969E+04  0.13484580969E+04  0.25500000920E-02 0. -1.
       -2   -1    0    0    0  501  0.00000000000E+00  0.00000000000E+00 -0.62769741073E+03  0.62769741073E+03  0.25500000920E-02 0.  1.
    10030    2    1    2    0    0  0.00000000000E+00  0.00000000000E+00  0.72076068619E+03  0.19761555077E+04  0.18400257128E+04 0.  0.
        2    1    3    3  502    0  0.27896733222E+03 -0.26496943274E+03  0.12579060139E+04  0.13154311508E+04  0.25500000920E-02 0. -1.
       -2    1    3    3    0  502 -0.27896733222E+03  0.26496943274E+03 -0.53714532767E+03  0.66072435688E+03  0.25500000920E-02 0.  1.
</event>
<event>
 5   0  0.3650620E-05  0.2086631E+04  0.7818609E-02  0.8567156E-01
        2   -1    0    0  501    0  0.00000000000E+00  0.00000000000E+00  0.13252882409E+04  0.13252882409E+04  0.25500000920E-02 0.  1.
       -2   -1    0    0    0  501  0.00000000000E+00  0.00000000000E+00 -0.82133584865E+03  0.82133584866E+03  0.25500000920E-02 0. -1.
    10030    2    1    2    0    0  0.00000000000E+00  0.00000000000E+00  0.50395239223E+03  0.21466240895E+04  0.20866305299E+04 0.  0.
        3    1    3    3  502    0 -0.37928035883E+03  0.38282835526E+03  0.11710235678E+04  0.12890722814E+04  0.10100000352E+00 0.  1.
       -3    1    3    3    0  502  0.37928035883E+03 -0.38282835526E+03 -0.66707117555E+03  0.85755180814E+03  0.10100000352E+00 0. -1.
</event>
<event>
 5   0  0.3704241E-05  0.2510509E+04  0.7818609E-02  0.8399251E-01
       -2   -1    0    0    0  501  0.00000000000E+00  0.00000000000E+00  0.12944380043E+04  0.12944380043E+04  0.25500000920E-02 0. -1.
        2   -1    0    0  501    0  0.00000000000E+00  0.00000000000E+00 -0.12172573419E+04  0.12172573419E+04  0.25500000920E-02 0.  1.
    10030    2    1    2    0    0  0.00000000000E+00  0.00000000000E+00  0.77180662368E+02  0.25116953462E+04  0.25105092426E+04 0.  0.
        2    1    3    3  502    0  0.11233400777E+04 -0.31820578962E+03 -0.42262238117E+03  0.12416752924E+04  0.25500000920E-02 0. -1.
       -2    1    3    3    0  502 -0.11233400777E+04  0.31820578962E+03  0.49980304354E+03  0.12700200538E+04  0.25500000920E-02 0.  1.
</event>
<event>
 5   0  0.3581449E-05  0.2480571E+04  0.7818609E-02  0.8409940E-01
       -2   -1    0    0    0  501  0.00000000000E+00  0.00000000000E+00  0.12180266116E+04  0.12180266116E+04  0.25500000920E-02 0. -1.
        2   -1    0    0  501    0  0.00000000000E+00  0.00000000000E+00 -0.12629513814E+04  0.12629513814E+04  0.25500000920E-02 0.  1.
    10030    2    1    2    0    0  0.00000000000E+00  0.00000000000E+00 -0.44924769879E+02  0.24809779930E+04  0.24805712178E+04 0.  0.
        1    1    3    3  502    0 -0.34891393087E+03 -0.10226798088E+04 -0.63140824064E+03  0.12515155967E+04  0.50400001928E-02 0.  1.
       -1    1    3    3    0  502  0.34891393087E+03  0.10226798088E+04  0.58648347077E+03  0.12294623963E+04  0.50400001928E-02 0. -1.
</event>
<event>
 5   0  0.1492639E-05  0.2473974E+04  0.7818609E-02  0.8412317E-01
        1   -1    0    0  501    0  0.00000000000E+00  0.00000000000E+00  0.15860350957E+04  0.15860350957E+04  0.50400001928E-02 0. -1.
       -1   -1    0    0    0  501  0.00000000000E+00  0.00000000000E+00 -0.96475595447E+03  0.96475595448E+03  0.50400001928E-02 0.  1.
    10030    2    1    2    0    0  0.00000000000E+00  0.00000000000E+00  0.62127914125E+03  0.25507910502E+04  0.24739739713E+04 0.  0.
        5    1    3    3  502    0  0.11017440444E+04 -0.54709121281E+03  0.44493746725E+03  0.13081055669E+04  0.46999998093E+01 0.  1.
       -5    1    3    3    0  502 -0.11017440444E+04  0.54709121281E+03  0.17634167400E+03  0.12426854833E+04  0.46999998093E+01 0. -1.
</event>
<event>
 5   0  0.3579097E-05  0.2515479E+04  0.7818609E-02  0.8397492E-01
        2   -1    0    0  501    0  0.00000000000E+00  0.00000000000E+00  0.17788962054E+04  0.17788962054E+04  0.25500000920E-02 0.  1.
       -2   -1    0    0    0  501  0.00000000000E+00  0.00000000000E+00 -0.88926435618E+03  0.88926435618E+03  0.25500000920E-02 0. -1.
    10030    2    1    2    0    0  0.00000000000E+00  0.00000000000E+00  0.88963184922E+03  0.26681605616E+04  0.25154792695E+04 0.  0.
        5    1    3    3  502    0  0.38971710630E+03 -0.21141487497E+03 -0.80361608336E+03  0.91782164484E+03  0.46999998093E+01 0. -1.
       -5    1    3    3    0  502 -0.38971710630E+03  0.21141487497E+03  0.16932479326E+04  0.17503389168E+04  0.46999998093E+01 0.  1.
</event>
<event>
 5   0  0.3578670E-05  0.2545843E+04  0.7818609E-02  0.8386833E-01
        2   -1    0    0  501    0  0.00000000000E+00  0.00000000000E+00  0.16987481020E+04  0.16987481020E+04  0.25500000920E-02 0.  1.
       -2   -1    0    0    0  501  0.00000000000E+00  0.00000000000E+00 -0.95383733718E+03  0.95383733718E+03  0.25500000920E-02 0. -1.
    10030    2    1    2    0    0  0.00000000000E+00  0.00000000000E+00  0.74491076485E+03  0.26525854392E+04  0.25458431736E+04 0.  0.
        4    1    3    3  502    0 -0.11705234204E+04  0.48246902859E+03  0.50999901073E+03  0.13649183291E+04  0.12699999809E+01 0. -1.
       -4    1    3    3    0  502  0.11705234204E+04 -0.48246902859E+03  0.23491175412E+03  0.12876671101E+04  0.12699999809E+01 0.  1.
</event>
<event>
 5   0  0.3704241E-05  0.2519575E+04  0.7818609E-02  0.8396045E-01
        2   -1    0    0  501    0  0.00000000000E+00  0.00000000000E+00  0.16642373350E+04  0.16642373350E+04  0.25500000920E-02 0. -1.
       -2   -1    0    0    0  501  0.00000000000E+00  0.00000000000E+00 -0.95362868759E+03  0.95362868759E+03  0.25500000920E-02 0.  1.
    10030    2    1    2    0    0  0.00000000000E+00  0.00000000000E+00  0.71060864738E+03  0.26178660226E+04  0.25195749368E+04 0.  0.
        2    1    3    3  502    0 -0.10451704759E+04  0.99967243369E+02  0.10786602246E+04  0.15052849078E+04  0.25500000920E-02 0. -1.
       -2    1    3    3    0  502  0.10451704759E+04 -0.99967243369E+02 -0.36805157721E+03  0.11125811148E+04  0.25500000920E-02 0.  1.
</event>
<event>
 5   0  0.1492639E-05  0.2506659E+04  0.7818609E-02  0.8400617E-01
       -1   -1    0    0    0  501  0.00000000000E+00  0.00000000000E+00  0.13621746217E+04  0.13621746217E+04  0.50400001928E-02 0. -1.
        1   -1    0    0  501    0  0.00000000000E+00  0.00000000000E+00 -0.11531817866E+04  0.11531817866E+04  0.50400001928E-02 0.  1.
    10030    2    1    2    0    0  0.00000000000E+00  0.00000000000E+00  0.20899283510E+03  0.25153564083E+04  0.25066591024E+04 0.  0.
        5    1    3    3  502    0  0.40588676342E+03 -0.61051826199E+03 -0.91556210730E+03  0.11729248379E+04  0.46999998093E+01 0.  1.
       -5    1    3    3    0  502 -0.40588676342E+03  0.61051826199E+03  0.11245549424E+04  0.13424315705E+04  0.46999998093E+01 0. -1.
</event>
<event>
 5   0  0.1492639E-05  0.2497687E+04  0.7818609E-02  0.8403810E-01
       -1   -1    0    0    0  501  0.00000000000E+00  0.00000000000E+00  0.81791252500E+03  0.81791252502E+03  0.50400001928E-02 0. -1.
        1   -1    0    0  501    0  0.00000000000E+00  0.00000000000E+00 -0.19068171592E+04  0.19068171592E+04  0.50400001928E-02 0.  1.
    10030    2    1    2    0    0  0.00000000000E+00  0.00000000000E+00 -0.10889046342E+04  0.27247296842E+04  0.24976866396E+04 0.  0.
        5    1    3    3  502    0  0.49251162655E+03  0.15204522505E+03  0.69644595648E+03  0.86645514197E+03  0.46999998093E+01 0. -1.
       -5    1    3    3    0  502 -0.49251162655E+03 -0.15204522505E+03 -0.17853505907E+04  0.18582745423E+04  0.46999998093E+01 0.  1.
</event>
<event>
 5   0  0.3581449E-05  0.2373250E+04  0.7818609E-02  0.8449587E-01
       -2   -1    0    0    0  501  0.00000000000E+00  0.00000000000E+00  0.84811003015E+03  0.84811003015E+03  0.25500000920E-02 0. -1.
        2   -1    0    0  501    0  0.00000000000E+00  0.00000000000E+00 -0.16602547196E+04  0.16602547196E+04  0.25500000920E-02 0.  1.
    10030    2    1    2    0    0  0.00000000000E+00  0.00000000000E+00 -0.81214468942E+03  0.25083647497E+04  0.23732498227E+04 0.  0.
        1    1    3    3  502    0  0.60021676613E+03 -0.58617087449E+03  0.48088369181E+03  0.96700857572E+03  0.50400001928E-02 0. -1.
       -1    1    3    3    0  502 -0.60021676613E+03  0.58617087449E+03 -0.12930283812E+04  0.15413561740E+04  0.50400001928E-02 0.  1.
</event>
<event>
 5   0  0.3579097E-05  0.2517385E+04  0.7818609E-02  0.8396818E-01
       -2   -1    0    0    0  501  0.00000000000E+00  0.00000000000E+00  0.91292824482E+03  0.91292824482E+03  0.25500000920E-02 0.  1.
        2   -1    0    0  501    0  0.00000000000E+00  0.00000000000E+00 -0.17354119098E+04  0.17354119098E+04  0.25500000920E-02 0. -1.
    10030    2    1    2    0    0  0.00000000000E+00  0.00000000000E+00 -0.82248366494E+03  0.26483401546E+04  0.25173847928E+04 0.  0.
        5    1    3    3  502    0  0.63023786125E+03 -0.10191910272E+04 -0.60646097101E+01  0.11983359217E+04  0.46999998093E+01 0.  1.
       -5    1    3    3    0  502 -0.63023786125E+03  0.10191910272E+04 -0.81641905523E+03  0.14500042329E+04  0.46999998093E+01 0. -1.
</event>
<event>
 5   0  0.3579097E-05  0.2499854E+04  0.7818609E-02  0.8403038E-01
        2   -1    0    0  501    0  0.00000000000E+00  0.00000000000E+00  0.10192240352E+04  0.10192240352E+04  0.25500000920E-02 0. -1.
       -2   -1    0    0    0  501  0.00000000000E+00  0.00000000000E+00 -0.15328500107E+04  0.15328500107E+04  0.25500000920E-02 0.  1.
    10030    2    1    2    0    0  0.00000000000E+00  0.00000000000E+00 -0.51362597555E+03  0.25520740459E+04  0.24998540544E+04 0.  0.
        5    1    3    3  502    0  0.29724828129E+03  0.11115967969E+04 -0.75516118925E+03  0.13763337136E+04  0.46999998093E+01 0.  1.
       -5    1    3    3    0  502 -0.29724828129E+03 -0.11115967969E+04  0.24153521370E+03  0.11757403323E+04  0.46999998093E+01 0. -1.
</event>
<event>
 5   0  0.1502886E-05  0.2353707E+04  0.7818609E-02  0.8457041E-01
        1   -1    0    0  501    0  0.00000000000E+00  0.00000000000E+00  0.23505191155E+04  0.23505191155E+04  0.50400001928E-02 0. -1.
       -1   -1    0    0    0  501  0.00000000000E+00  0.00000000000E+00 -0.58922488244E+03  0.58922488246E+03  0.50400001928E-02 0.  1.
    10030    2    1    2    0    0  0.00000000000E+00  0.00000000000E+00  0.17612942330E+04  0.29397439980E+04  0.23537071607E+04 0.  0.
        4    1    3    3  502    0 -0.54492843155E+01 -0.11678828871E+04  0.69964083175E+03  0.13614253704E+04  0.12699999809E+01 0.  1.
       -4    1    3    3    0  502  0.54492843155E+01  0.11678828871E+04  0.10616534013E+04  0.15783186276E+04  0.12699999809E+01 0. -1.
</event>
<event>
 5   0  0.1502886E-05  0.2498872E+04  0.7818609E-02  0.8403387E-01
       -1   -1    0    0    0  501  0.00000000000E+00  0.00000000000E+00  0.15025693450E+04  0.15025693450E+04  0.50400001928E-02 0.  1.
        1   -1    0    0  501    0  0.00000000000E+00  0.00000000000E+00 -0.10389476038E+04  0.10389476038E+04  0.50400001928E-02 0. -1.
    10030    2    1    2    0    0  0.00000000000E+00  0.00000000000E+00  0.46362174121E+03  0.25415169487E+04  0.24988724021E+04 0.  0.
        4    1    3    3  502    0  0.12371745366E+04  0.58910477996E+02  0.39898726637E+03  0.13012546754E+04  0.12699999809E+01 0.  1.
       -4    1    3    3    0  502 -0.12371745366E+04 -0.58910477996E+02  0.64634474845E+02  0.12402622734E+04  0.12699999809E+01 0. -1.
</event>
<event>
 5   0  0.1429483E-05  0.2523834E+04  0.7818609E-02  0.8394544E-01
        1   -1    0    0  501    0  0.00000000000E+00  0.00000000000E+00  0.11932847223E+04  0.11932847223E+04  0.50400001928E-02 0.  1.
       -1   -1    0    0    0  501  0.00000000000E+00  0.00000000000E+00 -0.13344963808E+04  0.13344963808E+04  0.50400001928E-02 0. -1.
    10030    2    1    2    0    0  0.00000000000E+00  0.00000000000E+00 -0.14121165844E+03  0.25277811031E+04  0.25238337055E+04 0.  0.
        2    1    3    3  502    0  0.60913451645E+03  0.19995938565E+03 -0.11592306354E+04  0.13247053563E+04  0.25500000920E-02 0. -1.
       -2    1    3    3    0  502 -0.60913451645E+03 -0.19995938565E+03  0.10180189770E+04  0.12030757468E+04  0.25500000920E-02 0.  1.
</event>
<event>
 5   0  0.3581449E-05  0.2530413E+04  0.7818609E-02  0.8392230E-01
        2   -1    0    0  501    0  0.00000000000E+00  0.00000000000E+00  0.22431095072E+04  0.22431095072E+04  0.25500000920E-02 0.  1.
       -2   -1    0    0    0  501  0.00000000000E+00  0.00000000000E+00 -0.71362853218E+03  0.71362853219E+03  0.25500000920E-02 0. -1.
    10030    2    1    2    0    0  0.00000000000E+00  0.00000000000E+00  0.15294809751E+04  0.29567380394E+04  0.25304125712E+04 0.  0.
        1    1    3    3  502    0  0.25593602517E+02  0.99293921119E+02  0.22382462629E+04  0.22405938161E+04  0.50400001928E-02 0.  1.
       -1    1    3    3    0  502 -0.25593602517E+02 -0.99293921119E+02 -0.70876528787E+03  0.71614422331E+03  0.50400001928E-02 0. -1.
</event>
<event>
 5   0  0.3579097E-05  0.2525060E+04  0.7818609E-02  0.8394112E-01
        2   -1    0    0  501    0  0.00000000000E+00  0.00000000000E+00  0.11249682787E+04  0.11249682788E+04  0.25500000920E-02 0. -1.
       -2   -1    0    0    0  501  0.00000000000E+00  0.00000000000E+00 -0.14169123060E+04  0.14169123060E+04  0.25500000920E-02 0.  1.
    10030    2    1    2    0    0  0.00000000000E+00  0.00000000000E+00 -0.29194402725E+03  0.25418805847E+04  0.25250595225E+04 0.  0.
        5    1    3    3  502    0 -0.78573656279E+03  0.13775245430E+03 -0.11310621276E+04  0.13840813962E+04  0.46999998093E+01 0.  1.
       -5    1    3    3    0  502  0.78573656279E+03 -0.13775245430E+03  0.83911810033E+03  0.11577991886E+04  0.46999998093E+01 0. -1.
</event>
<event>
 5   0  0.3650620E-05  0.2518200E+04  0.7818609E-02  0.8396530E-01
        2   -1    0    0  501    0  0.00000000000E+00  0.00000000000E+00  0.12016123680E+04  0.12016123680E+04  0.25500000920E-02 0.  1.
       -2   -1    0    0    0  501  0.00000000000E+00  0.00000000000E+00 -0.13193376519E+04  0.13193376519E+04  0.25500000920E-02 0. -1.
    10030    2    1    2    0    0  0.00000000000E+00  0.00000000000E+00 -0.11772528390E+03  0.25209500198E+04  0.25181997061E+04 0.  0.
        3    1    3    3  502    0  0.18181388181E+03  0.58963696287E+03  0.10398807802E+04  0.12091650354E+04  0.10100000352E+00 0.  1.
       -3    1    3    3    0  502 -0.18181388181E+03 -0.58963696287E+03 -0.11576060641E+04  0.13117849844E+04  0.10100000352E+00 0. -1.
</event>
<event>
 5   0  0.1456876E-05  0.2539827E+04  0.7818609E-02  0.8388933E-01
        1   -1    0    0  501    0  0.00000000000E+00  0.00000000000E+00  0.12234057956E+04  0.12234057956E+04  0.50400001928E-02 0.  1.
       -1   -1    0    0    0  501  0.00000000000E+00  0.00000000000E+00 -0.13181890198E+04  0.13181890198E+04  0.50400001928E-02 0. -1.
    10030    2    1    2    0    0  0.00000000000E+00  0.00000000000E+00 -0.94783224168E+02  0.25415948154E+04  0.25398268339E+04 0.  0.
        1    1    3    3  502    0 -0.10372827243E+04 -0.53482972129E+03  0.45363825523E+03  0.12521125938E+04  0.50400001928E-02 0.  1.
       -1    1    3    3    0  502  0.10372827243E+04  0.53482972129E+03 -0.54842147939E+03  0.12894822216E+04  0.50400001928E-02 0. -1.
</event>
<event>
 5   0  0.3581449E-05  0.2455534E+04  0.7818609E-02  0.8419000E-01
       -2   -1    0    0    0  501  0.00000000000E+00  0.00000000000E+00  0.12527623144E+04  0.12527623144E+04  0.25500000920E-02 0.  1.
        2   -1    0    0  501    0  0.00000000000E+00  0.00000000000E+00 -0.12032708130E+04  0.12032708130E+04  0.25500000920E-02 0. -1.
    10030    2    1    2    0    0  0.00000000000E+00  0.00000000000E+00  0.49491501378E+02  0.24560331275E+04  0.24555344254E+04 0.  0.
        1    1    3    3  502    0  0.19343461411E+03 -0.31415570965E+02  0.12370184890E+04  0.12524450607E+04  0.50400001928E-02 0.  1.
       -1    1    3    3    0  502 -0.19343461411E+03  0.31415570965E+02 -0.11875269876E+04  0.12035880667E+04  0.50400001928E-02 0. -1.
</event>
<event>
 5   0  0.1502886E-05  0.2548593E+04  0.7818609E-02  0.8385876E-01
        1   -1    0    0  501    0  0.00000000000E+00  0.00000000000E+00  0.21847210935E+04  0.21847210935E+04  0.50400001928E-02 0. -1.
       -1   -1    0    0    0  501  0.00000000000E+00  0.00000000000E+00 -0.74326723866E+03  0.74326723868E+03  0.50400001928E-02 0.  1.
    10030    2    1    2    0    0  0.00000000000E+00  0.00000000000E+00  0.14414538548E+04  0.29279883322E+04  0.25485930349E+04 0.  0.
        4    1    3    3  502    0  0.51076276754E+03  0.28300233114E+03  0.20219707003E+04  0.21045987859E+04  0.12699999809E+01 0. -1.
       -4    1    3    3    0  502 -0.51076276754E+03 -0.28300233114E+03 -0.58051684543E+03  0.82338954625E+03  0.12699999809E+01 0.  1.
</event>
<event>
 5   0  0.3650620E-05  0.2462377E+04  0.7818609E-02  0.8416513E-01
        2   -1    0    0  501    0  0.00000000000E+00  0.00000000000E+00  0.20684865983E+04  0.20684865983E+04  0.25500000920E-02 0.  1.
       -2   -1    0    0    0  501  0.00000000000E+00  0.00000000000E+00 -0.73281871878E+03  0.73281871878E+03  0.25500000920E-02 0. -1.
    10030    2    1    2    0    0  0.00000000000E+00  0.00000000000E+00  0.13356678795E+04  0.28013053171E+04  0.24623774680E+04 0.  0.
        3    1    3    3  502    0 -0.12165583124E+03 -0.12250815454E+04  0.68395295543E+03  0.14083382369E+04  0.10100000352E+00 0. -1.
       -3    1    3    3    0  502  0.12165583124E+03  0.12250815454E+04  0.65171492408E+03  0.13929670802E+04  0.10100000352E+00 0.  1.
</event>
<event>
 5   0  0.3578670E-05  0.2580979E+04  0.7818609E-02  0.8374691E-01
        2   -1    0    0  501    0  0.00000000000E+00  0.00000000000E+00  0.24448726979E+04  0.24448726979E+04  0.25500000920E-02 0. -1.
       -2   -1    0    0    0  501  0.00000000000E+00  0.00000000000E+00 -0.68116539225E+03  0.68116539226E+03  0.25500000920E-02 0.  1.
    10030    2    1    2    0    0  0.00000000000E+00  0.00000000000E+00  0.17637073056E+04  0.31260380901E+04  0.25809786286E+04 0.  0.
        4    1    3    3  502    0 -0.28484397886E+03  0.12171513100E+03  0.23991769255E+04  0.24190911926E+04  0.12699999809E+01 0. -1.
       -4    1    3    3    0  502  0.28484397886E+03 -0.12171513100E+03 -0.63546961981E+03  0.70694689759E+03  0.12699999809E+01 0.  1.
</event>
<event>
 5   0  0.1421242E-05  0.2482944E+04  0.7818609E-02  0.8409087E-01
        1   -1    0    0  501    0  0.00000000000E+00  0.00000000000E+00  0.11922459024E+04  0.11922459024E+04  0.50400001928E-02 0.  1.
       -1   -1    0    0    0  501  0.00000000000E+00  0.00000000000E+00 -0.12927306243E+04  0.12927306243E+04  0.50400001928E-02 0. -1.
    10030    2    1    2    0    0  0.00000000000E+00  0.00000000000E+00 -0.10048472191E+03  0.24849765267E+04  0.24829440507E+04 0.  0.
        3    1    3    3  502    0 -0.11557236754E+04  0.12923885295E+03  0.38468543951E+03  0.12249011358E+04  0.10100000352E+00 0.  1.
       -3    1    3    3    0  502  0.11557236754E+04 -0.12923885295E+03 -0.48517016142E+03  0.12600753909E+04  0.10100000352E+00 0. -1.
</event>
<event>
 5   0  0.3650620E-05  0.2484559E+04  0.7818609E-02  0.8408507E-01
       -2   -1    0    0    0  501  0.00000000000E+00  0.00000000000E+00  0.89097303538E+03  0.89097303538E+03  0.25500000920E-02 0.  1.
        2   -1    0    0  501    0  0.00000000000E+00  0.00000000000E+00 -0.17321038238E+04  0.17321038238E+04  0.25500000920E-02 0. -1.
    10030    2    1    2    0    0  0.00000000000E+00  0.00000000000E+00 -0.84113078845E+03  0.26230768592E+04  0.24845585536E+04 0.  0.
        3    1    3    3  502    0 -0.18739900067E+03 -0.11086334622E+04  0.13715860195E+03  0.11326954716E+04  0.10100000352E+00 0.  1.
       -3    1    3    3    0  502  0.18739900067E+03  0.11086334622E+04 -0.97828939039E+03  0.14903813876E+04  0.10100000352E+00 0. -1.
</event>
<event>
 5   0  0.1492639E-05  0.2409800E+04  0.7818609E-02  0.8435844E-01
       -1   -1    0    0    0  501  0.00000000000E+00  0.00000000000E+00  0.76096971384E+03  0.76096971386E+03  0.50400001928E-02 0. -1.
        1   -1    0    0  501    0  0.00000000000E+00  0.00000000000E+00 -0.19078071933E+04  0.19078071933E+04  0.50400001928E-02 0.  1.
    10030    2    1    2    0    0  0.00000000000E+00  0.00000000000E+00 -0.11468374795E+04  0.26687769072E+04  0.24097995717E+04 0.  0.
        5    1    3    3  502    0  0.22429221692E+02  0.74928625600E+03  0.47126416858E+03  0.88546313870E+03  0.46999998093E+01 0. -1.
       -5    1    3    3    0  502 -0.22429221692E+02 -0.74928625600E+03 -0.16181016481E+04  0.17833137685E+04  0.46999998093E+01 0.  1.
</event>
<event>
 5   0  0.1492639E-05  0.2478425E+04  0.7818609E-02  0.8410712E-01
       -1   -1    0    0    0  501  0.00000000000E+00  0.00000000000E+00  0.12331766595E+04  0.12331766595E+04  0.50400001928E-02 0.  1.
        1   -1    0    0  501    0  0.00000000000E+00  0.00000000000E+00 -0.12452782910E+04  0.12452782910E+04  0.50400001928E-02 0. -1.
    10030    2    1    2    0    0  0.00000000000E+00  0.00000000000E+00 -0.12101631505E+02  0.24784549505E+04  0.24784254058E+04 0.  0.
        5    1    3    3  502    0  0.87590495422E+01  0.11605822090E+04  0.42823335927E+03  0.12371069820E+04  0.46999998093E+01 0.  1.
       -5    1    3    3    0  502 -0.87590495422E+01 -0.11605822090E+04 -0.44033499077E+03  0.12413479685E+04  0.46999998093E+01 0. -1.
</event>
<event>
 5   0  0.1456876E-05  0.2500763E+04  0.7818609E-02  0.8402714E-01
       -1   -1    0    0    0  501  0.00000000000E+00  0.00000000000E+00  0.10176785795E+04  0.10176785796E+04  0.50400001928E-02 0.  1.
        1   -1    0    0  501    0  0.00000000000E+00  0.00000000000E+00 -0.15362940901E+04  0.15362940901E+04  0.50400001928E-02 0. -1.
    10030    2    1    2    0    0  0.00000000000E+00  0.00000000000E+00 -0.51861551052E+03  0.25539726696E+04  0.25007627535E+04 0.  0.
        1    1    3    3  502    0 -0.30947116813E+03 -0.22534568344E+03 -0.14749714054E+04  0.15238417660E+04  0.50400001928E-02 0. -1.
       -1    1    3    3    0  502  0.30947116813E+03  0.22534568344E+03  0.95635589489E+03  0.10301309037E+04  0.50400001928E-02 0.  1.
</event>
<event>
 5   0  0.1421242E-05  0.2635346E+04  0.7818609E-02  0.8356293E-01
        1   -1    0    0  501    0  0.00000000000E+00  0.00000000000E+00  0.17385541441E+04  0.17385541441E+04  0.50400001928E-02 0.  1.
       -1   -1    0    0    0  501  0.00000000000E+00  0.00000000000E+00 -0.99868200920E+03  0.99868200922E+03  0.50400001928E-02 0. -1.
    10030    2    1    2    0    0  0.00000000000E+00  0.00000000000E+00  0.73987213492E+03  0.27372361533E+04  0.26353464636E+04 0.  0.
        3    1    3    3  502    0 -0.57648925395E+02 -0.11120050976E+04  0.11017209536E+04  0.15664187836E+04  0.10100000352E+00 0. -1.
       -3    1    3    3    0  502  0.57648925395E+02  0.11120050976E+04 -0.36184881872E+03  0.11708173698E+04  0.10100000352E+00 0.  1.
</event>
<event>
 5   0  0.1421242E-05  0.2491138E+04  0.7818609E-02  0.8406149E-01
        1   -1    0    0  501    0  0.00000000000E+00  0.00000000000E+00  0.15402065499E+04  0.15402065499E+04  0.50400001928E-02 0.  1.
       -1   -1    0    0    0  501  0.00000000000E+00  0.00000000000E+00 -0.10072951457E+04  0.10072951458E+04  0.50400001928E-02 0. -1.
    10030    2    1    2    0    0  0.00000000000E+00  0.00000000000E+00  0.53291140417E+03  0.25475016957E+04  0.24911383592E+04 0.  0.
        3    1    3    3  502    0  0.11897763409E+03  0.28460398128E+03 -0.96761541689E+03  0.10155957408E+04  0.10100000352E+00 0. -1.
       -3    1    3    3    0  502 -0.11897763409E+03 -0.28460398128E+03  0.15005268211E+04  0.15319059548E+04  0.10100000352E+00 0.  1.
</event>
<event>
 5   0  0.1502886E-05  0.2501709E+04  0.7818609E-02  0.8402377E-01
        1   -1    0    0  501    0  0.00000000000E+00  0.00000000000E+00  0.13006145263E+04  0.13006145264E+04  0.50400001928E-02 0.  1.
       -1   -1    0    0    0  501  0.00000000000E+00  0.00000000000E+00 -0.12029980370E+04  0.12029980370E+04  0.50400001928E-02 0. -1.
    10030    2    1    2    0    0  0.00000000000E+00  0.00000000000E+00  0.97616489389E+02  0.25036125633E+04  0.25017087936E+04 0.  0.
        4    1    3    3  502    0 -0.11844185666E+04 -0.37635018931E+03 -0.93244492277E+02  0.12462676094E+04  0.12699999809E+01 0. -1.
       -4    1    3    3    0  502  0.11844185666E+04  0.37635018931E+03  0.19086098167E+03  0.12573449539E+04  0.12699999809E+01 0.  1.
</event>
<event>
 5   0  0.1421242E-05  0.2438055E+04  0.7818609E-02  0.8425392E-01
       -1   -1    0    0    0  501  0.00000000000E+00  0.00000000000E+00  0.12056341020E+04  0.12056341020E+04  0.50400001928E-02 0. -1.
        1   -1    0    0  501    0  0.00000000000E+00  0.00000000000E+00 -0.12325698666E+04  0.12325698666E+04  0.50400001928E-02 0.  1.
    10030    2    1    2    0    0  0.00000000000E+00  0.00000000000E+00 -0.26935764588E+02  0.24382039686E+04  0.24380551792E+04 0.  0.
        3    1    3    3  502    0 -0.61018616802E+03  0.10484924805E+04  0.10639189450E+03  0.12177778479E+04  0.10100000352E+00 0. -1.
       -3    1    3    3    0  502  0.61018616802E+03 -0.10484924805E+04 -0.13332765909E+03  0.12204261207E+04  0.10100000352E+00 0.  1.
</event>
<event>
 5   0  0.1456876E-05  0.2551631E+04  0.7818609E-02  0.8384819E-01
        1   -1    0    0  501    0  0.00000000000E+00  0.00000000000E+00  0.21765489796E+04  0.21765489796E+04  0.50400001928E-02 0.  1.
       -1   -1    0    0    0  501  0.00000000000E+00  0.00000000000E+00 -0.74783772100E+03  0.74783772101E+03  0.50400001928E-02 0. -1.
    10030    2    1    2    0    0  0.00000000000E+00  0.00000000000E+00  0.14287112586E+04  0.29243867006E+04  0.25516311870E+04 0.  0.
        1    1    3    3  502    0  0.49022024616E+03  0.53408575828E+03 -0.48883838683E+03  0.87437203490E+03  0.50400001928E-02 0. -1.
       -1    1    3    3    0  502 -0.49022024616E+03 -0.53408575828E+03  0.19175496454E+04  0.20500146657E+04  0.50400001928E-02 0.  1.
</event>
<event>
 5   0  0.1492639E-05  0.2502948E+04  0.7818609E-02  0.8401936E-01
        1   -1    0    0  501    0  0.00000000000E+00  0.00000000000E+00  0.45148464544E+03  0.45148464546E+03  0.50400001928E-02 0. -1.
       -1   -1    0    0    0  501  0.00000000000E+00  0.00000000000E+00 -0.34689697848E+04  0.34689697848E+04  0.50400001928E-02 0.  1.
    10030    2    1    2    0    0  0.00000000000E+00  0.00000000000E+00 -0.30174851393E+04  0.39204544302E+04  0.25029475371E+04 0.  0.
        5    1    3    3  502    0 -0.91675146254E+03 -0.80709346067E+03 -0.10817003297E+04  0.16315424578E+04  0.46999998093E+01 0. -1.
       -5    1    3    3    0  502  0.91675146254E+03  0.80709346067E+03 -0.19357848096E+04  0.22889119724E+04  0.46999998093E+01 0.  1.
</event>
<event>
 5   0  0.3650620E-05  0.2531367E+04  0.7818609E-02  0.8391895E-01
        2   -1    0    0  501    0  0.00000000000E+00  0.00000000000E+00  0.23794373001E+04  0.23794373001E+04  0.25500000920E-02 0. -1.
       -2   -1    0    0    0  501  0.00000000000E+00  0.00000000000E+00 -0.67324928709E+03  0.67324928709E+03  0.25500000920E-02 0.  1.
    10030    2    1    2    0    0  0.00000000000E+00  0.00000000000E+00  0.17061880130E+04  0.30526865872E+04  0.25313667976E+04 0.  0.
        3    1    3    3  502    0 -0.59929102842E+03 -0.90631674065E+03  0.16359315864E+04  0.19638818541E+04  0.10100000352E+00 0. -1.
       -3    1    3    3    0  502  0.59929102842E+03  0.90631674065E+03  0.70256426563E+02  0.10888047331E+04  0.10100000352E+00 0.  1.
</event>
<event>
 5   0  0.3704241E-05  0.2114110E+04  0.7818609E-02  0.8555053E-01
        2   -1    0    0  501    0  0.00000000000E+00  0.00000000000E+00  0.12707226605E+04  0.12707226605E+04  0.25500000920E-02 0. -1.
       -2   -1    0    0    0  501  0.00000000000E+00  0.00000000000E+00 -0.87931492101E+03  0.87931492102E+03  0.25500000920E-02 0.  1.
    10030    2    1    2    0    0  0.00000000000E+00  0.00000000000E+00  0.39140773945E+03  0.21500375815E+04  0.21141101162E+04 0.  0.
        2    1    3    3  502    0 -0.42944877904E+03  0.16364799928E+03  0.11638045494E+04  0.12512585467E+04  0.25500000920E-02 0. -1.
       -2    1    3    3    0  502  0.42944877904E+03 -0.16364799928E+03 -0.77239680990E+03  0.89877903482E+03  0.25500000920E-02 0.  1.
</event>
<event>
 5   0  0.1492639E-05  0.2474012E+04  0.7818609E-02  0.8412303E-01
        1   -1    0    0  501    0  0.00000000000E+00  0.00000000000E+00  0.15520241589E+04  0.15520241589E+04  0.50400001928E-02 0. -1.
       -1   -1    0    0    0  501  0.00000000000E+00  0.00000000000E+00 -0.98592817638E+03  0.98592817639E+03  0.50400001928E-02 0.  1.
    10030    2    1    2    0    0  0.00000000000E+00  0.00000000000E+00  0.56609598251E+03  0.25379523353E+04  0.24740124080E+04 0.  0.
        5    1    3    3  502    0  0.13187751794E+03 -0.12295691980E+04  0.25176113913E+03  0.12619975648E+04  0.46999998093E+01 0.  1.
       -5    1    3    3    0  502 -0.13187751794E+03  0.12295691980E+04  0.31433484338E+03  0.12759547705E+04  0.46999998093E+01 0. -1.
</event>
<event>
 5   0  0.3650620E-05  0.2521283E+04  0.7818609E-02  0.8395442E-01
       -2   -1    0    0    0  501  0.00000000000E+00  0.00000000000E+00  0.71382671408E+03  0.71382671408E+03  0.25500000920E-02 0.  1.
        2   -1    0    0  501    0  0.00000000000E+00  0.00000000000E+00 -0.22263352923E+04  0.22263352923E+04  0.25500000920E-02 0. -1.
    10030    2    1    2    0    0  0.00000000000E+00  0.00000000000E+00 -0.15125085782E+04  0.29401620064E+04  0.25212834875E+04 0.  0.
        3    1    3    3  502    0  0.68702164271E+02  0.11657217902E+04 -0.20238178196E+03  0.11851521739E+04  0.10100000352E+00 0.  1.
       -3    1    3    3    0  502 -0.68702164271E+02 -0.11657217902E+04 -0.13101267962E+04  0.17550098324E+04  0.10100000352E+00 0. -1.
</event>
<event>
 5   0  0.3581449E-05  0.2459020E+04  0.7818609E-02  0.8417732E-01
        2   -1    0    0  501    0  0.00000000000E+00  0.00000000000E+00  0.15800328136E+04  0.15800328136E+04  0.25500000920E-02 0. -1.
       -2   -1    0    0    0  501  0.00000000000E+00  0.00000000000E+00 -0.95674907699E+03  0.95674907699E+03  0.25500000920E-02 0.  1.
    10030    2    1    2    0    0  0.00000000000E+00  0.00000000000E+00  0.62328373665E+03  0.25367818906E+04  0.24590200781E+04 0.  0.
        1    1    3    3  502    0 -0.51695209088E+03  0.56079094005E+03  0.13064865630E+04  0.15128228852E+04  0.50400001928E-02 0. -1.
       -1    1    3    3    0  502  0.51695209088E+03 -0.56079094005E+03 -0.68320282639E+03  0.10239590054E+04  0.50400001928E-02 0.  1.
</event>
<event>
 5   0  0.3578670E-05  0.2384651E+04  0.7818609E-02  0.8445272E-01
        2   -1    0    0  501    0  0.00000000000E+00  0.00000000000E+00  0.17558262463E+04  0.17558262464E+04  0.25500000920E-02 0. -1.
       -2   -1    0    0    0  501  0.00000000000E+00  0.00000000000E+00 -0.80967014962E+03  0.80967014963E+03  0.25500000920E-02 0.  1.
    10030    2    1    2    0    0  0.00000000000E+00  0.00000000000E+00  0.94615609673E+03  0.25654963960E+04  0.23846510014E+04 0.  0.
        4    1    3    3  502    0 -0.37773276884E+03 -0.68391325083E+03  0.14420599522E+04  0.16401091116E+04  0.12699999809E+01 0. -1.
       -4    1    3    3    0  502  0.37773276884E+03  0.68391325083E+03 -0.49590385547E+03  0.92538728438E+03  0.12699999809E+01 0.  1.
</event>
<event>
 5   0  0.3704241E-05  0.2527557E+04  0.7818609E-02  0.8393234E-01
       -2   -1    0    0    0  501  0.00000000000E+00  0.00000000000E+00  0.75853783337E+03  0.75853783338E+03  0.25500000920E-02 0.  1.
        2   -1    0    0  501    0  0.00000000000E+00  0.00000000000E+00 -0.21055449594E+04  0.21055449594E+04  0.25500000920E-02 0. -1.
    10030    2    1    2    0    0  0.00000000000E+00  0.00000000000E+00 -0.13470071261E+04  0.28640827928E+04  0.25275565367E+04 0.  0.
        2    1    3    3  502    0 -0.26019245698E+03  0.91541112090E+03 -0.16157566164E+04  0.18751925444E+04  0.25500000920E-02 0. -1.
       -2    1    3    3    0  502  0.26019245698E+03 -0.91541112090E+03  0.26874949034E+03  0.98889024846E+03  0.25500000920E-02 0.  1.
</event>
<event>
 5   0  0.1492639E-05  0.2428605E+04  0.7818609E-02  0.8428871E-01
        1   -1    0    0  501    0  0.00000000000E+00  0.00000000000E+00  0.13704543493E+04  0.13704543493E+04  0.50400001928E-02 0.  1.
       -1   -1    0    0    0  501  0.00000000000E+00  0.00000000000E+00 -0.10759432555E+04  0.10759432555E+04  0.50400001928E-02 0. -1.
    10030    2    1    2    0    0  0.00000000000E+00  0.00000000000E+00  0.29451109379E+03  0.24463976049E+04  0.24286054552E+04 0.  0.
        5    1    3    3  502    0 -0.23738901681E+03 -0.10086790642E+04  0.78491922953E+03  0.12999643406E+04  0.46999998093E+01 0.  1.
       -5    1    3    3    0  502  0.23738901681E+03  0.10086790642E+04 -0.49040813573E+03  0.11464332643E+04  0.46999998093E+01 0. -1.
</event>
<event>
 5   0  0.3704241E-05  0.2608526E+04  0.7818609E-02  0.8365311E-01
       -2   -1    0    0    0  501  0.00000000000E+00  0.00000000000E+00  0.11334968497E+04  0.11334968497E+04  0.25500000920E-02 0. -1.
        2   -1    0    0  501    0  0.00000000000E+00  0.00000000000E+00 -0.15007554522E+04  0.15007554522E+04  0.25500000920E-02 0.  1.
    10030    2    1    2    0    0  0.00000000000E+00  0.00000000000E+00 -0.36725860244E+03  0.26342523019E+04  0.26085256965E+04 0.  0.
        2    1    3    3  502    0  0.17702041512E+03 -0.10814749161E+04 -0.89783656382E+03  0.14166985271E+04  0.25500000920E-02 0.  1.
       -2    1    3    3    0  502 -0.17702041512E+03  0.10814749161E+04  0.53057796138E+03  0.12175537748E+04  0.25500000920E-02 0. -1.
</event>
<event>
 5   0  0.1492639E-05  0.2505733E+04  0.7818609E-02  0.8400946E-01
       -1   -1    0    0    0  501  0.00000000000E+00  0.00000000000E+00  0.92178691502E+03  0.92178691504E+03  0.50400001928E-02 0.  1.
        1   -1    0    0  501    0  0.00000000000E+00  0.00000000000E+00 -0.17028604712E+04  0.17028604712E+04  0.50400001928E-02 0. -1.
    10030    2    1    2    0    0  0.00000000000E+00  0.00000000000E+00 -0.78107355619E+03  0.26246473863E+04  0.25057330269E+04 0.  0.
        5    1    3    3  502    0 -0.14148140025E+03  0.25278825161E+03  0.88621546520E+03  0.93237268704E+03  0.46999998093E+01 0.  1.
       -5    1    3    3    0  502  0.14148140025E+03 -0.25278825161E+03 -0.16672890214E+04  0.16922746992E+04  0.46999998093E+01 0. -1.
</event>
<event>
 5   0  0.1502886E-05  0.2480848E+04  0.7818609E-02  0.8409840E-01
        1   -1    0    0  501    0  0.00000000000E+00  0.00000000000E+00  0.82442403262E+03  0.82442403263E+03  0.50400001928E-02 0. -1.
       -1   -1    0    0    0  501  0.00000000000E+00  0.00000000000E+00 -0.18663352836E+04  0.18663352836E+04  0.50400001928E-02 0.  1.
    10030    2    1    2    0    0  0.00000000000E+00  0.00000000000E+00 -0.10419112510E+04  0.26907593163E+04  0.24808479685E+04 0.  0.
        4    1    3    3  502    0  0.95240919062E+03  0.78740613458E+03 -0.40434910839E+03  0.13002274807E+04  0.12699999809E+01 0.  1.
       -4    1    3    3    0  502 -0.95240919062E+03 -0.78740613458E+03 -0.63756214261E+03  0.13905318356E+04  0.12699999809E+01 0. -1.
</event>
<event>
 5   0  0.1429483E-05  0.2463215E+04  0.7818609E-02  0.8416209E-01
       -1   -1    0    0    0  501  0.00000000000E+00  0.00000000000E+00  0.78240085816E+03  0.78240085817E+03  0.50400001928E-02 0. -1.
        1   -1    0    0  501    0  0.00000000000E+00  0.00000000000E+00 -0.19387204947E+04  0.19387204947E+04  0.50400001928E-02 0.  1.
    10030    2    1    2    0    0  0.00000000000E+00  0.00000000000E+00 -0.11563196366E+04  0.27211213529E+04  0.24632146304E+04 0.  0.
        2    1    3    3  502    0 -0.10547722653E+03  0.17350102666E+03 -0.19201031486E+04  0.19308091963E+04  0.25500000920E-02 0.  1.
       -2    1    3    3    0  502  0.10547722653E+03 -0.17350102666E+03  0.76378351200E+03  0.79031215655E+03  0.25500000920E-02 0. -1.
</event>
<event>
 5   0  0.1502886E-05  0.2536823E+04  0.7818609E-02  0.8389983E-01
        1   -1    0    0  501    0  0.00000000000E+00  0.00000000000E+00  0.48347799305E+03  0.48347799307E+03  0.50400001928E-02 0. -1.
       -1   -1    0    0    0  501  0.00000000000E+00  0.00000000000E+00 -0.33276964368E+04  0.33276964368E+04  0.50400001928E-02 0.  1.
    10030    2    1    2    0    0  0.00000000000E+00  0.00000000000E+00 -0.28442184438E+04  0.38111744299E+04  0.25368232061E+04 0.  0.
        4    1    3    3  502    0 -0.21798351801E+03  0.47735217396E+03 -0.31569619175E+04  0.32002799992E+04  0.12699999809E+01 0.  1.
       -4    1    3    3    0  502  0.21798351801E+03 -0.47735217396E+03  0.31274347374E+03  0.61089443064E+03  0.12699999809E+01 0. -1.
</event>
<event>
 5   0  0.3581449E-05  0.2510499E+04  0.7818609E-02  0.8399255E-01
       -2   -1    0    0    0  501  0.00000000000E+00  0.00000000000E+00  0.80282368745E+03  0.80282368745E+03  0.25500000920E-02 0. -1.
        2   -1    0    0  501    0  0.00000000000E+00  0.00000000000E+00 -0.19626367291E+04  0.19626367291E+04  0.25500000920E-02 0.  1.
    10030    2    1    2    0    0  0.00000000000E+00  0.00000000000E+00 -0.11598130417E+04  0.27654604166E+04  0.25104989592E+04 0.  0.
        1    1    3    3  502    0 -0.41891006845E+03  0.11700800035E+04 -0.38571212222E+03  0.13012865562E+04  0.50400001928E-02 0. -1.
       -1    1    3    3    0  502  0.41891006845E+03 -0.11700800035E+04 -0.77410091946E+03  0.14641738604E+04  0.50400001928E-02 0.  1.
</event>
<event>
 5   0  0.3578670E-05  0.2469442E+04  0.7818609E-02  0.8413953E-01
       -2   -1    0    0    0  501  0.00000000000E+00  0.00000000000E+00  0.70615655998E+03  0.70615655999E+03  0.25500000920E-02 0.  1.
        2   -1    0    0  501    0  0.00000000000E+00  0.00000000000E+00 -0.21589214743E+04  0.21589214743E+04  0.25500000920E-02 0. -1.
    10030    2    1    2    0    0  0.00000000000E+00  0.00000000000E+00 -0.14527649143E+04  0.28650780343E+04  0.24694424971E+04 0.  0.
        4    1    3    3  502    0  0.62583348721E+03 -0.10442670122E+04 -0.96521101409E+03  0.15536392957E+04  0.12699999809E+01 0. -1.
       -4    1    3    3    0  502 -0.62583348721E+03  0.10442670122E+04 -0.48755390023E+03  0.13114387386E+04  0.12699999809E+01 0.  1.
</event>
<event>
 5   0  0.1421242E-05  0.2507262E+04  0.7818609E-02  0.8400403E-01
        1   -1    0    0  501    0  0.00000000000E+00  0.00000000000E+00  0.21328052836E+04  0.21328052836E+04  0.50400001928E-02 0. -1.
       -1   -1    0    0    0  501  0.00000000000E+00  0.00000000000E+00 -0.73686573120E+03  0.73686573122E+03  0.50400001928E-02 0.  1.
    10030    2    1    2    0    0  0.00000000000E+00  0.00000000000E+00  0.13959395524E+04  0.28696710148E+04  0.25072623515E+04 0.  0.
        3    1    3    3  502    0  0.10784138155E+04 -0.25376788715E+03  0.26466327600E+02  0.11081854424E+04  0.10100000352E+00 0.  1.
       -3    1    3    3    0  502 -0.10784138155E+04  0.25376788715E+03  0.13694732248E+04  0.17614855724E+04  0.10100000352E+00 0. -1.
</event>
<event>
 5   0  0.3650620E-05  0.2598434E+04  0.7818609E-02  0.8368733E-01
        2   -1    0    0  501    0  0.00000000000E+00  0.00000000000E+00  0.15835005781E+04  0.15835005781E+04  0.25500000920E-02 0. -1.
       -2   -1    0    0    0  501  0.00000000000E+00  0.00000000000E+00 -0.10659701834E+04  0.10659701834E+04  0.25500000920E-02 0.  1.
    10030    2    1    2    0    0  0.00000000000E+00  0.00000000000E+00  0.51753039470E+03  0.26494707615E+04  0.25984336833E+04 0.  0.
        3    1    3    3  502    0 -0.12981941059E+04 -0.46797532822E+02  0.23674363704E+03  0.13204338323E+04  0.10100000352E+00 0. -1.
       -3    1    3    3    0  502  0.12981941059E+04  0.46797532822E+02  0.28078675767E+03  0.13290369292E+04  0.10100000352E+00 0.  1.
</event>
<event>
 5   0  0.1421242E-05  0.2537879E+04  0.7818609E-02  0.8389614E-01
       -1   -1    0    0    0  501  0.00000000000E+00  0.00000000000E+00  0.13668371955E+04  0.13668371955E+04  0.50400001928E-02 0.  1.
        1   -1    0    0  501    0  0.00000000000E+00  0.00000000000E+00 -0.11780539965E+04  0.11780539965E+04  0.50400001928E-02 0. -1.
    10030    2    1    2    0    0  0.00000000000E+00  0.00000000000E+00  0.18878319898E+03  0.25448911920E+04  0.25378794461E+04 0.  0.
        3    1    3    3  502    0  0.96046349019E+03 -0.49106785761E+03  0.76449701185E+03  0.13221548503E+04  0.10100000352E+00 0. -1.
       -3    1    3    3    0  502 -0.96046349019E+03  0.49106785761E+03 -0.57571381286E+03  0.12227363417E+04  0.10100000352E+00 0.  1.
</event>
<event>
 5   0  0.1429483E-05  0.2426974E+04  0.7818609E-02  0.8429474E-01
        1   -1    0    0  501    0  0.00000000000E+00  0.00000000000E+00  0.16891939221E+04  0.16891939221E+04  0.50400001928E-02 0.  1.
       -1   -1    0    0    0  501  0.00000000000E+00  0.00000000000E+00 -0.87174722995E+03  0.87174722997E+03  0.50400001928E-02 0. -1.
    10030    2    1    2    0    0  0.00000000000E+00  0.00000000000E+00  0.81744669217E+03  0.25609411521E+04  0.24269735248E+04 0.  0.
        2    1    3    3  502    0 -0.11731967254E+04  0.81633585184E+02  0.72439473212E+03  0.13812321770E+04  0.25500000920E-02 0.  1.
       -2    1    3    3    0  502  0.11731967254E+04 -0.81633585184E+02  0.93051960041E+02  0.11797089751E+04  0.25500000920E-02 0. -1.
</event>
<event>
 5   0  0.3704241E-05  0.2535398E+04  0.7818609E-02  0.8390482E-01
        2   -1    0    0  501    0  0.00000000000E+00  0.00000000000E+00  0.16465131241E+04  0.16465131241E+04  0.25500000920E-02 0. -1.
       -2   -1    0    0    0  501  0.00000000000E+00  0.00000000000E+00 -0.97603845808E+03  0.97603845809E+03  0.25500000920E-02 0.  1.
    10030    2    1    2    0    0  0.00000000000E+00  0.00000000000E+00  0.67047466598E+03  0.26225515821E+04  0.25353975079E+04 0.  0.
        2    1    3    3  502    0 -0.37346114586E+02 -0.77882838034E+03  0.13691424072E+04  0.15756012534E+04  0.25500000920E-02 0. -1.
       -2    1    3    3    0  502  0.37346114586E+02  0.77882838034E+03 -0.69866774124E+03  0.10469503288E+04  0.25500000920E-02 0.  1.
</event>
<event>
 5   0  0.1201438E-05  0.2439771E+04  0.7818609E-02  0.8424762E-01
        3   -1    0    0  501    0  0.00000000000E+00  0.00000000000E+00  0.10670281767E+04  0.10670281815E+04  0.10100000352E+00 0.  1.
       -3   -1    0    0    0  501  0.00000000000E+00  0.00000000000E+00 -0.13946408016E+04  0.13946408053E+04  0.10100000352E+00 0. -1.
    10030    2    1    2    0    0  0.00000000000E+00  0.00000000000E+00 -0.32761262491E+03  0.24616689867E+04  0.24397713352E+04 0.  0.
        1    1    3    3  502    0  0.49879308445E+03  0.88021992446E+03  0.52388224846E+03  0.11393130679E+04  0.50400001928E-02 0.  1.
       -1    1    3    3    0  502 -0.49879308445E+03 -0.88021992446E+03 -0.85149487337E+03  0.13223559188E+04  0.50400001928E-02 0. -1.
</event>
<event>
 5   0  0.1456876E-05  0.2455673E+04  0.7818609E-02  0.8418950E-01
        1   -1    0    0  501    0  0.00000000000E+00  0.00000000000E+00  0.13654153277E+04  0.13654153277E+04  0.50400001928E-02 0. -1.
       -1   -1    0    0    0  501  0.00000000000E+00  0.00000000000E+00 -0.11041199570E+04  0.11041199570E+04  0.50400001928E-02 0.  1.
    10030    2    1    2    0    0  0.00000000000E+00  0.00000000000E+00  0.26129537072E+03  0.24695352847E+04  0.24556728714E+04 0.  0.
        1    1    3    3  502    0 -0.33695090056E+03  0.11251925739E+04  0.49042143887E+03  0.12728344061E+04  0.50400001928E-02 0. -1.
       -1    1    3    3    0  502  0.33695090056E+03 -0.11251925739E+04 -0.22912606815E+03  0.11967008786E+04  0.50400001928E-02 0.  1.
</event>
<event>
 5   0  0.3578670E-05  0.2404483E+04  0.7818609E-02  0.8437827E-01
        2   -1    0    0  501    0  0.00000000000E+00  0.00000000000E+00  0.23106538897E+04  0.23106538897E+04  0.25500000920E-02 0.  1.
       -2   -1    0    0    0  501  0.00000000000E+00  0.00000000000E+00 -0.62553067829E+03  0.62553067830E+03  0.25500000920E-02 0. -1.
    10030    2    1    2    0    0  0.00000000000E+00  0.00000000000E+00  0.16851232114E+04  0.29361845680E+04  0.24044832251E+04 0.  0.
        4    1    3    3  502    0  0.29914016690E+03 -0.70015881654E+03  0.19787211143E+04  0.21201523693E+04  0.12699999809E+01 0.  1.
       -4    1    3    3    0  502 -0.29914016690E+03  0.70015881654E+03 -0.29359790292E+03  0.81603219871E+03  0.12699999809E+01 0. -1.
</event>
<event>
 5   0  0.1456876E-05  0.2488291E+04  0.7818609E-02  0.8407169E-01
       -1   -1    0    0    0  501  0.00000000000E+00  0.00000000000E+00  0.12985122433E+04  0.12985122433E+04  0.50400001928E-02 0. -1.
        1   -1    0    0  501    0  0.00000000000E+00  0.00000000000E+00 -0.11920551793E+04  0.11920551793E+04  0.50400001928E-02 0.  1.
    10030    2    1    2    0    0  0.00000000000E+00  0.00000000000E+00  0.10645706405E+03  0.24905674226E+04  0.24882911767E+04 0.  0.
        1    1    3    3  502    0 -0.32953440426E+03 -0.56979571636E+02  0.12526814135E+04  0.12965532457E+04  0.50400001928E-02 0. -1.
       -1    1    3    3    0  502  0.32953440426E+03  0.56979571636E+02 -0.11462243495E+04  0.11940141769E+04  0.50400001928E-02 0.  1.
</event>
<event>
 5   0  0.3578670E-05  0.2552304E+04  0.7818609E-02  0.8384585E-01
       -2   -1    0    0    0  501  0.00000000000E+00  0.00000000000E+00  0.13172422055E+04  0.13172422055E+04  0.25500000920E-02 0.  1.
        2   -1    0    0  501    0  0.00000000000E+00  0.00000000000E+00 -0.12363434568E+04  0.12363434568E+04  0.25500000920E-02 0. -1.
    10030    2    1    2    0    0  0.00000000000E+00  0.00000000000E+00  0.80898748760E+02  0.25535856623E+04  0.25523038861E+04 0.  0.
        4    1    3    3  502    0  0.86606948661E+03  0.39085281005E+03  0.89276914738E+03  0.13037947071E+04  0.12699999809E+01 0.  1.
       -4    1    3    3    0  502 -0.86606948661E+03 -0.39085281005E+03 -0.81187039862E+03  0.12497909552E+04  0.12699999809E+01 0. -1.
</event>
<event>
 5   0  0.3579097E-05  0.2314454E+04  0.7818609E-02  0.8472244E-01
       -2   -1    0    0    0  501  0.00000000000E+00  0.00000000000E+00  0.69983651009E+03  0.69983651010E+03  0.25500000920E-02 0. -1.
        2   -1    0    0  501    0  0.00000000000E+00  0.00000000000E+00 -0.19135528219E+04  0.19135528219E+04  0.25500000920E-02 0.  1.
    10030    2    1    2    0    0  0.00000000000E+00  0.00000000000E+00 -0.12137163118E+04  0.26133893320E+04  0.23144538265E+04 0.  0.
        5    1    3    3  502    0  0.62437183199E+03 -0.87579233742E+03 -0.12474554293E+03  0.10827908124E+04  0.46999998093E+01 0. -1.
       -5    1    3    3    0  502 -0.62437183199E+03  0.87579233742E+03 -0.10889707689E+04  0.15305985196E+04  0.46999998093E+01 0.  1.
</event>
<event>
 5   0  0.1502886E-05  0.2493311E+04  0.7818609E-02  0.8405373E-01
        1   -1    0    0  501    0  0.00000000000E+00  0.00000000000E+00  0.19944553782E+04  0.19944553782E+04  0.50400001928E-02 0.  1.
       -1   -1    0    0    0  501  0.00000000000E+00  0.00000000000E+00 -0.77923499795E+03  0.77923499796E+03  0.50400001928E-02 0. -1.
    10030    2    1    2    0    0  0.00000000000E+00  0.00000000000E+00  0.12152203802E+04  0.27736903762E+04  0.24933105964E+04 0.  0.
        4    1    3    3  502    0 -0.47453318142E+03  0.11527825538E+04  0.61611612858E+03  0.13905718440E+04  0.12699999809E+01 0.  1.
       -4    1    3    3    0  502  0.47453318142E+03 -0.11527825538E+04  0.59910425166E+03  0.13831185321E+04  0.12699999809E+01 0. -1.
</event>
<event>
 5   0  0.3579097E-05  0.2484114E+04  0.7818609E-02  0.8408667E-01
       -2   -1    0    0    0  501  0.00000000000E+00  0.00000000000E+00  0.83949141525E+03  0.83949141525E+03  0.25500000920E-02 0.  1.
        2   -1    0    0  501    0  0.00000000000E+00  0.00000000000E+00 -0.18376669501E+04  0.18376669501E+04  0.25500000920E-02 0. -1.
    10030    2    1    2    0    0  0.00000000000E+00  0.00000000000E+00 -0.99817553484E+03  0.26771583653E+04  0.24841140301E+04 0.  0.
        5    1    3    3  502    0  0.86707401969E+03 -0.85599112404E+03 -0.75896015474E+03  0.14354723148E+04  0.46999998093E+01 0. -1.
       -5    1    3    3    0  502 -0.86707401969E+03  0.85599112404E+03 -0.23921538010E+03  0.12416860506E+04  0.46999998093E+01 0.  1.
</event>
<event>
 5   0  0.1429483E-05  0.2504178E+04  0.7818609E-02  0.8401499E-01
       -1   -1    0    0    0  501  0.00000000000E+00  0.00000000000E+00  0.11315875708E+04  0.11315875708E+04  0.50400001928E-02 0. -1.
        1   -1    0    0  501    0  0.00000000000E+00  0.00000000000E+00 -0.13854220679E+04  0.13854220679E+04  0.50400001928E-02 0.  1.
    10030    2    1    2    0    0  0.00000000000E+00  0.00000000000E+00 -0.25383449710E+03  0.25170096387E+04  0.25041776233E+04 0.  0.
        2    1    3    3  502    0 -0.39050180186E+03  0.74262324851E+03  0.80722418052E+03  0.11642988552E+04  0.25500000920E-02 0. -1.
       -2    1    3    3    0  502  0.39050180186E+03 -0.74262324851E+03 -0.10610586776E+04  0.13527107835E+04  0.25500000920E-02 0.  1.
</event>
<event>
 5   0  0.3704241E-05  0.2520212E+04  0.7818609E-02  0.8395820E-01
       -2   -1    0    0    0  501  0.00000000000E+00  0.00000000000E+00  0.94300450000E+03  0.94300450000E+03  0.25500000920E-02 0. -1.
        2   -1    0    0  501    0  0.00000000000E+00  0.00000000000E+00 -0.16838385093E+04  0.16838385093E+04  0.25500000920E-02 0.  1.
    10030    2    1    2    0    0  0.00000000000E+00  0.00000000000E+00 -0.74083400928E+03  0.26268430093E+04  0.25202121272E+04 0.  0.
        2    1    3    3  502    0  0.58125350641E+03  0.48956956611E+03  0.67726468409E+03  0.10179496309E+04  0.25500000920E-02 0. -1.
       -2    1    3    3    0  502 -0.58125350641E+03 -0.48956956611E+03 -0.14180986934E+04  0.16088933784E+04  0.25500000920E-02 0.  1.
</event>
<event>
 5   0  0.1492639E-05  0.2501734E+04  0.7818609E-02  0.8402368E-01
       -1   -1    0    0    0  501  0.00000000000E+00  0.00000000000E+00  0.18505204630E+04  0.18505204631E+04  0.50400001928E-02 0.  1.
        1   -1    0    0  501    0  0.00000000000E+00  0.00000000000E+00 -0.84552844554E+03  0.84552844555E+03  0.50400001928E-02 0. -1.
    10030    2    1    2    0    0  0.00000000000E+00  0.00000000000E+00  0.10049920175E+04  0.26960489086E+04  0.25017335514E+04 0.  0.
        5    1    3    3  502    0  0.46299445711E+03  0.10701934795E+04  0.99039438636E+03  0.15298957747E+04  0.46999998093E+01 0.  1.
       -5    1    3    3    0  502 -0.46299445711E+03 -0.10701934795E+04  0.14597631152E+02  0.11661531339E+04  0.46999998093E+01 0. -1.
</event>
</LesHouchesEvents>
