<LesHouchesEvents version="3.0">
<header>
<!--
#*********************************************************************
#                                                                    *
#                        MadGraph5_aMC@NLO                           *
#                                                                    *
#                           Going Beyond                             *
#                                                                    *
#                   http://madgraph.hep.uiuc.edu                     *
#                   http://madgraph.phys.ucl.ac.be                   *
#                   http://amcatnlo.cern.ch                          *
#                                                                    *
#                     The MadGraph5_aMC@NLO team                     *
#                                                                    *
#....................................................................*
#                                                                    *
# This file contains all the information necessary to reproduce      *
# the events generated:                                              *
#                                                                    *
# 1. software version                                                *
# 2. proc_card          : code generation info including model       *
# 3. param_card         : model primary parameters in the LH format  *
# 4. run_card           : running parameters (collider and cuts)     *
# 5. pythia_card        : present only if pythia has been run        *
# 6. pgs_card           : present only if pgs has been run           *
# 7. delphes_cards      : present only if delphes has been run       *
#                                                                    *
#                                                                    *
#*********************************************************************
-->
<MGVersion>
#5.2.2.3
</MGVersion>
<MG5ProcCard>
#************************************************************
#*                     MadGraph5_aMC@NLO                    *
#*                                                          *
#*                *                       *                 *
#*                  *        * *        *                   *
#*                    * * * * 5 * * * *                     *
#*                  *        * *        *                   *
#*                *                       *                 *
#*                                                          *
#*                                                          *
#*         VERSION 2.2.3                 2015-02-10         *
#*                                                          *
#*    The MadGraph5_aMC@NLO Development Team - Find us at   *
#*    https://server06.fynu.ucl.ac.be/projects/madgraph     *
#*                                                          *
#************************************************************
#*                                                          *
#*               Command File for MadGraph5_aMC@NLO         *
#*                                                          *
#*     run as ./bin/mg5_aMC  filename                       *
#*                                                          *
#************************************************************
set group_subprocesses Auto
set ignore_six_quark_processes False
set loop_optimized_output True
set gauge unitary
set complex_mass_scheme False
import model sm
define p = g u c d s u~ c~ d~ s~
define j = g u c d s u~ c~ d~ s~
define l+ = e+ mu+
define l- = e- mu-
define vl = ve vm vt
define vl~ = ve~ vm~ vt~
import model Zprime_UFO
generate p p > zph, zph > j j
add process p p > zph, zph > b b~
output Dijet_signal
</MG5ProcCard>
<MGProcCard>
#*********************************************************************
#                        MadGraph/MadEvent                           *
#                   http://madgraph.hep.uiuc.edu                     *
#                                                                    *
#                          proc_card.dat                             *
#*********************************************************************
#                                                                    *
#            This Files is generated by MADGRAPH 5                   *
#                                                                    *
# WARNING: This Files is generated for MADEVENT (compatibility issue)*
#          This files is NOT a valid MG4 proc_card.dat               *
#          Running this in MG4 will NEVER reproduce the result of MG5*
#                                                                    *
#*********************************************************************
#*********************************************************************
# Process(es) requested : mg2 input                                  *
#*********************************************************************
# Begin PROCESS # This is TAG. Do not modify this line
p p > zph , zph > j j           #Process
# Be carefull the coupling are here in MG5 convention
          
end_coup           # End the couplings input

done               # this tells MG there are no more procs
# End PROCESS  # This is TAG. Do not modify this line
#*********************************************************************
# Model information                                                  *
#*********************************************************************
# Begin MODEL  # This is TAG. Do not modify this line
Zprime_UFO
# End   MODEL  # This is TAG. Do not modify this line
#*********************************************************************
# Start multiparticle definitions                                    *
#*********************************************************************
# Begin MULTIPARTICLES # This is TAG. Do not modify this line

# End  MULTIPARTICLES # This is TAG. Do not modify this line
</MGProcCard>
<MGRunCard>
#*********************************************************************
#                       MadGraph5_aMC@NLO                            *
#                                                                    *
#                     run_card.dat MadEvent                          *
#                                                                    *
#  This file is used to set the parameters of the run.               *
#                                                                    *
#  Some notation/conventions:                                        *
#                                                                    *
#   Lines starting with a '# ' are info or comments                  *
#                                                                    *
#   mind the format:   value    = variable     ! comment             *
#*********************************************************************
#
#*******************                                                 
# Running parameters
#*******************                                                 
#                                                                    
#*********************************************************************
# Tag name for the run (one word)                                    *
#*********************************************************************
  tag_1     = run_tag ! name of the run 
#*********************************************************************
# Run to generate the grid pack                                      *
#*********************************************************************
  .false.     = gridpack  !True = setting up the grid pack
#*********************************************************************
# Number of events and rnd seed                                      *
# Warning: Do not generate more than 1M events in a single run       *
# If you want to run Pythia, avoid more than 50k events in a run.    *
#*********************************************************************
  2000 = nevents ! Number of unweighted events requested 
 2640 = iseed   ! rnd seed (0=assigned automatically=default))
#*********************************************************************
# Collider type and energy                                           *
# lpp: 0=No PDF, 1=proton, -1=antiproton, 2=photon from proton,      *
#                                         3=photon from electron     *
#*********************************************************************
        1     = lpp1    ! beam 1 type 
        1     = lpp2    ! beam 2 type
     4000     = ebeam1  ! beam 1 total energy in GeV
     4000     = ebeam2  ! beam 2 total energy in GeV
#*********************************************************************
# Beam polarization from -100 (left-handed) to 100 (right-handed)    *
#*********************************************************************
        0     = polbeam1 ! beam polarization for beam 1
        0     = polbeam2 ! beam polarization for beam 2
#*********************************************************************
# PDF CHOICE: this automatically fixes also alpha_s and its evol.    *
#*********************************************************************
 'nn23lo1'    = pdlabel     ! PDF set                                     
 230000    = lhaid     ! if pdlabel=lhapdf, this is the lhapdf number
#*********************************************************************
# Renormalization and factorization scales                           *
#*********************************************************************
 F        = fixed_ren_scale  ! if .true. use fixed ren scale
 F        = fixed_fac_scale  ! if .true. use fixed fac scale
 91.1880  = scale            ! fixed ren scale
 91.1880  = dsqrt_q2fact1    ! fixed fact scale for pdf1
 91.1880  = dsqrt_q2fact2    ! fixed fact scale for pdf2
 1        = scalefact        ! scale factor for event-by-event scales
#*********************************************************************
# Matching - Warning! ickkw > 1 is still beta
#*********************************************************************
 0        = ickkw            ! 0 no matching, 1 MLM, 2 CKKW matching
 1        = highestmult      ! for ickkw=2, highest mult group
 1        = ktscheme         ! for ickkw=1, 1 Durham kT, 2 Pythia pTE
 1        = alpsfact         ! scale factor for QCD emission vx
 F        = chcluster        ! cluster only according to channel diag
 T        = pdfwgt           ! for ickkw=1, perform pdf reweighting
 5        = asrwgtflavor     ! highest quark flavor for a_s reweight
 T        = clusinfo         ! include clustering tag in output
 3.0      = lhe_version       ! Change the way clustering information pass to shower.        
#*********************************************************************
#**********************************************************
#
#**********************************************************
# Automatic ptj and mjj cuts if xqcut > 0
# (turn off for VBF and single top processes)
#**********************************************************
   T  = auto_ptj_mjj  ! Automatic setting of ptj and mjj
#**********************************************************
#                                                                    
#**********************************
# BW cutoff (M+/-bwcutoff*Gamma)
#**********************************
  15  = bwcutoff      ! (M+/-bwcutoff*Gamma)
#**********************************************************
# Apply pt/E/eta/dr/mij cuts on decay products or not
# (note that etmiss/ptll/ptheavy/ht/sorted cuts always apply)
#**********************************************************
   T  = cut_decays    ! Cut decay products 
#*************************************************************
# Number of helicities to sum per event (0 = all helicities)
# 0 gives more stable result, but longer run time (needed for
# long decay chains e.g.).
# Use >=2 if most helicities contribute, e.g. pure QCD.
#*************************************************************
   0  = nhel          ! Number of helicities used per event
#*******************                                                 
# Standard Cuts
#*******************                                                 
#                                                                    
#*********************************************************************
# Minimum and maximum pt's (for max, -1 means no cut)                *
#*********************************************************************
 20  = ptj       ! minimum pt for the jets 
  0  = ptb       ! minimum pt for the b 
 10  = pta       ! minimum pt for the photons 
 10  = ptl       ! minimum pt for the charged leptons 
  0  = misset    ! minimum missing Et (sum of neutrino's momenta)
  0  = ptheavy   ! minimum pt for one heavy final state
 1.0 = ptonium   ! minimum pt for the quarkonium states
 -1  = ptjmax    ! maximum pt for the jets
 -1  = ptbmax    ! maximum pt for the b
 -1  = ptamax    ! maximum pt for the photons
 -1  = ptlmax    ! maximum pt for the charged leptons
 -1  = missetmax ! maximum missing Et (sum of neutrino's momenta)
#*********************************************************************
# Minimum and maximum E's (in the center of mass frame)              *
#*********************************************************************
  0  = ej     ! minimum E for the jets 
  0  = eb     ! minimum E for the b 
  0  = ea     ! minimum E for the photons 
  0  = el     ! minimum E for the charged leptons 
 -1   = ejmax ! maximum E for the jets
 -1   = ebmax ! maximum E for the b
 -1   = eamax ! maximum E for the photons
 -1   = elmax ! maximum E for the charged leptons
#*********************************************************************
# Maximum and minimum absolute rapidity (for max, -1 means no cut)   *
#*********************************************************************
   5  = etaj    ! max rap for the jets 
  -1  = etab    ! max rap for the b
 2.5  = etaa    ! max rap for the photons 
 2.5  = etal    ! max rap for the charged leptons 
 0.6  = etaonium ! max rap for the quarkonium states
   0  = etajmin ! min rap for the jets
   0  = etabmin ! min rap for the b
   0  = etaamin ! min rap for the photons
   0  = etalmin ! main rap for the charged leptons
#*********************************************************************
# Minimum and maximum DeltaR distance                                *
#*********************************************************************
 0.4 = drjj    ! min distance between jets 
 0   = drbb    ! min distance between b's 
 0.4 = drll    ! min distance between leptons 
 0.4 = draa    ! min distance between gammas 
 0   = drbj    ! min distance between b and jet 
 0.4 = draj    ! min distance between gamma and jet 
 0.4 = drjl    ! min distance between jet and lepton 
 0   = drab    ! min distance between gamma and b 
 0   = drbl    ! min distance between b and lepton 
 0.4 = dral    ! min distance between gamma and lepton 
 -1  = drjjmax ! max distance between jets
 -1  = drbbmax ! max distance between b's
 -1  = drllmax ! max distance between leptons
 -1  = draamax ! max distance between gammas
 -1  = drbjmax ! max distance between b and jet
 -1  = drajmax ! max distance between gamma and jet
 -1  = drjlmax ! max distance between jet and lepton
 -1  = drabmax ! max distance between gamma and b
 -1  = drblmax ! max distance between b and lepton
 -1  = dralmax ! maxdistance between gamma and lepton
#*********************************************************************
# Minimum and maximum invariant mass for pairs                       *
# WARNING: for four lepton final state mmll cut require to have      *
#          different lepton masses for each flavor!                  *           
#*********************************************************************
 0   = mmjj    ! min invariant mass of a jet pair 
 0   = mmbb    ! min invariant mass of a b pair 
 0   = mmaa    ! min invariant mass of gamma gamma pair
 0   = mmll    ! min invariant mass of l+l- (same flavour) lepton pair
 -1  = mmjjmax ! max invariant mass of a jet pair
 -1  = mmbbmax ! max invariant mass of a b pair
 -1  = mmaamax ! max invariant mass of gamma gamma pair
 -1  = mmllmax ! max invariant mass of l+l- (same flavour) lepton pair
#*********************************************************************
# Minimum and maximum invariant mass for all letpons                 *
#*********************************************************************
 0   = mmnl    ! min invariant mass for all letpons (l+- and vl) 
 -1  = mmnlmax ! max invariant mass for all letpons (l+- and vl) 
#*********************************************************************
# Minimum and maximum pt for 4-momenta sum of leptons                *
#*********************************************************************
 0   = ptllmin  ! Minimum pt for 4-momenta sum of leptons(l and vl)
 -1  = ptllmax  ! Maximum pt for 4-momenta sum of leptons(l and vl)
#*********************************************************************
# Inclusive cuts                                                     *
#*********************************************************************
 0  = xptj ! minimum pt for at least one jet  
 0  = xptb ! minimum pt for at least one b 
 0  = xpta ! minimum pt for at least one photon 
 0  = xptl ! minimum pt for at least one charged lepton 
#*********************************************************************
# Control the pt's of the jets sorted by pt                          *
#*********************************************************************
 0   = ptj1min ! minimum pt for the leading jet in pt
 0   = ptj2min ! minimum pt for the second jet in pt
 0   = ptj3min ! minimum pt for the third jet in pt
 0   = ptj4min ! minimum pt for the fourth jet in pt
 -1  = ptj1max ! maximum pt for the leading jet in pt 
 -1  = ptj2max ! maximum pt for the second jet in pt
 -1  = ptj3max ! maximum pt for the third jet in pt
 -1  = ptj4max ! maximum pt for the fourth jet in pt
 0   = cutuse  ! reject event if fails any (0) / all (1) jet pt cuts
#*********************************************************************
# Control the pt's of leptons sorted by pt                           *
#*********************************************************************
 0   = ptl1min ! minimum pt for the leading lepton in pt
 0   = ptl2min ! minimum pt for the second lepton in pt
 0   = ptl3min ! minimum pt for the third lepton in pt
 0   = ptl4min ! minimum pt for the fourth lepton in pt
 -1  = ptl1max ! maximum pt for the leading lepton in pt 
 -1  = ptl2max ! maximum pt for the second lepton in pt
 -1  = ptl3max ! maximum pt for the third lepton in pt
 -1  = ptl4max ! maximum pt for the fourth lepton in pt
#*********************************************************************
# Control the Ht(k)=Sum of k leading jets                            *
#*********************************************************************
 0   = htjmin ! minimum jet HT=Sum(jet pt)
 -1  = htjmax ! maximum jet HT=Sum(jet pt)
 0   = ihtmin  !inclusive Ht for all partons (including b)
 -1  = ihtmax  !inclusive Ht for all partons (including b)
 0   = ht2min ! minimum Ht for the two leading jets
 0   = ht3min ! minimum Ht for the three leading jets
 0   = ht4min ! minimum Ht for the four leading jets
 -1  = ht2max ! maximum Ht for the two leading jets
 -1  = ht3max ! maximum Ht for the three leading jets
 -1  = ht4max ! maximum Ht for the four leading jets
#***********************************************************************
# Photon-isolation cuts, according to hep-ph/9801442                   *
# When ptgmin=0, all the other parameters are ignored                  *
# When ptgmin>0, pta and draj are not going to be used                 *
#***********************************************************************
   0 = ptgmin ! Min photon transverse momentum
 0.4 = R0gamma ! Radius of isolation code
 1.0 = xn ! n parameter of eq.(3.4) in hep-ph/9801442
 1.0 = epsgamma ! epsilon_gamma parameter of eq.(3.4) in hep-ph/9801442
 .true. = isoEM ! isolate photons from EM energy (photons and leptons)
#*********************************************************************
# WBF cuts                                                           *
#*********************************************************************
 0   = xetamin ! minimum rapidity for two jets in the WBF case  
 0   = deltaeta ! minimum rapidity for two jets in the WBF case 
#*********************************************************************
# KT DURHAM CUT                                                      *
#*********************************************************************
 -1    =  ktdurham        
 0.4  =  dparameter 
#*********************************************************************
# maximal pdg code for quark to be considered as a light jet         *
# (otherwise b cuts are applied)                                     *
#*********************************************************************
 4 = maxjetflavor    ! Maximum jet pdg code
#*********************************************************************
# Jet measure cuts                                                   *
#*********************************************************************
 0   = xqcut   ! minimum kt jet measure between partons
#*********************************************************************
#
#*********************************************************************
# Store info for systematics studies                                 *
# WARNING: If use_syst is T, matched Pythia output is                *
#          meaningful ONLY if plotted taking matchscale              *
#          reweighting into account!                                 *
#*********************************************************************
   F  = use_syst      ! Enable systematics studies
#
#**************************************
# Parameter of the systematics study
#  will be used by SysCalc (if installed)
#**************************************                                  
#
0.5 1 2 = sys_scalefact  # factorization/renormalization scale factor
0.5 1 2 = sys_alpsfact  # \alpha_s emission scale factors
30 50 = sys_matchscale # variation of merging scale
# PDF sets and number of members (0 or none for all members).
CT10nlo.LHgrid = sys_pdf # matching scales
# MSTW2008nlo68cl.LHgrid 1  = sys_pdf
</MGRunCard>
<slha>
######################################################################
## PARAM_CARD AUTOMATICALY GENERATED BY MG5 FOLLOWING UFO MODEL   ####
######################################################################
##                                                                  ##
##  Width set on Auto will be computed following the information    ##
##        present in the decay.py files of the model.               ##
##        See  arXiv:1402.1178 for more details.                    ##
##                                                                  ##
######################################################################

###################################
## INFORMATION FOR CKMBLOCK
###################################
Block ckmblock 
    1 2.277360e-01 # cabi 

###################################
## INFORMATION FOR FRBLOCK
###################################
Block frblock 
    1 1.400000e+00 # gz 

###################################
## INFORMATION FOR MASS
###################################
Block mass 
    1 5.040000e-03 # MD 
    2 2.550000e-03 # MU 
    3 1.010000e-01 # MS 
    4 1.270000e+00 # MC 
    5 4.700000e+00 # MB 
    6 1.720000e+02 # MT 
   11 5.110000e-04 # Me 
   13 1.056600e-01 # MM 
   15 1.777000e+00 # MTA 
   23 9.118760e+01 # MZ 
   25 1.200000e+02 # MH 
  10030 2.700000e+03 # MZph 
  10031 3.000000e+02 # MZpl 
## Dependent parameters, given by model restrictions.
## Those values should be edited following the 
## analytical expression. MG5 ignores those values 
## but they are important for interfacing the output of MG5
## to external program such as Pythia.
  12 0.000000 # ve : 0.0 
  14 0.000000 # vm : 0.0 
  16 0.000000 # vt : 0.0 
  21 0.000000 # g : 0.0 
  22 0.000000 # a : 0.0 
  24 79.824360 # w+ : cmath.sqrt(MZ__exp__2/2. + cmath.sqrt(MZ__exp__4/4. - (aEW*cmath.pi*MZ__exp__2)/(Gf*sqrt__2))) 

###################################
## INFORMATION FOR SMINPUTS
###################################
Block sminputs 
    1 1.279000e+02 # aEWM1 
    2 1.166370e-05 # Gf 
    3 1.184000e-01 # aS 

###################################
## INFORMATION FOR YUKAWA
###################################
Block yukawa 
    1 5.040000e-03 # ymdo 
    2 2.550000e-03 # ymup 
    3 1.010000e-01 # yms 
    4 1.270000e+00 # ymc 
    5 4.700000e+00 # ymb 
    6 1.720000e+02 # ymt 
   11 5.110000e-04 # yme 
   13 1.056600e-01 # ymm 
   15 1.777000e+00 # ymtau 

###################################
## INFORMATION FOR DECAY
###################################
DECAY   6 1.508336e+00 # WT 
DECAY  23 2.495200e+00 # WZ 
DECAY  24 2.085000e+00 # WW 
DECAY  25 5.753088e-03 # WH 
## Dependent parameters, given by model restrictions.
## Those values should be edited following the 
## analytical expression. MG5 ignores those values 
## but they are important for interfacing the output of MG5
## to external program such as Pythia.
DECAY  1 0.000000 # d : 0.0 
DECAY  2 0.000000 # u : 0.0 
DECAY  3 0.000000 # s : 0.0 
DECAY  4 0.000000 # c : 0.0 
DECAY  5 0.000000 # b : 0.0 
DECAY  11 0.000000 # e- : 0.0 
DECAY  12 0.000000 # ve : 0.0 
DECAY  13 0.000000 # mu- : 0.0 
DECAY  14 0.000000 # vm : 0.0 
DECAY  15 0.000000 # ta- : 0.0 
DECAY  16 0.000000 # vt : 0.0 
DECAY  21 0.000000 # g : 0.0 
DECAY  22 0.000000 # a : 0.0 
DECAY  10030 0.308725 # zph : (gz__exp__2*MZph*(5 + cmath.sqrt(1 - (4*MT__exp__2)/MZph__exp__2)))/(144.*cmath.pi) 
DECAY  10031 0.132629 # zpl : (5*gz__exp__2*MZpl)/(144.*cmath.pi) 
#===========================================================
# QUANTUM NUMBERS OF NEW STATE(S) (NON SM PDG CODE)
#===========================================================

Block QNUMBERS 10030  # zph 
        1 0  # 3 times electric charge
        2 3  # number of spin states (2S+1)
        3 1  # colour rep (1: singlet, 3: triplet, 8: octet)
        4 0  # Particle/Antiparticle distinction (0=own anti)
Block QNUMBERS 10031  # zpl 
        1 0  # 3 times electric charge
        2 3  # number of spin states (2S+1)
        3 1  # colour rep (1: singlet, 3: triplet, 8: octet)
        4 0  # Particle/Antiparticle distinction (0=own anti)
</slha>
## END BANNER##
<MGGenerationInfo>
#  Number of Events        :         3941
#  Integrated weight (pb)  :  0.69924E-02
#  Max wgt                 :  0.26412E-05
#  Average wgt             :  0.17743E-05
</MGGenerationInfo>
</header>
<init>
     2212     2212  0.40000000000E+04  0.40000000000E+04 0 0  247000  247000 2   1
  0.69970921028E-02  0.16826283352E-04  0.26412160000E-05   0
</init>
<event>
 5   0  0.2540232E-05  0.2715644E+04  0.7818609E-02  0.8329947E-01
       -2   -1    0    0    0  501  0.00000000000E+00  0.00000000000E+00  0.87782924977E+03  0.87782924977E+03  0.25500000920E-02 0. -1.
        2   -1    0    0  501    0  0.00000000000E+00  0.00000000000E+00 -0.21002717580E+04  0.21002717580E+04  0.25500000920E-02 0.  1.
    10030    2    1    2    0    0  0.00000000000E+00  0.00000000000E+00 -0.12224425082E+04  0.29781010078E+04  0.27156435566E+04 0.  0.
        1    1    3    3  502    0  0.31989754749E+03 -0.21053886271E+03 -0.20398191329E+04  0.20754573348E+04  0.50400001928E-02 0.  1.
       -1    1    3    3    0  502 -0.31989754749E+03  0.21053886271E+03  0.81737662472E+03  0.90264367292E+03  0.50400001928E-02 0. -1.
</event>
<event>
 5   0  0.2540232E-05  0.2689262E+04  0.7818609E-02  0.8338498E-01
       -2   -1    0    0    0  501  0.00000000000E+00  0.00000000000E+00  0.75457659123E+03  0.75457659124E+03  0.25500000920E-02 0.  1.
        2   -1    0    0  501    0  0.00000000000E+00  0.00000000000E+00 -0.23960885109E+04  0.23960885109E+04  0.25500000920E-02 0. -1.
    10030    2    1    2    0    0  0.00000000000E+00  0.00000000000E+00 -0.16415119197E+04  0.31506651021E+04  0.26892618324E+04 0.  0.
        1    1    3    3  502    0  0.94081124865E+03 -0.96033651410E+03 -0.79065145024E+03  0.15596479544E+04  0.50400001928E-02 0. -1.
       -1    1    3    3    0  502 -0.94081124865E+03  0.96033651410E+03 -0.85086046942E+03  0.15910171477E+04  0.50400001928E-02 0.  1.
</event>
<event>
 5   0  0.2615843E-05  0.2700345E+04  0.7818609E-02  0.8334893E-01
       -2   -1    0    0    0  501  0.00000000000E+00  0.00000000000E+00  0.77032205858E+03  0.77032205859E+03  0.25500000920E-02 0. -1.
        2   -1    0    0  501    0  0.00000000000E+00  0.00000000000E+00 -0.23664985512E+04  0.23664985512E+04  0.25500000920E-02 0.  1.
    10030    2    1    2    0    0  0.00000000000E+00  0.00000000000E+00 -0.15961764926E+04  0.31368206098E+04  0.27003451895E+04 0.  0.
        3    1    3    3  502    0 -0.49528560972E+03  0.74684638426E+03  0.37503773330E+03  0.97146315858E+03  0.10100000352E+00 0. -1.
       -3    1    3    3    0  502  0.49528560972E+03 -0.74684638426E+03 -0.19712142259E+04  0.21653574512E+04  0.10100000352E+00 0.  1.
</event>
<event>
 5   0  0.2540232E-05  0.2800028E+04  0.7818609E-02  0.8303260E-01
        2   -1    0    0  501    0  0.00000000000E+00  0.00000000000E+00  0.17435057088E+04  0.17435057088E+04  0.25500000920E-02 0. -1.
       -2   -1    0    0    0  501  0.00000000000E+00  0.00000000000E+00 -0.11241942925E+04  0.11241942925E+04  0.25500000920E-02 0.  1.
    10030    2    1    2    0    0  0.00000000000E+00  0.00000000000E+00  0.61931141633E+03  0.28677000013E+04  0.28000279762E+04 0.  0.
        1    1    3    3  502    0 -0.78920872738E+03 -0.11530896640E+04  0.22052964992E+03  0.14146022463E+04  0.50400001928E-02 0. -1.
       -1    1    3    3    0  502  0.78920872738E+03  0.11530896640E+04  0.39878176641E+03  0.14530977551E+04  0.50400001928E-02 0.  1.
</event>
<event>
 5   0  0.2615843E-05  0.2654832E+04  0.7818609E-02  0.8349811E-01
        2   -1    0    0  501    0  0.00000000000E+00  0.00000000000E+00  0.14094896927E+04  0.14094896927E+04  0.25500000920E-02 0. -1.
       -2   -1    0    0    0  501  0.00000000000E+00  0.00000000000E+00 -0.12501211404E+04  0.12501211404E+04  0.25500000920E-02 0.  1.
    10030    2    1    2    0    0  0.00000000000E+00  0.00000000000E+00  0.15936855236E+03  0.26596108331E+04  0.26548317175E+04 0.  0.
        3    1    3    3  502    0  0.21262045668E+02  0.16865458849E+03 -0.12391719938E+04  0.12507772325E+04  0.10100000352E+00 0.  1.
       -3    1    3    3    0  502 -0.21262045668E+02 -0.16865458849E+03  0.13985405462E+04  0.14088336007E+04  0.10100000352E+00 0. -1.
</event>
<event>
 5   0  0.1096672E-05  0.2730281E+04  0.7818609E-02  0.8325246E-01
       -1   -1    0    0    0  501  0.00000000000E+00  0.00000000000E+00  0.16272781681E+04  0.16272781681E+04  0.50400001928E-02 0. -1.
        1   -1    0    0  501    0  0.00000000000E+00  0.00000000000E+00 -0.11452303979E+04  0.11452303979E+04  0.50400001928E-02 0.  1.
    10030    2    1    2    0    0  0.00000000000E+00  0.00000000000E+00  0.48204777018E+03  0.27725085660E+04  0.27302808822E+04 0.  0.
        1    1    3    3  502    0 -0.57536874041E+03 -0.96993333432E+03 -0.54015204382E+03  0.12504335612E+04  0.50400001928E-02 0.  1.
       -1    1    3    3    0  502  0.57536874041E+03  0.96993333432E+03  0.10221998140E+04  0.15220750048E+04  0.50400001928E-02 0. -1.
</event>
<event>
 5   0  0.1005265E-05  0.2675685E+04  0.7818609E-02  0.8342938E-01
        1   -1    0    0  501    0  0.00000000000E+00  0.00000000000E+00  0.13898950391E+04  0.13898950391E+04  0.50400001928E-02 0.  1.
       -1   -1    0    0    0  501  0.00000000000E+00  0.00000000000E+00 -0.12877395568E+04  0.12877395569E+04  0.50400001928E-02 0. -1.
    10030    2    1    2    0    0  0.00000000000E+00  0.00000000000E+00  0.10215548226E+03  0.26776345960E+04  0.26756851995E+04 0.  0.
        3    1    3    3  502    0  0.15571521757E+03 -0.12077177519E+04 -0.50339579586E+03  0.13176633617E+04  0.10100000352E+00 0. -1.
       -3    1    3    3    0  502 -0.15571521757E+03  0.12077177519E+04  0.60555127812E+03  0.13599712342E+04  0.10100000352E+00 0.  1.
</event>
<event>
 5   0  0.2540232E-05  0.2710450E+04  0.7818609E-02  0.8331622E-01
        2   -1    0    0  501    0  0.00000000000E+00  0.00000000000E+00  0.12000718725E+04  0.12000718725E+04  0.25500000920E-02 0. -1.
       -2   -1    0    0    0  501  0.00000000000E+00  0.00000000000E+00 -0.15304374893E+04  0.15304374893E+04  0.25500000920E-02 0.  1.
    10030    2    1    2    0    0  0.00000000000E+00  0.00000000000E+00 -0.33036561679E+03  0.27305093617E+04  0.27104501349E+04 0.  0.
        1    1    3    3  502    0 -0.10206714938E+04  0.21002066877E+03 -0.10380570045E+04  0.14708641420E+04  0.50400001928E-02 0.  1.
       -1    1    3    3    0  502  0.10206714938E+04 -0.21002066877E+03  0.70769138770E+03  0.12596452198E+04  0.50400001928E-02 0. -1.
</event>
<event>
 5   0  0.9971923E-06  0.2428916E+04  0.7818609E-02  0.8428757E-01
        1   -1    0    0  501    0  0.00000000000E+00  0.00000000000E+00  0.10178266098E+04  0.10178266098E+04  0.50400001928E-02 0.  1.
       -1   -1    0    0    0  501  0.00000000000E+00  0.00000000000E+00 -0.14490760927E+04  0.14490760928E+04  0.50400001928E-02 0. -1.
    10030    2    1    2    0    0  0.00000000000E+00  0.00000000000E+00 -0.43124948299E+03  0.24669027025E+04  0.24289159778E+04 0.  0.
        2    1    3    3  502    0 -0.10092592288E+03  0.82787434300E+03 -0.11122371614E+04  0.13901918835E+04  0.25500000920E-02 0. -1.
       -2    1    3    3    0  502  0.10092592288E+03 -0.82787434300E+03  0.68098767841E+03  0.10767108190E+04  0.25500000920E-02 0.  1.
</event>
<event>
 5   0  0.2540232E-05  0.2467403E+04  0.7818609E-02  0.8414691E-01
        2   -1    0    0  501    0  0.00000000000E+00  0.00000000000E+00  0.16181419596E+04  0.16181419597E+04  0.25500000920E-02 0.  1.
       -2   -1    0    0    0  501  0.00000000000E+00  0.00000000000E+00 -0.94059673123E+03  0.94059673124E+03  0.25500000920E-02 0. -1.
    10030    2    1    2    0    0  0.00000000000E+00  0.00000000000E+00  0.67754522842E+03  0.25587386909E+04  0.24674027137E+04 0.  0.
        1    1    3    3  502    0 -0.10639425494E+03 -0.73325732037E+03 -0.68416626053E+03  0.10084986403E+04  0.50400001928E-02 0. -1.
       -1    1    3    3    0  502  0.10639425494E+03  0.73325732037E+03  0.13617114889E+04  0.15502400506E+04  0.50400001928E-02 0.  1.
</event>
<event>
 5   0  0.8740500E-06  0.2436352E+04  0.7818609E-02  0.8426018E-01
       -4   -1    0    0    0  501  0.00000000000E+00  0.00000000000E+00  0.91142952112E+03  0.91143040594E+03  0.12699999809E+01 0.  1.
        4   -1    0    0  501    0  0.00000000000E+00  0.00000000000E+00 -0.16281571318E+04  0.16281576271E+04  0.12699999809E+01 0. -1.
    10030    2    1    2    0    0  0.00000000000E+00  0.00000000000E+00 -0.71672761069E+03  0.25395880331E+04  0.24363515571E+04 0.  0.
        1    1    3    3  502    0 -0.92251560064E+03  0.20675919046E+03  0.44241225819E+03  0.10437973953E+04  0.50400001928E-02 0.  1.
       -1    1    3    3    0  502  0.92251560064E+03 -0.20675919046E+03 -0.11591398689E+04  0.14957906377E+04  0.50400001928E-02 0. -1.
</event>
<event>
 5   0  0.2641216E-05  0.2393426E+04  0.7818609E-02  0.8441969E-01
        2   -1    0    0  501    0  0.00000000000E+00  0.00000000000E+00  0.12923232525E+04  0.12923232525E+04  0.25500000920E-02 0.  1.
       -2   -1    0    0    0  501  0.00000000000E+00  0.00000000000E+00 -0.11081763672E+04  0.11081763672E+04  0.25500000920E-02 0. -1.
    10030    2    1    2    0    0  0.00000000000E+00  0.00000000000E+00  0.18414688536E+03  0.24004996197E+04  0.23934260692E+04 0.  0.
        5    1    3    3  502    0  0.60278717269E+03 -0.74748323019E+03  0.80833841478E+03  0.12551958563E+04  0.46999998093E+01 0.  1.
       -5    1    3    3    0  502 -0.60278717269E+03  0.74748323019E+03 -0.62419152942E+03  0.11453037634E+04  0.46999998093E+01 0. -1.
</event>
<event>
 5   0  0.1041909E-05  0.2756738E+04  0.7818609E-02  0.8316827E-01
       -1   -1    0    0    0  501  0.00000000000E+00  0.00000000000E+00  0.16181161099E+04  0.16181161099E+04  0.50400001928E-02 0. -1.
        1   -1    0    0  501    0  0.00000000000E+00  0.00000000000E+00 -0.11741438076E+04  0.11741438076E+04  0.50400001928E-02 0.  1.
    10030    2    1    2    0    0  0.00000000000E+00  0.00000000000E+00  0.44397230231E+03  0.27922599175E+04  0.27567379349E+04 0.  0.
        5    1    3    3  502    0 -0.50848197273E+02 -0.54095340566E+03  0.15050617660E+04  0.16001403488E+04  0.46999998093E+01 0. -1.
       -5    1    3    3    0  502  0.50848197273E+02  0.54095340566E+03 -0.10610894637E+04  0.11921195688E+04  0.46999998093E+01 0.  1.
</event>
<event>
 5   0  0.1096672E-05  0.2630534E+04  0.7818609E-02  0.8357903E-01
        1   -1    0    0  501    0  0.00000000000E+00  0.00000000000E+00  0.99075234776E+03  0.99075234778E+03  0.50400001928E-02 0. -1.
       -1   -1    0    0    0  501  0.00000000000E+00  0.00000000000E+00 -0.17460743688E+04  0.17460743688E+04  0.50400001928E-02 0.  1.
    10030    2    1    2    0    0  0.00000000000E+00  0.00000000000E+00 -0.75532202100E+03  0.27368267165E+04  0.26305339992E+04 0.  0.
        1    1    3    3  502    0 -0.57017464288E+03 -0.11316448046E+04 -0.74433364859E+03  0.14696093589E+04  0.50400001928E-02 0.  1.
       -1    1    3    3    0  502  0.57017464288E+03  0.11316448046E+04 -0.10988372408E+02  0.12672173577E+04  0.50400001928E-02 0. -1.
</event>
<event>
 5   0  0.1005265E-05  0.2559819E+04  0.7818609E-02  0.8381979E-01
       -1   -1    0    0    0  501  0.00000000000E+00  0.00000000000E+00  0.16693381679E+04  0.16693381679E+04  0.50400001928E-02 0.  1.
        1   -1    0    0  501    0  0.00000000000E+00  0.00000000000E+00 -0.98132806567E+03  0.98132806568E+03  0.50400001928E-02 0. -1.
    10030    2    1    2    0    0  0.00000000000E+00  0.00000000000E+00  0.68801010222E+03  0.26506662336E+04  0.25598190524E+04 0.  0.
        3    1    3    3  502    0  0.33974853422E+03 -0.40533222571E+03  0.15508926511E+04  0.16385943077E+04  0.10100000352E+00 0.  1.
       -3    1    3    3    0  502 -0.33974853422E+03  0.40533222571E+03 -0.86288254892E+03  0.10120719259E+04  0.10100000352E+00 0. -1.
</event>
<event>
 5   0  0.1005265E-05  0.2919699E+04  0.7818609E-02  0.8267040E-01
       -1   -1    0    0    0  501  0.00000000000E+00  0.00000000000E+00  0.94228441484E+03  0.94228441486E+03  0.50400001928E-02 0. -1.
        1   -1    0    0  501    0  0.00000000000E+00  0.00000000000E+00 -0.22616961093E+04  0.22616961093E+04  0.50400001928E-02 0.  1.
    10030    2    1    2    0    0  0.00000000000E+00  0.00000000000E+00 -0.13194116945E+04  0.32039805242E+04  0.29196992961E+04 0.  0.
        3    1    3    3  502    0  0.29001945914E+03 -0.13817617302E+04 -0.25237107845E+03  0.14342482133E+04  0.10100000352E+00 0. -1.
       -3    1    3    3    0  502 -0.29001945914E+03  0.13817617302E+04 -0.10670406160E+04  0.17697323109E+04  0.10100000352E+00 0.  1.
</event>
<event>
 5   0  0.2540232E-05  0.2659884E+04  0.7818609E-02  0.8348140E-01
       -2   -1    0    0    0  501  0.00000000000E+00  0.00000000000E+00  0.15922314492E+04  0.15922314492E+04  0.25500000920E-02 0. -1.
        2   -1    0    0  501    0  0.00000000000E+00  0.00000000000E+00 -0.11108600330E+04  0.11108600330E+04  0.25500000920E-02 0.  1.
    10030    2    1    2    0    0  0.00000000000E+00  0.00000000000E+00  0.48137141622E+03  0.27030914822E+04  0.26598844187E+04 0.  0.
        1    1    3    3  502    0 -0.10244358949E+04 -0.45461586061E+03 -0.48690650182E+03  0.12219748054E+04  0.50400001928E-02 0.  1.
       -1    1    3    3    0  502  0.10244358949E+04  0.45461586061E+03  0.96827791804E+03  0.14811166767E+04  0.50400001928E-02 0. -1.
</event>
<event>
 5   0  0.1036691E-05  0.1691040E+04  0.7818609E-02  0.8766491E-01
        1   -1    0    0  501    0  0.00000000000E+00  0.00000000000E+00  0.12064825765E+04  0.12064825765E+04  0.50400001928E-02 0.  1.
       -1   -1    0    0    0  501  0.00000000000E+00  0.00000000000E+00 -0.59255255486E+03  0.59255255489E+03  0.50400001928E-02 0. -1.
    10030    2    1    2    0    0  0.00000000000E+00  0.00000000000E+00  0.61393002166E+03  0.17990351314E+04  0.16910403108E+04 0.  0.
        4    1    3    3  502    0  0.79860289798E+03  0.17686286963E+03  0.79150101143E+02  0.82177455225E+03  0.12699999809E+01 0. -1.
       -4    1    3    3    0  502 -0.79860289798E+03 -0.17686286963E+03  0.53477992051E+03  0.97726057917E+03  0.12699999809E+01 0.  1.
</event>
<event>
 5   0  0.1096672E-05  0.2698036E+04  0.7818609E-02  0.8335643E-01
       -1   -1    0    0    0  501  0.00000000000E+00  0.00000000000E+00  0.15164424103E+04  0.15164424103E+04  0.50400001928E-02 0. -1.
        1   -1    0    0  501    0  0.00000000000E+00  0.00000000000E+00 -0.12000779942E+04  0.12000779943E+04  0.50400001928E-02 0.  1.
    10030    2    1    2    0    0  0.00000000000E+00  0.00000000000E+00  0.31636441601E+03  0.27165204045E+04  0.26980357048E+04 0.  0.
        1    1    3    3  502    0  0.72805684856E+03  0.11356848219E+04  0.15663001827E+03  0.13580794351E+04  0.50400001928E-02 0.  1.
       -1    1    3    3    0  502 -0.72805684856E+03 -0.11356848219E+04  0.15973439774E+03  0.13584409694E+04  0.50400001928E-02 0. -1.
</event>
<event>
 5   0  0.2540684E-05  0.2736176E+04  0.7818609E-02  0.8323362E-01
       -2   -1    0    0    0  501  0.00000000000E+00  0.00000000000E+00  0.84121708721E+03  0.84121708721E+03  0.25500000920E-02 0. -1.
        2   -1    0    0  501    0  0.00000000000E+00  0.00000000000E+00 -0.22249487449E+04  0.22249487449E+04  0.25500000920E-02 0.  1.
    10030    2    1    2    0    0  0.00000000000E+00  0.00000000000E+00 -0.13837316577E+04  0.30661658321E+04  0.27361760926E+04 0.  0.
        2    1    3    3  502    0  0.11559795994E+04  0.30516399922E+03 -0.14370884141E+04  0.18693948247E+04  0.25500000920E-02 0. -1.
       -2    1    3    3    0  502 -0.11559795994E+04 -0.30516399922E+03  0.53356756458E+02  0.11967710074E+04  0.25500000920E-02 0.  1.
</event>
<event>
 5   0  0.1005265E-05  0.2700825E+04  0.7818609E-02  0.8334737E-01
        1   -1    0    0  501    0  0.00000000000E+00  0.00000000000E+00  0.11344856417E+04  0.11344856417E+04  0.50400001928E-02 0.  1.
       -1   -1    0    0    0  501  0.00000000000E+00  0.00000000000E+00 -0.16074362850E+04  0.16074362850E+04  0.50400001928E-02 0. -1.
    10030    2    1    2    0    0  0.00000000000E+00  0.00000000000E+00 -0.47295064335E+03  0.27419219267E+04  0.27008246039E+04 0.  0.
        3    1    3    3  502    0  0.13367551033E+04  0.73041898142E+02 -0.56681496575E+02  0.13399485540E+04  0.10100000352E+00 0.  1.
       -3    1    3    3    0  502 -0.13367551033E+04 -0.73041898142E+02 -0.41626914678E+03  0.14019733727E+04  0.10100000352E+00 0. -1.
</event>
<event>
 5   0  0.2615843E-05  0.2711862E+04  0.7818609E-02  0.8331166E-01
        2   -1    0    0  501    0  0.00000000000E+00  0.00000000000E+00  0.16266088410E+04  0.16266088410E+04  0.25500000920E-02 0. -1.
       -2   -1    0    0    0  501  0.00000000000E+00  0.00000000000E+00 -0.11302954941E+04  0.11302954941E+04  0.25500000920E-02 0.  1.
    10030    2    1    2    0    0  0.00000000000E+00  0.00000000000E+00  0.49631334691E+03  0.27569043351E+04  0.27118618280E+04 0.  0.
        3    1    3    3  502    0  0.65346088718E+03  0.12236395210E+03  0.14495484298E+04  0.15947334349E+04  0.10100000352E+00 0. -1.
       -3    1    3    3    0  502 -0.65346088718E+03 -0.12236395210E+03 -0.95323508287E+03  0.11621709002E+04  0.10100000352E+00 0.  1.
</event>
<event>
 5   0  0.1096672E-05  0.1694063E+04  0.7818609E-02  0.8764758E-01
       -1   -1    0    0    0  501  0.00000000000E+00  0.00000000000E+00  0.34852020826E+03  0.34852020829E+03  0.50400001928E-02 0.  1.
        1   -1    0    0  501    0  0.00000000000E+00  0.00000000000E+00 -0.20585958327E+04  0.20585958327E+04  0.50400001928E-02 0. -1.
    10030    2    1    2    0    0  0.00000000000E+00  0.00000000000E+00 -0.17100756244E+04  0.24071160410E+04  0.16940628659E+04 0.  0.
        1    1    3    3  502    0 -0.30480621290E+02 -0.83055967659E+03 -0.62284216843E+03  0.10386004099E+04  0.50400001928E-02 0.  1.
       -1    1    3    3    0  502  0.30480621290E+02  0.83055967659E+03 -0.10872334560E+04  0.13685156311E+04  0.50400001928E-02 0. -1.
</event>
<event>
 5   0  0.2540684E-05  0.1782795E+04  0.7818609E-02  0.8715503E-01
        2   -1    0    0  501    0  0.00000000000E+00  0.00000000000E+00  0.19471442618E+04  0.19471442618E+04  0.25500000920E-02 0.  1.
       -2   -1    0    0    0  501  0.00000000000E+00  0.00000000000E+00 -0.40807931271E+03  0.40807931272E+03  0.25500000920E-02 0. -1.
    10030    2    1    2    0    0  0.00000000000E+00  0.00000000000E+00  0.15390649490E+04  0.23552235745E+04  0.17827947634E+04 0.  0.
        2    1    3    3  502    0  0.30146191157E+03 -0.16532014542E+03 -0.31695801788E+03  0.46762422918E+03  0.25500000920E-02 0. -1.
       -2    1    3    3    0  502 -0.30146191157E+03  0.16532014542E+03  0.18560229669E+04  0.18875993453E+04  0.25500000920E-02 0.  1.
</event>
<event>
 5   0  0.9971923E-06  0.2389074E+04  0.7818609E-02  0.8443605E-01
        1   -1    0    0  501    0  0.00000000000E+00  0.00000000000E+00  0.10973953416E+04  0.10973953416E+04  0.50400001928E-02 0. -1.
       -1   -1    0    0    0  501  0.00000000000E+00  0.00000000000E+00 -0.13002781765E+04  0.13002781765E+04  0.50400001928E-02 0.  1.
    10030    2    1    2    0    0  0.00000000000E+00  0.00000000000E+00 -0.20288283493E+03  0.23976735181E+04  0.23890744766E+04 0.  0.
        2    1    3    3  502    0  0.17616288045E+03  0.10708592404E+04  0.39950077739E+03  0.11564487642E+04  0.25500000920E-02 0. -1.
       -2    1    3    3    0  502 -0.17616288045E+03 -0.10708592404E+04 -0.60238361232E+03  0.12412247538E+04  0.25500000920E-02 0.  1.
</event>
<event>
 5   0  0.2615843E-05  0.2709495E+04  0.7818609E-02  0.8331931E-01
       -2   -1    0    0    0  501  0.00000000000E+00  0.00000000000E+00  0.13415784463E+04  0.13415784463E+04  0.25500000920E-02 0. -1.
        2   -1    0    0  501    0  0.00000000000E+00  0.00000000000E+00 -0.13680453978E+04  0.13680453978E+04  0.25500000920E-02 0.  1.
    10030    2    1    2    0    0  0.00000000000E+00  0.00000000000E+00 -0.26466951449E+02  0.27096238441E+04  0.27094945796E+04 0.  0.
        3    1    3    3  502    0  0.14943082265E+03 -0.12778743011E+04  0.41110729370E+03  0.13506670639E+04  0.10100000352E+00 0. -1.
       -3    1    3    3    0  502 -0.14943082265E+03  0.12778743011E+04 -0.43757424515E+03  0.13589567802E+04  0.10100000352E+00 0.  1.
</event>
<event>
 5   0  0.2641216E-05  0.1706914E+04  0.7818609E-02  0.8757431E-01
       -2   -1    0    0    0  501  0.00000000000E+00  0.00000000000E+00  0.30543828874E+03  0.30543828875E+03  0.25500000920E-02 0. -1.
        2   -1    0    0  501    0  0.00000000000E+00  0.00000000000E+00 -0.23847322335E+04  0.23847322335E+04  0.25500000920E-02 0.  1.
    10030    2    1    2    0    0  0.00000000000E+00  0.00000000000E+00 -0.20792939447E+04  0.26901705222E+04  0.17069136270E+04 0.  0.
        5    1    3    3  502    0 -0.25194689905E+03 -0.64922968047E+03 -0.18171814420E+04  0.19460593262E+04  0.46999998093E+01 0.  1.
       -5    1    3    3    0  502  0.25194689905E+03  0.64922968047E+03 -0.26211250270E+03  0.74411119600E+03  0.46999998093E+01 0. -1.
</event>
<event>
 5   0  0.9971923E-06  0.2658693E+04  0.7818609E-02  0.8348533E-01
       -1   -1    0    0    0  501  0.00000000000E+00  0.00000000000E+00  0.14546158148E+04  0.14546158148E+04  0.50400001928E-02 0.  1.
        1   -1    0    0  501    0  0.00000000000E+00  0.00000000000E+00 -0.12148650366E+04  0.12148650366E+04  0.50400001928E-02 0. -1.
    10030    2    1    2    0    0  0.00000000000E+00  0.00000000000E+00  0.23975077822E+03  0.26694808513E+04  0.26586928330E+04 0.  0.
        2    1    3    3  502    0 -0.10619831800E+04 -0.71329609498E+03 -0.24292483205E+03  0.13021566986E+04  0.25500000920E-02 0. -1.
       -2    1    3    3    0  502  0.10619831800E+04  0.71329609498E+03  0.48267561027E+03  0.13673241527E+04  0.25500000920E-02 0.  1.
</event>
<event>
 5   0  0.2615843E-05  0.2690920E+04  0.7818609E-02  0.8337957E-01
        2   -1    0    0  501    0  0.00000000000E+00  0.00000000000E+00  0.27492954862E+04  0.27492954862E+04  0.25500000920E-02 0. -1.
       -2   -1    0    0    0  501  0.00000000000E+00  0.00000000000E+00 -0.65844581290E+03  0.65844581291E+03  0.25500000920E-02 0.  1.
    10030    2    1    2    0    0  0.00000000000E+00  0.00000000000E+00  0.20908496732E+04  0.34077412991E+04  0.26909196207E+04 0.  0.
        3    1    3    3  502    0  0.78415378374E+03  0.66792499467E+03  0.21415917749E+04  0.23764335244E+04  0.10100000352E+00 0. -1.
       -3    1    3    3    0  502 -0.78415378374E+03 -0.66792499467E+03 -0.50742101683E+02  0.10313077747E+04  0.10100000352E+00 0.  1.
</event>
<event>
 5   0  0.2540232E-05  0.2695695E+04  0.7818609E-02  0.8336403E-01
        2   -1    0    0  501    0  0.00000000000E+00  0.00000000000E+00  0.12082750002E+04  0.12082750002E+04  0.25500000920E-02 0. -1.
       -2   -1    0    0    0  501  0.00000000000E+00  0.00000000000E+00 -0.15035425451E+04  0.15035425451E+04  0.25500000920E-02 0.  1.
    10030    2    1    2    0    0  0.00000000000E+00  0.00000000000E+00 -0.29526754494E+03  0.27118175453E+04  0.26956949894E+04 0.  0.
        1    1    3    3  502    0 -0.65895665913E+03 -0.40591301191E+03 -0.12577297089E+04  0.14767780038E+04  0.50400001928E-02 0.  1.
       -1    1    3    3    0  502  0.65895665913E+03  0.40591301191E+03  0.96246216400E+03  0.12350395415E+04  0.50400001928E-02 0. -1.
</event>
<event>
 5   0  0.1041909E-05  0.2342333E+04  0.7818609E-02  0.8461414E-01
        1   -1    0    0  501    0  0.00000000000E+00  0.00000000000E+00  0.10861312766E+04  0.10861312766E+04  0.50400001928E-02 0.  1.
       -1   -1    0    0    0  501  0.00000000000E+00  0.00000000000E+00 -0.12628593114E+04  0.12628593114E+04  0.50400001928E-02 0. -1.
    10030    2    1    2    0    0  0.00000000000E+00  0.00000000000E+00 -0.17672803477E+03  0.23489905880E+04  0.23423330217E+04 0.  0.
        5    1    3    3  502    0  0.96315242264E+03  0.47584643171E+03 -0.55607625055E+03  0.12096839679E+04  0.46999998093E+01 0. -1.
       -5    1    3    3    0  502 -0.96315242264E+03 -0.47584643171E+03  0.37934821578E+03  0.11393066201E+04  0.46999998093E+01 0.  1.
</event>
<event>
 5   0  0.2615843E-05  0.2388077E+04  0.7818609E-02  0.8443981E-01
        2   -1    0    0  501    0  0.00000000000E+00  0.00000000000E+00  0.15115410216E+04  0.15115410216E+04  0.25500000920E-02 0.  1.
       -2   -1    0    0    0  501  0.00000000000E+00  0.00000000000E+00 -0.94322769962E+03  0.94322769962E+03  0.25500000920E-02 0. -1.
    10030    2    1    2    0    0  0.00000000000E+00  0.00000000000E+00  0.56831332194E+03  0.24547687212E+04  0.23880765152E+04 0.  0.
        3    1    3    3  502    0 -0.53323162726E+03 -0.10665275257E+04  0.34843638307E+03  0.12422660161E+04  0.10100000352E+00 0. -1.
       -3    1    3    3    0  502  0.53323162726E+03  0.10665275257E+04  0.21987693887E+03  0.12125027051E+04  0.10100000352E+00 0.  1.
</event>
<event>
 5   0  0.1036691E-05  0.2706135E+04  0.7818609E-02  0.8333017E-01
        1   -1    0    0  501    0  0.00000000000E+00  0.00000000000E+00  0.16677920106E+04  0.16677920106E+04  0.50400001928E-02 0.  1.
       -1   -1    0    0    0  501  0.00000000000E+00  0.00000000000E+00 -0.10977337504E+04  0.10977337504E+04  0.50400001928E-02 0. -1.
    10030    2    1    2    0    0  0.00000000000E+00  0.00000000000E+00  0.57005826025E+03  0.27655257610E+04  0.27061349402E+04 0.  0.
        4    1    3    3  502    0 -0.11058593804E+04 -0.24071253462E+03 -0.47281343310E+03  0.12265486737E+04  0.12699999809E+01 0. -1.
       -4    1    3    3    0  502  0.11058593804E+04  0.24071253462E+03  0.10428716934E+04  0.15389770873E+04  0.12699999809E+01 0.  1.
</event>
<event>
 5   0  0.1096672E-05  0.2744783E+04  0.7818609E-02  0.8320619E-01
        1   -1    0    0  501    0  0.00000000000E+00  0.00000000000E+00  0.67388101478E+03  0.67388101480E+03  0.50400001928E-02 0.  1.
       -1   -1    0    0    0  501  0.00000000000E+00  0.00000000000E+00 -0.27949422539E+04  0.27949422539E+04  0.50400001928E-02 0. -1.
    10030    2    1    2    0    0  0.00000000000E+00  0.00000000000E+00 -0.21210612391E+04  0.34688232687E+04  0.27447830678E+04 0.  0.
        1    1    3    3  502    0 -0.46069609975E+03  0.11997045493E+04 -0.45190609605E+03  0.13622595280E+04  0.50400001928E-02 0. -1.
       -1    1    3    3    0  502  0.46069609975E+03 -0.11997045493E+04 -0.16691551431E+04  0.21065637407E+04  0.50400001928E-02 0.  1.
</event>
<event>
 5   0  0.1005265E-05  0.2693098E+04  0.7818609E-02  0.8337248E-01
        1   -1    0    0  501    0  0.00000000000E+00  0.00000000000E+00  0.16249352241E+04  0.16249352241E+04  0.50400001928E-02 0.  1.
       -1   -1    0    0    0  501  0.00000000000E+00  0.00000000000E+00 -0.11158565471E+04  0.11158565471E+04  0.50400001928E-02 0. -1.
    10030    2    1    2    0    0  0.00000000000E+00  0.00000000000E+00  0.50907867700E+03  0.27407917712E+04  0.26930982963E+04 0.  0.
        3    1    3    3  502    0  0.53071415486E+03  0.98231980983E+03 -0.51150926476E+03  0.12281088963E+04  0.10100000352E+00 0. -1.
       -3    1    3    3    0  502 -0.53071415486E+03 -0.98231980983E+03  0.10205879418E+04  0.15126828749E+04  0.10100000352E+00 0.  1.
</event>
<event>
 5   0  0.2516518E-05  0.2702560E+04  0.7818609E-02  0.8334175E-01
        2   -1    0    0  501    0  0.00000000000E+00  0.00000000000E+00  0.23104999816E+04  0.23104999816E+04  0.25500000920E-02 0.  1.
       -2   -1    0    0    0  501  0.00000000000E+00  0.00000000000E+00 -0.79028662819E+03  0.79028662820E+03  0.25500000920E-02 0. -1.
    10030    2    1    2    0    0  0.00000000000E+00  0.00000000000E+00  0.15202133534E+04  0.31007866098E+04  0.27025597051E+04 0.  0.
        4    1    3    3  502    0  0.20223937188E+03  0.65844626268E+03 -0.57373766642E+03  0.89645343836E+03  0.12699999809E+01 0. -1.
       -4    1    3    3    0  502 -0.20223937188E+03 -0.65844626268E+03  0.20939510199E+04  0.22043331715E+04  0.12699999809E+01 0.  1.
</event>
<event>
 5   0  0.2516518E-05  0.2706654E+04  0.7818609E-02  0.8332849E-01
        2   -1    0    0  501    0  0.00000000000E+00  0.00000000000E+00  0.16178752290E+04  0.16178752290E+04  0.25500000920E-02 0.  1.
       -2   -1    0    0    0  501  0.00000000000E+00  0.00000000000E+00 -0.11320363328E+04  0.11320363328E+04  0.25500000920E-02 0. -1.
    10030    2    1    2    0    0  0.00000000000E+00  0.00000000000E+00  0.48583889619E+03  0.27499115618E+04  0.27066536839E+04 0.  0.
        4    1    3    3  502    0 -0.35762127049E+03  0.82390359077E+02  0.15663548365E+04  0.16087728960E+04  0.12699999809E+01 0.  1.
       -4    1    3    3    0  502  0.35762127049E+03 -0.82390359077E+02 -0.10805159403E+04  0.11411386657E+04  0.12699999809E+01 0. -1.
</event>
<event>
 5   0  0.9971923E-06  0.2687145E+04  0.7818609E-02  0.8339188E-01
        1   -1    0    0  501    0  0.00000000000E+00  0.00000000000E+00  0.20119405016E+04  0.20119405017E+04  0.50400001928E-02 0.  1.
       -1   -1    0    0    0  501  0.00000000000E+00  0.00000000000E+00 -0.89723669507E+03  0.89723669508E+03  0.50400001928E-02 0. -1.
    10030    2    1    2    0    0  0.00000000000E+00  0.00000000000E+00  0.11147038066E+04  0.29091771967E+04  0.26871448390E+04 0.  0.
        2    1    3    3  502    0  0.68064712132E+03  0.53075545122E+03  0.16720930237E+04  0.18817218001E+04  0.25500000920E-02 0.  1.
       -2    1    3    3    0  502 -0.68064712132E+03 -0.53075545122E+03 -0.55738921716E+03  0.10274553967E+04  0.25500000920E-02 0. -1.
</event>
<event>
 5   0  0.1005265E-05  0.2438062E+04  0.7818609E-02  0.8425390E-01
       -1   -1    0    0    0  501  0.00000000000E+00  0.00000000000E+00  0.16345908547E+04  0.16345908547E+04  0.50400001928E-02 0.  1.
        1   -1    0    0  501    0  0.00000000000E+00  0.00000000000E+00 -0.90911853126E+03  0.90911853127E+03  0.50400001928E-02 0. -1.
    10030    2    1    2    0    0  0.00000000000E+00  0.00000000000E+00  0.72547232346E+03  0.25437093860E+04  0.24380622117E+04 0.  0.
        3    1    3    3  502    0 -0.58703682350E+03 -0.70902125955E+03 -0.47109042663E+03  0.10340452499E+04  0.10100000352E+00 0. -1.
       -3    1    3    3    0  502  0.58703682350E+03  0.70902125955E+03  0.11965627501E+04  0.15096641361E+04  0.10100000352E+00 0.  1.
</event>
<event>
 5   0  0.1041909E-05  0.2717271E+04  0.7818609E-02  0.8329423E-01
        1   -1    0    0  501    0  0.00000000000E+00  0.00000000000E+00  0.17320312804E+04  0.17320312804E+04  0.50400001928E-02 0.  1.
       -1   -1    0    0    0  501  0.00000000000E+00  0.00000000000E+00 -0.10657371603E+04  0.10657371603E+04  0.50400001928E-02 0. -1.
    10030    2    1    2    0    0  0.00000000000E+00  0.00000000000E+00  0.66629412014E+03  0.27977684407E+04  0.27172707619E+04 0.  0.
        5    1    3    3  502    0  0.78047277548E+03 -0.68816968135E+03 -0.56631859798E+03  0.11846746845E+04  0.46999998093E+01 0. -1.
       -5    1    3    3    0  502 -0.78047277548E+03  0.68816968135E+03  0.12326127181E+04  0.16130937563E+04  0.46999998093E+01 0.  1.
</event>
<event>
 5   0  0.2540684E-05  0.2655512E+04  0.7818609E-02  0.8349586E-01
        2   -1    0    0  501    0  0.00000000000E+00  0.00000000000E+00  0.19916720520E+04  0.19916720520E+04  0.25500000920E-02 0.  1.
       -2   -1    0    0    0  501  0.00000000000E+00  0.00000000000E+00 -0.88515393200E+03  0.88515393200E+03  0.25500000920E-02 0. -1.
    10030    2    1    2    0    0  0.00000000000E+00  0.00000000000E+00  0.11065181200E+04  0.28768259840E+04  0.26555122655E+04 0.  0.
        2    1    3    3  502    0 -0.11618624946E+03  0.39444184844E+03 -0.81443630939E+03  0.91235416283E+03  0.25500000920E-02 0. -1.
       -2    1    3    3    0  502  0.11618624946E+03 -0.39444184844E+03  0.19209544294E+04  0.19644718211E+04  0.25500000920E-02 0.  1.
</event>
<event>
 5   0  0.2615843E-05  0.2691639E+04  0.7818609E-02  0.8337723E-01
        2   -1    0    0  501    0  0.00000000000E+00  0.00000000000E+00  0.11836222830E+04  0.11836222830E+04  0.25500000920E-02 0.  1.
       -2   -1    0    0    0  501  0.00000000000E+00  0.00000000000E+00 -0.15302436172E+04  0.15302436172E+04  0.25500000920E-02 0. -1.
    10030    2    1    2    0    0  0.00000000000E+00  0.00000000000E+00 -0.34662133428E+03  0.27138659002E+04  0.26916392357E+04 0.  0.
        3    1    3    3  502    0  0.97941617883E+03  0.68717436591E+03  0.44802952039E+03  0.12775739203E+04  0.10100000352E+00 0.  1.
       -3    1    3    3    0  502 -0.97941617883E+03 -0.68717436591E+03 -0.79465085467E+03  0.14362919799E+04  0.10100000352E+00 0. -1.
</event>
<event>
 5   0  0.2540232E-05  0.3004987E+04  0.7818609E-02  0.8242308E-01
        2   -1    0    0  501    0  0.00000000000E+00  0.00000000000E+00  0.19447216574E+04  0.19447216574E+04  0.25500000920E-02 0. -1.
       -2   -1    0    0    0  501  0.00000000000E+00  0.00000000000E+00 -0.11608279989E+04  0.11608279989E+04  0.25500000920E-02 0.  1.
    10030    2    1    2    0    0  0.00000000000E+00  0.00000000000E+00  0.78389365850E+03  0.31055496563E+04  0.30049874210E+04 0.  0.
        1    1    3    3  502    0  0.14672571415E+04 -0.23567428914E+03  0.16294285333E+03  0.14949703219E+04  0.50400001928E-02 0.  1.
       -1    1    3    3    0  502 -0.14672571415E+04  0.23567428914E+03  0.62095080518E+03  0.16105793344E+04  0.50400001928E-02 0. -1.
</event>
<event>
 5   0  0.2540684E-05  0.2737215E+04  0.7818609E-02  0.8323030E-01
        2   -1    0    0  501    0  0.00000000000E+00  0.00000000000E+00  0.13318984851E+04  0.13318984851E+04  0.25500000920E-02 0. -1.
       -2   -1    0    0    0  501  0.00000000000E+00  0.00000000000E+00 -0.14063279559E+04  0.14063279559E+04  0.25500000920E-02 0.  1.
    10030    2    1    2    0    0  0.00000000000E+00  0.00000000000E+00 -0.74429470813E+02  0.27382264410E+04  0.27372146968E+04 0.  0.
        2    1    3    3  502    0 -0.12144954515E+04  0.54509405909E+03 -0.35507317417E+03  0.13777531325E+04  0.25500000920E-02 0.  1.
       -2    1    3    3    0  502  0.12144954515E+04 -0.54509405909E+03  0.28064370336E+03  0.13604733086E+04  0.25500000920E-02 0. -1.
</event>
<event>
 5   0  0.2615843E-05  0.2773325E+04  0.7818609E-02  0.8311598E-01
       -2   -1    0    0    0  501  0.00000000000E+00  0.00000000000E+00  0.97362638608E+03  0.97362638608E+03  0.25500000920E-02 0.  1.
        2   -1    0    0  501    0  0.00000000000E+00  0.00000000000E+00 -0.19749189443E+04  0.19749189443E+04  0.25500000920E-02 0. -1.
    10030    2    1    2    0    0  0.00000000000E+00  0.00000000000E+00 -0.10012925582E+04  0.29485453304E+04  0.27733252204E+04 0.  0.
        3    1    3    3  502    0  0.29263741752E+02 -0.12343724783E+04 -0.11716314553E+04  0.17021316222E+04  0.10100000352E+00 0. -1.
       -3    1    3    3    0  502 -0.29263741752E+02  0.12343724783E+04  0.17033889713E+03  0.12464137082E+04  0.10100000352E+00 0.  1.
</event>
<event>
 5   0  0.1005265E-05  0.1717836E+04  0.7818609E-02  0.8751257E-01
       -1   -1    0    0    0  501  0.00000000000E+00  0.00000000000E+00  0.17750334174E+04  0.17750334175E+04  0.50400001928E-02 0. -1.
        1   -1    0    0  501    0  0.00000000000E+00  0.00000000000E+00 -0.41562025499E+03  0.41562025503E+03  0.50400001928E-02 0.  1.
    10030    2    1    2    0    0  0.00000000000E+00  0.00000000000E+00  0.13594131625E+04  0.21906536725E+04  0.17178356634E+04 0.  0.
        3    1    3    3  502    0 -0.68685453906E+03 -0.46093407599E+03  0.38471378152E+03  0.91226864690E+03  0.10100000352E+00 0. -1.
       -3    1    3    3    0  502  0.68685453906E+03  0.46093407599E+03  0.97469938093E+03  0.12783850256E+04  0.10100000352E+00 0.  1.
</event>
<event>
 5   0  0.2641216E-05  0.2703250E+04  0.7818609E-02  0.8333951E-01
        2   -1    0    0  501    0  0.00000000000E+00  0.00000000000E+00  0.11324244012E+04  0.11324244012E+04  0.25500000920E-02 0. -1.
       -2   -1    0    0    0  501  0.00000000000E+00  0.00000000000E+00 -0.16132553841E+04  0.16132553841E+04  0.25500000920E-02 0.  1.
    10030    2    1    2    0    0  0.00000000000E+00  0.00000000000E+00 -0.48083098283E+03  0.27456797853E+04  0.27032497201E+04 0.  0.
        5    1    3    3  502    0 -0.92791103363E+03  0.28406836218E+03  0.71517787406E+03  0.12054937587E+04  0.46999998093E+01 0. -1.
       -5    1    3    3    0  502  0.92791103363E+03 -0.28406836218E+03 -0.11960088569E+04  0.15401860266E+04  0.46999998093E+01 0.  1.
</event>
<event>
 5   0  0.1041909E-05  0.2694927E+04  0.7818609E-02  0.8336653E-01
        1   -1    0    0  501    0  0.00000000000E+00  0.00000000000E+00  0.12903331025E+04  0.12903331026E+04  0.50400001928E-02 0. -1.
       -1   -1    0    0    0  501  0.00000000000E+00  0.00000000000E+00 -0.14071235714E+04  0.14071235714E+04  0.50400001928E-02 0.  1.
    10030    2    1    2    0    0  0.00000000000E+00  0.00000000000E+00 -0.11679046887E+03  0.26974566740E+04  0.26949271779E+04 0.  0.
        5    1    3    3  502    0  0.53236395528E+03  0.10626068241E+04  0.57709547334E+03  0.13212138051E+04  0.46999998093E+01 0. -1.
       -5    1    3    3    0  502 -0.53236395528E+03 -0.10626068241E+04 -0.69388594221E+03  0.13762428689E+04  0.46999998093E+01 0.  1.
</event>
<event>
 5   0  0.1005265E-05  0.2670580E+04  0.7818609E-02  0.8344614E-01
        1   -1    0    0  501    0  0.00000000000E+00  0.00000000000E+00  0.19926576606E+04  0.19926576606E+04  0.50400001928E-02 0.  1.
       -1   -1    0    0    0  501  0.00000000000E+00  0.00000000000E+00 -0.89478438476E+03  0.89478438478E+03  0.50400001928E-02 0. -1.
    10030    2    1    2    0    0  0.00000000000E+00  0.00000000000E+00  0.10978732758E+04  0.28874420453E+04  0.26705796815E+04 0.  0.
        3    1    3    3  502    0 -0.32936284229E+03 -0.37970125367E+03  0.18864636314E+04  0.19522801968E+04  0.10100000352E+00 0.  1.
       -3    1    3    3    0  502  0.32936284229E+03  0.37970125367E+03 -0.78859035559E+03  0.93516184858E+03  0.10100000352E+00 0. -1.
</event>
<event>
 5   0  0.2615843E-05  0.2608154E+04  0.7818609E-02  0.8365437E-01
       -2   -1    0    0    0  501  0.00000000000E+00  0.00000000000E+00  0.11578971096E+04  0.11578971096E+04  0.25500000920E-02 0. -1.
        2   -1    0    0  501    0  0.00000000000E+00  0.00000000000E+00 -0.14687120501E+04  0.14687120501E+04  0.25500000920E-02 0.  1.
    10030    2    1    2    0    0  0.00000000000E+00  0.00000000000E+00 -0.31081494055E+03  0.26266091597E+04  0.26081544722E+04 0.  0.
        3    1    3    3  502    0  0.58776340519E+03 -0.38927858202E+03 -0.12602635828E+04  0.14440456860E+04  0.10100000352E+00 0.  1.
       -3    1    3    3    0  502 -0.58776340519E+03  0.38927858202E+03  0.94944864227E+03  0.11825634737E+04  0.10100000352E+00 0. -1.
</event>
<event>
 5   0  0.1096672E-05  0.2634384E+04  0.7818609E-02  0.8356615E-01
        1   -1    0    0  501    0  0.00000000000E+00  0.00000000000E+00  0.22396213825E+04  0.22396213825E+04  0.50400001928E-02 0.  1.
       -1   -1    0    0    0  501  0.00000000000E+00  0.00000000000E+00 -0.77468212601E+03  0.77468212603E+03  0.50400001928E-02 0. -1.
    10030    2    1    2    0    0  0.00000000000E+00  0.00000000000E+00  0.14649392565E+04  0.30143035085E+04  0.26343839159E+04 0.  0.
        1    1    3    3  502    0 -0.51173270554E+03 -0.47447270543E+02  0.21201693719E+04  0.21815681907E+04  0.50400001928E-02 0.  1.
       -1    1    3    3    0  502  0.51173270554E+03  0.47447270543E+02 -0.65523011537E+03  0.83273531780E+03  0.50400001928E-02 0. -1.
</event>
<event>
 5   0  0.1005265E-05  0.2190413E+04  0.7818609E-02  0.8522429E-01
        1   -1    0    0  501    0  0.00000000000E+00  0.00000000000E+00  0.25559680325E+04  0.25559680325E+04  0.50400001928E-02 0. -1.
       -1   -1    0    0    0  501  0.00000000000E+00  0.00000000000E+00 -0.46928510582E+03  0.46928510585E+03  0.50400001928E-02 0.  1.
    10030    2    1    2    0    0  0.00000000000E+00  0.00000000000E+00  0.20866829267E+04  0.30252531384E+04  0.21904134118E+04 0.  0.
        3    1    3    3  502    0 -0.79477353681E+03  0.34137495064E+03  0.11553649397E+03  0.87266862175E+03  0.10100000352E+00 0.  1.
       -3    1    3    3    0  502  0.79477353681E+03 -0.34137495064E+03  0.19711464327E+04  0.21525845166E+04  0.10100000352E+00 0. -1.
</event>
<event>
 5   0  0.9971923E-06  0.2561977E+04  0.7818609E-02  0.8381233E-01
        1   -1    0    0  501    0  0.00000000000E+00  0.00000000000E+00  0.13146547665E+04  0.13146547665E+04  0.50400001928E-02 0.  1.
       -1   -1    0    0    0  501  0.00000000000E+00  0.00000000000E+00 -0.12481842539E+04  0.12481842539E+04  0.50400001928E-02 0. -1.
    10030    2    1    2    0    0  0.00000000000E+00  0.00000000000E+00  0.66470512532E+02  0.25628390204E+04  0.25619768765E+04 0.  0.
        2    1    3    3  502    0  0.13549732462E+03 -0.11144158141E+04  0.65041065975E+03  0.12974267448E+04  0.25500000920E-02 0.  1.
       -2    1    3    3    0  502 -0.13549732462E+03  0.11144158141E+04 -0.58394014721E+03  0.12654122756E+04  0.25500000920E-02 0. -1.
</event>
<event>
 5   0  0.1041909E-05  0.1794671E+04  0.7818609E-02  0.8709139E-01
       -1   -1    0    0    0  501  0.00000000000E+00  0.00000000000E+00  0.55534633089E+03  0.55534633091E+03  0.50400001928E-02 0.  1.
        1   -1    0    0  501    0  0.00000000000E+00  0.00000000000E+00 -0.14499254977E+04  0.14499254977E+04  0.50400001928E-02 0. -1.
    10030    2    1    2    0    0  0.00000000000E+00  0.00000000000E+00 -0.89457916676E+03  0.20052718286E+04  0.17946707834E+04 0.  0.
        5    1    3    3  502    0 -0.17951082269E+03  0.58662413139E+03 -0.11789919112E+04  0.13290583222E+04  0.46999998093E+01 0. -1.
       -5    1    3    3    0  502  0.17951082269E+03 -0.58662413139E+03  0.28441274449E+03  0.67621350638E+03  0.46999998093E+01 0.  1.
</event>
<event>
 5   0  0.2516518E-05  0.2188375E+04  0.7818609E-02  0.8523282E-01
       -2   -1    0    0    0  501  0.00000000000E+00  0.00000000000E+00  0.86818375018E+03  0.86818375019E+03  0.25500000920E-02 0. -1.
        2   -1    0    0  501    0  0.00000000000E+00  0.00000000000E+00 -0.13790243477E+04  0.13790243477E+04  0.25500000920E-02 0.  1.
    10030    2    1    2    0    0  0.00000000000E+00  0.00000000000E+00 -0.51084059753E+03  0.22472080979E+04  0.21883752236E+04 0.  0.
        4    1    3    3  502    0  0.74474206668E+03 -0.12407953824E+02 -0.10784987677E+04  0.13107081704E+04  0.12699999809E+01 0.  1.
       -4    1    3    3    0  502 -0.74474206668E+03  0.12407953824E+02  0.56765817013E+03  0.93649992750E+03  0.12699999809E+01 0. -1.
</event>
<event>
 5   0  0.2540232E-05  0.2355802E+04  0.7818609E-02  0.8456238E-01
       -2   -1    0    0    0  501  0.00000000000E+00  0.00000000000E+00  0.83556269677E+03  0.83556269678E+03  0.25500000920E-02 0.  1.
        2   -1    0    0  501    0  0.00000000000E+00  0.00000000000E+00 -0.16604991601E+04  0.16604991601E+04  0.25500000920E-02 0. -1.
    10030    2    1    2    0    0  0.00000000000E+00  0.00000000000E+00 -0.82493646331E+03  0.24960618569E+04  0.23558023314E+04 0.  0.
        1    1    3    3  502    0 -0.14352770788E+02  0.11661838196E+04 -0.23753068532E+03  0.11902149090E+04  0.50400001928E-02 0.  1.
       -1    1    3    3    0  502  0.14352770788E+02 -0.11661838196E+04 -0.58740577799E+03  0.13058469478E+04  0.50400001928E-02 0. -1.
</event>
<event>
 5   0  0.1036691E-05  0.2694012E+04  0.7818609E-02  0.8336950E-01
       -1   -1    0    0    0  501  0.00000000000E+00  0.00000000000E+00  0.11311536744E+04  0.11311536744E+04  0.50400001928E-02 0.  1.
        1   -1    0    0  501    0  0.00000000000E+00  0.00000000000E+00 -0.16040487912E+04  0.16040487912E+04  0.50400001928E-02 0. -1.
    10030    2    1    2    0    0  0.00000000000E+00  0.00000000000E+00 -0.47289511681E+03  0.27352024656E+04  0.26940123861E+04 0.  0.
        4    1    3    3  502    0  0.45871377784E+03 -0.23711533689E+03  0.10266729752E+04  0.11492175703E+04  0.12699999809E+01 0.  1.
       -4    1    3    3    0  502 -0.45871377784E+03  0.23711533689E+03 -0.14995680920E+04  0.15859848954E+04  0.12699999809E+01 0. -1.
</event>
<event>
 5   0  0.2540684E-05  0.2485205E+04  0.7818609E-02  0.8408275E-01
       -2   -1    0    0    0  501  0.00000000000E+00  0.00000000000E+00  0.52640736907E+03  0.52640736907E+03  0.25500000920E-02 0.  1.
        2   -1    0    0  501    0  0.00000000000E+00  0.00000000000E+00 -0.29332064979E+04  0.29332064979E+04  0.25500000920E-02 0. -1.
    10030    2    1    2    0    0  0.00000000000E+00  0.00000000000E+00 -0.24067991288E+04  0.34596138670E+04  0.24852054366E+04 0.  0.
        2    1    3    3  502    0 -0.44372233007E+03 -0.91608005807E+03 -0.21123415309E+03  0.10395730116E+04  0.25500000920E-02 0.  1.
       -2    1    3    3    0  502  0.44372233007E+03  0.91608005807E+03 -0.21955649758E+04  0.24200408554E+04  0.25500000920E-02 0. -1.
</event>
<event>
 5   0  0.1041909E-05  0.2590560E+04  0.7818609E-02  0.8371415E-01
       -1   -1    0    0    0  501  0.00000000000E+00  0.00000000000E+00  0.94888293299E+03  0.94888293300E+03  0.50400001928E-02 0. -1.
        1   -1    0    0  501    0  0.00000000000E+00  0.00000000000E+00 -0.17681324451E+04  0.17681324451E+04  0.50400001928E-02 0.  1.
    10030    2    1    2    0    0  0.00000000000E+00  0.00000000000E+00 -0.81924951214E+03  0.27170153781E+04  0.25905603258E+04 0.  0.
        5    1    3    3  502    0 -0.74073268702E+03  0.90025481556E+03  0.18236068192E+03  0.11800089639E+04  0.46999998093E+01 0.  1.
       -5    1    3    3    0  502  0.74073268702E+03 -0.90025481556E+03 -0.10016101941E+04  0.15370064142E+04  0.46999998093E+01 0. -1.
</event>
<event>
 5   0  0.2540684E-05  0.2703027E+04  0.7818609E-02  0.8334023E-01
        2   -1    0    0  501    0  0.00000000000E+00  0.00000000000E+00  0.25757253443E+04  0.25757253443E+04  0.25500000920E-02 0. -1.
       -2   -1    0    0    0  501  0.00000000000E+00  0.00000000000E+00 -0.70915518366E+03  0.70915518367E+03  0.25500000920E-02 0.  1.
    10030    2    1    2    0    0  0.00000000000E+00  0.00000000000E+00  0.18665701607E+04  0.32848805280E+04  0.27030271768E+04 0.  0.
        2    1    3    3  502    0 -0.21275160404E+03  0.63849675724E+03  0.23576026661E+04  0.24517813290E+04  0.25500000920E-02 0. -1.
       -2    1    3    3    0  502  0.21275160404E+03 -0.63849675724E+03 -0.49103250541E+03  0.83309919902E+03  0.25500000920E-02 0.  1.
</event>
<event>
 5   0  0.1036691E-05  0.2720792E+04  0.7818609E-02  0.8328290E-01
       -1   -1    0    0    0  501  0.00000000000E+00  0.00000000000E+00  0.10630981050E+04  0.10630981050E+04  0.50400001928E-02 0. -1.
        1   -1    0    0  501    0  0.00000000000E+00  0.00000000000E+00 -0.17408341238E+04  0.17408341238E+04  0.50400001928E-02 0.  1.
    10030    2    1    2    0    0  0.00000000000E+00  0.00000000000E+00 -0.67773601883E+03  0.28039322289E+04  0.27207921333E+04 0.  0.
        4    1    3    3  502    0  0.82473096270E+03 -0.49176903666E+03 -0.13319841215E+04  0.16420113456E+04  0.12699999809E+01 0.  1.
       -4    1    3    3    0  502 -0.82473096270E+03  0.49176903666E+03  0.65424810265E+03  0.11619208833E+04  0.12699999809E+01 0. -1.
</event>
<event>
 5   0  0.9971923E-06  0.2634267E+04  0.7818609E-02  0.8356654E-01
       -1   -1    0    0    0  501  0.00000000000E+00  0.00000000000E+00  0.13740300652E+04  0.13740300652E+04  0.50400001928E-02 0. -1.
        1   -1    0    0  501    0  0.00000000000E+00  0.00000000000E+00 -0.12625925939E+04  0.12625925939E+04  0.50400001928E-02 0.  1.
    10030    2    1    2    0    0  0.00000000000E+00  0.00000000000E+00  0.11143747135E+03  0.26366226591E+04  0.26342666411E+04 0.  0.
        2    1    3    3  502    0 -0.68336210733E+03 -0.42940447973E+03  0.10975474760E+04  0.13623444642E+04  0.25500000920E-02 0. -1.
       -2    1    3    3    0  502  0.68336210733E+03  0.42940447973E+03 -0.98611000465E+03  0.12742781950E+04  0.25500000920E-02 0.  1.
</event>
<event>
 5   0  0.9971923E-06  0.2722261E+04  0.7818609E-02  0.8327818E-01
        1   -1    0    0  501    0  0.00000000000E+00  0.00000000000E+00  0.15340156066E+04  0.15340156066E+04  0.50400001928E-02 0.  1.
       -1   -1    0    0    0  501  0.00000000000E+00  0.00000000000E+00 -0.12077296423E+04  0.12077296423E+04  0.50400001928E-02 0. -1.
    10030    2    1    2    0    0  0.00000000000E+00  0.00000000000E+00  0.32628596430E+03  0.27417452488E+04  0.27222609131E+04 0.  0.
        2    1    3    3  502    0 -0.16835860905E+03  0.69682117980E+02 -0.11953909989E+04  0.12091980231E+04  0.25500000920E-02 0. -1.
       -2    1    3    3    0  502  0.16835860905E+03 -0.69682117980E+02  0.15216769632E+04  0.15325472257E+04  0.25500000920E-02 0.  1.
</event>
<event>
 5   0  0.2540684E-05  0.2626382E+04  0.7818609E-02  0.8359295E-01
       -2   -1    0    0    0  501  0.00000000000E+00  0.00000000000E+00  0.11562816956E+04  0.11562816956E+04  0.25500000920E-02 0. -1.
        2   -1    0    0  501    0  0.00000000000E+00  0.00000000000E+00 -0.14913932971E+04  0.14913932971E+04  0.25500000920E-02 0.  1.
    10030    2    1    2    0    0  0.00000000000E+00  0.00000000000E+00 -0.33511160144E+03  0.26476749927E+04  0.26263821279E+04 0.  0.
        2    1    3    3  502    0 -0.10547831116E+02  0.98639035463E+03 -0.10414130628E+04  0.14344400844E+04  0.25500000920E-02 0.  1.
       -2    1    3    3    0  502  0.10547831116E+02 -0.98639035463E+03  0.70630146134E+03  0.12132349083E+04  0.25500000920E-02 0. -1.
</event>
<event>
 5   0  0.8740500E-06  0.2762617E+04  0.7818609E-02  0.8314969E-01
        3   -1    0    0  501    0  0.00000000000E+00  0.00000000000E+00  0.14443370351E+04  0.14443370386E+04  0.10100000352E+00 0. -1.
       -3   -1    0    0    0  501  0.00000000000E+00  0.00000000000E+00 -0.13210304437E+04  0.13210304475E+04  0.10100000352E+00 0.  1.
    10030    2    1    2    0    0  0.00000000000E+00  0.00000000000E+00  0.12330659138E+03  0.27653674861E+04  0.27626170234E+04 0.  0.
        2    1    3    3  502    0 -0.27718898402E+02 -0.58177873241E+03  0.13154091258E+04  0.14385881965E+04  0.25500000920E-02 0. -1.
       -2    1    3    3    0  502  0.27718898402E+02  0.58177873241E+03 -0.11921025344E+04  0.13267792896E+04  0.25500000920E-02 0.  1.
</event>
<event>
 5   0  0.2641216E-05  0.2693624E+04  0.7818609E-02  0.8337077E-01
       -2   -1    0    0    0  501  0.00000000000E+00  0.00000000000E+00  0.82107813914E+03  0.82107813915E+03  0.25500000920E-02 0.  1.
        2   -1    0    0  501    0  0.00000000000E+00  0.00000000000E+00 -0.22091711615E+04  0.22091711615E+04  0.25500000920E-02 0. -1.
    10030    2    1    2    0    0  0.00000000000E+00  0.00000000000E+00 -0.13880930224E+04  0.30302493007E+04  0.26936236904E+04 0.  0.
        5    1    3    3  502    0  0.10268468908E+04  0.31704254291E+02 -0.16737798360E+04  0.19639197352E+04  0.46999998093E+01 0. -1.
       -5    1    3    3    0  502 -0.10268468908E+04 -0.31704254291E+02  0.28568681360E+03  0.10663295655E+04  0.46999998093E+01 0.  1.
</event>
<event>
 5   0  0.2641216E-05  0.2684620E+04  0.7818609E-02  0.8340012E-01
       -2   -1    0    0    0  501  0.00000000000E+00  0.00000000000E+00  0.12417853518E+04  0.12417853518E+04  0.25500000920E-02 0.  1.
        2   -1    0    0  501    0  0.00000000000E+00  0.00000000000E+00 -0.14509726848E+04  0.14509726848E+04  0.25500000920E-02 0. -1.
    10030    2    1    2    0    0  0.00000000000E+00  0.00000000000E+00 -0.20918733297E+03  0.26927580366E+04  0.26846203648E+04 0.  0.
        5    1    3    3  502    0 -0.20527383501E+03 -0.24590145083E+03  0.12028796172E+04  0.12448077499E+04  0.46999998093E+01 0.  1.
       -5    1    3    3    0  502  0.20527383501E+03  0.24590145083E+03 -0.14120669502E+04  0.14479502866E+04  0.46999998093E+01 0. -1.
</event>
<event>
 5   0  0.2516518E-05  0.2567791E+04  0.7818609E-02  0.8379225E-01
       -2   -1    0    0    0  501  0.00000000000E+00  0.00000000000E+00  0.10390453956E+04  0.10390453956E+04  0.25500000920E-02 0. -1.
        2   -1    0    0  501    0  0.00000000000E+00  0.00000000000E+00 -0.15864436924E+04  0.15864436924E+04  0.25500000920E-02 0.  1.
    10030    2    1    2    0    0  0.00000000000E+00  0.00000000000E+00 -0.54739829673E+03  0.26254890880E+04  0.25677905008E+04 0.  0.
        4    1    3    3  502    0 -0.12218843720E+04  0.39411975234E+03 -0.28118509700E+03  0.13143053182E+04  0.12699999809E+01 0. -1.
       -4    1    3    3    0  502  0.12218843720E+04 -0.39411975234E+03 -0.26621319973E+03  0.13111837698E+04  0.12699999809E+01 0.  1.
</event>
<event>
 5   0  0.1036691E-05  0.2807721E+04  0.7818609E-02  0.8300875E-01
       -1   -1    0    0    0  501  0.00000000000E+00  0.00000000000E+00  0.32494370786E+04  0.32494370786E+04  0.50400001928E-02 0. -1.
        1   -1    0    0  501    0  0.00000000000E+00  0.00000000000E+00 -0.60651257322E+03  0.60651257324E+03  0.50400001928E-02 0.  1.
    10030    2    1    2    0    0  0.00000000000E+00  0.00000000000E+00  0.26429245054E+04  0.38559496519E+04  0.28077211002E+04 0.  0.
        4    1    3    3  502    0 -0.27506469888E+03  0.81979869291E+03  0.28402847204E+04  0.29689980451E+04  0.12699999809E+01 0. -1.
       -4    1    3    3    0  502  0.27506469888E+03 -0.81979869291E+03 -0.19736021503E+03  0.88695160682E+03  0.12699999809E+01 0.  1.
</event>
<event>
 5   0  0.9971923E-06  0.2732664E+04  0.7818609E-02  0.8324484E-01
       -1   -1    0    0    0  501  0.00000000000E+00  0.00000000000E+00  0.10855131665E+04  0.10855131666E+04  0.50400001928E-02 0.  1.
        1   -1    0    0  501    0  0.00000000000E+00  0.00000000000E+00 -0.17197971525E+04  0.17197971525E+04  0.50400001928E-02 0. -1.
    10030    2    1    2    0    0  0.00000000000E+00  0.00000000000E+00 -0.63428398593E+03  0.28053103190E+04  0.27326635013E+04 0.  0.
        2    1    3    3  502    0 -0.11232041497E+04 -0.15693044247E+03  0.46511799735E+03  0.12257852492E+04  0.25500000920E-02 0.  1.
       -2    1    3    3    0  502  0.11232041497E+04  0.15693044247E+03 -0.10994019833E+04  0.15795250699E+04  0.25500000920E-02 0. -1.
</event>
<event>
 5   0  0.2540684E-05  0.2729655E+04  0.7818609E-02  0.8325447E-01
       -2   -1    0    0    0  501  0.00000000000E+00  0.00000000000E+00  0.97460776251E+03  0.97460776251E+03  0.25500000920E-02 0. -1.
        2   -1    0    0  501    0  0.00000000000E+00  0.00000000000E+00 -0.19112857853E+04  0.19112857853E+04  0.25500000920E-02 0.  1.
    10030    2    1    2    0    0  0.00000000000E+00  0.00000000000E+00 -0.93667802275E+03  0.28858935478E+04  0.27296548959E+04 0.  0.
        2    1    3    3  502    0 -0.16325537702E+03  0.57936338619E+03 -0.17633750030E+04  0.18632782005E+04  0.25500000920E-02 0.  1.
       -2    1    3    3    0  502  0.16325537702E+03 -0.57936338619E+03  0.82669698021E+03  0.10226153473E+04  0.25500000920E-02 0. -1.
</event>
<event>
 5   0  0.9971923E-06  0.2744909E+04  0.7818609E-02  0.8320579E-01
       -1   -1    0    0    0  501  0.00000000000E+00  0.00000000000E+00  0.18650626322E+04  0.18650626322E+04  0.50400001928E-02 0. -1.
        1   -1    0    0  501    0  0.00000000000E+00  0.00000000000E+00 -0.10099560284E+04  0.10099560284E+04  0.50400001928E-02 0.  1.
    10030    2    1    2    0    0  0.00000000000E+00  0.00000000000E+00  0.85510660379E+03  0.28750186606E+04  0.27449089229E+04 0.  0.
        2    1    3    3  502    0 -0.13205354245E+04 -0.10320225431E+03  0.51119969960E+02  0.13255480994E+04  0.25500000920E-02 0.  1.
       -2    1    3    3    0  502  0.13205354245E+04  0.10320225431E+03  0.80398663383E+03  0.15494705612E+04  0.25500000920E-02 0. -1.
</event>
<event>
 5   0  0.2615843E-05  0.2669005E+04  0.7818609E-02  0.8345132E-01
        2   -1    0    0  501    0  0.00000000000E+00  0.00000000000E+00  0.17918698085E+04  0.17918698085E+04  0.25500000920E-02 0.  1.
       -2   -1    0    0    0  501  0.00000000000E+00  0.00000000000E+00 -0.99387637274E+03  0.99387637275E+03  0.25500000920E-02 0. -1.
    10030    2    1    2    0    0  0.00000000000E+00  0.00000000000E+00  0.79799343572E+03  0.27857461812E+04  0.26690051073E+04 0.  0.
        3    1    3    3  502    0  0.23149841117E+03 -0.10501735232E+04  0.12237762661E+04  0.16291360602E+04  0.10100000352E+00 0.  1.
       -3    1    3    3    0  502 -0.23149841117E+03  0.10501735232E+04 -0.42578283038E+03  0.11566101210E+04  0.10100000352E+00 0. -1.
</event>
<event>
 5   0  0.2641216E-05  0.2698613E+04  0.7818609E-02  0.8335455E-01
       -2   -1    0    0    0  501  0.00000000000E+00  0.00000000000E+00  0.71877073514E+03  0.71877073515E+03  0.25500000920E-02 0.  1.
        2   -1    0    0  501    0  0.00000000000E+00  0.00000000000E+00 -0.25329744348E+04  0.25329744348E+04  0.25500000920E-02 0. -1.
    10030    2    1    2    0    0  0.00000000000E+00  0.00000000000E+00 -0.18142036997E+04  0.32517451700E+04  0.26986129005E+04 0.  0.
        5    1    3    3  502    0  0.10791234098E+04  0.64992031259E+03 -0.14896169425E+04  0.19508676203E+04  0.46999998093E+01 0. -1.
       -5    1    3    3    0  502 -0.10791234098E+04 -0.64992031259E+03 -0.32458675717E+03  0.13008775497E+04  0.46999998093E+01 0.  1.
</event>
<event>
 5   0  0.1041909E-05  0.2611855E+04  0.7818609E-02  0.8364185E-01
        1   -1    0    0  501    0  0.00000000000E+00  0.00000000000E+00  0.19890007919E+04  0.19890007919E+04  0.50400001928E-02 0.  1.
       -1   -1    0    0    0  501  0.00000000000E+00  0.00000000000E+00 -0.85743905009E+03  0.85743905011E+03  0.50400001928E-02 0. -1.
    10030    2    1    2    0    0  0.00000000000E+00  0.00000000000E+00  0.11315617418E+04  0.28464398420E+04  0.26118552407E+04 0.  0.
        5    1    3    3  502    0 -0.28657376433E+03 -0.11086599263E+03 -0.81747301620E+03  0.87332697939E+03  0.46999998093E+01 0. -1.
       -5    1    3    3    0  502  0.28657376433E+03  0.11086599263E+03  0.19490347580E+04  0.19731128626E+04  0.46999998093E+01 0.  1.
</event>
<event>
 5   0  0.1005265E-05  0.2691147E+04  0.7818609E-02  0.8337883E-01
        1   -1    0    0  501    0  0.00000000000E+00  0.00000000000E+00  0.16930739990E+04  0.16930739990E+04  0.50400001928E-02 0. -1.
       -1   -1    0    0    0  501  0.00000000000E+00  0.00000000000E+00 -0.10693970256E+04  0.10693970256E+04  0.50400001928E-02 0.  1.
    10030    2    1    2    0    0  0.00000000000E+00  0.00000000000E+00  0.62367697340E+03  0.27624710247E+04  0.26911471894E+04 0.  0.
        3    1    3    3  502    0 -0.67089304458E+03 -0.95767398070E+03  0.99531643226E+03  0.15355428164E+04  0.10100000352E+00 0. -1.
       -3    1    3    3    0  502  0.67089304458E+03  0.95767398070E+03 -0.37163945886E+03  0.12269282082E+04  0.10100000352E+00 0.  1.
</event>
<event>
 5   0  0.2615843E-05  0.2717361E+04  0.7818609E-02  0.8329394E-01
        2   -1    0    0  501    0  0.00000000000E+00  0.00000000000E+00  0.16471038771E+04  0.16471038771E+04  0.25500000920E-02 0. -1.
       -2   -1    0    0    0  501  0.00000000000E+00  0.00000000000E+00 -0.11207624472E+04  0.11207624472E+04  0.25500000920E-02 0.  1.
    10030    2    1    2    0    0  0.00000000000E+00  0.00000000000E+00  0.52634142985E+03  0.27678663243E+04  0.27173606107E+04 0.  0.
        3    1    3    3  502    0  0.15737841222E+03  0.12951358142E+04  0.64951906677E+03  0.14574017188E+04  0.10100000352E+00 0.  1.
       -3    1    3    3    0  502 -0.15737841222E+03 -0.12951358142E+04 -0.12317763692E+03  0.13104646055E+04  0.10100000352E+00 0. -1.
</event>
<event>
 5   0  0.2540232E-05  0.2720693E+04  0.7818609E-02  0.8328322E-01
        2   -1    0    0  501    0  0.00000000000E+00  0.00000000000E+00  0.18728775107E+04  0.18728775107E+04  0.25500000920E-02 0.  1.
       -2   -1    0    0    0  501  0.00000000000E+00  0.00000000000E+00 -0.98807432718E+03  0.98807432718E+03  0.25500000920E-02 0. -1.
    10030    2    1    2    0    0  0.00000000000E+00  0.00000000000E+00  0.88480318348E+03  0.28609518378E+04  0.27206926958E+04 0.  0.
        1    1    3    3  502    0  0.37316784595E+03 -0.11485019947E+04  0.11009717935E+04  0.16341511446E+04  0.50400001928E-02 0.  1.
       -1    1    3    3    0  502 -0.37316784595E+03  0.11485019947E+04 -0.21616861006E+03  0.12268006933E+04  0.50400001928E-02 0. -1.
</event>
<event>
 5   0  0.2540232E-05  0.2669604E+04  0.7818609E-02  0.8344935E-01
        2   -1    0    0  501    0  0.00000000000E+00  0.00000000000E+00  0.10250406607E+04  0.10250406607E+04  0.25500000920E-02 0. -1.
       -2   -1    0    0    0  501  0.00000000000E+00  0.00000000000E+00 -0.17381716871E+04  0.17381716871E+04  0.25500000920E-02 0.  1.
    10030    2    1    2    0    0  0.00000000000E+00  0.00000000000E+00 -0.71313102639E+03  0.27632123478E+04  0.26696042063E+04 0.  0.
        1    1    3    3  502    0  0.11854798162E+04  0.12398783140E+02  0.27827632440E+03  0.12177659205E+04  0.50400001928E-02 0. -1.
       -1    1    3    3    0  502 -0.11854798162E+04 -0.12398783140E+02 -0.99140735079E+03  0.15454464273E+04  0.50400001928E-02 0.  1.
</event>
<event>
 5   0  0.2540684E-05  0.2704878E+04  0.7818609E-02  0.8333424E-01
       -2   -1    0    0    0  501  0.00000000000E+00  0.00000000000E+00  0.90517777608E+03  0.90517777609E+03  0.25500000920E-02 0. -1.
        2   -1    0    0  501    0  0.00000000000E+00  0.00000000000E+00 -0.20206988079E+04  0.20206988079E+04  0.25500000920E-02 0.  1.
    10030    2    1    2    0    0  0.00000000000E+00  0.00000000000E+00 -0.11155210318E+04  0.29258765840E+04  0.27048782990E+04 0.  0.
        2    1    3    3  502    0  0.92903224047E+03 -0.26471640217E+03  0.46610263775E+03  0.10725797622E+04  0.25500000920E-02 0. -1.
       -2    1    3    3    0  502 -0.92903224047E+03  0.26471640217E+03 -0.15816236696E+04  0.18532968218E+04  0.25500000920E-02 0.  1.
</event>
<event>
 5   0  0.1096672E-05  0.2579682E+04  0.7818609E-02  0.8375136E-01
        1   -1    0    0  501    0  0.00000000000E+00  0.00000000000E+00  0.12934826863E+04  0.12934826863E+04  0.50400001928E-02 0. -1.
       -1   -1    0    0    0  501  0.00000000000E+00  0.00000000000E+00 -0.12862091245E+04  0.12862091245E+04  0.50400001928E-02 0.  1.
    10030    2    1    2    0    0  0.00000000000E+00  0.00000000000E+00  0.72735618540E+01  0.25796918108E+04  0.25796815567E+04 0.  0.
        1    1    3    3  502    0  0.18839334228E+03 -0.12751103840E+04  0.51498131636E+02  0.12899808527E+04  0.50400001928E-02 0.  1.
       -1    1    3    3    0  502 -0.18839334228E+03  0.12751103840E+04 -0.44224569782E+02  0.12897109581E+04  0.50400001928E-02 0. -1.
</event>
<event>
 5   0  0.2540232E-05  0.2690282E+04  0.7818609E-02  0.8338165E-01
       -2   -1    0    0    0  501  0.00000000000E+00  0.00000000000E+00  0.12417237857E+04  0.12417237857E+04  0.25500000920E-02 0.  1.
        2   -1    0    0  501    0  0.00000000000E+00  0.00000000000E+00 -0.14571708861E+04  0.14571708861E+04  0.25500000920E-02 0. -1.
    10030    2    1    2    0    0  0.00000000000E+00  0.00000000000E+00 -0.21544710040E+03  0.26988946718E+04  0.26902815831E+04 0.  0.
        1    1    3    3  502    0  0.10914169218E+04  0.74042330345E+03 -0.37311953793E+03  0.13706333409E+04  0.50400001928E-02 0.  1.
       -1    1    3    3    0  502 -0.10914169218E+04 -0.74042330345E+03  0.15767243752E+03  0.13282613309E+04  0.50400001928E-02 0. -1.
</event>
<event>
 5   0  0.2516518E-05  0.2682445E+04  0.7818609E-02  0.8340723E-01
       -2   -1    0    0    0  501  0.00000000000E+00  0.00000000000E+00  0.68088265962E+03  0.68088265962E+03  0.25500000920E-02 0. -1.
        2   -1    0    0  501    0  0.00000000000E+00  0.00000000000E+00 -0.26419793556E+04  0.26419793556E+04  0.25500000920E-02 0.  1.
    10030    2    1    2    0    0  0.00000000000E+00  0.00000000000E+00 -0.19610966960E+04  0.33228620152E+04  0.26824451013E+04 0.  0.
        4    1    3    3  502    0 -0.70941046769E+03  0.91893931271E+03 -0.14850009474E+03  0.11703702675E+04  0.12699999809E+01 0. -1.
       -4    1    3    3    0  502  0.70941046769E+03 -0.91893931271E+03 -0.18125966012E+04  0.21524917477E+04  0.12699999809E+01 0.  1.
</event>
<event>
 5   0  0.2615843E-05  0.1836560E+04  0.7818609E-02  0.8687095E-01
       -2   -1    0    0    0  501  0.00000000000E+00  0.00000000000E+00  0.58573727077E+03  0.58573727077E+03  0.25500000920E-02 0. -1.
        2   -1    0    0  501    0  0.00000000000E+00  0.00000000000E+00 -0.14396182216E+04  0.14396182216E+04  0.25500000920E-02 0.  1.
    10030    2    1    2    0    0  0.00000000000E+00  0.00000000000E+00 -0.85388095086E+03  0.20253554924E+04  0.18365598799E+04 0.  0.
        3    1    3    3  502    0 -0.89431536849E+03 -0.15984313281E+02 -0.19777437834E+03  0.91606232949E+03  0.10100000352E+00 0. -1.
       -3    1    3    3    0  502  0.89431536849E+03  0.15984313281E+02 -0.65610657252E+03  0.11092931629E+04  0.10100000352E+00 0.  1.
</event>
<event>
 5   0  0.1041909E-05  0.1767573E+04  0.7818609E-02  0.8723736E-01
       -1   -1    0    0    0  501  0.00000000000E+00  0.00000000000E+00  0.85873933494E+03  0.85873933495E+03  0.50400001928E-02 0.  1.
        1   -1    0    0  501    0  0.00000000000E+00  0.00000000000E+00 -0.90956442714E+03  0.90956442715E+03  0.50400001928E-02 0. -1.
    10030    2    1    2    0    0  0.00000000000E+00  0.00000000000E+00 -0.50825092196E+02  0.17683037621E+04  0.17675731965E+04 0.  0.
        5    1    3    3  502    0  0.73356086189E+03 -0.13500224179E+03  0.44882928718E+03  0.87052108672E+03  0.46999998093E+01 0.  1.
       -5    1    3    3    0  502 -0.73356086189E+03  0.13500224179E+03 -0.49965437938E+03  0.89778267538E+03  0.46999998093E+01 0. -1.
</event>
<event>
 5   0  0.9971923E-06  0.2681931E+04  0.7818609E-02  0.8340892E-01
       -1   -1    0    0    0  501  0.00000000000E+00  0.00000000000E+00  0.11791405973E+04  0.11791405973E+04  0.50400001928E-02 0. -1.
        1   -1    0    0  501    0  0.00000000000E+00  0.00000000000E+00 -0.15249995654E+04  0.15249995654E+04  0.50400001928E-02 0.  1.
    10030    2    1    2    0    0  0.00000000000E+00  0.00000000000E+00 -0.34585896804E+03  0.27041401627E+04  0.26819313179E+04 0.  0.
        2    1    3    3  502    0  0.44848582558E+03 -0.55448777767E+03  0.97207667892E+03  0.12056240297E+04  0.25500000920E-02 0. -1.
       -2    1    3    3    0  502 -0.44848582558E+03  0.55448777767E+03 -0.13179356470E+04  0.14985161330E+04  0.25500000920E-02 0.  1.
</event>
<event>
 5   0  0.2540232E-05  0.2735780E+04  0.7818609E-02  0.8323488E-01
       -2   -1    0    0    0  501  0.00000000000E+00  0.00000000000E+00  0.91934733961E+03  0.91934733961E+03  0.25500000920E-02 0.  1.
        2   -1    0    0  501    0  0.00000000000E+00  0.00000000000E+00 -0.20352738016E+04  0.20352738016E+04  0.25500000920E-02 0. -1.
    10030    2    1    2    0    0  0.00000000000E+00  0.00000000000E+00 -0.11159264620E+04  0.29546211412E+04  0.27357803675E+04 0.  0.
        1    1    3    3  502    0  0.20885333784E+03 -0.33650780608E+03 -0.19719968028E+04  0.20113748061E+04  0.50400001928E-02 0. -1.
       -1    1    3    3    0  502 -0.20885333784E+03  0.33650780608E+03  0.85607034081E+03  0.94324633512E+03  0.50400001928E-02 0.  1.
</event>
<event>
 5   0  0.2516518E-05  0.2712677E+04  0.7818609E-02  0.8330903E-01
        2   -1    0    0  501    0  0.00000000000E+00  0.00000000000E+00  0.13999032928E+04  0.13999032928E+04  0.25500000920E-02 0. -1.
       -2   -1    0    0    0  501  0.00000000000E+00  0.00000000000E+00 -0.13141299197E+04  0.13141299197E+04  0.25500000920E-02 0.  1.
    10030    2    1    2    0    0  0.00000000000E+00  0.00000000000E+00  0.85773373063E+02  0.27140332126E+04  0.27126774979E+04 0.  0.
        4    1    3    3  502    0 -0.12919330095E+04  0.29455569128E+03  0.33251233137E+03  0.13661698356E+04  0.12699999809E+01 0. -1.
       -4    1    3    3    0  502  0.12919330095E+04 -0.29455569128E+03 -0.24673895831E+03  0.13478633769E+04  0.12699999809E+01 0.  1.
</event>
<event>
 5   0  0.2615843E-05  0.2683308E+04  0.7818609E-02  0.8340441E-01
       -2   -1    0    0    0  501  0.00000000000E+00  0.00000000000E+00  0.76944929804E+03  0.76944929805E+03  0.25500000920E-02 0. -1.
        2   -1    0    0  501    0  0.00000000000E+00  0.00000000000E+00 -0.23393822693E+04  0.23393822693E+04  0.25500000920E-02 0.  1.
    10030    2    1    2    0    0  0.00000000000E+00  0.00000000000E+00 -0.15699329713E+04  0.31088315674E+04  0.26833084392E+04 0.  0.
        3    1    3    3  502    0  0.84638383811E+02  0.72735064339E+03  0.51751486712E+03  0.89667400004E+03  0.10100000352E+00 0. -1.
       -3    1    3    3    0  502 -0.84638383811E+02 -0.72735064339E+03 -0.20874478384E+04  0.22121575673E+04  0.10100000352E+00 0.  1.
</event>
<event>
 5   0  0.1096672E-05  0.2776472E+04  0.7818609E-02  0.8310610E-01
        1   -1    0    0  501    0  0.00000000000E+00  0.00000000000E+00  0.96902972833E+03  0.96902972834E+03  0.50400001928E-02 0.  1.
       -1   -1    0    0    0  501  0.00000000000E+00  0.00000000000E+00 -0.19887924108E+04  0.19887924108E+04  0.50400001928E-02 0. -1.
    10030    2    1    2    0    0  0.00000000000E+00  0.00000000000E+00 -0.10197626825E+04  0.29578221392E+04  0.27764718400E+04 0.  0.
        1    1    3    3  502    0 -0.28001117795E+03 -0.10466835357E+04  0.41470459184E+03  0.11601433456E+04  0.50400001928E-02 0.  1.
       -1    1    3    3    0  502  0.28001117795E+03  0.10466835357E+04 -0.14344672743E+04  0.17976787936E+04  0.50400001928E-02 0. -1.
</event>
<event>
 5   0  0.2540684E-05  0.2651679E+04  0.7818609E-02  0.8350856E-01
        2   -1    0    0  501    0  0.00000000000E+00  0.00000000000E+00  0.12211284973E+04  0.12211284973E+04  0.25500000920E-02 0. -1.
       -2   -1    0    0    0  501  0.00000000000E+00  0.00000000000E+00 -0.14395292697E+04  0.14395292697E+04  0.25500000920E-02 0.  1.
    10030    2    1    2    0    0  0.00000000000E+00  0.00000000000E+00 -0.21840077235E+03  0.26606577670E+04  0.26516788749E+04 0.  0.
        2    1    3    3  502    0 -0.10722225197E+04  0.60196876319E+03  0.38828356039E+03  0.12894927867E+04  0.25500000920E-02 0. -1.
       -2    1    3    3    0  502  0.10722225197E+04 -0.60196876319E+03 -0.60668433274E+03  0.13711649803E+04  0.25500000920E-02 0.  1.
</event>
<event>
 5   0  0.1096672E-05  0.1943383E+04  0.7818609E-02  0.8633558E-01
        1   -1    0    0  501    0  0.00000000000E+00  0.00000000000E+00  0.88044997484E+03  0.88044997485E+03  0.50400001928E-02 0.  1.
       -1   -1    0    0    0  501  0.00000000000E+00  0.00000000000E+00 -0.10723881305E+04  0.10723881305E+04  0.50400001928E-02 0. -1.
    10030    2    1    2    0    0  0.00000000000E+00  0.00000000000E+00 -0.19193815565E+03  0.19528381054E+04  0.19433827235E+04 0.  0.
        1    1    3    3  502    0 -0.29231192082E+03 -0.46571719272E+03 -0.90101953206E+03  0.10555448640E+04  0.50400001928E-02 0. -1.
       -1    1    3    3    0  502  0.29231192082E+03  0.46571719272E+03  0.70908137641E+03  0.89729324139E+03  0.50400001928E-02 0.  1.
</event>
<event>
 5   0  0.9971923E-06  0.2733643E+04  0.7818609E-02  0.8324171E-01
       -1   -1    0    0    0  501  0.00000000000E+00  0.00000000000E+00  0.12292576213E+04  0.12292576213E+04  0.50400001928E-02 0.  1.
        1   -1    0    0  501    0  0.00000000000E+00  0.00000000000E+00 -0.15197799248E+04  0.15197799248E+04  0.50400001928E-02 0. -1.
    10030    2    1    2    0    0  0.00000000000E+00  0.00000000000E+00 -0.29052230348E+03  0.27490375462E+04  0.27336430311E+04 0.  0.
        2    1    3    3  502    0  0.11361459764E+03 -0.57767454166E+03  0.10952108444E+04  0.12434238805E+04  0.25500000920E-02 0.  1.
       -2    1    3    3    0  502 -0.11361459764E+03  0.57767454166E+03 -0.13857331479E+04  0.15056136656E+04  0.25500000920E-02 0. -1.
</event>
<event>
 5   0  0.2641216E-05  0.2704803E+04  0.7818609E-02  0.8333448E-01
        2   -1    0    0  501    0  0.00000000000E+00  0.00000000000E+00  0.19981708163E+04  0.19981708163E+04  0.25500000920E-02 0. -1.
       -2   -1    0    0    0  501  0.00000000000E+00  0.00000000000E+00 -0.91533207104E+03  0.91533207104E+03  0.25500000920E-02 0.  1.
    10030    2    1    2    0    0  0.00000000000E+00  0.00000000000E+00  0.10828387452E+04  0.29135028873E+04  0.27048030106E+04 0.  0.
        5    1    3    3  502    0  0.10539025973E+04 -0.63985064276E+03  0.11400409366E+04  0.16792364208E+04  0.46999998093E+01 0. -1.
       -5    1    3    3    0  502 -0.10539025973E+04  0.63985064276E+03 -0.57202191389E+02  0.12342664665E+04  0.46999998093E+01 0.  1.
</event>
<event>
 5   0  0.1096672E-05  0.2792234E+04  0.7818609E-02  0.8305684E-01
        1   -1    0    0  501    0  0.00000000000E+00  0.00000000000E+00  0.10106530047E+04  0.10106530047E+04  0.50400001928E-02 0.  1.
       -1   -1    0    0    0  501  0.00000000000E+00  0.00000000000E+00 -0.19285969852E+04  0.19285969852E+04  0.50400001928E-02 0. -1.
    10030    2    1    2    0    0  0.00000000000E+00  0.00000000000E+00 -0.91794398053E+03  0.29392499899E+04  0.27922337566E+04 0.  0.
        1    1    3    3  502    0  0.11943192454E+04  0.53202271336E+03  0.56392964872E+02  0.13086736774E+04  0.50400001928E-02 0.  1.
       -1    1    3    3    0  502 -0.11943192454E+04 -0.53202271336E+03 -0.97433694541E+03  0.16305763125E+04  0.50400001928E-02 0. -1.
</event>
<event>
 5   0  0.2516518E-05  0.2152985E+04  0.7818609E-02  0.8538255E-01
        2   -1    0    0  501    0  0.00000000000E+00  0.00000000000E+00  0.11176505841E+04  0.11176505841E+04  0.25500000920E-02 0. -1.
       -2   -1    0    0    0  501  0.00000000000E+00  0.00000000000E+00 -0.10368504718E+04  0.10368504718E+04  0.25500000920E-02 0.  1.
    10030    2    1    2    0    0  0.00000000000E+00  0.00000000000E+00  0.80800112250E+02  0.21545010559E+04  0.21529854021E+04 0.  0.
        4    1    3    3  502    0  0.39674158447E+03  0.28153320010E+03  0.10013729623E+04  0.11132898320E+04  0.12699999809E+01 0. -1.
       -4    1    3    3    0  502 -0.39674158447E+03 -0.28153320010E+03 -0.92057285001E+03  0.10412112239E+04  0.12699999809E+01 0.  1.
</event>
<event>
 5   0  0.8740500E-06  0.2742118E+04  0.7818609E-02  0.8321467E-01
       -3   -1    0    0    0  501  0.00000000000E+00  0.00000000000E+00  0.12010992395E+04  0.12010992438E+04  0.10100000352E+00 0.  1.
        3   -1    0    0  501    0  0.00000000000E+00  0.00000000000E+00 -0.15650691378E+04  0.15650691411E+04  0.10100000352E+00 0. -1.
    10030    2    1    2    0    0  0.00000000000E+00  0.00000000000E+00 -0.36396989828E+03  0.27661683848E+04  0.27421184231E+04 0.  0.
        2    1    3    3  502    0 -0.96015746352E+03  0.97058743054E+03 -0.30903016804E+03  0.13998006858E+04  0.25500000920E-02 0. -1.
       -2    1    3    3    0  502  0.96015746352E+03 -0.97058743054E+03 -0.54939730241E+02  0.13663676991E+04  0.25500000920E-02 0.  1.
</event>
<event>
 5   0  0.2615843E-05  0.2308034E+04  0.7818609E-02  0.8474760E-01
       -2   -1    0    0    0  501  0.00000000000E+00  0.00000000000E+00  0.66901628273E+03  0.66901628274E+03  0.25500000920E-02 0. -1.
        2   -1    0    0  501    0  0.00000000000E+00  0.00000000000E+00 -0.19906177512E+04  0.19906177512E+04  0.25500000920E-02 0.  1.
    10030    2    1    2    0    0  0.00000000000E+00  0.00000000000E+00 -0.13216014685E+04  0.26596340339E+04  0.23080343916E+04 0.  0.
        3    1    3    3  502    0  0.10160155792E+04 -0.12730840047E+03 -0.47501129040E+02  0.10250616828E+04  0.10100000352E+00 0. -1.
       -3    1    3    3    0  502 -0.10160155792E+04  0.12730840047E+03 -0.12741003394E+04  0.16345723511E+04  0.10100000352E+00 0.  1.
</event>
<event>
 5   0  0.2615843E-05  0.2704708E+04  0.7818609E-02  0.8333479E-01
       -2   -1    0    0    0  501  0.00000000000E+00  0.00000000000E+00  0.21690309131E+04  0.21690309132E+04  0.25500000920E-02 0. -1.
        2   -1    0    0  501    0  0.00000000000E+00  0.00000000000E+00 -0.84316968863E+03  0.84316968863E+03  0.25500000920E-02 0.  1.
    10030    2    1    2    0    0  0.00000000000E+00  0.00000000000E+00  0.13258612245E+04  0.30122006018E+04  0.27047078361E+04 0.  0.
        3    1    3    3  502    0  0.50652224437E+03 -0.12240948222E+04  0.36020368636E+03  0.13728509109E+04  0.10100000352E+00 0.  1.
       -3    1    3    3    0  502 -0.50652224437E+03  0.12240948222E+04  0.96565753816E+03  0.16393496909E+04  0.10100000352E+00 0. -1.
</event>
<event>
 5   0  0.1005265E-05  0.2723930E+04  0.7818609E-02  0.8327282E-01
       -1   -1    0    0    0  501  0.00000000000E+00  0.00000000000E+00  0.25155644965E+04  0.25155644965E+04  0.50400001928E-02 0. -1.
        1   -1    0    0  501    0  0.00000000000E+00  0.00000000000E+00 -0.73738882794E+03  0.73738882796E+03  0.50400001928E-02 0.  1.
    10030    2    1    2    0    0  0.00000000000E+00  0.00000000000E+00  0.17781756686E+04  0.32529533245E+04  0.27239303631E+04 0.  0.
        3    1    3    3  502    0 -0.36659051953E+03  0.12559611735E+03 -0.67016587381E+03  0.77413519641E+03  0.10100000352E+00 0.  1.
       -3    1    3    3    0  502  0.36659051953E+03 -0.12559611735E+03  0.24483415424E+04  0.24788181281E+04  0.10100000352E+00 0. -1.
</event>
<event>
 5   0  0.2540684E-05  0.2706378E+04  0.7818609E-02  0.8332938E-01
        2   -1    0    0  501    0  0.00000000000E+00  0.00000000000E+00  0.28014815959E+04  0.28014815959E+04  0.25500000920E-02 0.  1.
       -2   -1    0    0    0  501  0.00000000000E+00  0.00000000000E+00 -0.65362584215E+03  0.65362584215E+03  0.25500000920E-02 0. -1.
    10030    2    1    2    0    0  0.00000000000E+00  0.00000000000E+00  0.21478557538E+04  0.34551074381E+04  0.27063782200E+04 0.  0.
        2    1    3    3  502    0  0.95017077542E+03  0.26120062891E+03  0.22578962237E+04  0.24635636034E+04  0.25500000920E-02 0.  1.
       -2    1    3    3    0  502 -0.95017077542E+03 -0.26120062891E+03 -0.11004046995E+03  0.99154383465E+03  0.25500000920E-02 0. -1.
</event>
<event>
 5   0  0.2516518E-05  0.2720982E+04  0.7818609E-02  0.8328229E-01
        2   -1    0    0  501    0  0.00000000000E+00  0.00000000000E+00  0.75319615039E+03  0.75319615039E+03  0.25500000920E-02 0.  1.
       -2   -1    0    0    0  501  0.00000000000E+00  0.00000000000E+00 -0.24574412367E+04  0.24574412367E+04  0.25500000920E-02 0. -1.
    10030    2    1    2    0    0  0.00000000000E+00  0.00000000000E+00 -0.17042450863E+04  0.32106373871E+04  0.27209816459E+04 0.  0.
        4    1    3    3  502    0  0.54467577208E+03  0.12328385453E+04 -0.10708797176E+04  0.17214376428E+04  0.12699999809E+01 0. -1.
       -4    1    3    3    0  502 -0.54467577208E+03 -0.12328385453E+04 -0.63336536868E+03  0.14891997443E+04  0.12699999809E+01 0.  1.
</event>
<event>
 5   0  0.2516518E-05  0.2769290E+04  0.7818609E-02  0.8312866E-01
        2   -1    0    0  501    0  0.00000000000E+00  0.00000000000E+00  0.12768714380E+04  0.12768714380E+04  0.25500000920E-02 0. -1.
       -2   -1    0    0    0  501  0.00000000000E+00  0.00000000000E+00 -0.15015156256E+04  0.15015156256E+04  0.25500000920E-02 0.  1.
    10030    2    1    2    0    0  0.00000000000E+00  0.00000000000E+00 -0.22464418762E+03  0.27783870637E+04  0.27692904623E+04 0.  0.
        4    1    3    3  502    0  0.57338274238E+03 -0.10239860562E+04 -0.84953205420E+03  0.14488000333E+04  0.12699999809E+01 0. -1.
       -4    1    3    3    0  502 -0.57338274238E+03  0.10239860562E+04  0.62488786657E+03  0.13295870303E+04  0.12699999809E+01 0.  1.
</event>
<event>
 5   0  0.1036691E-05  0.1678919E+04  0.7818609E-02  0.8773480E-01
        1   -1    0    0  501    0  0.00000000000E+00  0.00000000000E+00  0.15111513661E+04  0.15111513661E+04  0.50400001928E-02 0.  1.
       -1   -1    0    0    0  501  0.00000000000E+00  0.00000000000E+00 -0.46632794658E+03  0.46632794661E+03  0.50400001928E-02 0. -1.
    10030    2    1    2    0    0  0.00000000000E+00  0.00000000000E+00  0.10448234195E+04  0.19774793127E+04  0.16789188349E+04 0.  0.
        4    1    3    3  502    0 -0.36728618816E+03 -0.31305026124E+03 -0.28660412706E+03  0.56128704655E+03  0.12699999809E+01 0. -1.
       -4    1    3    3    0  502  0.36728618816E+03  0.31305026124E+03  0.13314275465E+04  0.14161922661E+04  0.12699999809E+01 0.  1.
</event>
<event>
 5   0  0.1005265E-05  0.2672832E+04  0.7818609E-02  0.8343874E-01
       -1   -1    0    0    0  501  0.00000000000E+00  0.00000000000E+00  0.23215150841E+04  0.23215150841E+04  0.50400001928E-02 0.  1.
        1   -1    0    0  501    0  0.00000000000E+00  0.00000000000E+00 -0.76932867987E+03  0.76932867989E+03  0.50400001928E-02 0. -1.
    10030    2    1    2    0    0  0.00000000000E+00  0.00000000000E+00  0.15521864043E+04  0.30908437640E+04  0.26728323068E+04 0.  0.
        3    1    3    3  502    0 -0.13259509600E+04 -0.30355817332E+02  0.96589913579E+03  0.16407402521E+04  0.10100000352E+00 0. -1.
       -3    1    3    3    0  502  0.13259509600E+04  0.30355817332E+02  0.58628726848E+03  0.14501035120E+04  0.10100000352E+00 0.  1.
</event>
<event>
 5   0  0.1096672E-05  0.2530608E+04  0.7818609E-02  0.8392162E-01
       -1   -1    0    0    0  501  0.00000000000E+00  0.00000000000E+00  0.26120327137E+04  0.26120327137E+04  0.50400001928E-02 0.  1.
        1   -1    0    0  501    0  0.00000000000E+00  0.00000000000E+00 -0.61293047819E+03  0.61293047821E+03  0.50400001928E-02 0. -1.
    10030    2    1    2    0    0  0.00000000000E+00  0.00000000000E+00  0.19991022355E+04  0.32249631919E+04  0.25306081959E+04 0.  0.
        1    1    3    3  502    0  0.10333162509E+03 -0.88507914279E+03 -0.14523324545E+03  0.90284838669E+03  0.50400001928E-02 0. -1.
       -1    1    3    3    0  502 -0.10333162509E+03  0.88507914279E+03  0.21443354809E+04  0.23221148052E+04  0.50400001928E-02 0.  1.
</event>
<event>
 5   0  0.1036691E-05  0.2719406E+04  0.7818609E-02  0.8328736E-01
        1   -1    0    0  501    0  0.00000000000E+00  0.00000000000E+00  0.64432026541E+03  0.64432026543E+03  0.50400001928E-02 0. -1.
       -1   -1    0    0    0  501  0.00000000000E+00  0.00000000000E+00 -0.28693688892E+04  0.28693688892E+04  0.50400001928E-02 0.  1.
    10030    2    1    2    0    0  0.00000000000E+00  0.00000000000E+00 -0.22250486238E+04  0.35136891546E+04  0.27194062030E+04 0.  0.
        4    1    3    3  502    0  0.98371197809E+03  0.12808082044E+03  0.88968619490E+02  0.99599748019E+03  0.12699999809E+01 0. -1.
       -4    1    3    3    0  502 -0.98371197809E+03 -0.12808082044E+03 -0.23140172433E+04  0.25176916744E+04  0.12699999809E+01 0.  1.
</event>
<event>
 5   0  0.1096672E-05  0.2590012E+04  0.7818609E-02  0.8371602E-01
        1   -1    0    0  501    0  0.00000000000E+00  0.00000000000E+00  0.20010280149E+04  0.20010280149E+04  0.50400001928E-02 0.  1.
       -1   -1    0    0    0  501  0.00000000000E+00  0.00000000000E+00 -0.83808933017E+03  0.83808933019E+03  0.50400001928E-02 0. -1.
    10030    2    1    2    0    0  0.00000000000E+00  0.00000000000E+00  0.11629386847E+04  0.28391173451E+04  0.25900117596E+04 0.  0.
        1    1    3    3  502    0 -0.14540746690E+03 -0.76687381903E+03  0.17142005314E+04  0.18835398185E+04  0.50400001928E-02 0.  1.
       -1    1    3    3    0  502  0.14540746690E+03  0.76687381903E+03 -0.55126184670E+03  0.95557752663E+03  0.50400001928E-02 0. -1.
</event>
<event>
 5   0  0.2540684E-05  0.2696471E+04  0.7818609E-02  0.8336151E-01
       -2   -1    0    0    0  501  0.00000000000E+00  0.00000000000E+00  0.63232836777E+03  0.63232836777E+03  0.25500000920E-02 0.  1.
        2   -1    0    0  501    0  0.00000000000E+00  0.00000000000E+00 -0.28746750101E+04  0.28746750102E+04  0.25500000920E-02 0. -1.
    10030    2    1    2    0    0  0.00000000000E+00  0.00000000000E+00 -0.22423466424E+04  0.35070033779E+04  0.26964706986E+04 0.  0.
        2    1    3    3  502    0  0.11211261928E+03 -0.13249672368E+04 -0.83142722041E+03  0.15682406195E+04  0.25500000920E-02 0.  1.
       -2    1    3    3    0  502 -0.11211261928E+03  0.13249672368E+04 -0.14109194220E+04  0.19387627584E+04  0.25500000920E-02 0. -1.
</event>
<event>
 5   0  0.1036691E-05  0.2671310E+04  0.7818609E-02  0.8344374E-01
       -1   -1    0    0    0  501  0.00000000000E+00  0.00000000000E+00  0.99886901860E+03  0.99886901862E+03  0.50400001928E-02 0. -1.
        1   -1    0    0  501    0  0.00000000000E+00  0.00000000000E+00 -0.17859937698E+04  0.17859937699E+04  0.50400001928E-02 0.  1.
    10030    2    1    2    0    0  0.00000000000E+00  0.00000000000E+00 -0.78712475124E+03  0.27848627885E+04  0.26713096744E+04 0.  0.
        4    1    3    3  502    0 -0.12470743418E+03 -0.12178648222E+04 -0.95032976135E+03  0.15497983539E+04  0.12699999809E+01 0.  1.
       -4    1    3    3    0  502  0.12470743418E+03  0.12178648222E+04  0.16320501011E+03  0.12350644346E+04  0.12699999809E+01 0. -1.
</event>
<event>
 5   0  0.2540684E-05  0.2704771E+04  0.7818609E-02  0.8333459E-01
       -2   -1    0    0    0  501  0.00000000000E+00  0.00000000000E+00  0.12903980988E+04  0.12903980988E+04  0.25500000920E-02 0. -1.
        2   -1    0    0  501    0  0.00000000000E+00  0.00000000000E+00 -0.14173509220E+04  0.14173509220E+04  0.25500000920E-02 0.  1.
    10030    2    1    2    0    0  0.00000000000E+00  0.00000000000E+00 -0.12695282319E+03  0.27077490208E+04  0.27047712917E+04 0.  0.
        2    1    3    3  502    0 -0.12680328863E+04  0.32900859309E+03  0.27273984011E+03  0.13381110102E+04  0.25500000920E-02 0. -1.
       -2    1    3    3    0  502  0.12680328863E+04 -0.32900859309E+03 -0.39969266330E+03  0.13696380107E+04  0.25500000920E-02 0.  1.
</event>
<event>
 5   0  0.1096672E-05  0.2311778E+04  0.7818609E-02  0.8473292E-01
        1   -1    0    0  501    0  0.00000000000E+00  0.00000000000E+00  0.11616359103E+04  0.11616359103E+04  0.50400001928E-02 0. -1.
       -1   -1    0    0    0  501  0.00000000000E+00  0.00000000000E+00 -0.11501707996E+04  0.11501707997E+04  0.50400001928E-02 0.  1.
    10030    2    1    2    0    0  0.00000000000E+00  0.00000000000E+00  0.11465110628E+02  0.23118067099E+04  0.23117782799E+04 0.  0.
        1    1    3    3  502    0 -0.47177961236E+03  0.22772869265E+03 -0.10246408993E+04  0.11507933492E+04  0.50400001928E-02 0.  1.
       -1    1    3    3    0  502  0.47177961236E+03 -0.22772869265E+03  0.10361060099E+04  0.11610133607E+04  0.50400001928E-02 0. -1.
</event>
<event>
 5   0  0.1005265E-05  0.2806454E+04  0.7818609E-02  0.8301267E-01
       -1   -1    0    0    0  501  0.00000000000E+00  0.00000000000E+00  0.11883460167E+04  0.11883460167E+04  0.50400001928E-02 0.  1.
        1   -1    0    0  501    0  0.00000000000E+00  0.00000000000E+00 -0.16569636282E+04  0.16569636283E+04  0.50400001928E-02 0. -1.
    10030    2    1    2    0    0  0.00000000000E+00  0.00000000000E+00 -0.46861761157E+03  0.28453096449E+04  0.28064540812E+04 0.  0.
        3    1    3    3  502    0 -0.92636998445E+03 -0.10500521712E+04 -0.32653643035E+03  0.14378445538E+04  0.10100000352E+00 0. -1.
       -3    1    3    3    0  502  0.92636998445E+03  0.10500521712E+04 -0.14208118123E+03  0.14074650911E+04  0.10100000352E+00 0.  1.
</event>
<event>
 5   0  0.2540684E-05  0.2631554E+04  0.7818609E-02  0.8357561E-01
        2   -1    0    0  501    0  0.00000000000E+00  0.00000000000E+00  0.16616345652E+04  0.16616345652E+04  0.25500000920E-02 0. -1.
       -2   -1    0    0    0  501  0.00000000000E+00  0.00000000000E+00 -0.10419072185E+04  0.10419072185E+04  0.25500000920E-02 0.  1.
    10030    2    1    2    0    0  0.00000000000E+00  0.00000000000E+00  0.61972734670E+03  0.27035417836E+04  0.26315539500E+04 0.  0.
        2    1    3    3  502    0 -0.29397425436E+03  0.90365699366E+03  0.12448432260E+04  0.15660943400E+04  0.25500000920E-02 0. -1.
       -2    1    3    3    0  502  0.29397425436E+03 -0.90365699366E+03 -0.62511587933E+03  0.11374474436E+04  0.25500000920E-02 0.  1.
</event>
<event>
 5   0  0.2540232E-05  0.2238611E+04  0.7818609E-02  0.8502527E-01
        2   -1    0    0  501    0  0.00000000000E+00  0.00000000000E+00  0.10842384180E+04  0.10842384180E+04  0.25500000920E-02 0. -1.
       -2   -1    0    0    0  501  0.00000000000E+00  0.00000000000E+00 -0.11555066986E+04  0.11555066986E+04  0.25500000920E-02 0.  1.
    10030    2    1    2    0    0  0.00000000000E+00  0.00000000000E+00 -0.71268280570E+02  0.22397451167E+04  0.22386109577E+04 0.  0.
        1    1    3    3  502    0 -0.67710956126E+02 -0.11153119227E+04 -0.10154085005E+03  0.11219696978E+04  0.50400001928E-02 0. -1.
       -1    1    3    3    0  502  0.67710956126E+02  0.11153119227E+04  0.30272569478E+02  0.11177754189E+04  0.50400001928E-02 0.  1.
</event>
<event>
 5   0  0.2641216E-05  0.2737169E+04  0.7818609E-02  0.8323045E-01
        2   -1    0    0  501    0  0.00000000000E+00  0.00000000000E+00  0.19675906191E+04  0.19675906191E+04  0.25500000920E-02 0.  1.
       -2   -1    0    0    0  501  0.00000000000E+00  0.00000000000E+00 -0.95193787761E+03  0.95193787761E+03  0.25500000920E-02 0. -1.
    10030    2    1    2    0    0  0.00000000000E+00  0.00000000000E+00  0.10156527415E+04  0.29195284967E+04  0.27371693685E+04 0.  0.
        5    1    3    3  502    0 -0.99880811889E+03  0.30943225379E+03 -0.43396993244E+03  0.11321298381E+04  0.46999998093E+01 0. -1.
       -5    1    3    3    0  502  0.99880811889E+03 -0.30943225379E+03  0.14496226739E+04  0.17873986586E+04  0.46999998093E+01 0.  1.
</event>
<event>
 5   0  0.1036691E-05  0.2595067E+04  0.7818609E-02  0.8369879E-01
       -1   -1    0    0    0  501  0.00000000000E+00  0.00000000000E+00  0.12676377456E+04  0.12676377457E+04  0.50400001928E-02 0. -1.
        1   -1    0    0  501    0  0.00000000000E+00  0.00000000000E+00 -0.13281339102E+04  0.13281339102E+04  0.50400001928E-02 0.  1.
    10030    2    1    2    0    0  0.00000000000E+00  0.00000000000E+00 -0.60496164595E+02  0.25957716559E+04  0.25950666087E+04 0.  0.
        4    1    3    3  502    0 -0.50918950064E+03  0.89686931550E+03  0.75733013820E+03  0.12795307999E+04  0.12699999809E+01 0. -1.
       -4    1    3    3    0  502  0.50918950064E+03 -0.89686931550E+03 -0.81782630280E+03  0.13162408560E+04  0.12699999809E+01 0.  1.
</event>
<event>
 5   0  0.1096672E-05  0.2722872E+04  0.7818609E-02  0.8327622E-01
        1   -1    0    0  501    0  0.00000000000E+00  0.00000000000E+00  0.10040261280E+04  0.10040261280E+04  0.50400001928E-02 0. -1.
       -1   -1    0    0    0  501  0.00000000000E+00  0.00000000000E+00 -0.18460749836E+04  0.18460749836E+04  0.50400001928E-02 0.  1.
    10030    2    1    2    0    0  0.00000000000E+00  0.00000000000E+00 -0.84204885560E+03  0.28501011116E+04  0.27228716590E+04 0.  0.
        1    1    3    3  502    0 -0.52435453771E+03  0.74882045904E+02 -0.17338012552E+04  0.18129042430E+04  0.50400001928E-02 0.  1.
       -1    1    3    3    0  502  0.52435453771E+03 -0.74882045904E+02  0.89175239956E+03  0.10371968686E+04  0.50400001928E-02 0. -1.
</event>
<event>
 5   0  0.1005265E-05  0.2666755E+04  0.7818609E-02  0.8345873E-01
        1   -1    0    0  501    0  0.00000000000E+00  0.00000000000E+00  0.17454265262E+04  0.17454265262E+04  0.50400001928E-02 0.  1.
       -1   -1    0    0    0  501  0.00000000000E+00  0.00000000000E+00 -0.10186024463E+04  0.10186024463E+04  0.50400001928E-02 0. -1.
    10030    2    1    2    0    0  0.00000000000E+00  0.00000000000E+00  0.72682407987E+03  0.27640289726E+04  0.26667551290E+04 0.  0.
        3    1    3    3  502    0  0.38082858188E+03 -0.15082837385E+03 -0.95177660295E+03  0.10361748498E+04  0.10100000352E+00 0. -1.
       -3    1    3    3    0  502 -0.38082858188E+03  0.15082837385E+03  0.16786006828E+04  0.17278541228E+04  0.10100000352E+00 0.  1.
</event>
<event>
 5   0  0.2615843E-05  0.2626923E+04  0.7818609E-02  0.8359113E-01
       -2   -1    0    0    0  501  0.00000000000E+00  0.00000000000E+00  0.10337222155E+04  0.10337222155E+04  0.25500000920E-02 0. -1.
        2   -1    0    0  501    0  0.00000000000E+00  0.00000000000E+00 -0.16689025595E+04  0.16689025595E+04  0.25500000920E-02 0.  1.
    10030    2    1    2    0    0  0.00000000000E+00  0.00000000000E+00 -0.63518034398E+03  0.27026247751E+04  0.26269234106E+04 0.  0.
        3    1    3    3  502    0  0.57814383432E+03 -0.24029854458E+02 -0.15307025237E+04  0.16364223029E+04  0.10100000352E+00 0.  1.
       -3    1    3    3    0  502 -0.57814383432E+03  0.24029854458E+02  0.89552217974E+03  0.10662024722E+04  0.10100000352E+00 0. -1.
</event>
<event>
 5   0  0.2540684E-05  0.2623366E+04  0.7818609E-02  0.8360307E-01
        2   -1    0    0  501    0  0.00000000000E+00  0.00000000000E+00  0.17542971410E+04  0.17542971410E+04  0.25500000920E-02 0. -1.
       -2   -1    0    0    0  501  0.00000000000E+00  0.00000000000E+00 -0.98074199131E+03  0.98074199131E+03  0.25500000920E-02 0.  1.
    10030    2    1    2    0    0  0.00000000000E+00  0.00000000000E+00  0.77355514967E+03  0.27350391323E+04  0.26233664414E+04 0.  0.
        2    1    3    3  502    0  0.36376410764E+03 -0.49422009714E+03 -0.82185341248E+03  0.10256806823E+04  0.25500000920E-02 0.  1.
       -2    1    3    3    0  502 -0.36376410764E+03  0.49422009714E+03  0.15954085621E+04  0.17093584500E+04  0.25500000920E-02 0. -1.
</event>
<event>
 5   0  0.9971923E-06  0.2636182E+04  0.7818609E-02  0.8356014E-01
        1   -1    0    0  501    0  0.00000000000E+00  0.00000000000E+00  0.99470739223E+03  0.99470739225E+03  0.50400001928E-02 0.  1.
       -1   -1    0    0    0  501  0.00000000000E+00  0.00000000000E+00 -0.17466080905E+04  0.17466080905E+04  0.50400001928E-02 0. -1.
    10030    2    1    2    0    0  0.00000000000E+00  0.00000000000E+00 -0.75190069828E+03  0.27413154828E+04  0.26361820719E+04 0.  0.
        2    1    3    3  502    0  0.75797313961E+03  0.85684359426E+03 -0.10567823677E+04  0.15573994985E+04  0.25500000920E-02 0. -1.
       -2    1    3    3    0  502 -0.75797313961E+03 -0.85684359426E+03  0.30488166940E+03  0.11839159842E+04  0.25500000920E-02 0.  1.
</event>
<event>
 5   0  0.9971923E-06  0.2326742E+04  0.7818609E-02  0.8467451E-01
        1   -1    0    0  501    0  0.00000000000E+00  0.00000000000E+00  0.81276371331E+03  0.81276371333E+03  0.50400001928E-02 0.  1.
       -1   -1    0    0    0  501  0.00000000000E+00  0.00000000000E+00 -0.16652223790E+04  0.16652223790E+04  0.50400001928E-02 0. -1.
    10030    2    1    2    0    0  0.00000000000E+00  0.00000000000E+00 -0.85245866573E+03  0.24779860924E+04  0.23267422069E+04 0.  0.
        2    1    3    3  502    0  0.99357952189E+03  0.44481028972E+03  0.10779802226E+02  0.10886563573E+04  0.25500000920E-02 0.  1.
       -2    1    3    3    0  502 -0.99357952189E+03 -0.44481028972E+03 -0.86323846795E+03  0.13893297351E+04  0.25500000920E-02 0. -1.
</event>
<event>
 5   0  0.2516518E-05  0.2729954E+04  0.7818609E-02  0.8325351E-01
        2   -1    0    0  501    0  0.00000000000E+00  0.00000000000E+00  0.21647837408E+04  0.21647837408E+04  0.25500000920E-02 0. -1.
       -2   -1    0    0    0  501  0.00000000000E+00  0.00000000000E+00 -0.86066924390E+03  0.86066924391E+03  0.25500000920E-02 0.  1.
    10030    2    1    2    0    0  0.00000000000E+00  0.00000000000E+00  0.13041144969E+04  0.30254529848E+04  0.27299544212E+04 0.  0.
        4    1    3    3  502    0 -0.71466948640E+03  0.58183070831E+02 -0.63513897887E+03  0.95788354193E+03  0.12699999809E+01 0.  1.
       -4    1    3    3    0  502  0.71466948640E+03 -0.58183070831E+02  0.19392534758E+04  0.20675694428E+04  0.12699999809E+01 0. -1.
</event>
<event>
 5   0  0.1005265E-05  0.2920689E+04  0.7818609E-02  0.8266748E-01
        1   -1    0    0  501    0  0.00000000000E+00  0.00000000000E+00  0.93611565331E+03  0.93611565333E+03  0.50400001928E-02 0.  1.
       -1   -1    0    0    0  501  0.00000000000E+00  0.00000000000E+00 -0.22781435002E+04  0.22781435002E+04  0.50400001928E-02 0. -1.
    10030    2    1    2    0    0  0.00000000000E+00  0.00000000000E+00 -0.13420278469E+04  0.32142591536E+04  0.29206888168E+04 0.  0.
        3    1    3    3  502    0  0.43644860671E+03  0.28647218265E+03  0.82990818272E+03  0.98045973894E+03  0.10100000352E+00 0.  1.
       -3    1    3    3    0  502 -0.43644860671E+03 -0.28647218265E+03 -0.21719360296E+04  0.22337994146E+04  0.10100000352E+00 0. -1.
</event>
<event>
 5   0  0.2540232E-05  0.2710625E+04  0.7818609E-02  0.8331566E-01
       -2   -1    0    0    0  501  0.00000000000E+00  0.00000000000E+00  0.98470481642E+03  0.98470481642E+03  0.25500000920E-02 0.  1.
        2   -1    0    0  501    0  0.00000000000E+00  0.00000000000E+00 -0.18654033704E+04  0.18654033704E+04  0.25500000920E-02 0. -1.
    10030    2    1    2    0    0  0.00000000000E+00  0.00000000000E+00 -0.88069855395E+03  0.28501081868E+04  0.27106247866E+04 0.  0.
        1    1    3    3  502    0  0.60022366148E+02  0.13506934672E+04 -0.53952220872E+03  0.14556990556E+04  0.50400001928E-02 0.  1.
       -1    1    3    3    0  502 -0.60022366148E+02 -0.13506934672E+04 -0.34117634523E+03  0.13944091312E+04  0.50400001928E-02 0. -1.
</event>
<event>
 5   0  0.9971923E-06  0.2642019E+04  0.7818609E-02  0.8354067E-01
        1   -1    0    0  501    0  0.00000000000E+00  0.00000000000E+00  0.18158217378E+04  0.18158217379E+04  0.50400001928E-02 0. -1.
       -1   -1    0    0    0  501  0.00000000000E+00  0.00000000000E+00 -0.96103359271E+03  0.96103359272E+03  0.50400001928E-02 0.  1.
    10030    2    1    2    0    0  0.00000000000E+00  0.00000000000E+00  0.85478814514E+03  0.27768553306E+04  0.26420186892E+04 0.  0.
        2    1    3    3  502    0 -0.41269296485E+03  0.90354805309E+03 -0.48788289867E+03  0.11066816572E+04  0.25500000920E-02 0.  1.
       -2    1    3    3    0  502  0.41269296485E+03 -0.90354805309E+03  0.13426710438E+04  0.16701736734E+04  0.25500000920E-02 0. -1.
</event>
<event>
 5   0  0.1036691E-05  0.2711560E+04  0.7818609E-02  0.8331264E-01
        1   -1    0    0  501    0  0.00000000000E+00  0.00000000000E+00  0.10453967063E+04  0.10453967063E+04  0.50400001928E-02 0. -1.
       -1   -1    0    0    0  501  0.00000000000E+00  0.00000000000E+00 -0.17583177527E+04  0.17583177527E+04  0.50400001928E-02 0.  1.
    10030    2    1    2    0    0  0.00000000000E+00  0.00000000000E+00 -0.71292104647E+03  0.28037144590E+04  0.27115601319E+04 0.  0.
        4    1    3    3  502    0 -0.48012400330E+03  0.12022813698E+04 -0.77280951258E+03  0.15077253418E+04  0.12699999809E+01 0.  1.
       -4    1    3    3    0  502  0.48012400330E+03 -0.12022813698E+04  0.59888466110E+02  0.12959891172E+04  0.12699999809E+01 0. -1.
</event>
<event>
 5   0  0.2516518E-05  0.2751276E+04  0.7818609E-02  0.8318557E-01
       -2   -1    0    0    0  501  0.00000000000E+00  0.00000000000E+00  0.13808654480E+04  0.13808654480E+04  0.25500000920E-02 0. -1.
        2   -1    0    0  501    0  0.00000000000E+00  0.00000000000E+00 -0.13704306222E+04  0.13704306222E+04  0.25500000920E-02 0.  1.
    10030    2    1    2    0    0  0.00000000000E+00  0.00000000000E+00  0.10434825781E+02  0.27512960703E+04  0.27512762821E+04 0.  0.
        4    1    3    3  502    0 -0.73135284944E+03 -0.11648388943E+04  0.30752713364E+02  0.13757448827E+04  0.12699999809E+01 0.  1.
       -4    1    3    3    0  502  0.73135284944E+03  0.11648388943E+04 -0.20317887583E+02  0.13755511875E+04  0.12699999809E+01 0. -1.
</event>
<event>
 5   0  0.2540684E-05  0.2696856E+04  0.7818609E-02  0.8336026E-01
       -2   -1    0    0    0  501  0.00000000000E+00  0.00000000000E+00  0.78067972177E+03  0.78067972177E+03  0.25500000920E-02 0.  1.
        2   -1    0    0  501    0  0.00000000000E+00  0.00000000000E+00 -0.23290707614E+04  0.23290707614E+04  0.25500000920E-02 0. -1.
    10030    2    1    2    0    0  0.00000000000E+00  0.00000000000E+00 -0.15483910396E+04  0.31097504831E+04  0.26968561801E+04 0.  0.
        2    1    3    3  502    0 -0.19768162591E+03 -0.11467145583E+04 -0.15598516300E+04  0.19460651096E+04  0.25500000920E-02 0. -1.
       -2    1    3    3    0  502  0.19768162591E+03  0.11467145583E+04  0.11460590372E+02  0.11636853735E+04  0.25500000920E-02 0.  1.
</event>
<event>
 5   0  0.1041909E-05  0.2689548E+04  0.7818609E-02  0.8338404E-01
        1   -1    0    0  501    0  0.00000000000E+00  0.00000000000E+00  0.13161545795E+04  0.13161545795E+04  0.50400001928E-02 0.  1.
       -1   -1    0    0    0  501  0.00000000000E+00  0.00000000000E+00 -0.13740152788E+04  0.13740152788E+04  0.50400001928E-02 0. -1.
    10030    2    1    2    0    0  0.00000000000E+00  0.00000000000E+00 -0.57860699311E+02  0.26901698584E+04  0.26895475468E+04 0.  0.
        5    1    3    3  502    0 -0.75771418821E+03  0.74296964697E+03  0.79725091701E+03  0.13273152610E+04  0.46999998093E+01 0.  1.
       -5    1    3    3    0  502  0.75771418821E+03 -0.74296964697E+03 -0.85511161632E+03  0.13628545974E+04  0.46999998093E+01 0. -1.
</event>
<event>
 5   0  0.2641216E-05  0.2572206E+04  0.7818609E-02  0.8377704E-01
       -2   -1    0    0    0  501  0.00000000000E+00  0.00000000000E+00  0.12755591012E+04  0.12755591012E+04  0.25500000920E-02 0. -1.
        2   -1    0    0  501    0  0.00000000000E+00  0.00000000000E+00 -0.12967339780E+04  0.12967339780E+04  0.25500000920E-02 0.  1.
    10030    2    1    2    0    0  0.00000000000E+00  0.00000000000E+00 -0.21174876836E+02  0.25722930792E+04  0.25722059230E+04 0.  0.
        5    1    3    3  502    0 -0.12411730411E+04  0.92729191679E+02 -0.33452667287E+03  0.12888131772E+04  0.46999998093E+01 0.  1.
       -5    1    3    3    0  502  0.12411730411E+04 -0.92729191679E+02  0.31335179603E+03  0.12834799020E+04  0.46999998093E+01 0. -1.
</event>
<event>
 5   0  0.2540684E-05  0.2336631E+04  0.7818609E-02  0.8463616E-01
        2   -1    0    0  501    0  0.00000000000E+00  0.00000000000E+00  0.17318411039E+04  0.17318411039E+04  0.25500000920E-02 0. -1.
       -2   -1    0    0    0  501  0.00000000000E+00  0.00000000000E+00 -0.78815638606E+03  0.78815638607E+03  0.25500000920E-02 0.  1.
    10030    2    1    2    0    0  0.00000000000E+00  0.00000000000E+00  0.94368471782E+03  0.25199974899E+04  0.23366314435E+04 0.  0.
        2    1    3    3  502    0  0.10665177448E+04  0.25449360467E+02  0.98551090636E+03  0.14523565391E+04  0.25500000920E-02 0. -1.
       -2    1    3    3    0  502 -0.10665177448E+04 -0.25449360467E+02 -0.41826188546E+02  0.10676409509E+04  0.25500000920E-02 0.  1.
</event>
<event>
 5   0  0.2641216E-05  0.2669074E+04  0.7818609E-02  0.8345110E-01
        2   -1    0    0  501    0  0.00000000000E+00  0.00000000000E+00  0.12536383239E+04  0.12536383239E+04  0.25500000920E-02 0. -1.
       -2   -1    0    0    0  501  0.00000000000E+00  0.00000000000E+00 -0.14206561180E+04  0.14206561180E+04  0.25500000920E-02 0.  1.
    10030    2    1    2    0    0  0.00000000000E+00  0.00000000000E+00 -0.16701779412E+03  0.26742944418E+04  0.26690739626E+04 0.  0.
        5    1    3    3  502    0 -0.10593663610E+04  0.80512775923E+03  0.19058648486E+02  0.13307415668E+04  0.46999998093E+01 0. -1.
       -5    1    3    3    0  502  0.10593663610E+04 -0.80512775923E+03 -0.18607644261E+03  0.13435528750E+04  0.46999998093E+01 0.  1.
</event>
<event>
 5   0  0.1005265E-05  0.2136992E+04  0.7818609E-02  0.8545121E-01
        1   -1    0    0  501    0  0.00000000000E+00  0.00000000000E+00  0.15672883565E+04  0.15672883565E+04  0.50400001928E-02 0.  1.
       -1   -1    0    0    0  501  0.00000000000E+00  0.00000000000E+00 -0.72844540571E+03  0.72844540573E+03  0.50400001928E-02 0. -1.
    10030    2    1    2    0    0  0.00000000000E+00  0.00000000000E+00  0.83884295083E+03  0.22957337623E+04  0.21369922815E+04 0.  0.
        3    1    3    3  502    0  0.26381313340E+03  0.32711204065E+03 -0.63593991326E+03  0.76224618068E+03  0.10100000352E+00 0. -1.
       -3    1    3    3    0  502 -0.26381313340E+03 -0.32711204065E+03  0.14747828641E+04  0.15334875816E+04  0.10100000352E+00 0.  1.
</event>
<event>
 5   0  0.2540232E-05  0.2671869E+04  0.7818609E-02  0.8344191E-01
       -2   -1    0    0    0  501  0.00000000000E+00  0.00000000000E+00  0.74179512904E+03  0.74179512904E+03  0.25500000920E-02 0. -1.
        2   -1    0    0  501    0  0.00000000000E+00  0.00000000000E+00 -0.24059484714E+04  0.24059484714E+04  0.25500000920E-02 0.  1.
    10030    2    1    2    0    0  0.00000000000E+00  0.00000000000E+00 -0.16641533424E+04  0.31477436005E+04  0.26718689016E+04 0.  0.
        1    1    3    3  502    0  0.75453166516E+03  0.92587660687E+03 -0.12702667435E+03  0.12011250147E+04  0.50400001928E-02 0. -1.
       -1    1    3    3    0  502 -0.75453166516E+03 -0.92587660687E+03 -0.15371266680E+04  0.19466185858E+04  0.50400001928E-02 0.  1.
</event>
<event>
 5   0  0.1005265E-05  0.2719226E+04  0.7818609E-02  0.8328794E-01
       -1   -1    0    0    0  501  0.00000000000E+00  0.00000000000E+00  0.13067508693E+04  0.13067508693E+04  0.50400001928E-02 0.  1.
        1   -1    0    0  501    0  0.00000000000E+00  0.00000000000E+00 -0.14146136526E+04  0.14146136526E+04  0.50400001928E-02 0. -1.
    10030    2    1    2    0    0  0.00000000000E+00  0.00000000000E+00 -0.10786278331E+03  0.27213645219E+04  0.27192260812E+04 0.  0.
        3    1    3    3  502    0  0.92296893047E+03 -0.76234272466E+03  0.59117582156E+03  0.13351130808E+04  0.10100000352E+00 0.  1.
       -3    1    3    3    0  502 -0.92296893047E+03  0.76234272466E+03 -0.69903860486E+03  0.13862514410E+04  0.10100000352E+00 0. -1.
</event>
<event>
 5   0  0.2540684E-05  0.2719116E+04  0.7818609E-02  0.8328829E-01
       -2   -1    0    0    0  501  0.00000000000E+00  0.00000000000E+00  0.95456447128E+03  0.95456447128E+03  0.25500000920E-02 0.  1.
        2   -1    0    0  501    0  0.00000000000E+00  0.00000000000E+00 -0.19363788347E+04  0.19363788347E+04  0.25500000920E-02 0. -1.
    10030    2    1    2    0    0  0.00000000000E+00  0.00000000000E+00 -0.98181436339E+03  0.28909433059E+04  0.27191163554E+04 0.  0.
        2    1    3    3  502    0 -0.16240602160E+03  0.18983915655E+03 -0.19117647418E+04  0.19280194629E+04  0.25500000920E-02 0. -1.
       -2    1    3    3    0  502  0.16240602160E+03 -0.18983915655E+03  0.92995037842E+03  0.96292384306E+03  0.25500000920E-02 0.  1.
</event>
<event>
 5   0  0.2615843E-05  0.2436543E+04  0.7818609E-02  0.8425948E-01
       -2   -1    0    0    0  501  0.00000000000E+00  0.00000000000E+00  0.11186148620E+04  0.11186148620E+04  0.25500000920E-02 0.  1.
        2   -1    0    0  501    0  0.00000000000E+00  0.00000000000E+00 -0.13268060967E+04  0.13268060967E+04  0.25500000920E-02 0. -1.
    10030    2    1    2    0    0  0.00000000000E+00  0.00000000000E+00 -0.20819123472E+03  0.24454209587E+04  0.24365426479E+04 0.  0.
        3    1    3    3  502    0 -0.63982462154E+03  0.89792711066E+03 -0.62418880643E+03  0.12669886813E+04  0.10100000352E+00 0. -1.
       -3    1    3    3    0  502  0.63982462154E+03 -0.89792711066E+03  0.41599757171E+03  0.11784322773E+04  0.10100000352E+00 0.  1.
</event>
<event>
 5   0  0.2540232E-05  0.2707225E+04  0.7818609E-02  0.8332665E-01
        2   -1    0    0  501    0  0.00000000000E+00  0.00000000000E+00  0.12737326040E+04  0.12737326040E+04  0.25500000920E-02 0.  1.
       -2   -1    0    0    0  501  0.00000000000E+00  0.00000000000E+00 -0.14385019663E+04  0.14385019663E+04  0.25500000920E-02 0. -1.
    10030    2    1    2    0    0  0.00000000000E+00  0.00000000000E+00 -0.16476936229E+03  0.27122345702E+04  0.27072250408E+04 0.  0.
        1    1    3    3  502    0 -0.69051568152E+03 -0.66646622944E+03 -0.10387597879E+04  0.14142174650E+04  0.50400001928E-02 0. -1.
       -1    1    3    3    0  502  0.69051568152E+03  0.66646622944E+03  0.87399042559E+03  0.12980171052E+04  0.50400001928E-02 0.  1.
</event>
<event>
 5   0  0.2641216E-05  0.2712921E+04  0.7818609E-02  0.8330825E-01
        2   -1    0    0  501    0  0.00000000000E+00  0.00000000000E+00  0.10431416904E+04  0.10431416904E+04  0.25500000920E-02 0. -1.
       -2   -1    0    0    0  501  0.00000000000E+00  0.00000000000E+00 -0.17638878726E+04  0.17638878726E+04  0.25500000920E-02 0.  1.
    10030    2    1    2    0    0  0.00000000000E+00  0.00000000000E+00 -0.72074618217E+03  0.28070295630E+04  0.27129209182E+04 0.  0.
        5    1    3    3  502    0  0.69258954164E+03  0.11471926152E+04 -0.14276414081E+03  0.13476404786E+04  0.46999998093E+01 0. -1.
       -5    1    3    3    0  502 -0.69258954164E+03 -0.11471926152E+04 -0.57798204136E+03  0.14593890844E+04  0.46999998093E+01 0.  1.
</event>
<event>
 5   0  0.1036691E-05  0.2526904E+04  0.7818609E-02  0.8393463E-01
       -1   -1    0    0    0  501  0.00000000000E+00  0.00000000000E+00  0.88970739857E+03  0.88970739858E+03  0.50400001928E-02 0.  1.
        1   -1    0    0  501    0  0.00000000000E+00  0.00000000000E+00 -0.17941971495E+04  0.17941971495E+04  0.50400001928E-02 0. -1.
    10030    2    1    2    0    0  0.00000000000E+00  0.00000000000E+00 -0.90448975097E+03  0.26839045481E+04  0.25269036218E+04 0.  0.
        4    1    3    3  502    0  0.76233713582E+03  0.91038007747E+03 -0.91075999105E+03  0.14964742458E+04  0.12699999809E+01 0. -1.
       -4    1    3    3    0  502 -0.76233713582E+03 -0.91038007747E+03  0.62702400764E+01  0.11874303023E+04  0.12699999809E+01 0.  1.
</event>
<event>
 5   0  0.1041909E-05  0.2161122E+04  0.7818609E-02  0.8534787E-01
       -1   -1    0    0    0  501  0.00000000000E+00  0.00000000000E+00  0.14832262368E+04  0.14832262369E+04  0.50400001928E-02 0.  1.
        1   -1    0    0  501    0  0.00000000000E+00  0.00000000000E+00 -0.78721087161E+03  0.78721087163E+03  0.50400001928E-02 0. -1.
    10030    2    1    2    0    0  0.00000000000E+00  0.00000000000E+00  0.69601536524E+03  0.22704371085E+04  0.21611217631E+04 0.  0.
        5    1    3    3  502    0  0.81416201904E+03  0.21215568786E+03 -0.36431519231E+03  0.91685193924E+03  0.46999998093E+01 0. -1.
       -5    1    3    3    0  502 -0.81416201904E+03 -0.21215568786E+03  0.10603305575E+04  0.13535851692E+04  0.46999998093E+01 0.  1.
</event>
<event>
 5   0  0.2516518E-05  0.2767566E+04  0.7818609E-02  0.8313409E-01
        2   -1    0    0  501    0  0.00000000000E+00  0.00000000000E+00  0.20252686673E+04  0.20252686673E+04  0.25500000920E-02 0.  1.
       -2   -1    0    0    0  501  0.00000000000E+00  0.00000000000E+00 -0.94548205894E+03  0.94548205895E+03  0.25500000920E-02 0. -1.
    10030    2    1    2    0    0  0.00000000000E+00  0.00000000000E+00  0.10797866084E+04  0.29707507263E+04  0.27675658543E+04 0.  0.
        4    1    3    3  502    0  0.55000051966E+03  0.75397649636E+03  0.16366037139E+04  0.18839995907E+04  0.12699999809E+01 0.  1.
       -4    1    3    3    0  502 -0.55000051966E+03 -0.75397649636E+03 -0.55681710551E+03  0.10867511355E+04  0.12699999809E+01 0. -1.
</event>
<event>
 5   0  0.1036691E-05  0.2727287E+04  0.7818609E-02  0.8326205E-01
        1   -1    0    0  501    0  0.00000000000E+00  0.00000000000E+00  0.16451827997E+04  0.16451827997E+04  0.50400001928E-02 0.  1.
       -1   -1    0    0    0  501  0.00000000000E+00  0.00000000000E+00 -0.11302841154E+04  0.11302841154E+04  0.50400001928E-02 0. -1.
    10030    2    1    2    0    0  0.00000000000E+00  0.00000000000E+00  0.51489868431E+03  0.27754669150E+04  0.27272872862E+04 0.  0.
        4    1    3    3  502    0 -0.11270122495E+04 -0.64362201262E+03 -0.16841243286E+03  0.13087284921E+04  0.12699999809E+01 0. -1.
       -4    1    3    3    0  502  0.11270122495E+04  0.64362201262E+03  0.68331111717E+03  0.14667384229E+04  0.12699999809E+01 0.  1.
</event>
<event>
 5   0  0.1096672E-05  0.2748968E+04  0.7818609E-02  0.8319289E-01
        1   -1    0    0  501    0  0.00000000000E+00  0.00000000000E+00  0.11570613752E+04  0.11570613753E+04  0.50400001928E-02 0.  1.
       -1   -1    0    0    0  501  0.00000000000E+00  0.00000000000E+00 -0.16327623537E+04  0.16327623537E+04  0.50400001928E-02 0. -1.
    10030    2    1    2    0    0  0.00000000000E+00  0.00000000000E+00 -0.47570097841E+03  0.27898237289E+04  0.27489679914E+04 0.  0.
        1    1    3    3  502    0 -0.62645169529E+03  0.11941878308E+04 -0.50765872731E+03  0.14409176538E+04  0.50400001928E-02 0.  1.
       -1    1    3    3    0  502  0.62645169529E+03 -0.11941878308E+04  0.31957748898E+02  0.13489060751E+04  0.50400001928E-02 0. -1.
</event>
<event>
 5   0  0.2540232E-05  0.2001240E+04  0.7818609E-02  0.8606041E-01
        2   -1    0    0  501    0  0.00000000000E+00  0.00000000000E+00  0.94692808692E+03  0.94692808693E+03  0.25500000920E-02 0.  1.
       -2   -1    0    0    0  501  0.00000000000E+00  0.00000000000E+00 -0.10573565137E+04  0.10573565137E+04  0.25500000920E-02 0. -1.
    10030    2    1    2    0    0  0.00000000000E+00  0.00000000000E+00 -0.11042842678E+03  0.20042846006E+04  0.20012401962E+04 0.  0.
        1    1    3    3  502    0 -0.82209788332E+03  0.21912947100E+03  0.47225379044E+03  0.97308082780E+03  0.50400001928E-02 0.  1.
       -1    1    3    3    0  502  0.82209788332E+03 -0.21912947100E+03 -0.58268221722E+03  0.10312037728E+04  0.50400001928E-02 0. -1.
</event>
<event>
 5   0  0.1041909E-05  0.2729908E+04  0.7818609E-02  0.8325365E-01
       -1   -1    0    0    0  501  0.00000000000E+00  0.00000000000E+00  0.13263223107E+04  0.13263223107E+04  0.50400001928E-02 0. -1.
        1   -1    0    0  501    0  0.00000000000E+00  0.00000000000E+00 -0.14047113948E+04  0.14047113948E+04  0.50400001928E-02 0.  1.
    10030    2    1    2    0    0  0.00000000000E+00  0.00000000000E+00 -0.78389084118E+02  0.27310337055E+04  0.27299084695E+04 0.  0.
        5    1    3    3  502    0  0.45586633167E+03  0.63861271003E+03  0.10781533166E+04  0.13334455256E+04  0.46999998093E+01 0. -1.
       -5    1    3    3    0  502 -0.45586633167E+03 -0.63861271003E+03 -0.11565424007E+04  0.13975881798E+04  0.46999998093E+01 0.  1.
</event>
<event>
 5   0  0.2516518E-05  0.2601258E+04  0.7818609E-02  0.8367774E-01
        2   -1    0    0  501    0  0.00000000000E+00  0.00000000000E+00  0.11353351642E+04  0.11353351642E+04  0.25500000920E-02 0. -1.
       -2   -1    0    0    0  501  0.00000000000E+00  0.00000000000E+00 -0.14899882379E+04  0.14899882379E+04  0.25500000920E-02 0.  1.
    10030    2    1    2    0    0  0.00000000000E+00  0.00000000000E+00 -0.35465307370E+03  0.26253234021E+04  0.26012581884E+04 0.  0.
        4    1    3    3  502    0  0.32416445906E+03  0.32994171429E+03  0.10495223135E+04  0.11469275612E+04  0.12699999809E+01 0. -1.
       -4    1    3    3    0  502 -0.32416445906E+03 -0.32994171429E+03 -0.14041753872E+04  0.14783958408E+04  0.12699999809E+01 0.  1.
</event>
<event>
 5   0  0.2540232E-05  0.2736865E+04  0.7818609E-02  0.8323142E-01
        2   -1    0    0  501    0  0.00000000000E+00  0.00000000000E+00  0.13596772188E+04  0.13596772188E+04  0.25500000920E-02 0.  1.
       -2   -1    0    0    0  501  0.00000000000E+00  0.00000000000E+00 -0.13772444419E+04  0.13772444419E+04  0.25500000920E-02 0. -1.
    10030    2    1    2    0    0  0.00000000000E+00  0.00000000000E+00 -0.17567223036E+02  0.27369216607E+04  0.27368652816E+04 0.  0.
        1    1    3    3  502    0 -0.35228142428E+01 -0.13652711069E+04 -0.10168486241E+03  0.13690571269E+04  0.50400001928E-02 0.  1.
       -1    1    3    3    0  502  0.35228142428E+01  0.13652711069E+04  0.84117639374E+02  0.13678645338E+04  0.50400001928E-02 0. -1.
</event>
<event>
 5   0  0.2615843E-05  0.2852187E+04  0.7818609E-02  0.8287247E-01
       -2   -1    0    0    0  501  0.00000000000E+00  0.00000000000E+00  0.12253331986E+04  0.12253331986E+04  0.25500000920E-02 0. -1.
        2   -1    0    0  501    0  0.00000000000E+00  0.00000000000E+00 -0.16597471216E+04  0.16597471216E+04  0.25500000920E-02 0.  1.
    10030    2    1    2    0    0  0.00000000000E+00  0.00000000000E+00 -0.43441392299E+03  0.28850803202E+04  0.28521874057E+04 0.  0.
        3    1    3    3  502    0  0.70615574567E+03 -0.11067354298E+04 -0.78060786675E+03  0.15273728754E+04  0.10100000352E+00 0.  1.
       -3    1    3    3    0  502 -0.70615574567E+03  0.11067354298E+04  0.34619394376E+03  0.13577074448E+04  0.10100000352E+00 0. -1.
</event>
<event>
 5   0  0.2540684E-05  0.2680761E+04  0.7818609E-02  0.8341274E-01
        2   -1    0    0  501    0  0.00000000000E+00  0.00000000000E+00  0.20061428570E+04  0.20061428570E+04  0.25500000920E-02 0.  1.
       -2   -1    0    0    0  501  0.00000000000E+00  0.00000000000E+00 -0.89555931833E+03  0.89555931833E+03  0.25500000920E-02 0. -1.
    10030    2    1    2    0    0  0.00000000000E+00  0.00000000000E+00  0.11105835387E+04  0.29017021753E+04  0.26807610334E+04 0.  0.
        2    1    3    3  502    0  0.63011364652E+03  0.15212895315E+03  0.18252000374E+04  0.19368896722E+04  0.25500000920E-02 0.  1.
       -2    1    3    3    0  502 -0.63011364652E+03 -0.15212895315E+03 -0.71461649871E+03  0.96481250311E+03  0.25500000920E-02 0. -1.
</event>
<event>
 5   0  0.2540232E-05  0.2688539E+04  0.7818609E-02  0.8338733E-01
       -2   -1    0    0    0  501  0.00000000000E+00  0.00000000000E+00  0.13065950857E+04  0.13065950857E+04  0.25500000920E-02 0.  1.
        2   -1    0    0  501    0  0.00000000000E+00  0.00000000000E+00 -0.13830304757E+04  0.13830304757E+04  0.25500000920E-02 0. -1.
    10030    2    1    2    0    0  0.00000000000E+00  0.00000000000E+00 -0.76435389961E+02  0.26896255614E+04  0.26885392487E+04 0.  0.
        1    1    3    3  502    0 -0.70216777263E+03  0.26712793914E+03  0.10769810826E+04  0.13131203940E+04  0.50400001928E-02 0.  1.
       -1    1    3    3    0  502  0.70216777263E+03 -0.26712793914E+03 -0.11534164726E+04  0.13765051674E+04  0.50400001928E-02 0. -1.
</event>
<event>
 5   0  0.2615843E-05  0.2721700E+04  0.7818609E-02  0.8327998E-01
       -2   -1    0    0    0  501  0.00000000000E+00  0.00000000000E+00  0.76572066345E+03  0.76572066345E+03  0.25500000920E-02 0. -1.
        2   -1    0    0  501    0  0.00000000000E+00  0.00000000000E+00 -0.24185228958E+04  0.24185228958E+04  0.25500000920E-02 0.  1.
    10030    2    1    2    0    0  0.00000000000E+00  0.00000000000E+00 -0.16528022323E+04  0.31842435592E+04  0.27217001718E+04 0.  0.
        3    1    3    3  502    0  0.11648018453E+04  0.54050653488E+03 -0.13535295828E+04  0.18657312226E+04  0.10100000352E+00 0.  1.
       -3    1    3    3    0  502 -0.11648018453E+04 -0.54050653488E+03 -0.29927264951E+03  0.13185123367E+04  0.10100000352E+00 0. -1.
</event>
<event>
 5   0  0.2540684E-05  0.2115595E+04  0.7818609E-02  0.8554404E-01
        2   -1    0    0  501    0  0.00000000000E+00  0.00000000000E+00  0.15856224998E+04  0.15856224998E+04  0.25500000920E-02 0. -1.
       -2   -1    0    0    0  501  0.00000000000E+00  0.00000000000E+00 -0.70567612561E+03  0.70567612561E+03  0.25500000920E-02 0.  1.
    10030    2    1    2    0    0  0.00000000000E+00  0.00000000000E+00  0.87994637418E+03  0.22912986254E+04  0.21155953699E+04 0.  0.
        2    1    3    3  502    0  0.83892790477E+03 -0.19626575940E+03  0.11046312485E+04  0.14009034488E+04  0.25500000920E-02 0. -1.
       -2    1    3    3    0  502 -0.83892790477E+03  0.19626575940E+03 -0.22468487434E+03  0.89039517658E+03  0.25500000920E-02 0.  1.
</event>
<event>
 5   0  0.1005265E-05  0.2694396E+04  0.7818609E-02  0.8336826E-01
        1   -1    0    0  501    0  0.00000000000E+00  0.00000000000E+00  0.96118674503E+03  0.96118674504E+03  0.50400001928E-02 0.  1.
       -1   -1    0    0    0  501  0.00000000000E+00  0.00000000000E+00 -0.18882308131E+04  0.18882308131E+04  0.50400001928E-02 0. -1.
    10030    2    1    2    0    0  0.00000000000E+00  0.00000000000E+00 -0.92704406808E+03  0.28494175582E+04  0.26943959836E+04 0.  0.
        3    1    3    3  502    0 -0.61974951936E+03 -0.19402576129E+03 -0.17117746669E+04  0.18308216689E+04  0.10100000352E+00 0. -1.
       -3    1    3    3    0  502  0.61974951936E+03  0.19402576129E+03  0.78473059880E+03  0.10185958893E+04  0.10100000352E+00 0.  1.
</event>
<event>
 5   0  0.1096672E-05  0.2635878E+04  0.7818609E-02  0.8356115E-01
       -1   -1    0    0    0  501  0.00000000000E+00  0.00000000000E+00  0.12886127485E+04  0.12886127485E+04  0.50400001928E-02 0.  1.
        1   -1    0    0  501    0  0.00000000000E+00  0.00000000000E+00 -0.13479325150E+04  0.13479325151E+04  0.50400001928E-02 0. -1.
    10030    2    1    2    0    0  0.00000000000E+00  0.00000000000E+00 -0.59319766525E+02  0.26365452636E+04  0.26358778599E+04 0.  0.
        1    1    3    3  502    0  0.80360716807E+03  0.68376567756E+03 -0.81957057011E+03  0.13360448727E+04  0.50400001928E-02 0. -1.
       -1    1    3    3    0  502 -0.80360716807E+03 -0.68376567756E+03  0.76025080358E+03  0.13005003909E+04  0.50400001928E-02 0.  1.
</event>
<event>
 5   0  0.2540684E-05  0.2638211E+04  0.7818609E-02  0.8355337E-01
        2   -1    0    0  501    0  0.00000000000E+00  0.00000000000E+00  0.19349126456E+04  0.19349126456E+04  0.25500000920E-02 0.  1.
       -2   -1    0    0    0  501  0.00000000000E+00  0.00000000000E+00 -0.89928557161E+03  0.89928557161E+03  0.25500000920E-02 0. -1.
    10030    2    1    2    0    0  0.00000000000E+00  0.00000000000E+00  0.10356270740E+04  0.28341982172E+04  0.26382107759E+04 0.  0.
        2    1    3    3  502    0 -0.30100098414E+03  0.12760927942E+04  0.36204320946E+03  0.13601800239E+04  0.25500000920E-02 0.  1.
       -2    1    3    3    0  502  0.30100098414E+03 -0.12760927942E+04  0.67358386456E+03  0.14740181934E+04  0.25500000920E-02 0. -1.
</event>
<event>
 5   0  0.2641216E-05  0.2693148E+04  0.7818609E-02  0.8337232E-01
       -2   -1    0    0    0  501  0.00000000000E+00  0.00000000000E+00  0.99845810673E+03  0.99845810673E+03  0.25500000920E-02 0.  1.
        2   -1    0    0  501    0  0.00000000000E+00  0.00000000000E+00 -0.18160617302E+04  0.18160617302E+04  0.25500000920E-02 0. -1.
    10030    2    1    2    0    0  0.00000000000E+00  0.00000000000E+00 -0.81760362348E+03  0.28145198369E+04  0.26931480144E+04 0.  0.
        5    1    3    3  502    0 -0.12453739772E+04  0.29254366404E+03  0.30501015787E+02  0.12796446930E+04  0.46999998093E+01 0.  1.
       -5    1    3    3    0  502  0.12453739772E+04 -0.29254366404E+03 -0.84810463927E+03  0.15348751439E+04  0.46999998093E+01 0. -1.
</event>
<event>
 5   0  0.2641216E-05  0.2654505E+04  0.7818609E-02  0.8349919E-01
       -2   -1    0    0    0  501  0.00000000000E+00  0.00000000000E+00  0.69959837935E+03  0.69959837936E+03  0.25500000920E-02 0. -1.
        2   -1    0    0  501    0  0.00000000000E+00  0.00000000000E+00 -0.25180148759E+04  0.25180148759E+04  0.25500000920E-02 0.  1.
    10030    2    1    2    0    0  0.00000000000E+00  0.00000000000E+00 -0.18184164966E+04  0.32176132553E+04  0.26545049455E+04 0.  0.
        5    1    3    3  502    0 -0.86111889645E+03 -0.17281715842E+03  0.29696193229E+03  0.92714616070E+03  0.46999998093E+01 0. -1.
       -5    1    3    3    0  502  0.86111889645E+03  0.17281715842E+03 -0.21153784289E+04  0.22904670946E+04  0.46999998093E+01 0.  1.
</event>
<event>
 5   0  0.1036691E-05  0.2749177E+04  0.7818609E-02  0.8319223E-01
        1   -1    0    0  501    0  0.00000000000E+00  0.00000000000E+00  0.14269172073E+04  0.14269172074E+04  0.50400001928E-02 0. -1.
       -1   -1    0    0    0  501  0.00000000000E+00  0.00000000000E+00 -0.13241783392E+04  0.13241783392E+04  0.50400001928E-02 0.  1.
    10030    2    1    2    0    0  0.00000000000E+00  0.00000000000E+00  0.10273886816E+03  0.27510955465E+04  0.27491765005E+04 0.  0.
        4    1    3    3  502    0 -0.33979110418E+03 -0.10616372911E+03  0.13799868897E+04  0.14251646082E+04  0.12699999809E+01 0. -1.
       -4    1    3    3    0  502  0.33979110418E+03  0.10616372911E+03 -0.12772480215E+04  0.13259309383E+04  0.12699999809E+01 0.  1.
</event>
<event>
 5   0  0.1041909E-05  0.2711861E+04  0.7818609E-02  0.8331167E-01
       -1   -1    0    0    0  501  0.00000000000E+00  0.00000000000E+00  0.82799645942E+03  0.82799645943E+03  0.50400001928E-02 0. -1.
        1   -1    0    0  501    0  0.00000000000E+00  0.00000000000E+00 -0.22204775871E+04  0.22204775871E+04  0.50400001928E-02 0.  1.
    10030    2    1    2    0    0  0.00000000000E+00  0.00000000000E+00 -0.13924811277E+04  0.30484740466E+04  0.27118610439E+04 0.  0.
        5    1    3    3  502    0  0.16468954020E+03 -0.59714712496E+03  0.65963372639E+03  0.90490114183E+03  0.46999998093E+01 0. -1.
       -5    1    3    3    0  502 -0.16468954020E+03  0.59714712496E+03 -0.20521148541E+04  0.21435729047E+04  0.46999998093E+01 0.  1.
</event>
<event>
 5   0  0.2540232E-05  0.2669513E+04  0.7818609E-02  0.8344965E-01
       -2   -1    0    0    0  501  0.00000000000E+00  0.00000000000E+00  0.80512859720E+03  0.80512859721E+03  0.25500000920E-02 0.  1.
        2   -1    0    0  501    0  0.00000000000E+00  0.00000000000E+00 -0.22127822587E+04  0.22127822587E+04  0.25500000920E-02 0. -1.
    10030    2    1    2    0    0  0.00000000000E+00  0.00000000000E+00 -0.14076536615E+04  0.30179108559E+04  0.26695125217E+04 0.  0.
        1    1    3    3  502    0 -0.73387392597E+03  0.77567530382E+03  0.20152131301E+03  0.10866710430E+04  0.50400001928E-02 0.  1.
       -1    1    3    3    0  502  0.73387392597E+03 -0.77567530382E+03 -0.16091749745E+04  0.19312398129E+04  0.50400001928E-02 0. -1.
</event>
<event>
 5   0  0.2516518E-05  0.2690910E+04  0.7818609E-02  0.8337960E-01
       -2   -1    0    0    0  501  0.00000000000E+00  0.00000000000E+00  0.15004174091E+04  0.15004174091E+04  0.25500000920E-02 0. -1.
        2   -1    0    0  501    0  0.00000000000E+00  0.00000000000E+00 -0.12064974485E+04  0.12064974485E+04  0.25500000920E-02 0.  1.
    10030    2    1    2    0    0  0.00000000000E+00  0.00000000000E+00  0.29391996065E+03  0.27069148576E+04  0.26909104599E+04 0.  0.
        4    1    3    3  502    0 -0.10125320059E+04  0.82901987301E+03  0.46147452184E+03  0.13876077832E+04  0.12699999809E+01 0. -1.
       -4    1    3    3    0  502  0.10125320059E+04 -0.82901987301E+03 -0.16755456119E+03  0.13193070744E+04  0.12699999809E+01 0.  1.
</event>
<event>
 5   0  0.2540684E-05  0.2709324E+04  0.7818609E-02  0.8331986E-01
       -2   -1    0    0    0  501  0.00000000000E+00  0.00000000000E+00  0.95426654323E+03  0.95426654323E+03  0.25500000920E-02 0. -1.
        2   -1    0    0  501    0  0.00000000000E+00  0.00000000000E+00 -0.19230577191E+04  0.19230577191E+04  0.25500000920E-02 0.  1.
    10030    2    1    2    0    0  0.00000000000E+00  0.00000000000E+00 -0.96879117590E+03  0.28773242624E+04  0.27093243749E+04 0.  0.
        2    1    3    3  502    0  0.41467931179E+02 -0.35334936553E+03 -0.18725559903E+04  0.19060538555E+04  0.25500000920E-02 0.  1.
       -2    1    3    3    0  502 -0.41467931179E+02  0.35334936553E+03  0.90376481439E+03  0.97127040683E+03  0.25500000920E-02 0. -1.
</event>
<event>
 5   0  0.2540684E-05  0.2659568E+04  0.7818609E-02  0.8348244E-01
        2   -1    0    0  501    0  0.00000000000E+00  0.00000000000E+00  0.10833157782E+04  0.10833157782E+04  0.25500000920E-02 0.  1.
       -2   -1    0    0    0  501  0.00000000000E+00  0.00000000000E+00 -0.16323272015E+04  0.16323272015E+04  0.25500000920E-02 0. -1.
    10030    2    1    2    0    0  0.00000000000E+00  0.00000000000E+00 -0.54901142330E+03  0.27156429797E+04  0.26595682451E+04 0.  0.
        2    1    3    3  502    0  0.76901134236E+03  0.83678949328E+03  0.43050887087E+03  0.12152913184E+04  0.25500000920E-02 0.  1.
       -2    1    3    3    0  502 -0.76901134236E+03 -0.83678949328E+03 -0.97952029417E+03  0.15003516613E+04  0.25500000920E-02 0. -1.
</event>
<event>
 5   0  0.9971923E-06  0.2758868E+04  0.7818609E-02  0.8316153E-01
        1   -1    0    0  501    0  0.00000000000E+00  0.00000000000E+00  0.11341768575E+04  0.11341768575E+04  0.50400001928E-02 0.  1.
       -1   -1    0    0    0  501  0.00000000000E+00  0.00000000000E+00 -0.16777263344E+04  0.16777263344E+04  0.50400001928E-02 0. -1.
    10030    2    1    2    0    0  0.00000000000E+00  0.00000000000E+00 -0.54354947691E+03  0.28119031919E+04  0.27588681604E+04 0.  0.
        2    1    3    3  502    0  0.98110358487E+03  0.21614313797E+03 -0.12352273841E+04  0.15921899355E+04  0.25500000920E-02 0. -1.
       -2    1    3    3    0  502 -0.98110358487E+03 -0.21614313797E+03  0.69167790721E+03  0.12197132563E+04  0.25500000920E-02 0.  1.
</event>
<event>
 5   0  0.1005265E-05  0.2688988E+04  0.7818609E-02  0.8338587E-01
       -1   -1    0    0    0  501  0.00000000000E+00  0.00000000000E+00  0.20244623161E+04  0.20244623161E+04  0.50400001928E-02 0.  1.
        1   -1    0    0  501    0  0.00000000000E+00  0.00000000000E+00 -0.89291075480E+03  0.89291075481E+03  0.50400001928E-02 0. -1.
    10030    2    1    2    0    0  0.00000000000E+00  0.00000000000E+00  0.11315515613E+04  0.29173730709E+04  0.26889880437E+04 0.  0.
        3    1    3    3  502    0  0.12500474099E+04 -0.23796387115E+03  0.94836133480E+02  0.12760247778E+04  0.10100000352E+00 0. -1.
       -3    1    3    3    0  502 -0.12500474099E+04  0.23796387115E+03  0.10367154278E+04  0.16413482932E+04  0.10100000352E+00 0.  1.
</event>
<event>
 5   0  0.2641216E-05  0.2294933E+04  0.7818609E-02  0.8479922E-01
        2   -1    0    0  501    0  0.00000000000E+00  0.00000000000E+00  0.11567174464E+04  0.11567174464E+04  0.25500000920E-02 0.  1.
       -2   -1    0    0    0  501  0.00000000000E+00  0.00000000000E+00 -0.11382890567E+04  0.11382890567E+04  0.25500000920E-02 0. -1.
    10030    2    1    2    0    0  0.00000000000E+00  0.00000000000E+00  0.18428389667E+02  0.22950065032E+04  0.22949325140E+04 0.  0.
        5    1    3    3  502    0 -0.93212631761E+03 -0.20557018573E+03  0.64605349752E+03  0.11526169289E+04  0.46999998093E+01 0.  1.
       -5    1    3    3    0  502  0.93212631761E+03  0.20557018573E+03 -0.62762510785E+03  0.11423895742E+04  0.46999998093E+01 0. -1.
</event>
<event>
 5   0  0.2540232E-05  0.2678276E+04  0.7818609E-02  0.8342088E-01
        2   -1    0    0  501    0  0.00000000000E+00  0.00000000000E+00  0.10624855259E+04  0.10624855259E+04  0.25500000920E-02 0. -1.
       -2   -1    0    0    0  501  0.00000000000E+00  0.00000000000E+00 -0.16878262048E+04  0.16878262048E+04  0.25500000920E-02 0.  1.
    10030    2    1    2    0    0  0.00000000000E+00  0.00000000000E+00 -0.62534067891E+03  0.27503117306E+04  0.26782762462E+04 0.  0.
        1    1    3    3  502    0  0.63119360734E+03 -0.11484873327E+04 -0.29831002565E+02  0.13108464487E+04  0.50400001928E-02 0. -1.
       -1    1    3    3    0  502 -0.63119360734E+03  0.11484873327E+04 -0.59550967635E+03  0.14394652820E+04  0.50400001928E-02 0.  1.
</event>
<event>
 5   0  0.1036691E-05  0.2692889E+04  0.7818609E-02  0.8337316E-01
        1   -1    0    0  501    0  0.00000000000E+00  0.00000000000E+00  0.12667314676E+04  0.12667314676E+04  0.50400001928E-02 0.  1.
       -1   -1    0    0    0  501  0.00000000000E+00  0.00000000000E+00 -0.14311741452E+04  0.14311741452E+04  0.50400001928E-02 0. -1.
    10030    2    1    2    0    0  0.00000000000E+00  0.00000000000E+00 -0.16444267757E+03  0.26979056128E+04  0.26928893965E+04 0.  0.
        4    1    3    3  502    0 -0.44302844793E+03  0.59695779159E+02  0.11902129694E+04  0.12713954213E+04  0.12699999809E+01 0.  1.
       -4    1    3    3    0  502  0.44302844793E+03 -0.59695779159E+02 -0.13546556470E+04  0.14265101916E+04  0.12699999809E+01 0. -1.
</event>
<event>
 5   0  0.1005265E-05  0.2697221E+04  0.7818609E-02  0.8335907E-01
       -1   -1    0    0    0  501  0.00000000000E+00  0.00000000000E+00  0.76015820662E+03  0.76015820664E+03  0.50400001928E-02 0.  1.
        1   -1    0    0  501    0  0.00000000000E+00  0.00000000000E+00 -0.23925944846E+04  0.23925944846E+04  0.50400001928E-02 0. -1.
    10030    2    1    2    0    0  0.00000000000E+00  0.00000000000E+00 -0.16324362780E+04  0.31527526912E+04  0.26972210385E+04 0.  0.
        3    1    3    3  502    0  0.52274531172E+03 -0.89890962540E+02 -0.22655499770E+04  0.23268132187E+04  0.10100000352E+00 0. -1.
       -3    1    3    3    0  502 -0.52274531172E+03  0.89890962540E+02  0.63311369909E+03  0.82593947251E+03  0.10100000352E+00 0.  1.
</event>
<event>
 5   0  0.2641216E-05  0.1876779E+04  0.7818609E-02  0.8666502E-01
       -2   -1    0    0    0  501  0.00000000000E+00  0.00000000000E+00  0.55129377073E+03  0.55129377074E+03  0.25500000920E-02 0. -1.
        2   -1    0    0  501    0  0.00000000000E+00  0.00000000000E+00 -0.15972878377E+04  0.15972878377E+04  0.25500000920E-02 0.  1.
    10030    2    1    2    0    0  0.00000000000E+00  0.00000000000E+00 -0.10459940670E+04  0.21485816085E+04  0.18767789801E+04 0.  0.
        5    1    3    3  502    0 -0.62275288133E+03 -0.29480251038E+03 -0.12522985072E+04  0.14293366687E+04  0.46999998093E+01 0.  1.
       -5    1    3    3    0  502  0.62275288133E+03  0.29480251038E+03  0.20630444022E+03  0.71924493977E+03  0.46999998093E+01 0. -1.
</event>
<event>
 5   0  0.2641216E-05  0.2796802E+04  0.7818609E-02  0.8304262E-01
        2   -1    0    0  501    0  0.00000000000E+00  0.00000000000E+00  0.99708102820E+03  0.99708102820E+03  0.25500000920E-02 0.  1.
       -2   -1    0    0    0  501  0.00000000000E+00  0.00000000000E+00 -0.19612506028E+04  0.19612506028E+04  0.25500000920E-02 0. -1.
    10030    2    1    2    0    0  0.00000000000E+00  0.00000000000E+00 -0.96416957456E+03  0.29583316310E+04  0.27968022937E+04 0.  0.
        5    1    3    3  502    0 -0.95259186976E+03 -0.27586908927E+01  0.60079228094E+03  0.11262381345E+04  0.46999998093E+01 0.  1.
       -5    1    3    3    0  502  0.95259186976E+03  0.27586908927E+01 -0.15649618555E+04  0.18320934965E+04  0.46999998093E+01 0. -1.
</event>
<event>
 5   0  0.2540684E-05  0.2697324E+04  0.7818609E-02  0.8335874E-01
        2   -1    0    0  501    0  0.00000000000E+00  0.00000000000E+00  0.16585155007E+04  0.16585155007E+04  0.25500000920E-02 0. -1.
       -2   -1    0    0    0  501  0.00000000000E+00  0.00000000000E+00 -0.10966973554E+04  0.10966973554E+04  0.25500000920E-02 0.  1.
    10030    2    1    2    0    0  0.00000000000E+00  0.00000000000E+00  0.56181814534E+03  0.27552128561E+04  0.26973242768E+04 0.  0.
        2    1    3    3  502    0  0.62616657633E+03  0.10386227350E+04  0.88354347030E+03  0.15004901969E+04  0.25500000920E-02 0. -1.
       -2    1    3    3    0  502 -0.62616657633E+03 -0.10386227350E+04 -0.32172532497E+03  0.12547226593E+04  0.25500000920E-02 0.  1.
</event>
<event>
 5   0  0.2516518E-05  0.2696436E+04  0.7818609E-02  0.8336162E-01
        2   -1    0    0  501    0  0.00000000000E+00  0.00000000000E+00  0.23670052597E+04  0.23670052597E+04  0.25500000920E-02 0.  1.
       -2   -1    0    0    0  501  0.00000000000E+00  0.00000000000E+00 -0.76792886049E+03  0.76792886050E+03  0.25500000920E-02 0. -1.
    10030    2    1    2    0    0  0.00000000000E+00  0.00000000000E+00  0.15990763992E+04  0.31349341202E+04  0.26964359083E+04 0.  0.
        4    1    3    3  502    0 -0.65603035121E+03 -0.85629756686E+03  0.17398026102E+04  0.20470798910E+04  0.12699999809E+01 0.  1.
       -4    1    3    3    0  502  0.65603035121E+03  0.85629756686E+03 -0.14072621097E+03  0.10878542292E+04  0.12699999809E+01 0. -1.
</event>
<event>
 5   0  0.1096672E-05  0.2748689E+04  0.7818609E-02  0.8319378E-01
       -1   -1    0    0    0  501  0.00000000000E+00  0.00000000000E+00  0.17208963550E+04  0.17208963550E+04  0.50400001928E-02 0. -1.
        1   -1    0    0  501    0  0.00000000000E+00  0.00000000000E+00 -0.10975810759E+04  0.10975810759E+04  0.50400001928E-02 0.  1.
    10030    2    1    2    0    0  0.00000000000E+00  0.00000000000E+00  0.62331527905E+03  0.28184774309E+04  0.27486893407E+04 0.  0.
        1    1    3    3  502    0 -0.82804312551E+03 -0.53153384763E+03 -0.67220333576E+03  0.11916547208E+04  0.50400001928E-02 0.  1.
       -1    1    3    3    0  502  0.82804312551E+03  0.53153384763E+03  0.12955186148E+04  0.16268227101E+04  0.50400001928E-02 0. -1.
</event>
<event>
 5   0  0.1096672E-05  0.2001892E+04  0.7818609E-02  0.8605736E-01
       -1   -1    0    0    0  501  0.00000000000E+00  0.00000000000E+00  0.12845355664E+04  0.12845355664E+04  0.50400001928E-02 0.  1.
        1   -1    0    0  501    0  0.00000000000E+00  0.00000000000E+00 -0.77996546449E+03  0.77996546451E+03  0.50400001928E-02 0. -1.
    10030    2    1    2    0    0  0.00000000000E+00  0.00000000000E+00  0.50457010188E+03  0.20645010309E+04  0.20018924843E+04 0.  0.
        1    1    3    3  502    0  0.77576181726E+03 -0.46548576227E+03  0.69394279096E+03  0.11401929614E+04  0.50400001928E-02 0.  1.
       -1    1    3    3    0  502 -0.77576181726E+03  0.46548576227E+03 -0.18937268908E+03  0.92430806953E+03  0.50400001928E-02 0. -1.
</event>
<event>
 5   0  0.1005265E-05  0.2288983E+04  0.7818609E-02  0.8482278E-01
        1   -1    0    0  501    0  0.00000000000E+00  0.00000000000E+00  0.13909585795E+04  0.13909585795E+04  0.50400001928E-02 0.  1.
       -1   -1    0    0    0  501  0.00000000000E+00  0.00000000000E+00 -0.94169618937E+03  0.94169618938E+03  0.50400001928E-02 0. -1.
    10030    2    1    2    0    0  0.00000000000E+00  0.00000000000E+00  0.44926239016E+03  0.23326547689E+04  0.22889826508E+04 0.  0.
        3    1    3    3  502    0  0.59942710768E+03  0.14258956459E+03  0.12075096376E+04  0.13556268574E+04  0.10100000352E+00 0.  1.
       -3    1    3    3    0  502 -0.59942710768E+03 -0.14258956459E+03 -0.75824724748E+03  0.97702791151E+03  0.10100000352E+00 0. -1.
</event>
<event>
 5   0  0.2540232E-05  0.2581924E+04  0.7818609E-02  0.8374367E-01
       -2   -1    0    0    0  501  0.00000000000E+00  0.00000000000E+00  0.26393790829E+04  0.26393790829E+04  0.25500000920E-02 0. -1.
        2   -1    0    0  501    0  0.00000000000E+00  0.00000000000E+00 -0.63142973884E+03  0.63142973885E+03  0.25500000920E-02 0.  1.
    10030    2    1    2    0    0  0.00000000000E+00  0.00000000000E+00  0.20079493440E+04  0.32708088217E+04  0.25819236588E+04 0.  0.
        1    1    3    3  502    0  0.85166128709E+03 -0.93138946652E+03  0.65990279347E+03  0.14241787048E+04  0.50400001928E-02 0.  1.
       -1    1    3    3    0  502 -0.85166128709E+03  0.93138946652E+03  0.13480465505E+04  0.18466301169E+04  0.50400001928E-02 0. -1.
</event>
<event>
 5   0  0.2516518E-05  0.2648155E+04  0.7818609E-02  0.8352026E-01
        2   -1    0    0  501    0  0.00000000000E+00  0.00000000000E+00  0.19121761460E+04  0.19121761460E+04  0.25500000920E-02 0.  1.
       -2   -1    0    0    0  501  0.00000000000E+00  0.00000000000E+00 -0.91685099642E+03  0.91685099642E+03  0.25500000920E-02 0. -1.
    10030    2    1    2    0    0  0.00000000000E+00  0.00000000000E+00  0.99532514960E+03  0.28290271424E+04  0.26481545309E+04 0.  0.
        4    1    3    3  502    0  0.68060367436E+03  0.11277000858E+04  0.35334242460E+03  0.13637379979E+04  0.12699999809E+01 0. -1.
       -4    1    3    3    0  502 -0.68060367436E+03 -0.11277000858E+04  0.64198272500E+03  0.14652891445E+04  0.12699999809E+01 0.  1.
</event>
<event>
 5   0  0.1036691E-05  0.1821950E+04  0.7818609E-02  0.8694713E-01
        1   -1    0    0  501    0  0.00000000000E+00  0.00000000000E+00  0.13464606277E+04  0.13464606277E+04  0.50400001928E-02 0. -1.
       -1   -1    0    0    0  501  0.00000000000E+00  0.00000000000E+00 -0.61633871841E+03  0.61633871843E+03  0.50400001928E-02 0.  1.
    10030    2    1    2    0    0  0.00000000000E+00  0.00000000000E+00  0.73012190929E+03  0.19627993461E+04  0.18219504029E+04 0.  0.
        4    1    3    3  502    0 -0.77802753968E+02  0.78451442334E+03 -0.12668919688E+03  0.79847849968E+03  0.12699999809E+01 0.  1.
       -4    1    3    3    0  502  0.77802753968E+02 -0.78451442334E+03  0.85681110616E+03  0.11643208465E+04  0.12699999809E+01 0. -1.
</event>
<event>
 5   0  0.1041909E-05  0.2291237E+04  0.7818609E-02  0.8481384E-01
        1   -1    0    0  501    0  0.00000000000E+00  0.00000000000E+00  0.14281916493E+04  0.14281916493E+04  0.50400001928E-02 0.  1.
       -1   -1    0    0    0  501  0.00000000000E+00  0.00000000000E+00 -0.91895337984E+03  0.91895337985E+03  0.50400001928E-02 0. -1.
    10030    2    1    2    0    0  0.00000000000E+00  0.00000000000E+00  0.50923826949E+03  0.23471450292E+04  0.22912368217E+04 0.  0.
        5    1    3    3  502    0 -0.42836609230E+03 -0.96963391267E+03  0.69965267068E+03  0.12701273098E+04  0.46999998093E+01 0.  1.
       -5    1    3    3    0  502  0.42836609230E+03  0.96963391267E+03 -0.19041440119E+03  0.10770177194E+04  0.46999998093E+01 0. -1.
</event>
<event>
 5   0  0.2540232E-05  0.2667395E+04  0.7818609E-02  0.8345662E-01
       -2   -1    0    0    0  501  0.00000000000E+00  0.00000000000E+00  0.13529177646E+04  0.13529177646E+04  0.25500000920E-02 0.  1.
        2   -1    0    0  501    0  0.00000000000E+00  0.00000000000E+00 -0.13147506250E+04  0.13147506250E+04  0.25500000920E-02 0. -1.
    10030    2    1    2    0    0  0.00000000000E+00  0.00000000000E+00  0.38167139550E+02  0.26676683896E+04  0.26673953412E+04 0.  0.
        1    1    3    3  502    0 -0.10365374532E+04  0.15865149641E+03 -0.80511806881E+03  0.13220420923E+04  0.50400001928E-02 0. -1.
       -1    1    3    3    0  502  0.10365374532E+04 -0.15865149641E+03  0.84328520836E+03  0.13456262972E+04  0.50400001928E-02 0.  1.
</event>
<event>
 5   0  0.1005265E-05  0.2564579E+04  0.7818609E-02  0.8380333E-01
        1   -1    0    0  501    0  0.00000000000E+00  0.00000000000E+00  0.22029534907E+04  0.22029534907E+04  0.50400001928E-02 0.  1.
       -1   -1    0    0    0  501  0.00000000000E+00  0.00000000000E+00 -0.74639171219E+03  0.74639171221E+03  0.50400001928E-02 0. -1.
    10030    2    1    2    0    0  0.00000000000E+00  0.00000000000E+00  0.14565617785E+04  0.29493452029E+04  0.25645788955E+04 0.  0.
        3    1    3    3  502    0  0.66434360548E+03 -0.91052444666E+03  0.25105800511E+02  0.11274029916E+04  0.10100000352E+00 0. -1.
       -3    1    3    3    0  502 -0.66434360548E+03  0.91052444666E+03  0.14314559780E+04  0.18219422113E+04  0.10100000352E+00 0.  1.
</event>
<event>
 5   0  0.2540684E-05  0.2692011E+04  0.7818609E-02  0.8337602E-01
        2   -1    0    0  501    0  0.00000000000E+00  0.00000000000E+00  0.10251998189E+04  0.10251998189E+04  0.25500000920E-02 0.  1.
       -2   -1    0    0    0  501  0.00000000000E+00  0.00000000000E+00 -0.17671976010E+04  0.17671976010E+04  0.25500000920E-02 0. -1.
    10030    2    1    2    0    0  0.00000000000E+00  0.00000000000E+00 -0.74199778210E+03  0.27923974200E+04  0.26920108920E+04 0.  0.
        2    1    3    3  502    0  0.29389242982E+03 -0.45904424778E+03 -0.16475981642E+04  0.17354175556E+04  0.25500000920E-02 0. -1.
       -2    1    3    3    0  502 -0.29389242982E+03  0.45904424778E+03  0.90560038205E+03  0.10569798644E+04  0.25500000920E-02 0.  1.
</event>
<event>
 5   0  0.2540684E-05  0.2706041E+04  0.7818609E-02  0.8333048E-01
       -2   -1    0    0    0  501  0.00000000000E+00  0.00000000000E+00  0.13701089110E+04  0.13701089110E+04  0.25500000920E-02 0.  1.
        2   -1    0    0  501    0  0.00000000000E+00  0.00000000000E+00 -0.13361451218E+04  0.13361451218E+04  0.25500000920E-02 0. -1.
    10030    2    1    2    0    0  0.00000000000E+00  0.00000000000E+00  0.33963789201E+02  0.27062540328E+04  0.27060408998E+04 0.  0.
        2    1    3    3  502    0  0.95891867696E+03  0.93907314240E+03 -0.15414833260E+03  0.13509793130E+04  0.25500000920E-02 0.  1.
       -2    1    3    3    0  502 -0.95891867696E+03 -0.93907314240E+03  0.18811212180E+03  0.13552747198E+04  0.25500000920E-02 0. -1.
</event>
<event>
 5   0  0.2516518E-05  0.2696450E+04  0.7818609E-02  0.8336158E-01
       -2   -1    0    0    0  501  0.00000000000E+00  0.00000000000E+00  0.10034066736E+04  0.10034066736E+04  0.25500000920E-02 0.  1.
        2   -1    0    0  501    0  0.00000000000E+00  0.00000000000E+00 -0.18115395510E+04  0.18115395510E+04  0.25500000920E-02 0. -1.
    10030    2    1    2    0    0  0.00000000000E+00  0.00000000000E+00 -0.80813287738E+03  0.28149462246E+04  0.26964501664E+04 0.  0.
        4    1    3    3  502    0  0.11958747990E+04 -0.96753547011E+02 -0.10460982387E+04  0.15917917332E+04  0.12699999809E+01 0. -1.
       -4    1    3    3    0  502 -0.11958747990E+04  0.96753547011E+02  0.23796536135E+03  0.12231544914E+04  0.12699999809E+01 0.  1.
</event>
<event>
 5   0  0.2615843E-05  0.2741710E+04  0.7818609E-02  0.8321597E-01
        2   -1    0    0  501    0  0.00000000000E+00  0.00000000000E+00  0.17959111714E+04  0.17959111714E+04  0.25500000920E-02 0.  1.
       -2   -1    0    0    0  501  0.00000000000E+00  0.00000000000E+00 -0.10464008784E+04  0.10464008784E+04  0.25500000920E-02 0. -1.
    10030    2    1    2    0    0  0.00000000000E+00  0.00000000000E+00  0.74951029308E+03  0.28423120498E+04  0.27417097055E+04 0.  0.
        3    1    3    3  502    0 -0.39980176993E+03 -0.14592426624E+03  0.17256853099E+04  0.17773927945E+04  0.10100000352E+00 0.  1.
       -3    1    3    3    0  502  0.39980176993E+03  0.14592426624E+03 -0.97617501684E+03  0.10649192554E+04  0.10100000352E+00 0. -1.
</event>
<event>
 5   0  0.2540232E-05  0.2702443E+04  0.7818609E-02  0.8334213E-01
        2   -1    0    0  501    0  0.00000000000E+00  0.00000000000E+00  0.19750272471E+04  0.19750272471E+04  0.25500000920E-02 0. -1.
       -2   -1    0    0    0  501  0.00000000000E+00  0.00000000000E+00 -0.92444279431E+03  0.92444279431E+03  0.25500000920E-02 0.  1.
    10030    2    1    2    0    0  0.00000000000E+00  0.00000000000E+00  0.10505844527E+04  0.28994700414E+04  0.27024431221E+04 0.  0.
        1    1    3    3  502    0 -0.12852944987E+04 -0.12511399556E+03  0.95198591802E+03  0.16043418116E+04  0.50400001928E-02 0.  1.
       -1    1    3    3    0  502  0.12852944987E+04  0.12511399556E+03  0.98598534725E+02  0.12951282297E+04  0.50400001928E-02 0. -1.
</event>
<event>
 5   0  0.2641216E-05  0.2695273E+04  0.7818609E-02  0.8336540E-01
        2   -1    0    0  501    0  0.00000000000E+00  0.00000000000E+00  0.16701668643E+04  0.16701668643E+04  0.25500000920E-02 0.  1.
       -2   -1    0    0    0  501  0.00000000000E+00  0.00000000000E+00 -0.10873904742E+04  0.10873904742E+04  0.25500000920E-02 0. -1.
    10030    2    1    2    0    0  0.00000000000E+00  0.00000000000E+00  0.58277639011E+03  0.27575573385E+04  0.26952725565E+04 0.  0.
        5    1    3    3  502    0 -0.12930265274E+04 -0.25044810138E+02 -0.96256149639E+02  0.12968547256E+04  0.46999998093E+01 0. -1.
       -5    1    3    3    0  502  0.12930265274E+04  0.25044810138E+02  0.67903253975E+03  0.14607026128E+04  0.46999998093E+01 0.  1.
</event>
<event>
 5   0  0.1036691E-05  0.2229061E+04  0.7818609E-02  0.8506429E-01
       -1   -1    0    0    0  501  0.00000000000E+00  0.00000000000E+00  0.90459878304E+03  0.90459878306E+03  0.50400001928E-02 0. -1.
        1   -1    0    0  501    0  0.00000000000E+00  0.00000000000E+00 -0.13731818989E+04  0.13731818989E+04  0.50400001928E-02 0.  1.
    10030    2    1    2    0    0  0.00000000000E+00  0.00000000000E+00 -0.46858311585E+03  0.22777806820E+04  0.22290613941E+04 0.  0.
        4    1    3    3  502    0  0.33082783067E+03 -0.65772348790E+03 -0.10893172474E+04  0.13147855028E+04  0.12699999809E+01 0.  1.
       -4    1    3    3    0  502 -0.33082783067E+03  0.65772348790E+03  0.62073413154E+03  0.96299517913E+03  0.12699999809E+01 0. -1.
</event>
<event>
 5   0  0.1041909E-05  0.2710512E+04  0.7818609E-02  0.8331602E-01
       -1   -1    0    0    0  501  0.00000000000E+00  0.00000000000E+00  0.96732687096E+03  0.96732687097E+03  0.50400001928E-02 0. -1.
        1   -1    0    0  501    0  0.00000000000E+00  0.00000000000E+00 -0.18987566615E+04  0.18987566615E+04  0.50400001928E-02 0.  1.
    10030    2    1    2    0    0  0.00000000000E+00  0.00000000000E+00 -0.93142979057E+03  0.28660835325E+04  0.27105116418E+04 0.  0.
        5    1    3    3  502    0  0.11806918412E+04  0.65373479183E+03 -0.59648123122E+03  0.14755386647E+04  0.46999998093E+01 0.  1.
       -5    1    3    3    0  502 -0.11806918412E+04 -0.65373479183E+03 -0.33494855935E+03  0.13905448678E+04  0.46999998093E+01 0. -1.
</event>
<event>
 5   0  0.2516518E-05  0.2568963E+04  0.7818609E-02  0.8378821E-01
        2   -1    0    0  501    0  0.00000000000E+00  0.00000000000E+00  0.12544952996E+04  0.12544952996E+04  0.25500000920E-02 0.  1.
       -2   -1    0    0    0  501  0.00000000000E+00  0.00000000000E+00 -0.13151840206E+04  0.13151840206E+04  0.25500000920E-02 0. -1.
    10030    2    1    2    0    0  0.00000000000E+00  0.00000000000E+00 -0.60688720928E+02  0.25696793202E+04  0.25689625704E+04 0.  0.
        4    1    3    3  502    0 -0.14956731162E+03  0.11061975235E+04 -0.66601141056E+03  0.12998523583E+04  0.12699999809E+01 0. -1.
       -4    1    3    3    0  502  0.14956731162E+03 -0.11061975235E+04  0.60532268963E+03  0.12698269619E+04  0.12699999809E+01 0.  1.
</event>
<event>
 5   0  0.2540684E-05  0.2694275E+04  0.7818609E-02  0.8336865E-01
        2   -1    0    0  501    0  0.00000000000E+00  0.00000000000E+00  0.23512149140E+04  0.23512149140E+04  0.25500000920E-02 0. -1.
       -2   -1    0    0    0  501  0.00000000000E+00  0.00000000000E+00 -0.77184779671E+03  0.77184779671E+03  0.25500000920E-02 0.  1.
    10030    2    1    2    0    0  0.00000000000E+00  0.00000000000E+00  0.15793671173E+04  0.31230627107E+04  0.26942754506E+04 0.  0.
        2    1    3    3  502    0 -0.23045700356E+03 -0.10385015610E+04 -0.16840928238E+03  0.10770132817E+04  0.25500000920E-02 0.  1.
       -2    1    3    3    0  502  0.23045700356E+03  0.10385015610E+04  0.17477763996E+04  0.20460494290E+04  0.25500000920E-02 0. -1.
</event>
<event>
 5   0  0.1041909E-05  0.2647177E+04  0.7818609E-02  0.8352351E-01
       -1   -1    0    0    0  501  0.00000000000E+00  0.00000000000E+00  0.16605177314E+04  0.16605177314E+04  0.50400001928E-02 0.  1.
        1   -1    0    0  501    0  0.00000000000E+00  0.00000000000E+00 -0.10550240234E+04  0.10550240235E+04  0.50400001928E-02 0. -1.
    10030    2    1    2    0    0  0.00000000000E+00  0.00000000000E+00  0.60549370795E+03  0.27155417549E+04  0.26471766832E+04 0.  0.
        5    1    3    3  502    0 -0.10875984706E+04 -0.57089662430E+03  0.80850139376E+03  0.14705407110E+04  0.46999998093E+01 0.  1.
       -5    1    3    3    0  502  0.10875984706E+04  0.57089662430E+03 -0.20300768581E+03  0.12450010439E+04  0.46999998093E+01 0. -1.
</event>
<event>
 5   0  0.9971923E-06  0.2606207E+04  0.7818609E-02  0.8366096E-01
       -1   -1    0    0    0  501  0.00000000000E+00  0.00000000000E+00  0.92888960587E+03  0.92888960589E+03  0.50400001928E-02 0. -1.
        1   -1    0    0  501    0  0.00000000000E+00  0.00000000000E+00 -0.18280734855E+04  0.18280734855E+04  0.50400001928E-02 0.  1.
    10030    2    1    2    0    0  0.00000000000E+00  0.00000000000E+00 -0.89918387966E+03  0.27569630914E+04  0.26062067911E+04 0.  0.
        2    1    3    3  502    0 -0.85219765481E+03 -0.31621788502E+03 -0.14373292028E+04  0.17006321857E+04  0.25500000920E-02 0.  1.
       -2    1    3    3    0  502  0.85219765481E+03  0.31621788502E+03  0.53814532313E+03  0.10563309058E+04  0.25500000920E-02 0. -1.
</event>
<event>
 5   0  0.2641216E-05  0.2822000E+04  0.7818609E-02  0.8296470E-01
       -2   -1    0    0    0  501  0.00000000000E+00  0.00000000000E+00  0.16664188263E+04  0.16664188263E+04  0.25500000920E-02 0.  1.
        2   -1    0    0  501    0  0.00000000000E+00  0.00000000000E+00 -0.11947306046E+04  0.11947306046E+04  0.25500000920E-02 0. -1.
    10030    2    1    2    0    0  0.00000000000E+00  0.00000000000E+00  0.47168822165E+03  0.28611494309E+04  0.28220004053E+04 0.  0.
        5    1    3    3  502    0 -0.34717993470E+03  0.11611766520E+03 -0.11457346643E+04  0.12028080604E+04  0.46999998093E+01 0. -1.
       -5    1    3    3    0  502  0.34717993470E+03 -0.11611766520E+03  0.16174228859E+04  0.16583413705E+04  0.46999998093E+01 0.  1.
</event>
<event>
 5   0  0.9971923E-06  0.2743057E+04  0.7818609E-02  0.8321168E-01
       -1   -1    0    0    0  501  0.00000000000E+00  0.00000000000E+00  0.76836836698E+03  0.76836836699E+03  0.50400001928E-02 0.  1.
        1   -1    0    0  501    0  0.00000000000E+00  0.00000000000E+00 -0.24481627382E+04  0.24481627382E+04  0.50400001928E-02 0. -1.
    10030    2    1    2    0    0  0.00000000000E+00  0.00000000000E+00 -0.16797943712E+04  0.32165311052E+04  0.27430572763E+04 0.  0.
        2    1    3    3  502    0 -0.93634804234E+03  0.35625424361E+03 -0.19382911677E+04  0.21818884924E+04  0.25500000920E-02 0. -1.
       -2    1    3    3    0  502  0.93634804234E+03 -0.35625424361E+03  0.25849679645E+03  0.10346426128E+04  0.25500000920E-02 0.  1.
</event>
<event>
 5   0  0.1005265E-05  0.2679403E+04  0.7818609E-02  0.8341719E-01
        1   -1    0    0  501    0  0.00000000000E+00  0.00000000000E+00  0.19789265006E+04  0.19789265006E+04  0.50400001928E-02 0. -1.
       -1   -1    0    0    0  501  0.00000000000E+00  0.00000000000E+00 -0.90695624668E+03  0.90695624669E+03  0.50400001928E-02 0.  1.
    10030    2    1    2    0    0  0.00000000000E+00  0.00000000000E+00  0.10719702539E+04  0.28858827473E+04  0.26794027330E+04 0.  0.
        3    1    3    3  502    0  0.32385481907E+03 -0.55609018745E+03  0.18015588201E+04  0.19130427159E+04  0.10100000352E+00 0. -1.
       -3    1    3    3    0  502 -0.32385481907E+03  0.55609018745E+03 -0.72958856623E+03  0.97284003134E+03  0.10100000352E+00 0.  1.
</event>
<event>
 5   0  0.1096672E-05  0.2641341E+04  0.7818609E-02  0.8354293E-01
        1   -1    0    0  501    0  0.00000000000E+00  0.00000000000E+00  0.18712699782E+04  0.18712699782E+04  0.50400001928E-02 0.  1.
       -1   -1    0    0    0  501  0.00000000000E+00  0.00000000000E+00 -0.93207821958E+03  0.93207821959E+03  0.50400001928E-02 0. -1.
    10030    2    1    2    0    0  0.00000000000E+00  0.00000000000E+00  0.93919175863E+03  0.28033481978E+04  0.26413405609E+04 0.  0.
        1    1    3    3  502    0  0.11640556523E+04 -0.43404671681E+03  0.94512610027E+03  0.15609886160E+04  0.50400001928E-02 0.  1.
       -1    1    3    3    0  502 -0.11640556523E+04  0.43404671681E+03 -0.59343416370E+01  0.12423595818E+04  0.50400001928E-02 0. -1.
</event>
<event>
 5   0  0.2540232E-05  0.2701042E+04  0.7818609E-02  0.8334667E-01
        2   -1    0    0  501    0  0.00000000000E+00  0.00000000000E+00  0.11951084194E+04  0.11951084194E+04  0.25500000920E-02 0.  1.
       -2   -1    0    0    0  501  0.00000000000E+00  0.00000000000E+00 -0.15261430670E+04  0.15261430670E+04  0.25500000920E-02 0. -1.
    10030    2    1    2    0    0  0.00000000000E+00  0.00000000000E+00 -0.33103464756E+03  0.27212514864E+04  0.27010415980E+04 0.  0.
        1    1    3    3  502    0 -0.92451530776E+03 -0.56833461552E+03  0.64434654716E+03  0.12621074686E+04  0.50400001928E-02 0.  1.
       -1    1    3    3    0  502  0.92451530776E+03  0.56833461552E+03 -0.97538119472E+03  0.14591440177E+04  0.50400001928E-02 0. -1.
</event>
<event>
 5   0  0.2615843E-05  0.2716813E+04  0.7818609E-02  0.8329570E-01
        2   -1    0    0  501    0  0.00000000000E+00  0.00000000000E+00  0.99076356601E+03  0.99076356601E+03  0.25500000920E-02 0.  1.
       -2   -1    0    0    0  501  0.00000000000E+00  0.00000000000E+00 -0.18624711136E+04  0.18624711136E+04  0.25500000920E-02 0. -1.
    10030    2    1    2    0    0  0.00000000000E+00  0.00000000000E+00 -0.87170754760E+03  0.28532346796E+04  0.27168132230E+04 0.  0.
        3    1    3    3  502    0  0.48626479935E+03  0.53962954475E+03 -0.16413669976E+04  0.17949203691E+04  0.10100000352E+00 0. -1.
       -3    1    3    3    0  502 -0.48626479935E+03 -0.53962954475E+03  0.76965944996E+03  0.10583143105E+04  0.10100000352E+00 0.  1.
</event>
<event>
 5   0  0.2641216E-05  0.2544176E+04  0.7818609E-02  0.8387414E-01
       -2   -1    0    0    0  501  0.00000000000E+00  0.00000000000E+00  0.72437738767E+03  0.72437738768E+03  0.25500000920E-02 0.  1.
        2   -1    0    0  501    0  0.00000000000E+00  0.00000000000E+00 -0.22339301436E+04  0.22339301436E+04  0.25500000920E-02 0. -1.
    10030    2    1    2    0    0  0.00000000000E+00  0.00000000000E+00 -0.15095527559E+04  0.29583075313E+04  0.25441764732E+04 0.  0.
        5    1    3    3  502    0 -0.10392157847E+04  0.34836454791E+02  0.97311900054E+02  0.10443537339E+04  0.46999998093E+01 0.  1.
       -5    1    3    3    0  502  0.10392157847E+04 -0.34836454791E+02 -0.16068646560E+04  0.19139537973E+04  0.46999998093E+01 0. -1.
</event>
<event>
 5   0  0.2516518E-05  0.2652900E+04  0.7818609E-02  0.8350451E-01
       -2   -1    0    0    0  501  0.00000000000E+00  0.00000000000E+00  0.71944873167E+03  0.71944873168E+03  0.25500000920E-02 0.  1.
        2   -1    0    0  501    0  0.00000000000E+00  0.00000000000E+00 -0.24455809190E+04  0.24455809190E+04  0.25500000920E-02 0. -1.
    10030    2    1    2    0    0  0.00000000000E+00  0.00000000000E+00 -0.17261321873E+04  0.31650296506E+04  0.26529003678E+04 0.  0.
        4    1    3    3  502    0 -0.73420265342E+03 -0.39350997360E+03  0.36846897827E+03  0.91086477396E+03  0.12699999809E+01 0.  1.
       -4    1    3    3    0  502  0.73420265342E+03  0.39350997360E+03 -0.20946011655E+04  0.22541648767E+04  0.12699999809E+01 0. -1.
</event>
<event>
 5   0  0.2540232E-05  0.2729481E+04  0.7818609E-02  0.8325502E-01
       -2   -1    0    0    0  501  0.00000000000E+00  0.00000000000E+00  0.10914002593E+04  0.10914002593E+04  0.25500000920E-02 0.  1.
        2   -1    0    0  501    0  0.00000000000E+00  0.00000000000E+00 -0.17065384299E+04  0.17065384299E+04  0.25500000920E-02 0. -1.
    10030    2    1    2    0    0  0.00000000000E+00  0.00000000000E+00 -0.61513817055E+03  0.27979386892E+04  0.27294808920E+04 0.  0.
        1    1    3    3  502    0 -0.25981678047E+03 -0.13209934023E+04 -0.53675699096E+03  0.14493572354E+04  0.50400001928E-02 0.  1.
       -1    1    3    3    0  502  0.25981678047E+03  0.13209934023E+04 -0.78381179595E+02  0.13485814539E+04  0.50400001928E-02 0. -1.
</event>
<event>
 5   0  0.9971923E-06  0.2670320E+04  0.7818609E-02  0.8344700E-01
       -1   -1    0    0    0  501  0.00000000000E+00  0.00000000000E+00  0.18449426941E+04  0.18449426941E+04  0.50400001928E-02 0. -1.
        1   -1    0    0  501    0  0.00000000000E+00  0.00000000000E+00 -0.96623696043E+03  0.96623696045E+03  0.50400001928E-02 0.  1.
    10030    2    1    2    0    0  0.00000000000E+00  0.00000000000E+00  0.87870573369E+03  0.28111796546E+04  0.26703196969E+04 0.  0.
        2    1    3    3  502    0  0.46762868134E+03 -0.19610715775E+03  0.17396239339E+04  0.18120226357E+04  0.25500000920E-02 0. -1.
       -2    1    3    3    0  502 -0.46762868134E+03  0.19610715775E+03 -0.86091820019E+03  0.99915701888E+03  0.25500000920E-02 0.  1.
</event>
<event>
 5   0  0.1005265E-05  0.2697004E+04  0.7818609E-02  0.8335978E-01
       -1   -1    0    0    0  501  0.00000000000E+00  0.00000000000E+00  0.13115942502E+04  0.13115942502E+04  0.50400001928E-02 0. -1.
        1   -1    0    0  501    0  0.00000000000E+00  0.00000000000E+00 -0.13864481988E+04  0.13864481988E+04  0.50400001928E-02 0.  1.
    10030    2    1    2    0    0  0.00000000000E+00  0.00000000000E+00 -0.74853948630E+02  0.26980424491E+04  0.26970038827E+04 0.  0.
        3    1    3    3  502    0  0.61630298034E+03 -0.69826750044E+03  0.93816680126E+03  0.13219545465E+04  0.10100000352E+00 0. -1.
       -3    1    3    3    0  502 -0.61630298034E+03  0.69826750044E+03 -0.10130207499E+04  0.13760879026E+04  0.10100000352E+00 0.  1.
</event>
<event>
 5   0  0.2615843E-05  0.2737427E+04  0.7818609E-02  0.8322962E-01
        2   -1    0    0  501    0  0.00000000000E+00  0.00000000000E+00  0.15248492289E+04  0.15248492289E+04  0.25500000920E-02 0.  1.
       -2   -1    0    0    0  501  0.00000000000E+00  0.00000000000E+00 -0.12285653564E+04  0.12285653564E+04  0.25500000920E-02 0. -1.
    10030    2    1    2    0    0  0.00000000000E+00  0.00000000000E+00  0.29628387254E+03  0.27534145853E+04  0.27374272128E+04 0.  0.
        3    1    3    3  502    0  0.24292527126E+02  0.71582594439E+03 -0.10250232052E+04  0.12504677089E+04  0.10100000352E+00 0. -1.
       -3    1    3    3    0  502 -0.24292527126E+02 -0.71582594439E+03  0.13213070777E+04  0.15029468765E+04  0.10100000352E+00 0.  1.
</event>
<event>
 5   0  0.2615843E-05  0.2677533E+04  0.7818609E-02  0.8342332E-01
        2   -1    0    0  501    0  0.00000000000E+00  0.00000000000E+00  0.17153948201E+04  0.17153948201E+04  0.25500000920E-02 0. -1.
       -2   -1    0    0    0  501  0.00000000000E+00  0.00000000000E+00 -0.10448302160E+04  0.10448302160E+04  0.25500000920E-02 0.  1.
    10030    2    1    2    0    0  0.00000000000E+00  0.00000000000E+00  0.67056460408E+03  0.27602250361E+04  0.26775334473E+04 0.  0.
        3    1    3    3  502    0  0.11473226085E+04  0.64883595776E+03  0.93608684676E+02  0.13214007205E+04  0.10100000352E+00 0.  1.
       -3    1    3    3    0  502 -0.11473226085E+04 -0.64883595776E+03  0.57695591940E+03  0.14388243156E+04  0.10100000352E+00 0. -1.
</event>
<event>
 5   0  0.9971923E-06  0.2679689E+04  0.7818609E-02  0.8341625E-01
        1   -1    0    0  501    0  0.00000000000E+00  0.00000000000E+00  0.17248149967E+04  0.17248149967E+04  0.50400001928E-02 0.  1.
       -1   -1    0    0    0  501  0.00000000000E+00  0.00000000000E+00 -0.10407979509E+04  0.10407979509E+04  0.50400001928E-02 0. -1.
    10030    2    1    2    0    0  0.00000000000E+00  0.00000000000E+00  0.68401704582E+03  0.27656129476E+04  0.26796894702E+04 0.  0.
        2    1    3    3  502    0 -0.80199966540E+03  0.15657035648E+03  0.14378776463E+04  0.16538469898E+04  0.25500000920E-02 0.  1.
       -2    1    3    3    0  502  0.80199966540E+03 -0.15657035648E+03 -0.75386060052E+03  0.11117659578E+04  0.25500000920E-02 0. -1.
</event>
<event>
 5   0  0.1096672E-05  0.2678848E+04  0.7818609E-02  0.8341901E-01
        1   -1    0    0  501    0  0.00000000000E+00  0.00000000000E+00  0.15306970590E+04  0.15306970590E+04  0.50400001928E-02 0.  1.
       -1   -1    0    0    0  501  0.00000000000E+00  0.00000000000E+00 -0.11720520452E+04  0.11720520453E+04  0.50400001928E-02 0. -1.
    10030    2    1    2    0    0  0.00000000000E+00  0.00000000000E+00  0.35864501376E+03  0.27027491043E+04  0.26788479753E+04 0.  0.
        1    1    3    3  502    0 -0.87608742564E+03  0.50866437599E+02  0.12002500684E+04  0.14868479406E+04  0.50400001928E-02 0.  1.
       -1    1    3    3    0  502  0.87608742564E+03 -0.50866437599E+02 -0.84160505461E+03  0.12159011637E+04  0.50400001928E-02 0. -1.
</event>
<event>
 5   0  0.2641216E-05  0.2294447E+04  0.7818609E-02  0.8480114E-01
        2   -1    0    0  501    0  0.00000000000E+00  0.00000000000E+00  0.15571717213E+04  0.15571717213E+04  0.25500000920E-02 0.  1.
       -2   -1    0    0    0  501  0.00000000000E+00  0.00000000000E+00 -0.84520006835E+03  0.84520006836E+03  0.25500000920E-02 0. -1.
    10030    2    1    2    0    0  0.00000000000E+00  0.00000000000E+00  0.71197165295E+03  0.24023717897E+04  0.22944469009E+04 0.  0.
        5    1    3    3  502    0  0.25337042433E+03  0.29028912754E+03  0.14873848471E+04  0.15364895453E+04  0.46999998093E+01 0.  1.
       -5    1    3    3    0  502 -0.25337042433E+03 -0.29028912754E+03 -0.77541319412E+03  0.86588224437E+03  0.46999998093E+01 0. -1.
</event>
<event>
 5   0  0.1036691E-05  0.2881828E+04  0.7818609E-02  0.8278305E-01
       -1   -1    0    0    0  501  0.00000000000E+00  0.00000000000E+00  0.86782511918E+03  0.86782511919E+03  0.50400001928E-02 0.  1.
        1   -1    0    0  501    0  0.00000000000E+00  0.00000000000E+00 -0.23924562793E+04  0.23924562794E+04  0.50400001928E-02 0. -1.
    10030    2    1    2    0    0  0.00000000000E+00  0.00000000000E+00 -0.15246311602E+04  0.32602813985E+04  0.28818283473E+04 0.  0.
        4    1    3    3  502    0  0.11542816119E+04 -0.82076217631E+03 -0.46253511522E+03  0.14899519910E+04  0.12699999809E+01 0. -1.
       -4    1    3    3    0  502 -0.11542816119E+04  0.82076217631E+03 -0.10620960450E+04  0.17703294076E+04  0.12699999809E+01 0.  1.
</event>
<event>
 5   0  0.1096672E-05  0.2509307E+04  0.7818609E-02  0.8399677E-01
       -1   -1    0    0    0  501  0.00000000000E+00  0.00000000000E+00  0.87884724002E+03  0.87884724004E+03  0.50400001928E-02 0.  1.
        1   -1    0    0  501    0  0.00000000000E+00  0.00000000000E+00 -0.17911597426E+04  0.17911597426E+04  0.50400001928E-02 0. -1.
    10030    2    1    2    0    0  0.00000000000E+00  0.00000000000E+00 -0.91231250260E+03  0.26700069827E+04  0.25093073118E+04 0.  0.
        1    1    3    3  502    0  0.43867528173E+03  0.91600502014E+03 -0.12399833755E+04  0.16028287404E+04  0.50400001928E-02 0. -1.
       -1    1    3    3    0  502 -0.43867528173E+03 -0.91600502014E+03  0.32767087287E+03  0.10671782422E+04  0.50400001928E-02 0.  1.
</event>
<event>
 5   0  0.2516518E-05  0.2692908E+04  0.7818609E-02  0.8337310E-01
       -2   -1    0    0    0  501  0.00000000000E+00  0.00000000000E+00  0.15818944850E+04  0.15818944850E+04  0.25500000920E-02 0.  1.
        2   -1    0    0  501    0  0.00000000000E+00  0.00000000000E+00 -0.11460554244E+04  0.11460554244E+04  0.25500000920E-02 0. -1.
    10030    2    1    2    0    0  0.00000000000E+00  0.00000000000E+00  0.43583906065E+03  0.27279499094E+04  0.26929082831E+04 0.  0.
        4    1    3    3  502    0 -0.11776278483E+04 -0.44996693885E+03  0.69700009214E+03  0.14405166908E+04  0.12699999809E+01 0.  1.
       -4    1    3    3    0  502  0.11776278483E+04  0.44996693885E+03 -0.26116103148E+03  0.12874332186E+04  0.12699999809E+01 0. -1.
</event>
<event>
 5   0  0.1005265E-05  0.2707637E+04  0.7818609E-02  0.8332531E-01
        1   -1    0    0  501    0  0.00000000000E+00  0.00000000000E+00  0.66597143650E+03  0.66597143652E+03  0.50400001928E-02 0. -1.
       -1   -1    0    0    0  501  0.00000000000E+00  0.00000000000E+00 -0.27521059724E+04  0.27521059724E+04  0.50400001928E-02 0.  1.
    10030    2    1    2    0    0  0.00000000000E+00  0.00000000000E+00 -0.20861345359E+04  0.34180774089E+04  0.27076365841E+04 0.  0.
        3    1    3    3  502    0  0.12692090764E+04  0.19328063269E+03 -0.50071955610E+03  0.13780309019E+04  0.10100000352E+00 0. -1.
       -3    1    3    3    0  502 -0.12692090764E+04 -0.19328063269E+03 -0.15854149797E+04  0.20400465070E+04  0.10100000352E+00 0.  1.
</event>
<event>
 5   0  0.1096672E-05  0.2615277E+04  0.7818609E-02  0.8363031E-01
        1   -1    0    0  501    0  0.00000000000E+00  0.00000000000E+00  0.13494225664E+04  0.13494225664E+04  0.50400001928E-02 0. -1.
       -1   -1    0    0    0  501  0.00000000000E+00  0.00000000000E+00 -0.12671478864E+04  0.12671478864E+04  0.50400001928E-02 0.  1.
    10030    2    1    2    0    0  0.00000000000E+00  0.00000000000E+00  0.82274679968E+02  0.26165704528E+04  0.26152766224E+04 0.  0.
        1    1    3    3  502    0  0.24024912037E+03  0.40791436493E+03 -0.11784013689E+04  0.12699384061E+04  0.50400001928E-02 0.  1.
       -1    1    3    3    0  502 -0.24024912037E+03 -0.40791436493E+03  0.12606760489E+04  0.13466320467E+04  0.50400001928E-02 0. -1.
</event>
<event>
 5   0  0.1096672E-05  0.2769514E+04  0.7818609E-02  0.8312796E-01
       -1   -1    0    0    0  501  0.00000000000E+00  0.00000000000E+00  0.77679633972E+03  0.77679633974E+03  0.50400001928E-02 0. -1.
        1   -1    0    0  501    0  0.00000000000E+00  0.00000000000E+00 -0.24685396259E+04  0.24685396259E+04  0.50400001928E-02 0.  1.
    10030    2    1    2    0    0  0.00000000000E+00  0.00000000000E+00 -0.16917432862E+04  0.32453359656E+04  0.27695144310E+04 0.  0.
        1    1    3    3  502    0  0.12812447822E+04 -0.51905028790E+03 -0.94071674028E+03  0.16721092604E+04  0.50400001928E-02 0. -1.
       -1    1    3    3    0  502 -0.12812447822E+04  0.51905028790E+03 -0.75102654589E+03  0.15732267052E+04  0.50400001928E-02 0.  1.
</event>
<event>
 5   0  0.1041909E-05  0.2032043E+04  0.7818609E-02  0.8591784E-01
        1   -1    0    0  501    0  0.00000000000E+00  0.00000000000E+00  0.16737737922E+04  0.16737737922E+04  0.50400001928E-02 0.  1.
       -1   -1    0    0    0  501  0.00000000000E+00  0.00000000000E+00 -0.61674978781E+03  0.61674978783E+03  0.50400001928E-02 0. -1.
    10030    2    1    2    0    0  0.00000000000E+00  0.00000000000E+00  0.10570240044E+04  0.22905235801E+04  0.20320429437E+04 0.  0.
        5    1    3    3  502    0 -0.81241435796E+03 -0.10275760796E+03 -0.14940563947E+03  0.83241837444E+03  0.46999998093E+01 0. -1.
       -5    1    3    3    0  502  0.81241435796E+03  0.10275760796E+03  0.12064296439E+04  0.14581052056E+04  0.46999998093E+01 0.  1.
</event>
<event>
 5   0  0.1041909E-05  0.2636492E+04  0.7818609E-02  0.8355910E-01
       -1   -1    0    0    0  501  0.00000000000E+00  0.00000000000E+00  0.12894922835E+04  0.12894922835E+04  0.50400001928E-02 0. -1.
        1   -1    0    0  501    0  0.00000000000E+00  0.00000000000E+00 -0.13476409222E+04  0.13476409222E+04  0.50400001928E-02 0.  1.
    10030    2    1    2    0    0  0.00000000000E+00  0.00000000000E+00 -0.58148638629E+02  0.26371332057E+04  0.26364920406E+04 0.  0.
        5    1    3    3  502    0  0.96049673394E+03  0.64163434892E+03 -0.66444676483E+03  0.13325765295E+04  0.46999998093E+01 0.  1.
       -5    1    3    3    0  502 -0.96049673394E+03 -0.64163434892E+03  0.60629812620E+03  0.13045566762E+04  0.46999998093E+01 0. -1.
</event>
<event>
 5   0  0.9971923E-06  0.2690046E+04  0.7818609E-02  0.8338242E-01
       -1   -1    0    0    0  501  0.00000000000E+00  0.00000000000E+00  0.10016014651E+04  0.10016014651E+04  0.50400001928E-02 0. -1.
        1   -1    0    0  501    0  0.00000000000E+00  0.00000000000E+00 -0.18061941013E+04  0.18061941013E+04  0.50400001928E-02 0.  1.
    10030    2    1    2    0    0  0.00000000000E+00  0.00000000000E+00 -0.80459263625E+03  0.28077955664E+04  0.26900458421E+04 0.  0.
        2    1    3    3  502    0 -0.60899230965E+03  0.59827710952E+03  0.68256412840E+03  0.10930237520E+04  0.25500000920E-02 0. -1.
       -2    1    3    3    0  502  0.60899230965E+03 -0.59827710952E+03 -0.14871567646E+04  0.17147718145E+04  0.25500000920E-02 0.  1.
</event>
<event>
 5   0  0.9971923E-06  0.1839041E+04  0.7818609E-02  0.8685809E-01
        1   -1    0    0  501    0  0.00000000000E+00  0.00000000000E+00  0.13553268542E+04  0.13553268542E+04  0.50400001928E-02 0. -1.
       -1   -1    0    0    0  501  0.00000000000E+00  0.00000000000E+00 -0.62384823525E+03  0.62384823527E+03  0.50400001928E-02 0.  1.
    10030    2    1    2    0    0  0.00000000000E+00  0.00000000000E+00  0.73147861899E+03  0.19791750895E+04  0.18390413440E+04 0.  0.
        2    1    3    3  502    0 -0.28264194573E+03  0.70494377489E+03  0.92358656354E+03  0.11957609860E+04  0.25500000920E-02 0. -1.
       -2    1    3    3    0  502  0.28264194573E+03 -0.70494377489E+03 -0.19210794455E+03  0.78341410353E+03  0.25500000920E-02 0.  1.
</event>
<event>
 5   0  0.9971923E-06  0.2666556E+04  0.7818609E-02  0.8345939E-01
        1   -1    0    0  501    0  0.00000000000E+00  0.00000000000E+00  0.20896237843E+04  0.20896237844E+04  0.50400001928E-02 0. -1.
       -1   -1    0    0    0  501  0.00000000000E+00  0.00000000000E+00 -0.85069398760E+03  0.85069398761E+03  0.50400001928E-02 0.  1.
    10030    2    1    2    0    0  0.00000000000E+00  0.00000000000E+00  0.12389297968E+04  0.29403177720E+04  0.26665561233E+04 0.  0.
        2    1    3    3  502    0  0.48268556096E+03 -0.90249456504E+03 -0.32274826698E+03  0.10731487476E+04  0.25500000920E-02 0.  1.
       -2    1    3    3    0  502 -0.48268556096E+03  0.90249456504E+03  0.15616780637E+04  0.18671690243E+04  0.25500000920E-02 0. -1.
</event>
<event>
 5   0  0.2641216E-05  0.2732320E+04  0.7818609E-02  0.8324594E-01
       -2   -1    0    0    0  501  0.00000000000E+00  0.00000000000E+00  0.10814276254E+04  0.10814276254E+04  0.25500000920E-02 0.  1.
        2   -1    0    0  501    0  0.00000000000E+00  0.00000000000E+00 -0.17258606549E+04  0.17258606549E+04  0.25500000920E-02 0. -1.
    10030    2    1    2    0    0  0.00000000000E+00  0.00000000000E+00 -0.64443302954E+03  0.28072882803E+04  0.27323201787E+04 0.  0.
        5    1    3    3  502    0  0.11524629237E+04 -0.29849730838E+03  0.36631985573E+03  0.12455857098E+04  0.46999998093E+01 0.  1.
       -5    1    3    3    0  502 -0.11524629237E+04  0.29849730838E+03 -0.10107528853E+04  0.15617025705E+04  0.46999998093E+01 0. -1.
</event>
<event>
 5   0  0.1096672E-05  0.3176591E+04  0.7818609E-02  0.8195027E-01
       -1   -1    0    0    0  501  0.00000000000E+00  0.00000000000E+00  0.74322223439E+03  0.74322223441E+03  0.50400001928E-02 0.  1.
        1   -1    0    0  501    0  0.00000000000E+00  0.00000000000E+00 -0.33942498059E+04  0.33942498059E+04  0.50400001928E-02 0. -1.
    10030    2    1    2    0    0  0.00000000000E+00  0.00000000000E+00 -0.26510275715E+04  0.41374720403E+04  0.31765905779E+04 0.  0.
        1    1    3    3  502    0 -0.53333341986E+03 -0.13339115211E+04 -0.44316333742E+03  0.15033822622E+04  0.50400001928E-02 0. -1.
       -1    1    3    3    0  502  0.53333341986E+03  0.13339115211E+04 -0.22078642341E+04  0.26340897781E+04  0.50400001928E-02 0.  1.
</event>
<event>
 5   0  0.8740500E-06  0.3030904E+04  0.7818609E-02  0.8234961E-01
        3   -1    0    0  501    0  0.00000000000E+00  0.00000000000E+00  0.99841355222E+03  0.99841355733E+03  0.10100000352E+00 0.  1.
       -3   -1    0    0    0  501  0.00000000000E+00  0.00000000000E+00 -0.23002433513E+04  0.23002433535E+04  0.10100000352E+00 0. -1.
    10030    2    1    2    0    0  0.00000000000E+00  0.00000000000E+00 -0.13018297991E+04  0.32986569109E+04  0.30309035930E+04 0.  0.
        4    1    3    3  502    0 -0.12957802785E+04  0.42655132685E+03 -0.13692199923E+04  0.19328107938E+04  0.12699999809E+01 0.  1.
       -4    1    3    3    0  502  0.12957802785E+04 -0.42655132685E+03  0.67390193183E+02  0.13658461171E+04  0.12699999809E+01 0. -1.
</event>
<event>
 5   0  0.2615843E-05  0.2808744E+04  0.7818609E-02  0.8300559E-01
       -2   -1    0    0    0  501  0.00000000000E+00  0.00000000000E+00  0.90011468861E+03  0.90011468861E+03  0.25500000920E-02 0. -1.
        2   -1    0    0  501    0  0.00000000000E+00  0.00000000000E+00 -0.21911216576E+04  0.21911216576E+04  0.25500000920E-02 0.  1.
    10030    2    1    2    0    0  0.00000000000E+00  0.00000000000E+00 -0.12910069690E+04  0.30912363462E+04  0.28087440528E+04 0.  0.
        3    1    3    3  502    0 -0.81692581180E+03 -0.93095230582E+03  0.83058554933E+02  0.12413455246E+04  0.10100000352E+00 0. -1.
       -3    1    3    3    0  502  0.81692581180E+03  0.93095230582E+03 -0.13740655239E+04  0.18498908216E+04  0.10100000352E+00 0.  1.
</event>
<event>
 5   0  0.1036691E-05  0.2632672E+04  0.7818609E-02  0.8357187E-01
       -1   -1    0    0    0  501  0.00000000000E+00  0.00000000000E+00  0.18838224841E+04  0.18838224841E+04  0.50400001928E-02 0. -1.
        1   -1    0    0  501    0  0.00000000000E+00  0.00000000000E+00 -0.91980058704E+03  0.91980058706E+03  0.50400001928E-02 0.  1.
    10030    2    1    2    0    0  0.00000000000E+00  0.00000000000E+00  0.96402189706E+03  0.28036230712E+04  0.26326724269E+04 0.  0.
        4    1    3    3  502    0 -0.61218805373E+03 -0.30435541972E+02 -0.75855239776E+03  0.97524555287E+03  0.12699999809E+01 0.  1.
       -4    1    3    3    0  502  0.61218805373E+03  0.30435541972E+02  0.17225742948E+04  0.18283775183E+04  0.12699999809E+01 0. -1.
</event>
<event>
 5   0  0.2516518E-05  0.2302719E+04  0.7818609E-02  0.8476850E-01
       -2   -1    0    0    0  501  0.00000000000E+00  0.00000000000E+00  0.83914597460E+03  0.83914597460E+03  0.25500000920E-02 0.  1.
        2   -1    0    0  501    0  0.00000000000E+00  0.00000000000E+00 -0.15797354847E+04  0.15797354847E+04  0.25500000920E-02 0. -1.
    10030    2    1    2    0    0  0.00000000000E+00  0.00000000000E+00 -0.74058951011E+03  0.24188814593E+04  0.23027189780E+04 0.  0.
        4    1    3    3  502    0 -0.11333977427E+04 -0.19732641135E+03 -0.32216984150E+03  0.11947063135E+04  0.12699999809E+01 0.  1.
       -4    1    3    3    0  502  0.11333977427E+04  0.19732641135E+03 -0.41841966862E+03  0.12241751459E+04  0.12699999809E+01 0. -1.
</event>
<event>
 5   0  0.2540232E-05  0.2878821E+04  0.7818609E-02  0.8279207E-01
        2   -1    0    0  501    0  0.00000000000E+00  0.00000000000E+00  0.18561625541E+04  0.18561625541E+04  0.25500000920E-02 0.  1.
       -2   -1    0    0    0  501  0.00000000000E+00  0.00000000000E+00 -0.11162289492E+04  0.11162289492E+04  0.25500000920E-02 0. -1.
    10030    2    1    2    0    0  0.00000000000E+00  0.00000000000E+00  0.73993360492E+03  0.29723915033E+04  0.28788208540E+04 0.  0.
        1    1    3    3  502    0  0.11928532384E+04  0.51275526095E+03 -0.27158710876E+03  0.13264902425E+04  0.50400001928E-02 0.  1.
       -1    1    3    3    0  502 -0.11928532384E+04 -0.51275526095E+03  0.10115207137E+04  0.16459012607E+04  0.50400001928E-02 0. -1.
</event>
<event>
 5   0  0.1005265E-05  0.2593611E+04  0.7818609E-02  0.8370375E-01
        1   -1    0    0  501    0  0.00000000000E+00  0.00000000000E+00  0.10619065103E+04  0.10619065103E+04  0.50400001928E-02 0.  1.
       -1   -1    0    0    0  501  0.00000000000E+00  0.00000000000E+00 -0.15836655260E+04  0.15836655260E+04  0.50400001928E-02 0. -1.
    10030    2    1    2    0    0  0.00000000000E+00  0.00000000000E+00 -0.52175901576E+03  0.26455720363E+04  0.25936111753E+04 0.  0.
        3    1    3    3  502    0  0.77470237630E+03 -0.47412181352E+03 -0.12050309076E+04  0.15089913069E+04  0.10100000352E+00 0. -1.
       -3    1    3    3    0  502 -0.77470237630E+03  0.47412181352E+03  0.68327189187E+03  0.11365807293E+04  0.10100000352E+00 0.  1.
</event>
<event>
 5   0  0.2615843E-05  0.2718471E+04  0.7818609E-02  0.8329037E-01
        2   -1    0    0  501    0  0.00000000000E+00  0.00000000000E+00  0.15601370890E+04  0.15601370890E+04  0.25500000920E-02 0. -1.
       -2   -1    0    0    0  501  0.00000000000E+00  0.00000000000E+00 -0.11842040284E+04  0.11842040284E+04  0.25500000920E-02 0.  1.
    10030    2    1    2    0    0  0.00000000000E+00  0.00000000000E+00  0.37593306057E+03  0.27443411174E+04  0.27184706183E+04 0.  0.
        3    1    3    3  502    0  0.78385351968E+03 -0.90414999423E+03 -0.46284450585E+03  0.12830193292E+04  0.10100000352E+00 0.  1.
       -3    1    3    3    0  502 -0.78385351968E+03  0.90414999423E+03  0.83877756642E+03  0.14613217881E+04  0.10100000352E+00 0. -1.
</event>
<event>
 5   0  0.1036691E-05  0.2539095E+04  0.7818609E-02  0.8389189E-01
       -1   -1    0    0    0  501  0.00000000000E+00  0.00000000000E+00  0.15474937615E+04  0.15474937615E+04  0.50400001928E-02 0.  1.
        1   -1    0    0  501    0  0.00000000000E+00  0.00000000000E+00 -0.10415230544E+04  0.10415230544E+04  0.50400001928E-02 0. -1.
    10030    2    1    2    0    0  0.00000000000E+00  0.00000000000E+00  0.50597070716E+03  0.25890168159E+04  0.25390946648E+04 0.  0.
        4    1    3    3  502    0 -0.10411285381E+04  0.20249508601E+03  0.96441088137E+03  0.14335420655E+04  0.12699999809E+01 0.  1.
       -4    1    3    3    0  502  0.10411285381E+04 -0.20249508601E+03 -0.45844017421E+03  0.11554747504E+04  0.12699999809E+01 0. -1.
</event>
<event>
 5   0  0.2540684E-05  0.2781178E+04  0.7818609E-02  0.8309136E-01
        2   -1    0    0  501    0  0.00000000000E+00  0.00000000000E+00  0.10559228924E+04  0.10559228924E+04  0.25500000920E-02 0.  1.
       -2   -1    0    0    0  501  0.00000000000E+00  0.00000000000E+00 -0.18313242165E+04  0.18313242165E+04  0.25500000920E-02 0. -1.
    10030    2    1    2    0    0  0.00000000000E+00  0.00000000000E+00 -0.77540132408E+03  0.28872471089E+04  0.27811775662E+04 0.  0.
        2    1    3    3  502    0 -0.99335078779E+03 -0.82244418759E+03  0.15230787235E+03  0.12985984434E+04  0.25500000920E-02 0.  1.
       -2    1    3    3    0  502  0.99335078779E+03  0.82244418759E+03 -0.92770919643E+03  0.15886486655E+04  0.25500000920E-02 0. -1.
</event>
<event>
 5   0  0.1036691E-05  0.2687053E+04  0.7818609E-02  0.8339218E-01
        1   -1    0    0  501    0  0.00000000000E+00  0.00000000000E+00  0.13516896848E+04  0.13516896848E+04  0.50400001928E-02 0.  1.
       -1   -1    0    0    0  501  0.00000000000E+00  0.00000000000E+00 -0.13354122633E+04  0.13354122633E+04  0.50400001928E-02 0. -1.
    10030    2    1    2    0    0  0.00000000000E+00  0.00000000000E+00  0.16277421542E+02  0.26871019481E+04  0.26870526465E+04 0.  0.
        4    1    3    3  502    0 -0.18644602721E+03 -0.68689247310E+03  0.11476673970E+04  0.13504537969E+04  0.12699999809E+01 0.  1.
       -4    1    3    3    0  502  0.18644602721E+03  0.68689247310E+03 -0.11313899754E+04  0.13366481512E+04  0.12699999809E+01 0. -1.
</event>
<event>
 5   0  0.1036691E-05  0.2685132E+04  0.7818609E-02  0.8339845E-01
        1   -1    0    0  501    0  0.00000000000E+00  0.00000000000E+00  0.70271951361E+03  0.70271951363E+03  0.50400001928E-02 0.  1.
       -1   -1    0    0    0  501  0.00000000000E+00  0.00000000000E+00 -0.25650118908E+04  0.25650118908E+04  0.50400001928E-02 0. -1.
    10030    2    1    2    0    0  0.00000000000E+00  0.00000000000E+00 -0.18622923772E+04  0.32677314044E+04  0.26851323307E+04 0.  0.
        4    1    3    3  502    0 -0.32649217827E+03 -0.12049504728E+03  0.64687126029E+03  0.73454764255E+03  0.12699999809E+01 0.  1.
       -4    1    3    3    0  502  0.32649217827E+03  0.12049504728E+03 -0.25091636375E+04  0.25331837619E+04  0.12699999809E+01 0. -1.
</event>
<event>
 5   0  0.9971923E-06  0.2488131E+04  0.7818609E-02  0.8407226E-01
        1   -1    0    0  501    0  0.00000000000E+00  0.00000000000E+00  0.22462012449E+04  0.22462012449E+04  0.50400001928E-02 0.  1.
       -1   -1    0    0    0  501  0.00000000000E+00  0.00000000000E+00 -0.68902971577E+03  0.68902971579E+03  0.50400001928E-02 0. -1.
    10030    2    1    2    0    0  0.00000000000E+00  0.00000000000E+00  0.15571715291E+04  0.29352309607E+04  0.24881313513E+04 0.  0.
        2    1    3    3  502    0  0.24679913111E+03  0.97943416944E+03  0.16353858658E+04  0.19221571303E+04  0.25500000920E-02 0.  1.
       -2    1    3    3    0  502 -0.24679913111E+03 -0.97943416944E+03 -0.78214336710E+02  0.10130738304E+04  0.25500000920E-02 0. -1.
</event>
<event>
 5   0  0.2540684E-05  0.2661363E+04  0.7818609E-02  0.8347651E-01
        2   -1    0    0  501    0  0.00000000000E+00  0.00000000000E+00  0.26690420252E+04  0.26690420252E+04  0.25500000920E-02 0. -1.
       -2   -1    0    0    0  501  0.00000000000E+00  0.00000000000E+00 -0.66342660983E+03  0.66342660983E+03  0.25500000920E-02 0.  1.
    10030    2    1    2    0    0  0.00000000000E+00  0.00000000000E+00  0.20056154154E+04  0.33324686350E+04  0.26613631862E+04 0.  0.
        2    1    3    3  502    0  0.15196276742E+03  0.11646673000E+04  0.17859581455E+04  0.21375661627E+04  0.25500000920E-02 0. -1.
       -2    1    3    3    0  502 -0.15196276742E+03 -0.11646673000E+04  0.21965726987E+03  0.11949024724E+04  0.25500000920E-02 0.  1.
</event>
<event>
 5   0  0.2540232E-05  0.2779573E+04  0.7818609E-02  0.8309638E-01
       -2   -1    0    0    0  501  0.00000000000E+00  0.00000000000E+00  0.17639724143E+04  0.17639724143E+04  0.25500000920E-02 0. -1.
        2   -1    0    0  501    0  0.00000000000E+00  0.00000000000E+00 -0.10949757197E+04  0.10949757197E+04  0.25500000920E-02 0.  1.
    10030    2    1    2    0    0  0.00000000000E+00  0.00000000000E+00  0.66899669462E+03  0.28589481341E+04  0.27795733226E+04 0.  0.
        1    1    3    3  502    0  0.22389753530E+03 -0.15702164542E+03 -0.10670286684E+04  0.11015153574E+04  0.50400001928E-02 0.  1.
       -1    1    3    3    0  502 -0.22389753530E+03  0.15702164542E+03  0.17360253630E+04  0.17574327766E+04  0.50400001928E-02 0. -1.
</event>
<event>
 5   0  0.2641216E-05  0.2724055E+04  0.7818609E-02  0.8327242E-01
       -2   -1    0    0    0  501  0.00000000000E+00  0.00000000000E+00  0.97368132129E+03  0.97368132129E+03  0.25500000920E-02 0.  1.
        2   -1    0    0  501    0  0.00000000000E+00  0.00000000000E+00 -0.19052633187E+04  0.19052633187E+04  0.25500000920E-02 0. -1.
    10030    2    1    2    0    0  0.00000000000E+00  0.00000000000E+00 -0.93158199738E+03  0.28789446400E+04  0.27240552898E+04 0.  0.
        5    1    3    3  502    0 -0.10552014071E+04  0.12538328517E+03 -0.13662493754E+04  0.17308467360E+04  0.46999998093E+01 0.  1.
       -5    1    3    3    0  502  0.10552014071E+04 -0.12538328517E+03  0.43466737798E+03  0.11480979040E+04  0.46999998093E+01 0. -1.
</event>
<event>
 5   0  0.2540232E-05  0.1824240E+04  0.7818609E-02  0.8693514E-01
       -2   -1    0    0    0  501  0.00000000000E+00  0.00000000000E+00  0.65560733962E+03  0.65560733963E+03  0.25500000920E-02 0. -1.
        2   -1    0    0  501    0  0.00000000000E+00  0.00000000000E+00 -0.12689953833E+04  0.12689953833E+04  0.25500000920E-02 0.  1.
    10030    2    1    2    0    0  0.00000000000E+00  0.00000000000E+00 -0.61338804372E+03  0.19246027230E+04  0.18242397729E+04 0.  0.
        1    1    3    3  502    0  0.35781972831E+02 -0.75371263879E+02  0.65157301119E+03  0.65689311606E+03  0.50400001928E-02 0. -1.
       -1    1    3    3    0  502 -0.35781972831E+02  0.75371263879E+02 -0.12649610549E+04  0.12677096069E+04  0.50400001928E-02 0.  1.
</event>
<event>
 5   0  0.1096672E-05  0.2514913E+04  0.7818609E-02  0.8397692E-01
       -1   -1    0    0    0  501  0.00000000000E+00  0.00000000000E+00  0.17589397612E+04  0.17589397612E+04  0.50400001928E-02 0.  1.
        1   -1    0    0  501    0  0.00000000000E+00  0.00000000000E+00 -0.89894855014E+03  0.89894855016E+03  0.50400001928E-02 0. -1.
    10030    2    1    2    0    0  0.00000000000E+00  0.00000000000E+00  0.85999121102E+03  0.26578883113E+04  0.25149126014E+04 0.  0.
        1    1    3    3  502    0  0.47858980050E+03  0.27238881218E+03  0.16247294974E+04  0.17155144424E+04  0.50400001928E-02 0.  1.
       -1    1    3    3    0  502 -0.47858980050E+03 -0.27238881218E+03 -0.76473828641E+03  0.94237386895E+03  0.50400001928E-02 0. -1.
</event>
<event>
 5   0  0.2641216E-05  0.2732324E+04  0.7818609E-02  0.8324593E-01
       -2   -1    0    0    0  501  0.00000000000E+00  0.00000000000E+00  0.12528290117E+04  0.12528290117E+04  0.25500000920E-02 0. -1.
        2   -1    0    0  501    0  0.00000000000E+00  0.00000000000E+00 -0.14897473513E+04  0.14897473513E+04  0.25500000920E-02 0.  1.
    10030    2    1    2    0    0  0.00000000000E+00  0.00000000000E+00 -0.23691833968E+03  0.27425763630E+04  0.27323240670E+04 0.  0.
        5    1    3    3  502    0 -0.89859025049E+03 -0.24762346336E+03  0.88408521345E+03  0.12846830631E+04  0.46999998093E+01 0. -1.
       -5    1    3    3    0  502  0.89859025049E+03  0.24762346336E+03 -0.11210035531E+04  0.14578932999E+04  0.46999998093E+01 0.  1.
</event>
<event>
 5   0  0.8740500E-06  0.2687202E+04  0.7818609E-02  0.8339170E-01
       -3   -1    0    0    0  501  0.00000000000E+00  0.00000000000E+00  0.19944670145E+04  0.19944670170E+04  0.10100000352E+00 0. -1.
        3   -1    0    0  501    0  0.00000000000E+00  0.00000000000E+00 -0.90513563349E+03  0.90513563912E+03  0.10100000352E+00 0.  1.
    10030    2    1    2    0    0  0.00000000000E+00  0.00000000000E+00  0.10893313810E+04  0.28996026562E+04  0.26872016497E+04 0.  0.
        5    1    3    3  502    0  0.87443957995E+03 -0.71080377770E+03 -0.24484671623E+03  0.11531949505E+04  0.46999998093E+01 0.  1.
       -5    1    3    3    0  502 -0.87443957995E+03  0.71080377770E+03  0.13341780972E+04  0.17464077057E+04  0.46999998093E+01 0. -1.
</event>
<event>
 5   0  0.2516518E-05  0.2801851E+04  0.7818609E-02  0.8302694E-01
       -2   -1    0    0    0  501  0.00000000000E+00  0.00000000000E+00  0.22304326198E+04  0.22304326198E+04  0.25500000920E-02 0.  1.
        2   -1    0    0  501    0  0.00000000000E+00  0.00000000000E+00 -0.87991565742E+03  0.87991565742E+03  0.25500000920E-02 0. -1.
    10030    2    1    2    0    0  0.00000000000E+00  0.00000000000E+00  0.13505169624E+04  0.31103482772E+04  0.28018512345E+04 0.  0.
        4    1    3    3  502    0  0.10448897526E+04  0.10199759169E+03 -0.35444540013E+03  0.11080754751E+04  0.12699999809E+01 0. -1.
       -4    1    3    3    0  502 -0.10448897526E+04 -0.10199759169E+03  0.17049623625E+04  0.20022728022E+04  0.12699999809E+01 0.  1.
</event>
<event>
 5   0  0.2516518E-05  0.2500897E+04  0.7818609E-02  0.8402666E-01
        2   -1    0    0  501    0  0.00000000000E+00  0.00000000000E+00  0.19454630295E+04  0.19454630295E+04  0.25500000920E-02 0. -1.
       -2   -1    0    0    0  501  0.00000000000E+00  0.00000000000E+00 -0.80372740350E+03  0.80372740351E+03  0.25500000920E-02 0.  1.
    10030    2    1    2    0    0  0.00000000000E+00  0.00000000000E+00  0.11417356260E+04  0.27491904330E+04  0.25008973984E+04 0.  0.
        4    1    3    3  502    0 -0.53919585239E+03 -0.42883170614E+02 -0.66847122697E+03  0.85989913812E+03  0.12699999809E+01 0.  1.
       -4    1    3    3    0  502  0.53919585239E+03  0.42883170614E+02  0.18102068530E+04  0.18892912949E+04  0.12699999809E+01 0. -1.
</event>
<event>
 5   0  0.9971923E-06  0.2725413E+04  0.7818609E-02  0.8326806E-01
        1   -1    0    0  501    0  0.00000000000E+00  0.00000000000E+00  0.15066923031E+04  0.15066923031E+04  0.50400001928E-02 0.  1.
       -1   -1    0    0    0  501  0.00000000000E+00  0.00000000000E+00 -0.12324805141E+04  0.12324805142E+04  0.50400001928E-02 0. -1.
    10030    2    1    2    0    0  0.00000000000E+00  0.00000000000E+00  0.27421178896E+03  0.27391728173E+04  0.27254129261E+04 0.  0.
        2    1    3    3  502    0 -0.98956939814E+03 -0.33074841070E+03 -0.74386206337E+03  0.12813948940E+04  0.25500000920E-02 0. -1.
       -2    1    3    3    0  502  0.98956939814E+03  0.33074841070E+03  0.10180738523E+04  0.14577779233E+04  0.25500000920E-02 0.  1.
</event>
<event>
 5   0  0.1005265E-05  0.2689741E+04  0.7818609E-02  0.8338341E-01
       -1   -1    0    0    0  501  0.00000000000E+00  0.00000000000E+00  0.97718670107E+03  0.97718670109E+03  0.50400001928E-02 0. -1.
        1   -1    0    0  501    0  0.00000000000E+00  0.00000000000E+00 -0.18509022547E+04  0.18509022547E+04  0.50400001928E-02 0.  1.
    10030    2    1    2    0    0  0.00000000000E+00  0.00000000000E+00 -0.87371555362E+03  0.28280889558E+04  0.26897413023E+04 0.  0.
        3    1    3    3  502    0  0.41077455624E+03 -0.68189914014E+03  0.70284904960E+03  0.10619411331E+04  0.10100000352E+00 0. -1.
       -3    1    3    3    0  502 -0.41077455624E+03  0.68189914014E+03 -0.15765646032E+04  0.17661478227E+04  0.10100000352E+00 0.  1.
</event>
<event>
 5   0  0.1041909E-05  0.1822156E+04  0.7818609E-02  0.8694605E-01
        1   -1    0    0  501    0  0.00000000000E+00  0.00000000000E+00  0.11812614626E+04  0.11812614626E+04  0.50400001928E-02 0. -1.
       -1   -1    0    0    0  501  0.00000000000E+00  0.00000000000E+00 -0.70269202419E+03  0.70269202421E+03  0.50400001928E-02 0.  1.
    10030    2    1    2    0    0  0.00000000000E+00  0.00000000000E+00  0.47856943842E+03  0.18839534868E+04  0.18221558751E+04 0.  0.
        5    1    3    3  502    0 -0.83680904554E+03  0.16422907298E+03 -0.92246317752E+02  0.85775989661E+03  0.46999998093E+01 0.  1.
       -5    1    3    3    0  502  0.83680904554E+03 -0.16422907298E+03  0.57081575617E+03  0.10261935902E+04  0.46999998093E+01 0. -1.
</event>
<event>
 5   0  0.2516518E-05  0.2662409E+04  0.7818609E-02  0.8347306E-01
       -2   -1    0    0    0  501  0.00000000000E+00  0.00000000000E+00  0.13998215360E+04  0.13998215360E+04  0.25500000920E-02 0. -1.
        2   -1    0    0  501    0  0.00000000000E+00  0.00000000000E+00 -0.12659509745E+04  0.12659509745E+04  0.25500000920E-02 0.  1.
    10030    2    1    2    0    0  0.00000000000E+00  0.00000000000E+00  0.13387056147E+03  0.26657725105E+04  0.26624090126E+04 0.  0.
        4    1    3    3  502    0  0.20654159571E+02  0.45060262363E+03  0.13209689372E+04  0.13958616926E+04  0.12699999809E+01 0. -1.
       -4    1    3    3    0  502 -0.20654159571E+02 -0.45060262363E+03 -0.11870983758E+04  0.12699108179E+04  0.12699999809E+01 0.  1.
</event>
<event>
 5   0  0.2641216E-05  0.2658683E+04  0.7818609E-02  0.8348537E-01
       -2   -1    0    0    0  501  0.00000000000E+00  0.00000000000E+00  0.11227690902E+04  0.11227690902E+04  0.25500000920E-02 0. -1.
        2   -1    0    0  501    0  0.00000000000E+00  0.00000000000E+00 -0.15739205925E+04  0.15739205925E+04  0.25500000920E-02 0.  1.
    10030    2    1    2    0    0  0.00000000000E+00  0.00000000000E+00 -0.45115150233E+03  0.26966896827E+04  0.26586834273E+04 0.  0.
        5    1    3    3  502    0  0.11231258146E+04  0.68081647861E+03 -0.43395016301E+03  0.13832055187E+04  0.46999998093E+01 0. -1.
       -5    1    3    3    0  502 -0.11231258146E+04 -0.68081647861E+03 -0.17201339316E+02  0.13134841640E+04  0.46999998093E+01 0.  1.
</event>
<event>
 5   0  0.2540232E-05  0.2674827E+04  0.7818609E-02  0.8343219E-01
        2   -1    0    0  501    0  0.00000000000E+00  0.00000000000E+00  0.10813223206E+04  0.10813223206E+04  0.25500000920E-02 0. -1.
       -2   -1    0    0    0  501  0.00000000000E+00  0.00000000000E+00 -0.16541554741E+04  0.16541554741E+04  0.25500000920E-02 0.  1.
    10030    2    1    2    0    0  0.00000000000E+00  0.00000000000E+00 -0.57283315341E+03  0.27354777947E+04  0.26748272736E+04 0.  0.
        1    1    3    3  502    0  0.27654928581E+03  0.12119006033E+04  0.21822192783E+03  0.12620631480E+04  0.50400001928E-02 0. -1.
       -1    1    3    3    0  502 -0.27654928581E+03 -0.12119006033E+04 -0.79105508124E+03  0.14734146467E+04  0.50400001928E-02 0.  1.
</event>
<event>
 5   0  0.2540232E-05  0.2820259E+04  0.7818609E-02  0.8297006E-01
        2   -1    0    0  501    0  0.00000000000E+00  0.00000000000E+00  0.16222927010E+04  0.16222927010E+04  0.25500000920E-02 0. -1.
       -2   -1    0    0    0  501  0.00000000000E+00  0.00000000000E+00 -0.12257127648E+04  0.12257127648E+04  0.25500000920E-02 0.  1.
    10030    2    1    2    0    0  0.00000000000E+00  0.00000000000E+00  0.39657993620E+03  0.28480054657E+04  0.28202587624E+04 0.  0.
        1    1    3    3  502    0  0.57968027682E+03  0.67544649206E+03 -0.90618316340E+03  0.12702067204E+04  0.50400001928E-02 0.  1.
       -1    1    3    3    0  502 -0.57968027682E+03 -0.67544649206E+03  0.13027630996E+04  0.15777987453E+04  0.50400001928E-02 0. -1.
</event>
<event>
 5   0  0.1041909E-05  0.2707829E+04  0.7818609E-02  0.8332469E-01
       -1   -1    0    0    0  501  0.00000000000E+00  0.00000000000E+00  0.76933871338E+03  0.76933871340E+03  0.50400001928E-02 0. -1.
        1   -1    0    0  501    0  0.00000000000E+00  0.00000000000E+00 -0.23826757615E+04  0.23826757615E+04  0.50400001928E-02 0.  1.
    10030    2    1    2    0    0  0.00000000000E+00  0.00000000000E+00 -0.16133370481E+04  0.31520144749E+04  0.27078291710E+04 0.  0.
        5    1    3    3  502    0 -0.26206726666E+03  0.34372412141E+02 -0.23523427433E+04  0.23671500136E+04  0.46999998093E+01 0.  1.
       -5    1    3    3    0  502  0.26206726666E+03 -0.34372412141E+02  0.73900569522E+03  0.78486446126E+03  0.46999998093E+01 0. -1.
</event>
<event>
 5   0  0.1041909E-05  0.2687845E+04  0.7818609E-02  0.8338960E-01
       -1   -1    0    0    0  501  0.00000000000E+00  0.00000000000E+00  0.79818304281E+03  0.79818304283E+03  0.50400001928E-02 0.  1.
        1   -1    0    0  501    0  0.00000000000E+00  0.00000000000E+00 -0.22627991595E+04  0.22627991595E+04  0.50400001928E-02 0. -1.
    10030    2    1    2    0    0  0.00000000000E+00  0.00000000000E+00 -0.14646161167E+04  0.30609822024E+04  0.26878451730E+04 0.  0.
        5    1    3    3  502    0  0.40068302275E+03 -0.12111478046E+04 -0.12136951646E+04  0.17608247874E+04  0.46999998093E+01 0.  1.
       -5    1    3    3    0  502 -0.40068302275E+03  0.12111478046E+04 -0.25092095211E+03  0.13001574149E+04  0.46999998093E+01 0. -1.
</event>
<event>
 5   0  0.2516518E-05  0.3055542E+04  0.7818609E-02  0.8228046E-01
        2   -1    0    0  501    0  0.00000000000E+00  0.00000000000E+00  0.22943324208E+04  0.22943324208E+04  0.25500000920E-02 0. -1.
       -2   -1    0    0    0  501  0.00000000000E+00  0.00000000000E+00 -0.10173258394E+04  0.10173258394E+04  0.25500000920E-02 0.  1.
    10030    2    1    2    0    0  0.00000000000E+00  0.00000000000E+00  0.12770065813E+04  0.33116582602E+04  0.30555416252E+04 0.  0.
        4    1    3    3  502    0  0.13257542940E+04  0.66650674874E+03  0.24439432684E+03  0.15038570058E+04  0.12699999809E+01 0.  1.
       -4    1    3    3    0  502 -0.13257542940E+04 -0.66650674874E+03  0.10326122545E+04  0.18078012543E+04  0.12699999809E+01 0. -1.
</event>
<event>
 5   0  0.1036691E-05  0.2676240E+04  0.7818609E-02  0.8342756E-01
        1   -1    0    0  501    0  0.00000000000E+00  0.00000000000E+00  0.15297891214E+04  0.15297891214E+04  0.50400001928E-02 0.  1.
       -1   -1    0    0    0  501  0.00000000000E+00  0.00000000000E+00 -0.11704651147E+04  0.11704651147E+04  0.50400001928E-02 0. -1.
    10030    2    1    2    0    0  0.00000000000E+00  0.00000000000E+00  0.35932400669E+03  0.27002542361E+04  0.26762397497E+04 0.  0.
        4    1    3    3  502    0 -0.19830189749E+03  0.11648535328E+04 -0.45395051721E+03  0.12658120241E+04  0.12699999809E+01 0. -1.
       -4    1    3    3    0  502  0.19830189749E+03 -0.11648535328E+04  0.81327452390E+03  0.14344422120E+04  0.12699999809E+01 0.  1.
</event>
<event>
 5   0  0.2516518E-05  0.2612740E+04  0.7818609E-02  0.8363886E-01
       -2   -1    0    0    0  501  0.00000000000E+00  0.00000000000E+00  0.60926836638E+03  0.60926836638E+03  0.25500000920E-02 0. -1.
        2   -1    0    0  501    0  0.00000000000E+00  0.00000000000E+00 -0.28010696160E+04  0.28010696160E+04  0.25500000920E-02 0.  1.
    10030    2    1    2    0    0  0.00000000000E+00  0.00000000000E+00 -0.21918012496E+04  0.34103379824E+04  0.26127404074E+04 0.  0.
        4    1    3    3  502    0  0.92340331892E+03  0.77793963616E+03 -0.44491410927E+03  0.12867843426E+04  0.12699999809E+01 0.  1.
       -4    1    3    3    0  502 -0.92340331892E+03 -0.77793963616E+03 -0.17468871404E+04  0.21235536398E+04  0.12699999809E+01 0. -1.
</event>
<event>
 5   0  0.1005265E-05  0.2731683E+04  0.7818609E-02  0.8324798E-01
       -1   -1    0    0    0  501  0.00000000000E+00  0.00000000000E+00  0.11552431690E+04  0.11552431691E+04  0.50400001928E-02 0. -1.
        1   -1    0    0  501    0  0.00000000000E+00  0.00000000000E+00 -0.16148310420E+04  0.16148310420E+04  0.50400001928E-02 0.  1.
    10030    2    1    2    0    0  0.00000000000E+00  0.00000000000E+00 -0.45958787297E+03  0.27700742111E+04  0.27316826540E+04 0.  0.
        3    1    3    3  502    0 -0.12277686381E+04 -0.19492389051E+03 -0.80352941731E+03  0.14802265659E+04  0.10100000352E+00 0.  1.
       -3    1    3    3    0  502  0.12277686381E+04  0.19492389051E+03  0.34394154434E+03  0.12898476452E+04  0.10100000352E+00 0. -1.
</event>
<event>
 5   0  0.1036691E-05  0.2865740E+04  0.7818609E-02  0.8283144E-01
        1   -1    0    0  501    0  0.00000000000E+00  0.00000000000E+00  0.26864203736E+04  0.26864203736E+04  0.50400001928E-02 0. -1.
       -1   -1    0    0    0  501  0.00000000000E+00  0.00000000000E+00 -0.76425723855E+03  0.76425723857E+03  0.50400001928E-02 0.  1.
    10030    2    1    2    0    0  0.00000000000E+00  0.00000000000E+00  0.19221631350E+04  0.34506776122E+04  0.28657398461E+04 0.  0.
        4    1    3    3  502    0 -0.14054235052E+03  0.13325157318E+04  0.15724161830E+04  0.20658762289E+04  0.12699999809E+01 0. -1.
       -4    1    3    3    0  502  0.14054235052E+03 -0.13325157318E+04  0.34974695206E+03  0.13848013833E+04  0.12699999809E+01 0.  1.
</event>
<event>
 5   0  0.9971923E-06  0.2706403E+04  0.7818609E-02  0.8332931E-01
        1   -1    0    0  501    0  0.00000000000E+00  0.00000000000E+00  0.12162442365E+04  0.12162442365E+04  0.50400001928E-02 0. -1.
       -1   -1    0    0    0  501  0.00000000000E+00  0.00000000000E+00 -0.15055805224E+04  0.15055805224E+04  0.50400001928E-02 0.  1.
    10030    2    1    2    0    0  0.00000000000E+00  0.00000000000E+00 -0.28933628589E+03  0.27218247589E+04  0.27064025073E+04 0.  0.
        2    1    3    3  502    0 -0.43662127952E+03  0.12734837940E+04 -0.28239566180E+03  0.13755531342E+04  0.25500000920E-02 0.  1.
       -2    1    3    3    0  502  0.43662127952E+03 -0.12734837940E+04 -0.69406240929E+01  0.13462716247E+04  0.25500000920E-02 0. -1.
</event>
<event>
 5   0  0.2540232E-05  0.2518402E+04  0.7818609E-02  0.8396459E-01
       -2   -1    0    0    0  501  0.00000000000E+00  0.00000000000E+00  0.97452233475E+03  0.97452233475E+03  0.25500000920E-02 0.  1.
        2   -1    0    0  501    0  0.00000000000E+00  0.00000000000E+00 -0.16270400097E+04  0.16270400097E+04  0.25500000920E-02 0. -1.
    10030    2    1    2    0    0  0.00000000000E+00  0.00000000000E+00 -0.65251767493E+03  0.26015623444E+04  0.25184017384E+04 0.  0.
        1    1    3    3  502    0  0.59671603826E+02  0.53969164204E+03 -0.14998905027E+04  0.15951486730E+04  0.50400001928E-02 0. -1.
       -1    1    3    3    0  502 -0.59671603826E+02 -0.53969164204E+03  0.84737282777E+03  0.10064136714E+04  0.50400001928E-02 0.  1.
</event>
<event>
 5   0  0.1096672E-05  0.1694619E+04  0.7818609E-02  0.8764439E-01
       -1   -1    0    0    0  501  0.00000000000E+00  0.00000000000E+00  0.70187187981E+03  0.70187187983E+03  0.50400001928E-02 0.  1.
        1   -1    0    0  501    0  0.00000000000E+00  0.00000000000E+00 -0.10228839014E+04  0.10228839014E+04  0.50400001928E-02 0. -1.
    10030    2    1    2    0    0  0.00000000000E+00  0.00000000000E+00 -0.32101202157E+03  0.17247557812E+04  0.16946190684E+04 0.  0.
        1    1    3    3  502    0 -0.34130943987E+03  0.74646308884E+03 -0.37456548853E+03  0.90221869963E+03  0.50400001928E-02 0. -1.
       -1    1    3    3    0  502  0.34130943987E+03 -0.74646308884E+03  0.53553466963E+02  0.82253708159E+03  0.50400001928E-02 0.  1.
</event>
<event>
 5   0  0.2540232E-05  0.2516993E+04  0.7818609E-02  0.8396957E-01
       -2   -1    0    0    0  501  0.00000000000E+00  0.00000000000E+00  0.95261160260E+03  0.95261160261E+03  0.25500000920E-02 0. -1.
        2   -1    0    0  501    0  0.00000000000E+00  0.00000000000E+00 -0.16626008389E+04  0.16626008389E+04  0.25500000920E-02 0.  1.
    10030    2    1    2    0    0  0.00000000000E+00  0.00000000000E+00 -0.70998923627E+03  0.26152124415E+04  0.25169925305E+04 0.  0.
        1    1    3    3  502    0 -0.50748027788E+03  0.70927316460E+03 -0.12977084723E+04  0.15635382738E+04  0.50400001928E-02 0.  1.
       -1    1    3    3    0  502  0.50748027788E+03 -0.70927316460E+03  0.58771923607E+03  0.10516741677E+04  0.50400001928E-02 0. -1.
</event>
<event>
 5   0  0.2540684E-05  0.2656503E+04  0.7818609E-02  0.8349258E-01
       -2   -1    0    0    0  501  0.00000000000E+00  0.00000000000E+00  0.20160963384E+04  0.20160963384E+04  0.25500000920E-02 0. -1.
        2   -1    0    0  501    0  0.00000000000E+00  0.00000000000E+00 -0.87508344603E+03  0.87508344603E+03  0.25500000920E-02 0.  1.
    10030    2    1    2    0    0  0.00000000000E+00  0.00000000000E+00  0.11410128923E+04  0.28911797844E+04  0.26565033644E+04 0.  0.
        2    1    3    3  502    0  0.41573634891E+03  0.12227220241E+04  0.23265315227E+03  0.13122550625E+04  0.25500000920E-02 0. -1.
       -2    1    3    3    0  502 -0.41573634891E+03 -0.12227220241E+04  0.90835974007E+03  0.15789247219E+04  0.25500000920E-02 0.  1.
</event>
<event>
 5   0  0.2516518E-05  0.2659518E+04  0.7818609E-02  0.8348261E-01
        2   -1    0    0  501    0  0.00000000000E+00  0.00000000000E+00  0.11768572570E+04  0.11768572570E+04  0.25500000920E-02 0. -1.
       -2   -1    0    0    0  501  0.00000000000E+00  0.00000000000E+00 -0.15025268124E+04  0.15025268124E+04  0.25500000920E-02 0.  1.
    10030    2    1    2    0    0  0.00000000000E+00  0.00000000000E+00 -0.32566955532E+03  0.26793840694E+04  0.26595184399E+04 0.  0.
        4    1    3    3  502    0  0.74926984538E+03  0.68978645471E+03 -0.10242344624E+04  0.14443920870E+04  0.12699999809E+01 0.  1.
       -4    1    3    3    0  502 -0.74926984538E+03 -0.68978645471E+03  0.69856490704E+03  0.12349919824E+04  0.12699999809E+01 0. -1.
</event>
<event>
 5   0  0.1036691E-05  0.2746394E+04  0.7818609E-02  0.8320107E-01
        1   -1    0    0  501    0  0.00000000000E+00  0.00000000000E+00  0.10003079653E+04  0.10003079653E+04  0.50400001928E-02 0.  1.
       -1   -1    0    0    0  501  0.00000000000E+00  0.00000000000E+00 -0.18850898477E+04  0.18850898477E+04  0.50400001928E-02 0. -1.
    10030    2    1    2    0    0  0.00000000000E+00  0.00000000000E+00 -0.88478188241E+03  0.28853978130E+04  0.27463942834E+04 0.  0.
        4    1    3    3  502    0  0.78195959560E+03 -0.73359873742E+03  0.45895970410E+03  0.11663076522E+04  0.12699999809E+01 0.  1.
       -4    1    3    3    0  502 -0.78195959560E+03  0.73359873742E+03 -0.13437415865E+04  0.17190901608E+04  0.12699999809E+01 0. -1.
</event>
<event>
 5   0  0.1096672E-05  0.2669667E+04  0.7818609E-02  0.8344915E-01
        1   -1    0    0  501    0  0.00000000000E+00  0.00000000000E+00  0.91744076872E+03  0.91744076874E+03  0.50400001928E-02 0.  1.
       -1   -1    0    0    0  501  0.00000000000E+00  0.00000000000E+00 -0.19421197484E+04  0.19421197484E+04  0.50400001928E-02 0. -1.
    10030    2    1    2    0    0  0.00000000000E+00  0.00000000000E+00 -0.10246789797E+04  0.28595605171E+04  0.26696665222E+04 0.  0.
        1    1    3    3  502    0  0.12176337965E+04  0.35802285185E+03 -0.69446360601E+02  0.12710764028E+04  0.50400001928E-02 0. -1.
       -1    1    3    3    0  502 -0.12176337965E+04 -0.35802285185E+03 -0.95523261906E+03  0.15884841143E+04  0.50400001928E-02 0.  1.
</event>
<event>
 5   0  0.2516518E-05  0.1919332E+04  0.7818609E-02  0.8645293E-01
        2   -1    0    0  501    0  0.00000000000E+00  0.00000000000E+00  0.17321165303E+04  0.17321165303E+04  0.25500000920E-02 0.  1.
       -2   -1    0    0    0  501  0.00000000000E+00  0.00000000000E+00 -0.53169554082E+03  0.53169554082E+03  0.25500000920E-02 0. -1.
    10030    2    1    2    0    0  0.00000000000E+00  0.00000000000E+00  0.12004209895E+04  0.22638120712E+04  0.19193317956E+04 0.  0.
        4    1    3    3  502    0  0.95317514253E+03  0.73332443401E+02  0.50127107357E+03  0.10794418936E+04  0.12699999809E+01 0. -1.
       -4    1    3    3    0  502 -0.95317514253E+03 -0.73332443401E+02  0.69914991595E+03  0.11843701775E+04  0.12699999809E+01 0.  1.
</event>
<event>
 5   0  0.2615843E-05  0.2722925E+04  0.7818609E-02  0.8327605E-01
       -2   -1    0    0    0  501  0.00000000000E+00  0.00000000000E+00  0.10558456822E+04  0.10558456822E+04  0.25500000920E-02 0.  1.
        2   -1    0    0  501    0  0.00000000000E+00  0.00000000000E+00 -0.17555408382E+04  0.17555408382E+04  0.25500000920E-02 0. -1.
    10030    2    1    2    0    0  0.00000000000E+00  0.00000000000E+00 -0.69969515594E+03  0.28113865204E+04  0.27229250551E+04 0.  0.
        3    1    3    3  502    0  0.40357834730E+02 -0.69465787576E+03  0.85838441330E+03  0.11049896517E+04  0.10100000352E+00 0.  1.
       -3    1    3    3    0  502 -0.40357834730E+02  0.69465787576E+03 -0.15580795692E+04  0.17063968687E+04  0.10100000352E+00 0. -1.
</event>
<event>
 5   0  0.9971923E-06  0.2711682E+04  0.7818609E-02  0.8331224E-01
        1   -1    0    0  501    0  0.00000000000E+00  0.00000000000E+00  0.21472090399E+04  0.21472090399E+04  0.50400001928E-02 0.  1.
       -1   -1    0    0    0  501  0.00000000000E+00  0.00000000000E+00 -0.85613701819E+03  0.85613701821E+03  0.50400001928E-02 0. -1.
    10030    2    1    2    0    0  0.00000000000E+00  0.00000000000E+00  0.12910720217E+04  0.30033460581E+04  0.27116822416E+04 0.  0.
        2    1    3    3  502    0 -0.20615518145E+03 -0.35871659002E+03  0.20755852764E+04  0.21164195686E+04  0.25500000920E-02 0.  1.
       -2    1    3    3    0  502  0.20615518145E+03  0.35871659002E+03 -0.78451325475E+03  0.88692648944E+03  0.25500000920E-02 0. -1.
</event>
<event>
 5   0  0.1005265E-05  0.2699263E+04  0.7818609E-02  0.8335244E-01
        1   -1    0    0  501    0  0.00000000000E+00  0.00000000000E+00  0.23712523503E+04  0.23712523503E+04  0.50400001928E-02 0.  1.
       -1   -1    0    0    0  501  0.00000000000E+00  0.00000000000E+00 -0.76816192401E+03  0.76816192403E+03  0.50400001928E-02 0. -1.
    10030    2    1    2    0    0  0.00000000000E+00  0.00000000000E+00  0.16030904263E+04  0.31394142744E+04  0.26992634312E+04 0.  0.
        3    1    3    3  502    0  0.77310260408E+03 -0.85283590557E+03  0.16210626344E+04  0.19881802718E+04  0.10100000352E+00 0.  1.
       -3    1    3    3    0  502 -0.77310260408E+03  0.85283590557E+03 -0.17972208061E+02  0.11512340026E+04  0.10100000352E+00 0. -1.
</event>
<event>
 5   0  0.2540684E-05  0.2565970E+04  0.7818609E-02  0.8379853E-01
       -2   -1    0    0    0  501  0.00000000000E+00  0.00000000000E+00  0.17662166218E+04  0.17662166218E+04  0.25500000920E-02 0.  1.
        2   -1    0    0  501    0  0.00000000000E+00  0.00000000000E+00 -0.93196382783E+03  0.93196382783E+03  0.25500000920E-02 0. -1.
    10030    2    1    2    0    0  0.00000000000E+00  0.00000000000E+00  0.83425279399E+03  0.26981804496E+04  0.25659696052E+04 0.  0.
        2    1    3    3  502    0 -0.90617688425E+03  0.84064091318E+03  0.55584869221E+02  0.12373048808E+04  0.25500000920E-02 0. -1.
       -2    1    3    3    0  502  0.90617688425E+03 -0.84064091318E+03  0.77866792477E+03  0.14608755688E+04  0.25500000920E-02 0.  1.
</event>
<event>
 5   0  0.2516518E-05  0.2719126E+04  0.7818609E-02  0.8328826E-01
       -2   -1    0    0    0  501  0.00000000000E+00  0.00000000000E+00  0.12712020400E+04  0.12712020400E+04  0.25500000920E-02 0.  1.
        2   -1    0    0  501    0  0.00000000000E+00  0.00000000000E+00 -0.14540662138E+04  0.14540662138E+04  0.25500000920E-02 0. -1.
    10030    2    1    2    0    0  0.00000000000E+00  0.00000000000E+00 -0.18286417379E+03  0.27252682539E+04  0.27191262842E+04 0.  0.
        4    1    3    3  502    0 -0.10402552503E+04  0.33038212238E+03 -0.90389684612E+03  0.14171501169E+04  0.12699999809E+01 0. -1.
       -4    1    3    3    0  502  0.10402552503E+04 -0.33038212238E+03  0.72103267234E+03  0.13081181369E+04  0.12699999809E+01 0.  1.
</event>
<event>
 5   0  0.1096672E-05  0.2079169E+04  0.7818609E-02  0.8570476E-01
        1   -1    0    0  501    0  0.00000000000E+00  0.00000000000E+00  0.17817489132E+04  0.17817489132E+04  0.50400001928E-02 0.  1.
       -1   -1    0    0    0  501  0.00000000000E+00  0.00000000000E+00 -0.60655899520E+03  0.60655899522E+03  0.50400001928E-02 0. -1.
    10030    2    1    2    0    0  0.00000000000E+00  0.00000000000E+00  0.11751899180E+04  0.23883079085E+04  0.20791689018E+04 0.  0.
        1    1    3    3  502    0  0.35432453578E+03  0.52381215102E+03  0.15353885316E+04  0.16605249137E+04  0.50400001928E-02 0.  1.
       -1    1    3    3    0  502 -0.35432453578E+03 -0.52381215102E+03 -0.36019861353E+03  0.72778299474E+03  0.50400001928E-02 0. -1.
</event>
<event>
 5   0  0.1096672E-05  0.2634799E+04  0.7818609E-02  0.8356476E-01
        1   -1    0    0  501    0  0.00000000000E+00  0.00000000000E+00  0.12035428043E+04  0.12035428043E+04  0.50400001928E-02 0. -1.
       -1   -1    0    0    0  501  0.00000000000E+00  0.00000000000E+00 -0.14420274003E+04  0.14420274003E+04  0.50400001928E-02 0.  1.
    10030    2    1    2    0    0  0.00000000000E+00  0.00000000000E+00 -0.23848459605E+03  0.26455702046E+04  0.26347991963E+04 0.  0.
        1    1    3    3  502    0  0.51831230447E+03  0.53294989654E+03 -0.12112813251E+04  0.14212268241E+04  0.50400001928E-02 0.  1.
       -1    1    3    3    0  502 -0.51831230447E+03 -0.53294989654E+03  0.97279672902E+03  0.12243433804E+04  0.50400001928E-02 0. -1.
</event>
<event>
 5   0  0.2615843E-05  0.2845821E+04  0.7818609E-02  0.8289182E-01
        2   -1    0    0  501    0  0.00000000000E+00  0.00000000000E+00  0.17547724436E+04  0.17547724436E+04  0.25500000920E-02 0.  1.
       -2   -1    0    0    0  501  0.00000000000E+00  0.00000000000E+00 -0.11538100073E+04  0.11538100073E+04  0.25500000920E-02 0. -1.
    10030    2    1    2    0    0  0.00000000000E+00  0.00000000000E+00  0.60096243628E+03  0.29085824508E+04  0.28458207996E+04 0.  0.
        3    1    3    3  502    0 -0.73512932119E+03 -0.68201586800E+03 -0.73129390037E+03  0.12411089968E+04  0.10100000352E+00 0. -1.
       -3    1    3    3    0  502  0.73512932119E+03  0.68201586800E+03  0.13322563366E+04  0.16674734540E+04  0.10100000352E+00 0.  1.
</event>
<event>
 5   0  0.1036691E-05  0.2819091E+04  0.7818609E-02  0.8297366E-01
       -1   -1    0    0    0  501  0.00000000000E+00  0.00000000000E+00  0.13462175064E+04  0.13462175064E+04  0.50400001928E-02 0.  1.
        1   -1    0    0  501    0  0.00000000000E+00  0.00000000000E+00 -0.14758523679E+04  0.14758523679E+04  0.50400001928E-02 0. -1.
    10030    2    1    2    0    0  0.00000000000E+00  0.00000000000E+00 -0.12963486148E+03  0.28220698743E+04  0.28190908424E+04 0.  0.
        4    1    3    3  502    0 -0.10102995315E+04 -0.77148592553E+03 -0.67449386086E+03  0.14390410897E+04  0.12699999809E+01 0.  1.
       -4    1    3    3    0  502  0.10102995315E+04  0.77148592553E+03  0.54485899938E+03  0.13830287845E+04  0.12699999809E+01 0. -1.
</event>
<event>
 5   0  0.1096672E-05  0.2542132E+04  0.7818609E-02  0.8388128E-01
        1   -1    0    0  501    0  0.00000000000E+00  0.00000000000E+00  0.25697867525E+04  0.25697867526E+04  0.50400001928E-02 0.  1.
       -1   -1    0    0    0  501  0.00000000000E+00  0.00000000000E+00 -0.62869366298E+03  0.62869366300E+03  0.50400001928E-02 0. -1.
    10030    2    1    2    0    0  0.00000000000E+00  0.00000000000E+00  0.19410930896E+04  0.31984804156E+04  0.25421318979E+04 0.  0.
        1    1    3    3  502    0  0.33224338594E+03 -0.16259643663E+03 -0.55947726633E+03  0.67069969455E+03  0.50400001928E-02 0. -1.
       -1    1    3    3    0  502 -0.33224338594E+03  0.16259643663E+03  0.25005703559E+04  0.25277807210E+04  0.50400001928E-02 0.  1.
</event>
<event>
 5   0  0.1096672E-05  0.2665092E+04  0.7818609E-02  0.8346421E-01
        1   -1    0    0  501    0  0.00000000000E+00  0.00000000000E+00  0.15192425811E+04  0.15192425811E+04  0.50400001928E-02 0. -1.
       -1   -1    0    0    0  501  0.00000000000E+00  0.00000000000E+00 -0.11687918584E+04  0.11687918584E+04  0.50400001928E-02 0.  1.
    10030    2    1    2    0    0  0.00000000000E+00  0.00000000000E+00  0.35045072268E+03  0.26880344395E+04  0.26650916380E+04 0.  0.
        1    1    3    3  502    0 -0.99294135531E+03  0.70848180847E+03  0.71631296911E+03  0.14145611608E+04  0.50400001928E-02 0. -1.
       -1    1    3    3    0  502  0.99294135531E+03 -0.70848180847E+03 -0.36586224643E+03  0.12734732786E+04  0.50400001928E-02 0.  1.
</event>
<event>
 5   0  0.1005265E-05  0.2722014E+04  0.7818609E-02  0.8327897E-01
        1   -1    0    0  501    0  0.00000000000E+00  0.00000000000E+00  0.12715154711E+04  0.12715154711E+04  0.50400001928E-02 0. -1.
       -1   -1    0    0    0  501  0.00000000000E+00  0.00000000000E+00 -0.14567966966E+04  0.14567966966E+04  0.50400001928E-02 0.  1.
    10030    2    1    2    0    0  0.00000000000E+00  0.00000000000E+00 -0.18528122550E+03  0.27283121678E+04  0.27220136209E+04 0.  0.
        3    1    3    3  502    0  0.31829402638E+03 -0.51835068687E+03  0.11276909026E+04  0.12812826791E+04  0.10100000352E+00 0. -1.
       -3    1    3    3    0  502 -0.31829402638E+03  0.51835068687E+03 -0.13129721281E+04  0.14470294887E+04  0.10100000352E+00 0.  1.
</event>
<event>
 5   0  0.2641216E-05  0.2656084E+04  0.7818609E-02  0.8349397E-01
       -2   -1    0    0    0  501  0.00000000000E+00  0.00000000000E+00  0.13106855051E+04  0.13106855051E+04  0.25500000920E-02 0. -1.
        2   -1    0    0  501    0  0.00000000000E+00  0.00000000000E+00 -0.13456278317E+04  0.13456278317E+04  0.25500000920E-02 0.  1.
    10030    2    1    2    0    0  0.00000000000E+00  0.00000000000E+00 -0.34942326614E+02  0.26563133368E+04  0.26560835034E+04 0.  0.
        5    1    3    3  502    0 -0.57943301509E+03 -0.11242977505E+04 -0.42233301264E+03  0.13334824012E+04  0.46999998093E+01 0.  1.
       -5    1    3    3    0  502  0.57943301509E+03  0.11242977505E+04  0.38739068603E+03  0.13228309357E+04  0.46999998093E+01 0. -1.
</event>
<event>
 5   0  0.1036691E-05  0.2743014E+04  0.7818609E-02  0.8321182E-01
        1   -1    0    0  501    0  0.00000000000E+00  0.00000000000E+00  0.18124057424E+04  0.18124057424E+04  0.50400001928E-02 0.  1.
       -1   -1    0    0    0  501  0.00000000000E+00  0.00000000000E+00 -0.10378643738E+04  0.10378643738E+04  0.50400001928E-02 0. -1.
    10030    2    1    2    0    0  0.00000000000E+00  0.00000000000E+00  0.77454136860E+03  0.28502701163E+04  0.27430139271E+04 0.  0.
        4    1    3    3  502    0  0.10131357304E+04  0.20080240487E+03  0.13249204665E+04  0.16799349599E+04  0.12699999809E+01 0.  1.
       -4    1    3    3    0  502 -0.10131357304E+04 -0.20080240487E+03 -0.55037909791E+03  0.11703351564E+04  0.12699999809E+01 0. -1.
</event>
<event>
 5   0  0.1096672E-05  0.2706560E+04  0.7818609E-02  0.8332880E-01
       -1   -1    0    0    0  501  0.00000000000E+00  0.00000000000E+00  0.98814222710E+03  0.98814222711E+03  0.50400001928E-02 0. -1.
        1   -1    0    0  501    0  0.00000000000E+00  0.00000000000E+00 -0.18533434276E+04  0.18533434277E+04  0.50400001928E-02 0.  1.
    10030    2    1    2    0    0  0.00000000000E+00  0.00000000000E+00 -0.86520120054E+03  0.28414856548E+04  0.27065601063E+04 0.  0.
        1    1    3    3  502    0 -0.13145014250E+04 -0.24312711496E+03 -0.21152746127E+03  0.13534284825E+04  0.50400001928E-02 0. -1.
       -1    1    3    3    0  502  0.13145014250E+04  0.24312711496E+03 -0.65367373927E+03  0.14880571722E+04  0.50400001928E-02 0.  1.
</event>
<event>
 5   0  0.1096672E-05  0.2684058E+04  0.7818609E-02  0.8340196E-01
        1   -1    0    0  501    0  0.00000000000E+00  0.00000000000E+00  0.17406634618E+04  0.17406634618E+04  0.50400001928E-02 0.  1.
       -1   -1    0    0    0  501  0.00000000000E+00  0.00000000000E+00 -0.10346867182E+04  0.10346867183E+04  0.50400001928E-02 0. -1.
    10030    2    1    2    0    0  0.00000000000E+00  0.00000000000E+00  0.70597674352E+03  0.27753501800E+04  0.26840576483E+04 0.  0.
        1    1    3    3  502    0  0.10170480446E+03  0.81961725648E+02 -0.10280982286E+04  0.10363626583E+04  0.50400001928E-02 0. -1.
       -1    1    3    3    0  502 -0.10170480446E+03 -0.81961725648E+02  0.17340749722E+04  0.17389875218E+04  0.50400001928E-02 0.  1.
</event>
<event>
 5   0  0.2641216E-05  0.2553751E+04  0.7818609E-02  0.8384083E-01
        2   -1    0    0  501    0  0.00000000000E+00  0.00000000000E+00  0.96022270679E+03  0.96022270679E+03  0.25500000920E-02 0. -1.
       -2   -1    0    0    0  501  0.00000000000E+00  0.00000000000E+00 -0.16979512544E+04  0.16979512544E+04  0.25500000920E-02 0.  1.
    10030    2    1    2    0    0  0.00000000000E+00  0.00000000000E+00 -0.73772854763E+03  0.26581739612E+04  0.25537512404E+04 0.  0.
        5    1    3    3  502    0 -0.25176188692E+02 -0.14562145541E+02 -0.16975974225E+04  0.16978530547E+04  0.46999998093E+01 0.  1.
       -5    1    3    3    0  502  0.25176188692E+02  0.14562145541E+02  0.95986887485E+03  0.96032090651E+03  0.46999998093E+01 0. -1.
</event>
<event>
 5   0  0.2516518E-05  0.2526395E+04  0.7818609E-02  0.8393642E-01
        2   -1    0    0  501    0  0.00000000000E+00  0.00000000000E+00  0.23354879916E+04  0.23354879916E+04  0.25500000920E-02 0. -1.
       -2   -1    0    0    0  501  0.00000000000E+00  0.00000000000E+00 -0.68322691618E+03  0.68322691619E+03  0.25500000920E-02 0.  1.
    10030    2    1    2    0    0  0.00000000000E+00  0.00000000000E+00  0.16522610754E+04  0.30187149077E+04  0.25263952646E+04 0.  0.
        4    1    3    3  502    0  0.10551913501E+04  0.45732701409E+03  0.14505459154E+04  0.18511244822E+04  0.12699999809E+01 0. -1.
       -4    1    3    3    0  502 -0.10551913501E+04 -0.45732701409E+03  0.20171516000E+03  0.11675904255E+04  0.12699999809E+01 0.  1.
</event>
<event>
 5   0  0.1041909E-05  0.2615739E+04  0.7818609E-02  0.8362875E-01
        1   -1    0    0  501    0  0.00000000000E+00  0.00000000000E+00  0.17749560358E+04  0.17749560358E+04  0.50400001928E-02 0.  1.
       -1   -1    0    0    0  501  0.00000000000E+00  0.00000000000E+00 -0.96369873812E+03  0.96369873814E+03  0.50400001928E-02 0. -1.
    10030    2    1    2    0    0  0.00000000000E+00  0.00000000000E+00  0.81125729770E+03  0.27386547740E+04  0.26157392010E+04 0.  0.
        5    1    3    3  502    0 -0.25722927885E+03  0.97303423181E+03  0.12800623217E+04  0.16283562742E+04  0.46999998093E+01 0.  1.
       -5    1    3    3    0  502  0.25722927885E+03 -0.97303423181E+03 -0.46880502399E+03  0.11102984998E+04  0.46999998093E+01 0. -1.
</event>
<event>
 5   0  0.2516518E-05  0.2667617E+04  0.7818609E-02  0.8345589E-01
        2   -1    0    0  501    0  0.00000000000E+00  0.00000000000E+00  0.16330081630E+04  0.16330081630E+04  0.25500000920E-02 0.  1.
       -2   -1    0    0    0  501  0.00000000000E+00  0.00000000000E+00 -0.10894284273E+04  0.10894284273E+04  0.25500000920E-02 0. -1.
    10030    2    1    2    0    0  0.00000000000E+00  0.00000000000E+00  0.54357973574E+03  0.27224365904E+04  0.26676173000E+04 0.  0.
        4    1    3    3  502    0  0.50104531603E+03 -0.15216512250E+03 -0.98013966043E+03  0.11112497469E+04  0.12699999809E+01 0. -1.
       -4    1    3    3    0  502 -0.50104531603E+03  0.15216512250E+03  0.15237193962E+04  0.16111868434E+04  0.12699999809E+01 0.  1.
</event>
<event>
 5   0  0.1005265E-05  0.2650793E+04  0.7818609E-02  0.8351150E-01
       -1   -1    0    0    0  501  0.00000000000E+00  0.00000000000E+00  0.69614745627E+03  0.69614745629E+03  0.50400001928E-02 0.  1.
        1   -1    0    0  501    0  0.00000000000E+00  0.00000000000E+00 -0.25234249069E+04  0.25234249069E+04  0.50400001928E-02 0. -1.
    10030    2    1    2    0    0  0.00000000000E+00  0.00000000000E+00 -0.18272774506E+04  0.32195723632E+04  0.26507929607E+04 0.  0.
        3    1    3    3  502    0  0.11617668908E+03  0.88954942090E+03  0.27134838291E+03  0.93724337843E+03  0.10100000352E+00 0.  1.
       -3    1    3    3    0  502 -0.11617668908E+03 -0.88954942090E+03 -0.20986258335E+04  0.22823289848E+04  0.10100000352E+00 0. -1.
</event>
<event>
 5   0  0.2540684E-05  0.2158768E+04  0.7818609E-02  0.8535789E-01
        2   -1    0    0  501    0  0.00000000000E+00  0.00000000000E+00  0.90635570595E+03  0.90635570595E+03  0.25500000920E-02 0.  1.
       -2   -1    0    0    0  501  0.00000000000E+00  0.00000000000E+00 -0.12854441144E+04  0.12854441144E+04  0.25500000920E-02 0. -1.
    10030    2    1    2    0    0  0.00000000000E+00  0.00000000000E+00 -0.37908840846E+03  0.21917998204E+04  0.21587678039E+04 0.  0.
        2    1    3    3  502    0 -0.86436922047E+03 -0.50289388926E+03 -0.60200303656E+03  0.11672377946E+04  0.25500000920E-02 0.  1.
       -2    1    3    3    0  502  0.86436922047E+03  0.50289388926E+03  0.22291462810E+03  0.10245620257E+04  0.25500000920E-02 0. -1.
</event>
<event>
 5   0  0.2540232E-05  0.2757505E+04  0.7818609E-02  0.8316584E-01
        2   -1    0    0  501    0  0.00000000000E+00  0.00000000000E+00  0.11939505272E+04  0.11939505272E+04  0.25500000920E-02 0. -1.
       -2   -1    0    0    0  501  0.00000000000E+00  0.00000000000E+00 -0.15921582264E+04  0.15921582264E+04  0.25500000920E-02 0.  1.
    10030    2    1    2    0    0  0.00000000000E+00  0.00000000000E+00 -0.39820769914E+03  0.27861087536E+04  0.27575047807E+04 0.  0.
        1    1    3    3  502    0 -0.18673923011E+03  0.92725794690E+03  0.81443654740E+03  0.12481929858E+04  0.50400001928E-02 0. -1.
       -1    1    3    3    0  502  0.18673923011E+03 -0.92725794690E+03 -0.12126442465E+04  0.15379157678E+04  0.50400001928E-02 0.  1.
</event>
<event>
 5   0  0.1036691E-05  0.2331080E+04  0.7818609E-02  0.8465767E-01
       -1   -1    0    0    0  501  0.00000000000E+00  0.00000000000E+00  0.10806983326E+04  0.10806983326E+04  0.50400001928E-02 0. -1.
        1   -1    0    0  501    0  0.00000000000E+00  0.00000000000E+00 -0.12570419409E+04  0.12570419409E+04  0.50400001928E-02 0.  1.
    10030    2    1    2    0    0  0.00000000000E+00  0.00000000000E+00 -0.17634360835E+03  0.23377402735E+04  0.23310796894E+04 0.  0.
        4    1    3    3  502    0  0.33305110392E+03  0.23643712240E+03  0.10065772639E+04  0.10862895340E+04  0.12699999809E+01 0. -1.
       -4    1    3    3    0  502 -0.33305110392E+03 -0.23643712240E+03 -0.11829208722E+04  0.12514507395E+04  0.12699999809E+01 0.  1.
</event>
<event>
 5   0  0.2540232E-05  0.2477494E+04  0.7818609E-02  0.8411047E-01
        2   -1    0    0  501    0  0.00000000000E+00  0.00000000000E+00  0.90783147791E+03  0.90783147791E+03  0.25500000920E-02 0. -1.
       -2   -1    0    0    0  501  0.00000000000E+00  0.00000000000E+00 -0.16902857872E+04  0.16902857872E+04  0.25500000920E-02 0.  1.
    10030    2    1    2    0    0  0.00000000000E+00  0.00000000000E+00 -0.78245430924E+03  0.25981172651E+04  0.24774944151E+04 0.  0.
        1    1    3    3  502    0  0.67076854372E+03 -0.93084442279E+03  0.98514218008E+02  0.11515671191E+04  0.50400001928E-02 0.  1.
       -1    1    3    3    0  502 -0.67076854372E+03  0.93084442279E+03 -0.88096852725E+03  0.14465501459E+04  0.50400001928E-02 0. -1.
</event>
<event>
 5   0  0.9971923E-06  0.2603198E+04  0.7818609E-02  0.8367116E-01
        1   -1    0    0  501    0  0.00000000000E+00  0.00000000000E+00  0.12609109818E+04  0.12609109818E+04  0.50400001928E-02 0. -1.
       -1   -1    0    0    0  501  0.00000000000E+00  0.00000000000E+00 -0.13436002292E+04  0.13436002292E+04  0.50400001928E-02 0.  1.
    10030    2    1    2    0    0  0.00000000000E+00  0.00000000000E+00 -0.82689247384E+02  0.26045112110E+04  0.26031982515E+04 0.  0.
        2    1    3    3  502    0 -0.69030169881E+03 -0.32875138927E+03  0.10125462178E+04  0.12687961832E+04  0.25500000920E-02 0. -1.
       -2    1    3    3    0  502  0.69030169881E+03  0.32875138927E+03 -0.10952354652E+04  0.13357150278E+04  0.25500000920E-02 0.  1.
</event>
<event>
 5   0  0.2516518E-05  0.2634202E+04  0.7818609E-02  0.8356676E-01
       -2   -1    0    0    0  501  0.00000000000E+00  0.00000000000E+00  0.12358718511E+04  0.12358718511E+04  0.25500000920E-02 0.  1.
        2   -1    0    0  501    0  0.00000000000E+00  0.00000000000E+00 -0.14036685811E+04  0.14036685811E+04  0.25500000920E-02 0. -1.
    10030    2    1    2    0    0  0.00000000000E+00  0.00000000000E+00 -0.16779672997E+03  0.26395404321E+04  0.26342015774E+04 0.  0.
        4    1    3    3  502    0 -0.49380778617E+03 -0.51693242710E+03  0.10245477739E+04  0.12493058143E+04  0.12699999809E+01 0.  1.
       -4    1    3    3    0  502  0.49380778617E+03  0.51693242710E+03 -0.11923445038E+04  0.13902346178E+04  0.12699999809E+01 0. -1.
</event>
<event>
 5   0  0.2615843E-05  0.2746427E+04  0.7818609E-02  0.8320096E-01
        2   -1    0    0  501    0  0.00000000000E+00  0.00000000000E+00  0.97706949086E+03  0.97706949086E+03  0.25500000920E-02 0. -1.
       -2   -1    0    0    0  501  0.00000000000E+00  0.00000000000E+00 -0.19299705401E+04  0.19299705401E+04  0.25500000920E-02 0.  1.
    10030    2    1    2    0    0  0.00000000000E+00  0.00000000000E+00 -0.95290104928E+03  0.29070400310E+04  0.27464270120E+04 0.  0.
        3    1    3    3  502    0  0.33702316190E+03  0.12769904893E+04 -0.87450964752E+03  0.15840001437E+04  0.10100000352E+00 0. -1.
       -3    1    3    3    0  502 -0.33702316190E+03 -0.12769904893E+04 -0.78391401757E+02  0.13230398873E+04  0.10100000352E+00 0.  1.
</event>
<event>
 5   0  0.9971923E-06  0.2702983E+04  0.7818609E-02  0.8334038E-01
       -1   -1    0    0    0  501  0.00000000000E+00  0.00000000000E+00  0.17337295431E+04  0.17337295431E+04  0.50400001928E-02 0. -1.
        1   -1    0    0  501    0  0.00000000000E+00  0.00000000000E+00 -0.10535257087E+04  0.10535257088E+04  0.50400001928E-02 0.  1.
    10030    2    1    2    0    0  0.00000000000E+00  0.00000000000E+00  0.68020383432E+03  0.27872552518E+04  0.27029825346E+04 0.  0.
        2    1    3    3  502    0  0.24252779639E+01  0.24407690739E+03 -0.10306079468E+04  0.10591185763E+04  0.25500000920E-02 0.  1.
       -2    1    3    3    0  502 -0.24252779639E+01 -0.24407690739E+03  0.17108117811E+04  0.17281366755E+04  0.25500000920E-02 0. -1.
</event>
<event>
 5   0  0.1036691E-05  0.2725613E+04  0.7818609E-02  0.8326742E-01
       -1   -1    0    0    0  501  0.00000000000E+00  0.00000000000E+00  0.11052743731E+04  0.11052743731E+04  0.50400001928E-02 0. -1.
        1   -1    0    0  501    0  0.00000000000E+00  0.00000000000E+00 -0.16803449556E+04  0.16803449556E+04  0.50400001928E-02 0.  1.
    10030    2    1    2    0    0  0.00000000000E+00  0.00000000000E+00 -0.57507058250E+03  0.27856193287E+04  0.27256134850E+04 0.  0.
        4    1    3    3  502    0  0.11433946508E+04  0.23705566549E+03  0.43056710104E+03  0.12445627174E+04  0.12699999809E+01 0. -1.
       -4    1    3    3    0  502 -0.11433946508E+04 -0.23705566549E+03 -0.10056376835E+04  0.15410566114E+04  0.12699999809E+01 0.  1.
</event>
<event>
 5   0  0.1005265E-05  0.2693108E+04  0.7818609E-02  0.8337244E-01
        1   -1    0    0  501    0  0.00000000000E+00  0.00000000000E+00  0.16825098170E+04  0.16825098170E+04  0.50400001928E-02 0. -1.
       -1   -1    0    0    0  501  0.00000000000E+00  0.00000000000E+00 -0.10776806409E+04  0.10776806410E+04  0.50400001928E-02 0.  1.
    10030    2    1    2    0    0  0.00000000000E+00  0.00000000000E+00  0.60482917604E+03  0.27601904580E+04  0.26931084330E+04 0.  0.
        3    1    3    3  502    0 -0.33109633101E+03 -0.13003830917E+04  0.41740223723E+03  0.14052919993E+04  0.10100000352E+00 0. -1.
       -3    1    3    3    0  502  0.33109633101E+03  0.13003830917E+04  0.18742693881E+03  0.13548984586E+04  0.10100000352E+00 0.  1.
</event>
<event>
 5   0  0.1005265E-05  0.2678140E+04  0.7818609E-02  0.8342133E-01
       -1   -1    0    0    0  501  0.00000000000E+00  0.00000000000E+00  0.68756342837E+03  0.68756342839E+03  0.50400001928E-02 0. -1.
        1   -1    0    0  501    0  0.00000000000E+00  0.00000000000E+00 -0.26079166802E+04  0.26079166802E+04  0.50400001928E-02 0.  1.
    10030    2    1    2    0    0  0.00000000000E+00  0.00000000000E+00 -0.19203532518E+04  0.32954801086E+04  0.26781397526E+04 0.  0.
        3    1    3    3  502    0  0.11506575734E+02  0.12432807635E+04 -0.34834084611E+03  0.12912090510E+04  0.10100000352E+00 0. -1.
       -3    1    3    3    0  502 -0.11506575734E+02 -0.12432807635E+04 -0.15720124057E+04  0.20042710576E+04  0.10100000352E+00 0.  1.
</event>
<event>
 5   0  0.2540232E-05  0.2681375E+04  0.7818609E-02  0.8341073E-01
        2   -1    0    0  501    0  0.00000000000E+00  0.00000000000E+00  0.13481511980E+04  0.13481511980E+04  0.25500000920E-02 0.  1.
       -2   -1    0    0    0  501  0.00000000000E+00  0.00000000000E+00 -0.13332652578E+04  0.13332652578E+04  0.25500000920E-02 0. -1.
    10030    2    1    2    0    0  0.00000000000E+00  0.00000000000E+00  0.14885940200E+02  0.26814164559E+04  0.26813751358E+04 0.  0.
        1    1    3    3  502    0 -0.11030562885E+04  0.67160989986E+03  0.36751812520E+03  0.13427071928E+04  0.50400001928E-02 0.  1.
       -1    1    3    3    0  502  0.11030562885E+04 -0.67160989986E+03 -0.35263218500E+03  0.13387092631E+04  0.50400001928E-02 0. -1.
</event>
<event>
 5   0  0.2641216E-05  0.2668184E+04  0.7818609E-02  0.8345402E-01
       -2   -1    0    0    0  501  0.00000000000E+00  0.00000000000E+00  0.11128463601E+04  0.11128463602E+04  0.25500000920E-02 0.  1.
        2   -1    0    0  501    0  0.00000000000E+00  0.00000000000E+00 -0.15993239649E+04  0.15993239649E+04  0.25500000920E-02 0. -1.
    10030    2    1    2    0    0  0.00000000000E+00  0.00000000000E+00 -0.48647760479E+03  0.27121703251E+04  0.26681842913E+04 0.  0.
        5    1    3    3  502    0  0.12757029581E+04 -0.14670283086E+03 -0.61091999287E+03  0.14220355430E+04  0.46999998093E+01 0. -1.
       -5    1    3    3    0  502 -0.12757029581E+04  0.14670283086E+03  0.12444238808E+03  0.12901347821E+04  0.46999998093E+01 0.  1.
</event>
<event>
 5   0  0.2540684E-05  0.2707035E+04  0.7818609E-02  0.8332726E-01
       -2   -1    0    0    0  501  0.00000000000E+00  0.00000000000E+00  0.89078987364E+03  0.89078987365E+03  0.25500000920E-02 0.  1.
        2   -1    0    0  501    0  0.00000000000E+00  0.00000000000E+00 -0.20566118578E+04  0.20566118578E+04  0.25500000920E-02 0. -1.
    10030    2    1    2    0    0  0.00000000000E+00  0.00000000000E+00 -0.11658219842E+04  0.29474017315E+04  0.27070345524E+04 0.  0.
        2    1    3    3  502    0 -0.80584661764E+03 -0.56387392941E+03  0.42953026915E+03  0.10732375467E+04  0.25500000920E-02 0.  1.
       -2    1    3    3    0  502  0.80584661764E+03  0.56387392941E+03 -0.15953522533E+04  0.18741641848E+04  0.25500000920E-02 0. -1.
</event>
<event>
 5   0  0.1096672E-05  0.2537559E+04  0.7818609E-02  0.8389726E-01
        1   -1    0    0  501    0  0.00000000000E+00  0.00000000000E+00  0.91212489115E+03  0.91212489116E+03  0.50400001928E-02 0. -1.
       -1   -1    0    0    0  501  0.00000000000E+00  0.00000000000E+00 -0.17648920962E+04  0.17648920962E+04  0.50400001928E-02 0.  1.
    10030    2    1    2    0    0  0.00000000000E+00  0.00000000000E+00 -0.85276720509E+03  0.26770169874E+04  0.25375594663E+04 0.  0.
        1    1    3    3  502    0 -0.82021040825E+03 -0.80137948329E+02  0.59132757486E+03  0.10143152889E+04  0.50400001928E-02 0. -1.
       -1    1    3    3    0  502  0.82021040825E+03  0.80137948329E+02 -0.14440947799E+04  0.16627016985E+04  0.50400001928E-02 0.  1.
</event>
<event>
 5   0  0.2540684E-05  0.2654144E+04  0.7818609E-02  0.8350039E-01
        2   -1    0    0  501    0  0.00000000000E+00  0.00000000000E+00  0.96204498611E+03  0.96204498611E+03  0.25500000920E-02 0. -1.
       -2   -1    0    0    0  501  0.00000000000E+00  0.00000000000E+00 -0.18306000743E+04  0.18306000743E+04  0.25500000920E-02 0.  1.
    10030    2    1    2    0    0  0.00000000000E+00  0.00000000000E+00 -0.86855508822E+03  0.27926450604E+04  0.26541436458E+04 0.  0.
        2    1    3    3  502    0  0.90404190298E+03  0.70027303074E+03  0.27424534737E+03  0.11759611348E+04  0.25500000920E-02 0. -1.
       -2    1    3    3    0  502 -0.90404190298E+03 -0.70027303074E+03 -0.11428004356E+04  0.16166839257E+04  0.25500000920E-02 0.  1.
</event>
<event>
 5   0  0.1096672E-05  0.2707163E+04  0.7818609E-02  0.8332685E-01
       -1   -1    0    0    0  501  0.00000000000E+00  0.00000000000E+00  0.76503430396E+03  0.76503430397E+03  0.50400001928E-02 0.  1.
        1   -1    0    0  501    0  0.00000000000E+00  0.00000000000E+00 -0.23949025770E+04  0.23949025770E+04  0.50400001928E-02 0. -1.
    10030    2    1    2    0    0  0.00000000000E+00  0.00000000000E+00 -0.16298682731E+04  0.31599368810E+04  0.27071628145E+04 0.  0.
        1    1    3    3  502    0  0.12853672752E+04 -0.10356755382E+03 -0.33467427365E+03  0.13322545326E+04  0.50400001928E-02 0.  1.
       -1    1    3    3    0  502 -0.12853672752E+04  0.10356755382E+03 -0.12951939994E+04  0.18276823483E+04  0.50400001928E-02 0. -1.
</event>
<event>
 5   0  0.1041909E-05  0.2686722E+04  0.7818609E-02  0.8339326E-01
       -1   -1    0    0    0  501  0.00000000000E+00  0.00000000000E+00  0.92328538504E+03  0.92328538506E+03  0.50400001928E-02 0. -1.
        1   -1    0    0  501    0  0.00000000000E+00  0.00000000000E+00 -0.19545623497E+04  0.19545623497E+04  0.50400001928E-02 0.  1.
    10030    2    1    2    0    0  0.00000000000E+00  0.00000000000E+00 -0.10312769646E+04  0.28778477347E+04  0.26867220561E+04 0.  0.
        5    1    3    3  502    0  0.10905962267E+03  0.10610190925E+04 -0.13903983687E+04  0.17523941422E+04  0.46999998093E+01 0.  1.
       -5    1    3    3    0  502 -0.10905962267E+03 -0.10610190925E+04  0.35912140408E+03  0.11254535925E+04  0.46999998093E+01 0. -1.
</event>
<event>
 5   0  0.2516518E-05  0.2749697E+04  0.7818609E-02  0.8319058E-01
        2   -1    0    0  501    0  0.00000000000E+00  0.00000000000E+00  0.27258534628E+04  0.27258534628E+04  0.25500000920E-02 0.  1.
       -2   -1    0    0    0  501  0.00000000000E+00  0.00000000000E+00 -0.69343742564E+03  0.69343742565E+03  0.25500000920E-02 0. -1.
    10030    2    1    2    0    0  0.00000000000E+00  0.00000000000E+00  0.20324160372E+04  0.34192908884E+04  0.27496972982E+04 0.  0.
        4    1    3    3  502    0  0.12667236684E+04  0.46468131354E+03  0.68793498401E+03  0.15145209574E+04  0.12699999809E+01 0. -1.
       -4    1    3    3    0  502 -0.12667236684E+04 -0.46468131354E+03  0.13444810531E+04  0.19047699311E+04  0.12699999809E+01 0.  1.
</event>
<event>
 5   0  0.1005265E-05  0.2631284E+04  0.7818609E-02  0.8357652E-01
       -1   -1    0    0    0  501  0.00000000000E+00  0.00000000000E+00  0.11284859116E+04  0.11284859116E+04  0.50400001928E-02 0. -1.
        1   -1    0    0  501    0  0.00000000000E+00  0.00000000000E+00 -0.15338368241E+04  0.15338368241E+04  0.50400001928E-02 0.  1.
    10030    2    1    2    0    0  0.00000000000E+00  0.00000000000E+00 -0.40535091248E+03  0.26623227358E+04  0.26312835246E+04 0.  0.
        3    1    3    3  502    0  0.12525791549E+04 -0.29574734112E+03 -0.47882763682E+03  0.13732068107E+04  0.10100000352E+00 0.  1.
       -3    1    3    3    0  502 -0.12525791549E+04  0.29574734112E+03  0.73476724333E+02  0.12891159250E+04  0.10100000352E+00 0. -1.
</event>
<event>
 5   0  0.8740500E-06  0.1699245E+04  0.7818609E-02  0.8761795E-01
        3   -1    0    0  501    0  0.00000000000E+00  0.00000000000E+00  0.72007641613E+03  0.72007642321E+03  0.10100000352E+00 0. -1.
       -3   -1    0    0    0  501  0.00000000000E+00  0.00000000000E+00 -0.10024752528E+04  0.10024752579E+04  0.10100000352E+00 0.  1.
    10030    2    1    2    0    0  0.00000000000E+00  0.00000000000E+00 -0.28239883672E+03  0.17225516811E+04  0.16992454770E+04 0.  0.
        4    1    3    3  502    0  0.27690648825E+03  0.84587301798E+02 -0.95091962275E+03  0.99402311678E+03  0.12699999809E+01 0.  1.
       -4    1    3    3    0  502 -0.27690648825E+03 -0.84587301798E+02  0.66852078603E+03  0.72852856437E+03  0.12699999809E+01 0. -1.
</event>
<event>
 5   0  0.1096672E-05  0.2679478E+04  0.7818609E-02  0.8341694E-01
       -1   -1    0    0    0  501  0.00000000000E+00  0.00000000000E+00  0.79643800672E+03  0.79643800674E+03  0.50400001928E-02 0.  1.
        1   -1    0    0  501    0  0.00000000000E+00  0.00000000000E+00 -0.22536609617E+04  0.22536609617E+04  0.50400001928E-02 0. -1.
    10030    2    1    2    0    0  0.00000000000E+00  0.00000000000E+00 -0.14572229550E+04  0.30500989685E+04  0.26794784897E+04 0.  0.
        1    1    3    3  502    0  0.12554269104E+04 -0.46435544278E+03 -0.66443476459E+03  0.14943882564E+04  0.50400001928E-02 0.  1.
       -1    1    3    3    0  502 -0.12554269104E+04  0.46435544278E+03 -0.79278819040E+03  0.15557107120E+04  0.50400001928E-02 0. -1.
</event>
<event>
 5   0  0.9971923E-06  0.2722720E+04  0.7818609E-02  0.8327670E-01
       -1   -1    0    0    0  501  0.00000000000E+00  0.00000000000E+00  0.14379367793E+04  0.14379367794E+04  0.50400001928E-02 0.  1.
        1   -1    0    0  501    0  0.00000000000E+00  0.00000000000E+00 -0.12888617017E+04  0.12888617017E+04  0.50400001928E-02 0. -1.
    10030    2    1    2    0    0  0.00000000000E+00  0.00000000000E+00  0.14907507766E+03  0.27267984810E+04  0.27227204369E+04 0.  0.
        2    1    3    3  502    0  0.67471293616E+02 -0.18383296429E+03  0.14237579056E+04  0.14371616151E+04  0.25500000920E-02 0.  1.
       -2    1    3    3    0  502 -0.67471293616E+02  0.18383296429E+03 -0.12746828279E+04  0.12896368659E+04  0.25500000920E-02 0. -1.
</event>
<event>
 5   0  0.1036691E-05  0.2731512E+04  0.7818609E-02  0.8324852E-01
        1   -1    0    0  501    0  0.00000000000E+00  0.00000000000E+00  0.18847704254E+04  0.18847704254E+04  0.50400001928E-02 0.  1.
       -1   -1    0    0    0  501  0.00000000000E+00  0.00000000000E+00 -0.98966405533E+03  0.98966405534E+03  0.50400001928E-02 0. -1.
    10030    2    1    2    0    0  0.00000000000E+00  0.00000000000E+00  0.89510637005E+03  0.28744344807E+04  0.27315120667E+04 0.  0.
        4    1    3    3  502    0  0.90297928624E+02 -0.29620172821E+03 -0.95223443608E+03  0.10013197361E+04  0.12699999809E+01 0. -1.
       -4    1    3    3    0  502 -0.90297928624E+02  0.29620172821E+03  0.18473408061E+04  0.18731147446E+04  0.12699999809E+01 0.  1.
</event>
<event>
 5   0  0.1041909E-05  0.2125157E+04  0.7818609E-02  0.8550242E-01
       -1   -1    0    0    0  501  0.00000000000E+00  0.00000000000E+00  0.10693547076E+04  0.10693547077E+04  0.50400001928E-02 0.  1.
        1   -1    0    0  501    0  0.00000000000E+00  0.00000000000E+00 -0.10558449734E+04  0.10558449734E+04  0.50400001928E-02 0. -1.
    10030    2    1    2    0    0  0.00000000000E+00  0.00000000000E+00  0.13509734212E+02  0.21251996811E+04  0.21251567405E+04 0.  0.
        5    1    3    3  502    0 -0.21208401237E+03 -0.48932808848E+03  0.92581048549E+03  0.10684422079E+04  0.46999998093E+01 0.  1.
       -5    1    3    3    0  502  0.21208401237E+03  0.48932808848E+03 -0.91230075128E+03  0.10567574732E+04  0.46999998093E+01 0. -1.
</event>
<event>
 5   0  0.2540232E-05  0.2698976E+04  0.7818609E-02  0.8335337E-01
        2   -1    0    0  501    0  0.00000000000E+00  0.00000000000E+00  0.22825331470E+04  0.22825331470E+04  0.25500000920E-02 0.  1.
       -2   -1    0    0    0  501  0.00000000000E+00  0.00000000000E+00 -0.79784946083E+03  0.79784946084E+03  0.25500000920E-02 0. -1.
    10030    2    1    2    0    0  0.00000000000E+00  0.00000000000E+00  0.14846836861E+04  0.30803826078E+04  0.26989759841E+04 0.  0.
        1    1    3    3  502    0  0.10015883752E+04  0.88645855016E+02 -0.28489296254E+03  0.10450843799E+04  0.50400001928E-02 0. -1.
       -1    1    3    3    0  502 -0.10015883752E+04 -0.88645855016E+02  0.17695766487E+04  0.20352982279E+04  0.50400001928E-02 0.  1.
</event>
<event>
 5   0  0.9971923E-06  0.2598292E+04  0.7818609E-02  0.8368782E-01
       -1   -1    0    0    0  501  0.00000000000E+00  0.00000000000E+00  0.14614735268E+04  0.14614735268E+04  0.50400001928E-02 0. -1.
        1   -1    0    0  501    0  0.00000000000E+00  0.00000000000E+00 -0.11548484457E+04  0.11548484457E+04  0.50400001928E-02 0.  1.
    10030    2    1    2    0    0  0.00000000000E+00  0.00000000000E+00  0.30662508108E+03  0.26163219725E+04  0.25982920782E+04 0.  0.
        2    1    3    3  502    0  0.71590344060E+03 -0.10099027392E+04 -0.24357881530E+03  0.12616465108E+04  0.25500000920E-02 0. -1.
       -2    1    3    3    0  502 -0.71590344060E+03  0.10099027392E+04  0.55020389638E+03  0.13546754617E+04  0.25500000920E-02 0.  1.
</event>
<event>
 5   0  0.2615843E-05  0.2667557E+04  0.7818609E-02  0.8345609E-01
        2   -1    0    0  501    0  0.00000000000E+00  0.00000000000E+00  0.11447455937E+04  0.11447455937E+04  0.25500000920E-02 0. -1.
       -2   -1    0    0    0  501  0.00000000000E+00  0.00000000000E+00 -0.15540268562E+04  0.15540268562E+04  0.25500000920E-02 0.  1.
    10030    2    1    2    0    0  0.00000000000E+00  0.00000000000E+00 -0.40928126241E+03  0.26987724499E+04  0.26675572317E+04 0.  0.
        3    1    3    3  502    0 -0.25651203526E+03  0.12984340748E+04 -0.37160488801E+03  0.13747071229E+04  0.10100000352E+00 0. -1.
       -3    1    3    3    0  502  0.25651203526E+03 -0.12984340748E+04 -0.37676374405E+02  0.13240653270E+04  0.10100000352E+00 0.  1.
</event>
<event>
 5   0  0.1036691E-05  0.2835246E+04  0.7818609E-02  0.8292409E-01
        1   -1    0    0  501    0  0.00000000000E+00  0.00000000000E+00  0.15248659840E+04  0.15248659840E+04  0.50400001928E-02 0.  1.
       -1   -1    0    0    0  501  0.00000000000E+00  0.00000000000E+00 -0.13179222001E+04  0.13179222001E+04  0.50400001928E-02 0. -1.
    10030    2    1    2    0    0  0.00000000000E+00  0.00000000000E+00  0.20694378389E+03  0.28427881842E+04  0.28352458324E+04 0.  0.
        4    1    3    3  502    0 -0.11429825706E+04 -0.20954676465E+03 -0.71068209708E+03  0.13621268881E+04  0.12699999809E+01 0. -1.
       -4    1    3    3    0  502  0.11429825706E+04  0.20954676465E+03  0.91762588097E+03  0.14806612961E+04  0.12699999809E+01 0.  1.
</event>
<event>
 5   0  0.2540232E-05  0.2751816E+04  0.7818609E-02  0.8318386E-01
        2   -1    0    0  501    0  0.00000000000E+00  0.00000000000E+00  0.13282706636E+04  0.13282706636E+04  0.25500000920E-02 0.  1.
       -2   -1    0    0    0  501  0.00000000000E+00  0.00000000000E+00 -0.14252535677E+04  0.14252535677E+04  0.25500000920E-02 0. -1.
    10030    2    1    2    0    0  0.00000000000E+00  0.00000000000E+00 -0.96982904125E+02  0.27535242313E+04  0.27518157658E+04 0.  0.
        1    1    3    3  502    0  0.12899876815E+04 -0.21341120063E+03 -0.47713801782E+03  0.13918596362E+04  0.50400001928E-02 0. -1.
       -1    1    3    3    0  502 -0.12899876815E+04  0.21341120063E+03  0.38015511370E+03  0.13616645951E+04  0.50400001928E-02 0.  1.
</event>
<event>
 5   0  0.1005265E-05  0.2677589E+04  0.7818609E-02  0.8342313E-01
       -1   -1    0    0    0  501  0.00000000000E+00  0.00000000000E+00  0.16097684509E+04  0.16097684509E+04  0.50400001928E-02 0. -1.
        1   -1    0    0  501    0  0.00000000000E+00  0.00000000000E+00 -0.11134340537E+04  0.11134340537E+04  0.50400001928E-02 0.  1.
    10030    2    1    2    0    0  0.00000000000E+00  0.00000000000E+00  0.49633439718E+03  0.27232025046E+04  0.26775892231E+04 0.  0.
        3    1    3    3  502    0  0.24371168293E+03  0.24947867499E+03  0.15627559228E+04  0.16011998870E+04  0.10100000352E+00 0. -1.
       -3    1    3    3    0  502 -0.24371168293E+03 -0.24947867499E+03 -0.10664215256E+04  0.11220026177E+04  0.10100000352E+00 0.  1.
</event>
<event>
 5   0  0.2516518E-05  0.2635751E+04  0.7818609E-02  0.8356158E-01
        2   -1    0    0  501    0  0.00000000000E+00  0.00000000000E+00  0.16662583695E+04  0.16662583695E+04  0.25500000920E-02 0. -1.
       -2   -1    0    0    0  501  0.00000000000E+00  0.00000000000E+00 -0.10423328105E+04  0.10423328105E+04  0.25500000920E-02 0.  1.
    10030    2    1    2    0    0  0.00000000000E+00  0.00000000000E+00  0.62392555902E+03  0.27085911800E+04  0.26357509513E+04 0.  0.
        4    1    3    3  502    0 -0.33110962056E+03  0.12721515104E+04  0.40831482688E+03  0.13764903404E+04  0.12699999809E+01 0. -1.
       -4    1    3    3    0  502  0.33110962056E+03 -0.12721515104E+04  0.21561073214E+03  0.13321008397E+04  0.12699999809E+01 0.  1.
</event>
<event>
 5   0  0.2516518E-05  0.2698933E+04  0.7818609E-02  0.8335351E-01
       -2   -1    0    0    0  501  0.00000000000E+00  0.00000000000E+00  0.11389758937E+04  0.11389758938E+04  0.25500000920E-02 0. -1.
        2   -1    0    0  501    0  0.00000000000E+00  0.00000000000E+00 -0.15988566493E+04  0.15988566493E+04  0.25500000920E-02 0.  1.
    10030    2    1    2    0    0  0.00000000000E+00  0.00000000000E+00 -0.45988075552E+03  0.27378325430E+04  0.26989325157E+04 0.  0.
        4    1    3    3  502    0 -0.10275247852E+04  0.65161811051E+03  0.36211914301E+03  0.12694665150E+04  0.12699999809E+01 0. -1.
       -4    1    3    3    0  502  0.10275247852E+04 -0.65161811051E+03 -0.82199989853E+03  0.14683660280E+04  0.12699999809E+01 0.  1.
</event>
<event>
 5   0  0.2641216E-05  0.2772426E+04  0.7818609E-02  0.8311880E-01
       -2   -1    0    0    0  501  0.00000000000E+00  0.00000000000E+00  0.14304334068E+04  0.14304334068E+04  0.25500000920E-02 0.  1.
        2   -1    0    0  501    0  0.00000000000E+00  0.00000000000E+00 -0.13433595919E+04  0.13433595919E+04  0.25500000920E-02 0. -1.
    10030    2    1    2    0    0  0.00000000000E+00  0.00000000000E+00  0.87073814929E+02  0.27737929987E+04  0.27724259685E+04 0.  0.
        5    1    3    3  502    0 -0.74039821910E+03  0.20739355643E+03 -0.11104453341E+04  0.13506711443E+04  0.46999998093E+01 0. -1.
       -5    1    3    3    0  502  0.74039821910E+03 -0.20739355643E+03  0.11975191491E+04  0.14231218544E+04  0.46999998093E+01 0.  1.
</event>
<event>
 5   0  0.2540684E-05  0.3114279E+04  0.7818609E-02  0.8211830E-01
        2   -1    0    0  501    0  0.00000000000E+00  0.00000000000E+00  0.16661274824E+04  0.16661274824E+04  0.25500000920E-02 0. -1.
       -2   -1    0    0    0  501  0.00000000000E+00  0.00000000000E+00 -0.14552812839E+04  0.14552812839E+04  0.25500000920E-02 0.  1.
    10030    2    1    2    0    0  0.00000000000E+00  0.00000000000E+00  0.21084619850E+03  0.31214087663E+04  0.31142794619E+04 0.  0.
        2    1    3    3  502    0 -0.11998450998E+04 -0.98929885771E+03  0.18525245335E+03  0.15660967291E+04  0.25500000920E-02 0. -1.
       -2    1    3    3    0  502  0.11998450998E+04  0.98929885771E+03  0.25593745153E+02  0.15553120372E+04  0.25500000920E-02 0.  1.
</event>
<event>
 5   0  0.2615843E-05  0.2662995E+04  0.7818609E-02  0.8347113E-01
       -2   -1    0    0    0  501  0.00000000000E+00  0.00000000000E+00  0.18043270528E+04  0.18043270528E+04  0.25500000920E-02 0.  1.
        2   -1    0    0  501    0  0.00000000000E+00  0.00000000000E+00 -0.98257438221E+03  0.98257438221E+03  0.25500000920E-02 0. -1.
    10030    2    1    2    0    0  0.00000000000E+00  0.00000000000E+00  0.82175267061E+03  0.27869014350E+04  0.26629949600E+04 0.  0.
        3    1    3    3  502    0 -0.54922758368E+02 -0.22906204306E+03 -0.96059565823E+03  0.98905508329E+03  0.10100000352E+00 0. -1.
       -3    1    3    3    0  502  0.54922758368E+02  0.22906204306E+03  0.17823483288E+04  0.17978463517E+04  0.10100000352E+00 0.  1.
</event>
<event>
 5   0  0.2615843E-05  0.2799006E+04  0.7818609E-02  0.8303577E-01
        2   -1    0    0  501    0  0.00000000000E+00  0.00000000000E+00  0.17410877516E+04  0.17410877516E+04  0.25500000920E-02 0. -1.
       -2   -1    0    0    0  501  0.00000000000E+00  0.00000000000E+00 -0.11249337255E+04  0.11249337255E+04  0.25500000920E-02 0.  1.
    10030    2    1    2    0    0  0.00000000000E+00  0.00000000000E+00  0.61615402617E+03  0.28660214771E+04  0.27990057740E+04 0.  0.
        3    1    3    3  502    0 -0.28284481978E+03  0.85862987700E+03 -0.78584742549E+03  0.11978324775E+04  0.10100000352E+00 0.  1.
       -3    1    3    3    0  502  0.28284481978E+03 -0.85862987700E+03  0.14020014517E+04  0.16681889996E+04  0.10100000352E+00 0. -1.
</event>
<event>
 5   0  0.2540684E-05  0.2709359E+04  0.7818609E-02  0.8331975E-01
        2   -1    0    0  501    0  0.00000000000E+00  0.00000000000E+00  0.21668422779E+04  0.21668422779E+04  0.25500000920E-02 0.  1.
       -2   -1    0    0    0  501  0.00000000000E+00  0.00000000000E+00 -0.84692694033E+03  0.84692694033E+03  0.25500000920E-02 0. -1.
    10030    2    1    2    0    0  0.00000000000E+00  0.00000000000E+00  0.13199153376E+04  0.30137692182E+04  0.27093594081E+04 0.  0.
        2    1    3    3  502    0  0.37980952507E+03 -0.10017439506E+04 -0.26229851231E+03  0.11029717709E+04  0.25500000920E-02 0. -1.
       -2    1    3    3    0  502 -0.37980952507E+03  0.10017439506E+04  0.15822138499E+04  0.19107974473E+04  0.25500000920E-02 0.  1.
</event>
<event>
 5   0  0.8740500E-06  0.2762661E+04  0.7818609E-02  0.8314955E-01
        3   -1    0    0  501    0  0.00000000000E+00  0.00000000000E+00  0.20272964285E+04  0.20272964311E+04  0.10100000352E+00 0. -1.
       -3   -1    0    0    0  501  0.00000000000E+00  0.00000000000E+00 -0.94119121284E+03  0.94119121826E+03  0.10100000352E+00 0.  1.
    10030    2    1    2    0    0  0.00000000000E+00  0.00000000000E+00  0.10861052157E+04  0.29684876493E+04  0.27626607437E+04 0.  0.
        5    1    3    3  502    0 -0.14071997507E+02  0.13768797989E+04  0.42507478295E+03  0.14410782986E+04  0.46999998093E+01 0.  1.
       -5    1    3    3    0  502  0.14071997507E+02 -0.13768797989E+04  0.66103043275E+03  0.15274093507E+04  0.46999998093E+01 0. -1.
</event>
<event>
 5   0  0.2641216E-05  0.2573118E+04  0.7818609E-02  0.8377390E-01
        2   -1    0    0  501    0  0.00000000000E+00  0.00000000000E+00  0.94973388783E+03  0.94973388784E+03  0.25500000920E-02 0. -1.
       -2   -1    0    0    0  501  0.00000000000E+00  0.00000000000E+00 -0.17428398707E+04  0.17428398707E+04  0.25500000920E-02 0.  1.
    10030    2    1    2    0    0  0.00000000000E+00  0.00000000000E+00 -0.79310598285E+03  0.26925737585E+04  0.25731180200E+04 0.  0.
        5    1    3    3  502    0 -0.26593576224E+03  0.89415230770E+03 -0.13236767302E+04  0.16193740628E+04  0.46999998093E+01 0. -1.
       -5    1    3    3    0  502  0.26593576224E+03 -0.89415230770E+03  0.53057074738E+03  0.10731996958E+04  0.46999998093E+01 0.  1.
</event>
<event>
 5   0  0.2615843E-05  0.2376670E+04  0.7818609E-02  0.8448290E-01
       -2   -1    0    0    0  501  0.00000000000E+00  0.00000000000E+00  0.13059217961E+04  0.13059217961E+04  0.25500000920E-02 0.  1.
        2   -1    0    0  501    0  0.00000000000E+00  0.00000000000E+00 -0.10813361882E+04  0.10813361882E+04  0.25500000920E-02 0. -1.
    10030    2    1    2    0    0  0.00000000000E+00  0.00000000000E+00  0.22458560789E+03  0.23872579843E+04  0.23766703575E+04 0.  0.
        3    1    3    3  502    0  0.96496594822E+03  0.30007521115E+03  0.74032698081E+03  0.12527124420E+04  0.10100000352E+00 0.  1.
       -3    1    3    3    0  502 -0.96496594822E+03 -0.30007521115E+03 -0.51574137293E+03  0.11345455423E+04  0.10100000352E+00 0. -1.
</event>
<event>
 5   0  0.1036691E-05  0.2605282E+04  0.7818609E-02  0.8366409E-01
        1   -1    0    0  501    0  0.00000000000E+00  0.00000000000E+00  0.22853705276E+04  0.22853705276E+04  0.50400001928E-02 0. -1.
       -1   -1    0    0    0  501  0.00000000000E+00  0.00000000000E+00 -0.74249387134E+03  0.74249387136E+03  0.50400001928E-02 0.  1.
    10030    2    1    2    0    0  0.00000000000E+00  0.00000000000E+00  0.15428766562E+04  0.30278643989E+04  0.26052820273E+04 0.  0.
        4    1    3    3  502    0 -0.57129600837E+03  0.11275154505E+04  0.11374891655E+04  0.17004568312E+04  0.12699999809E+01 0. -1.
       -4    1    3    3    0  502  0.57129600837E+03 -0.11275154505E+04  0.40538749075E+03  0.13274075677E+04  0.12699999809E+01 0.  1.
</event>
<event>
 5   0  0.2540232E-05  0.2445020E+04  0.7818609E-02  0.8422838E-01
       -2   -1    0    0    0  501  0.00000000000E+00  0.00000000000E+00  0.14961135614E+04  0.14961135614E+04  0.25500000920E-02 0. -1.
        2   -1    0    0  501    0  0.00000000000E+00  0.00000000000E+00 -0.99894216748E+03  0.99894216749E+03  0.25500000920E-02 0.  1.
    10030    2    1    2    0    0  0.00000000000E+00  0.00000000000E+00  0.49717139390E+03  0.24950557289E+04  0.24450201830E+04 0.  0.
        1    1    3    3  502    0 -0.10613600478E+04 -0.22456088246E+03  0.82369511564E+03  0.13621256861E+04  0.50400001928E-02 0. -1.
       -1    1    3    3    0  502  0.10613600478E+04  0.22456088246E+03 -0.32652372174E+03  0.11329300428E+04  0.50400001928E-02 0.  1.
</event>
<event>
 5   0  0.2540684E-05  0.2101322E+04  0.7818609E-02  0.8560661E-01
        2   -1    0    0  501    0  0.00000000000E+00  0.00000000000E+00  0.10783832241E+04  0.10783832241E+04  0.25500000920E-02 0. -1.
       -2   -1    0    0    0  501  0.00000000000E+00  0.00000000000E+00 -0.10236515669E+04  0.10236515669E+04  0.25500000920E-02 0.  1.
    10030    2    1    2    0    0  0.00000000000E+00  0.00000000000E+00  0.54731657219E+02  0.21020347911E+04  0.21013221334E+04 0.  0.
        2    1    3    3  502    0  0.59458320216E+03  0.80270652558E+03  0.35308603488E+03  0.10594983240E+04  0.25500000920E-02 0. -1.
       -2    1    3    3    0  502 -0.59458320216E+03 -0.80270652558E+03 -0.29835437766E+03  0.10425364671E+04  0.25500000920E-02 0.  1.
</event>
<event>
 5   0  0.9971923E-06  0.2697785E+04  0.7818609E-02  0.8335724E-01
        1   -1    0    0  501    0  0.00000000000E+00  0.00000000000E+00  0.17109456947E+04  0.17109456947E+04  0.50400001928E-02 0. -1.
       -1   -1    0    0    0  501  0.00000000000E+00  0.00000000000E+00 -0.10634536562E+04  0.10634536562E+04  0.50400001928E-02 0.  1.
    10030    2    1    2    0    0  0.00000000000E+00  0.00000000000E+00  0.64749203848E+03  0.27743993510E+04  0.26977853545E+04 0.  0.
        2    1    3    3  502    0 -0.57405811620E+03  0.93532246515E+03  0.11303284997E+04  0.15754406849E+04  0.25500000920E-02 0.  1.
       -2    1    3    3    0  502  0.57405811620E+03 -0.93532246515E+03 -0.48283646120E+03  0.11989586660E+04  0.25500000920E-02 0. -1.
</event>
<event>
 5   0  0.2641216E-05  0.2755658E+04  0.7818609E-02  0.8317169E-01
        2   -1    0    0  501    0  0.00000000000E+00  0.00000000000E+00  0.23877670272E+04  0.23877670272E+04  0.25500000920E-02 0. -1.
       -2   -1    0    0    0  501  0.00000000000E+00  0.00000000000E+00 -0.79505774308E+03  0.79505774308E+03  0.25500000920E-02 0.  1.
    10030    2    1    2    0    0  0.00000000000E+00  0.00000000000E+00  0.15927092841E+04  0.31828247703E+04  0.27556579350E+04 0.  0.
        5    1    3    3  502    0 -0.48316517123E+02 -0.14691260304E+03 -0.78499167347E+03  0.80009487949E+03  0.46999998093E+01 0.  1.
       -5    1    3    3    0  502  0.48316517123E+02  0.14691260304E+03  0.23777009576E+04  0.23827298908E+04  0.46999998093E+01 0. -1.
</event>
<event>
 5   0  0.1005265E-05  0.2667865E+04  0.7818609E-02  0.8345508E-01
       -1   -1    0    0    0  501  0.00000000000E+00  0.00000000000E+00  0.10808832060E+04  0.10808832060E+04  0.50400001928E-02 0. -1.
        1   -1    0    0  501    0  0.00000000000E+00  0.00000000000E+00 -0.16462235670E+04  0.16462235670E+04  0.50400001928E-02 0.  1.
    10030    2    1    2    0    0  0.00000000000E+00  0.00000000000E+00 -0.56534036098E+03  0.27271067730E+04  0.26678646194E+04 0.  0.
        3    1    3    3  502    0  0.97970295842E+02 -0.13232310442E+04 -0.14237518949E+03  0.13344696624E+04  0.10100000352E+00 0.  1.
       -3    1    3    3    0  502 -0.97970295842E+02  0.13232310442E+04 -0.42296517149E+03  0.13926371105E+04  0.10100000352E+00 0. -1.
</event>
<event>
 5   0  0.1005265E-05  0.2720305E+04  0.7818609E-02  0.8328447E-01
       -1   -1    0    0    0  501  0.00000000000E+00  0.00000000000E+00  0.12488035245E+04  0.12488035245E+04  0.50400001928E-02 0. -1.
        1   -1    0    0  501    0  0.00000000000E+00  0.00000000000E+00 -0.14814299509E+04  0.14814299509E+04  0.50400001928E-02 0.  1.
    10030    2    1    2    0    0  0.00000000000E+00  0.00000000000E+00 -0.23262642639E+03  0.27302334754E+04  0.27203050888E+04 0.  0.
        3    1    3    3  502    0  0.18119605893E+03  0.61093841214E+03  0.10897118207E+04  0.12623587515E+04  0.10100000352E+00 0. -1.
       -3    1    3    3    0  502 -0.18119605893E+03 -0.61093841214E+03 -0.13223382471E+04  0.14678747239E+04  0.10100000352E+00 0.  1.
</event>
<event>
 5   0  0.1036691E-05  0.2068931E+04  0.7818609E-02  0.8575054E-01
       -1   -1    0    0    0  501  0.00000000000E+00  0.00000000000E+00  0.86447564743E+03  0.86447564744E+03  0.50400001928E-02 0. -1.
        1   -1    0    0  501    0  0.00000000000E+00  0.00000000000E+00 -0.12378816751E+04  0.12378816751E+04  0.50400001928E-02 0.  1.
    10030    2    1    2    0    0  0.00000000000E+00  0.00000000000E+00 -0.37340602771E+03  0.21023573226E+04  0.20689307022E+04 0.  0.
        4    1    3    3  502    0 -0.96955322461E+03  0.35473813304E+03 -0.12050175497E+03  0.10394204559E+04  0.12699999809E+01 0. -1.
       -4    1    3    3    0  502  0.96955322461E+03 -0.35473813304E+03 -0.25290427273E+03  0.10629368666E+04  0.12699999809E+01 0.  1.
</event>
<event>
 5   0  0.2516518E-05  0.1785895E+04  0.7818609E-02  0.8713837E-01
        2   -1    0    0  501    0  0.00000000000E+00  0.00000000000E+00  0.15559970064E+04  0.15559970064E+04  0.25500000920E-02 0. -1.
       -2   -1    0    0    0  501  0.00000000000E+00  0.00000000000E+00 -0.51244007094E+03  0.51244007095E+03  0.25500000920E-02 0.  1.
    10030    2    1    2    0    0  0.00000000000E+00  0.00000000000E+00  0.10435569355E+04  0.20684370774E+04  0.17858949761E+04 0.  0.
        4    1    3    3  502    0  0.49912008109E+02  0.89138556079E+03  0.50191336987E+03  0.10241963046E+04  0.12699999809E+01 0. -1.
       -4    1    3    3    0  502 -0.49912008109E+02 -0.89138556079E+03  0.54164356563E+03  0.10442407728E+04  0.12699999809E+01 0.  1.
</event>
<event>
 5   0  0.2540684E-05  0.2701717E+04  0.7818609E-02  0.8334448E-01
        2   -1    0    0  501    0  0.00000000000E+00  0.00000000000E+00  0.16468717411E+04  0.16468717411E+04  0.25500000920E-02 0. -1.
       -2   -1    0    0    0  501  0.00000000000E+00  0.00000000000E+00 -0.11080517278E+04  0.11080517278E+04  0.25500000920E-02 0.  1.
    10030    2    1    2    0    0  0.00000000000E+00  0.00000000000E+00  0.53882001325E+03  0.27549234689E+04  0.27017172896E+04 0.  0.
        2    1    3    3  502    0  0.12829509673E+04 -0.16500229956E+03 -0.12765571603E+03  0.12998018792E+04  0.25500000920E-02 0.  1.
       -2    1    3    3    0  502 -0.12829509673E+04  0.16500229956E+03  0.66647572928E+03  0.14551215898E+04  0.25500000920E-02 0. -1.
</event>
<event>
 5   0  0.2516518E-05  0.2684290E+04  0.7818609E-02  0.8340120E-01
        2   -1    0    0  501    0  0.00000000000E+00  0.00000000000E+00  0.10295981381E+04  0.10295981381E+04  0.25500000920E-02 0. -1.
       -2   -1    0    0    0  501  0.00000000000E+00  0.00000000000E+00 -0.17495686463E+04  0.17495686463E+04  0.25500000920E-02 0.  1.
    10030    2    1    2    0    0  0.00000000000E+00  0.00000000000E+00 -0.71997050818E+03  0.27791667844E+04  0.26842895676E+04 0.  0.
        4    1    3    3  502    0 -0.75651349261E+03  0.12673950974E+02  0.78774434325E+03  0.10922527440E+04  0.12699999809E+01 0. -1.
       -4    1    3    3    0  502  0.75651349261E+03 -0.12673950974E+02 -0.15077148514E+04  0.16869140404E+04  0.12699999809E+01 0.  1.
</event>
<event>
 5   0  0.2540232E-05  0.2713094E+04  0.7818609E-02  0.8330769E-01
        2   -1    0    0  501    0  0.00000000000E+00  0.00000000000E+00  0.17804831237E+04  0.17804831237E+04  0.25500000920E-02 0. -1.
       -2   -1    0    0    0  501  0.00000000000E+00  0.00000000000E+00 -0.10335511022E+04  0.10335511022E+04  0.25500000920E-02 0.  1.
    10030    2    1    2    0    0  0.00000000000E+00  0.00000000000E+00  0.74693202148E+03  0.28140342259E+04  0.27130943920E+04 0.  0.
        1    1    3    3  502    0 -0.13465934950E+04 -0.93391587688E+02  0.51333207492E+03  0.14441419073E+04  0.50400001928E-02 0.  1.
       -1    1    3    3    0  502  0.13465934950E+04  0.93391587688E+02  0.23359994656E+03  0.13698923185E+04  0.50400001928E-02 0. -1.
</event>
<event>
 5   0  0.2615843E-05  0.2686479E+04  0.7818609E-02  0.8339406E-01
        2   -1    0    0  501    0  0.00000000000E+00  0.00000000000E+00  0.17229230756E+04  0.17229230756E+04  0.25500000920E-02 0.  1.
       -2   -1    0    0    0  501  0.00000000000E+00  0.00000000000E+00 -0.10472272264E+04  0.10472272264E+04  0.25500000920E-02 0. -1.
    10030    2    1    2    0    0  0.00000000000E+00  0.00000000000E+00  0.67569584923E+03  0.27701503020E+04  0.26864787018E+04 0.  0.
        3    1    3    3  502    0  0.10577094967E+04 -0.59293595316E+03 -0.25805202339E+03  0.12397230663E+04  0.10100000352E+00 0. -1.
       -3    1    3    3    0  502 -0.10577094967E+04  0.59293595316E+03  0.93374787262E+03  0.15304272357E+04  0.10100000352E+00 0.  1.
</event>
<event>
 5   0  0.1096672E-05  0.2733849E+04  0.7818609E-02  0.8324105E-01
       -1   -1    0    0    0  501  0.00000000000E+00  0.00000000000E+00  0.10810758572E+04  0.10810758573E+04  0.50400001928E-02 0. -1.
        1   -1    0    0  501    0  0.00000000000E+00  0.00000000000E+00 -0.17283551829E+04  0.17283551829E+04  0.50400001928E-02 0.  1.
    10030    2    1    2    0    0  0.00000000000E+00  0.00000000000E+00 -0.64727932568E+03  0.28094310402E+04  0.27338493455E+04 0.  0.
        1    1    3    3  502    0  0.45042746824E+03  0.11324578493E+04 -0.95973331092E+03  0.15512684206E+04  0.50400001928E-02 0.  1.
       -1    1    3    3    0  502 -0.45042746824E+03 -0.11324578493E+04  0.31245398525E+03  0.12581626196E+04  0.50400001928E-02 0. -1.
</event>
<event>
 5   0  0.2540684E-05  0.2938856E+04  0.7818609E-02  0.8261410E-01
       -2   -1    0    0    0  501  0.00000000000E+00  0.00000000000E+00  0.12013786461E+04  0.12013786461E+04  0.25500000920E-02 0. -1.
        2   -1    0    0  501    0  0.00000000000E+00  0.00000000000E+00 -0.17972843227E+04  0.17972843227E+04  0.25500000920E-02 0.  1.
    10030    2    1    2    0    0  0.00000000000E+00  0.00000000000E+00 -0.59590567655E+03  0.29986629688E+04  0.29388562444E+04 0.  0.
        2    1    3    3  502    0 -0.70983765389E+03  0.84233586435E+03 -0.12902768836E+04  0.16965298817E+04  0.25500000920E-02 0.  1.
       -2    1    3    3    0  502  0.70983765389E+03 -0.84233586435E+03  0.69437120704E+03  0.13021330871E+04  0.25500000920E-02 0. -1.
</event>
<event>
 5   0  0.9971923E-06  0.2827363E+04  0.7818609E-02  0.8294823E-01
        1   -1    0    0  501    0  0.00000000000E+00  0.00000000000E+00  0.18838542298E+04  0.18838542298E+04  0.50400001928E-02 0. -1.
       -1   -1    0    0    0  501  0.00000000000E+00  0.00000000000E+00 -0.10608542640E+04  0.10608542640E+04  0.50400001928E-02 0.  1.
    10030    2    1    2    0    0  0.00000000000E+00  0.00000000000E+00  0.82299996577E+03  0.29447084938E+04  0.28273625819E+04 0.  0.
        2    1    3    3  502    0  0.95937064598E+03 -0.21791601507E+03 -0.64582649882E+03  0.11768480329E+04  0.25500000920E-02 0.  1.
       -2    1    3    3    0  502 -0.95937064598E+03  0.21791601507E+03  0.14688264646E+04  0.17678604609E+04  0.25500000920E-02 0. -1.
</event>
<event>
 5   0  0.2540684E-05  0.2822536E+04  0.7818609E-02  0.8296306E-01
       -2   -1    0    0    0  501  0.00000000000E+00  0.00000000000E+00  0.90470005681E+03  0.90470005682E+03  0.25500000920E-02 0. -1.
        2   -1    0    0  501    0  0.00000000000E+00  0.00000000000E+00 -0.22014784369E+04  0.22014784369E+04  0.25500000920E-02 0.  1.
    10030    2    1    2    0    0  0.00000000000E+00  0.00000000000E+00 -0.12967783801E+04  0.31061784938E+04  0.28225362120E+04 0.  0.
        2    1    3    3  502    0  0.13995551170E+04  0.75032437591E+02 -0.83019790981E+03  0.16289913940E+04  0.25500000920E-02 0. -1.
       -2    1    3    3    0  502 -0.13995551170E+04 -0.75032437591E+02 -0.46658047031E+03  0.14771870997E+04  0.25500000920E-02 0.  1.
</event>
<event>
 5   0  0.2516518E-05  0.2660244E+04  0.7818609E-02  0.8348021E-01
       -2   -1    0    0    0  501  0.00000000000E+00  0.00000000000E+00  0.76244089451E+03  0.76244089451E+03  0.25500000920E-02 0.  1.
        2   -1    0    0  501    0  0.00000000000E+00  0.00000000000E+00 -0.23204740815E+04  0.23204740815E+04  0.25500000920E-02 0. -1.
    10030    2    1    2    0    0  0.00000000000E+00  0.00000000000E+00 -0.15580331870E+04  0.30829149760E+04  0.26602438492E+04 0.  0.
        4    1    3    3  502    0  0.55192365905E+02  0.54874356649E+03 -0.21817248844E+04  0.22503534796E+04  0.12699999809E+01 0. -1.
       -4    1    3    3    0  502 -0.55192365905E+02 -0.54874356649E+03  0.62369169740E+03  0.83256149642E+03  0.12699999809E+01 0.  1.
</event>
<event>
 5   0  0.1096672E-05  0.2686731E+04  0.7818609E-02  0.8339323E-01
        1   -1    0    0  501    0  0.00000000000E+00  0.00000000000E+00  0.28667106283E+04  0.28667106283E+04  0.50400001928E-02 0.  1.
       -1   -1    0    0    0  501  0.00000000000E+00  0.00000000000E+00 -0.62951282688E+03  0.62951282690E+03  0.50400001928E-02 0. -1.
    10030    2    1    2    0    0  0.00000000000E+00  0.00000000000E+00  0.22371978014E+04  0.34962234552E+04  0.26867311823E+04 0.  0.
        1    1    3    3  502    0 -0.51630840972E+03 -0.12141870140E+04  0.14473050877E+04  0.19584474708E+04  0.50400001928E-02 0. -1.
       -1    1    3    3    0  502  0.51630840972E+03  0.12141870140E+04  0.78989271376E+03  0.15377759844E+04  0.50400001928E-02 0.  1.
</event>
<event>
 5   0  0.1005265E-05  0.2727841E+04  0.7818609E-02  0.8326028E-01
        1   -1    0    0  501    0  0.00000000000E+00  0.00000000000E+00  0.17090271156E+04  0.17090271156E+04  0.50400001928E-02 0. -1.
       -1   -1    0    0    0  501  0.00000000000E+00  0.00000000000E+00 -0.10885015569E+04  0.10885015569E+04  0.50400001928E-02 0.  1.
    10030    2    1    2    0    0  0.00000000000E+00  0.00000000000E+00  0.62052555868E+03  0.27975286725E+04  0.27278406670E+04 0.  0.
        3    1    3    3  502    0 -0.57262980479E+03 -0.98153715972E+03 -0.46330054495E+03  0.12271786726E+04  0.10100000352E+00 0.  1.
       -3    1    3    3    0  502  0.57262980479E+03  0.98153715972E+03  0.10838261036E+04  0.15703500000E+04  0.10100000352E+00 0. -1.
</event>
<event>
 5   0  0.2615843E-05  0.2690424E+04  0.7818609E-02  0.8338119E-01
        2   -1    0    0  501    0  0.00000000000E+00  0.00000000000E+00  0.12043135051E+04  0.12043135051E+04  0.25500000920E-02 0.  1.
       -2   -1    0    0    0  501  0.00000000000E+00  0.00000000000E+00 -0.15025950446E+04  0.15025950446E+04  0.25500000920E-02 0. -1.
    10030    2    1    2    0    0  0.00000000000E+00  0.00000000000E+00 -0.29828153947E+03  0.27069085496E+04  0.26904241337E+04 0.  0.
        3    1    3    3  502    0 -0.10027597467E+04 -0.86536647378E+03  0.87265375455E+02  0.13274040453E+04  0.10100000352E+00 0.  1.
       -3    1    3    3    0  502  0.10027597467E+04  0.86536647378E+03 -0.38554691492E+03  0.13795045043E+04  0.10100000352E+00 0. -1.
</event>
<event>
 5   0  0.1041909E-05  0.2716582E+04  0.7818609E-02  0.8329645E-01
        1   -1    0    0  501    0  0.00000000000E+00  0.00000000000E+00  0.28655546396E+04  0.28655546396E+04  0.50400001928E-02 0. -1.
       -1   -1    0    0    0  501  0.00000000000E+00  0.00000000000E+00 -0.64383831164E+03  0.64383831166E+03  0.50400001928E-02 0.  1.
    10030    2    1    2    0    0  0.00000000000E+00  0.00000000000E+00  0.22217163280E+04  0.35093929513E+04  0.27165815733E+04 0.  0.
        5    1    3    3  502    0 -0.82389325485E+03  0.25399941025E+03 -0.24503153585E+03  0.89631375051E+03  0.46999998093E+01 0.  1.
       -5    1    3    3    0  502  0.82389325485E+03 -0.25399941025E+03  0.24667478638E+04  0.26130792008E+04  0.46999998093E+01 0. -1.
</event>
<event>
 5   0  0.1036691E-05  0.2736548E+04  0.7818609E-02  0.8323243E-01
        1   -1    0    0  501    0  0.00000000000E+00  0.00000000000E+00  0.17310883943E+04  0.17310883943E+04  0.50400001928E-02 0. -1.
       -1   -1    0    0    0  501  0.00000000000E+00  0.00000000000E+00 -0.10815007779E+04  0.10815007779E+04  0.50400001928E-02 0.  1.
    10030    2    1    2    0    0  0.00000000000E+00  0.00000000000E+00  0.64958761644E+03  0.28125891722E+04  0.27365477851E+04 0.  0.
        4    1    3    3  502    0  0.96999737266E+03  0.27078247422E+03 -0.62720238248E+03  0.11864242466E+04  0.12699999809E+01 0.  1.
       -4    1    3    3    0  502 -0.96999737266E+03 -0.27078247422E+03  0.12767899989E+04  0.16261649257E+04  0.12699999809E+01 0. -1.
</event>
<event>
 5   0  0.2516518E-05  0.2713767E+04  0.7818609E-02  0.8330552E-01
        2   -1    0    0  501    0  0.00000000000E+00  0.00000000000E+00  0.19652150830E+04  0.19652150830E+04  0.25500000920E-02 0. -1.
       -2   -1    0    0    0  501  0.00000000000E+00  0.00000000000E+00 -0.93686076568E+03  0.93686076568E+03  0.25500000920E-02 0.  1.
    10030    2    1    2    0    0  0.00000000000E+00  0.00000000000E+00  0.10283543173E+04  0.29020758487E+04  0.27137670551E+04 0.  0.
        4    1    3    3  502    0 -0.47716526204E+03  0.12380516206E+04  0.21043873345E+03  0.13434078219E+04  0.12699999809E+01 0.  1.
       -4    1    3    3    0  502  0.47716526204E+03 -0.12380516206E+04  0.81791558388E+03  0.15586680268E+04  0.12699999809E+01 0. -1.
</event>
<event>
 5   0  0.2540232E-05  0.2708028E+04  0.7818609E-02  0.8332405E-01
        2   -1    0    0  501    0  0.00000000000E+00  0.00000000000E+00  0.15752757269E+04  0.15752757269E+04  0.25500000920E-02 0.  1.
       -2   -1    0    0    0  501  0.00000000000E+00  0.00000000000E+00 -0.11638307478E+04  0.11638307478E+04  0.25500000920E-02 0. -1.
    10030    2    1    2    0    0  0.00000000000E+00  0.00000000000E+00  0.41144497915E+03  0.27391064747E+04  0.27080283065E+04 0.  0.
        1    1    3    3  502    0 -0.10570580030E+04  0.81913080758E+03  0.42030671881E+03  0.14017862318E+04  0.50400001928E-02 0.  1.
       -1    1    3    3    0  502  0.10570580030E+04 -0.81913080758E+03 -0.88617396622E+01  0.13373202429E+04  0.50400001928E-02 0. -1.
</event>
<event>
 5   0  0.9971923E-06  0.2690926E+04  0.7818609E-02  0.8337955E-01
        1   -1    0    0  501    0  0.00000000000E+00  0.00000000000E+00  0.14103126917E+04  0.14103126917E+04  0.50400001928E-02 0.  1.
       -1   -1    0    0    0  501  0.00000000000E+00  0.00000000000E+00 -0.12835947919E+04  0.12835947919E+04  0.50400001928E-02 0. -1.
    10030    2    1    2    0    0  0.00000000000E+00  0.00000000000E+00  0.12671789977E+03  0.26939074836E+04  0.26909255107E+04 0.  0.
        2    1    3    3  502    0 -0.30822416150E+03 -0.65007653856E+03 -0.10748567316E+04  0.12934135584E+04  0.25500000920E-02 0. -1.
       -2    1    3    3    0  502  0.30822416150E+03  0.65007653856E+03  0.12015746313E+04  0.14004939252E+04  0.25500000920E-02 0.  1.
</event>
<event>
 5   0  0.2540684E-05  0.2735970E+04  0.7818609E-02  0.8323427E-01
        2   -1    0    0  501    0  0.00000000000E+00  0.00000000000E+00  0.14612758092E+04  0.14612758092E+04  0.25500000920E-02 0. -1.
       -2   -1    0    0    0  501  0.00000000000E+00  0.00000000000E+00 -0.12806501285E+04  0.12806501285E+04  0.25500000920E-02 0.  1.
    10030    2    1    2    0    0  0.00000000000E+00  0.00000000000E+00  0.18062568071E+03  0.27419259378E+04  0.27359700677E+04 0.  0.
        2    1    3    3  502    0  0.30736222955E+03 -0.13150076906E+04  0.30911421058E+03  0.13853766136E+04  0.25500000920E-02 0. -1.
       -2    1    3    3    0  502 -0.30736222955E+03  0.13150076906E+04 -0.12848852987E+03  0.13565493241E+04  0.25500000920E-02 0.  1.
</event>
<event>
 5   0  0.2540232E-05  0.2630235E+04  0.7818609E-02  0.8358003E-01
       -2   -1    0    0    0  501  0.00000000000E+00  0.00000000000E+00  0.85151023795E+03  0.85151023796E+03  0.25500000920E-02 0. -1.
        2   -1    0    0  501    0  0.00000000000E+00  0.00000000000E+00 -0.20311378424E+04  0.20311378424E+04  0.25500000920E-02 0.  1.
    10030    2    1    2    0    0  0.00000000000E+00  0.00000000000E+00 -0.11796276045E+04  0.28826480804E+04  0.26302354781E+04 0.  0.
        1    1    3    3  502    0  0.21462030922E+03 -0.52188765777E+03  0.71208378916E+03  0.90856586293E+03  0.50400001928E-02 0. -1.
       -1    1    3    3    0  502 -0.21462030922E+03  0.52188765777E+03 -0.18917113936E+04  0.19740822175E+04  0.50400001928E-02 0.  1.
</event>
<event>
 5   0  0.2615843E-05  0.2699108E+04  0.7818609E-02  0.8335294E-01
       -2   -1    0    0    0  501  0.00000000000E+00  0.00000000000E+00  0.13239456203E+04  0.13239456203E+04  0.25500000920E-02 0. -1.
        2   -1    0    0  501    0  0.00000000000E+00  0.00000000000E+00 -0.13756579473E+04  0.13756579473E+04  0.25500000920E-02 0.  1.
    10030    2    1    2    0    0  0.00000000000E+00  0.00000000000E+00 -0.51712326978E+02  0.26996035677E+04  0.26991082338E+04 0.  0.
        3    1    3    3  502    0 -0.54196455957E+03 -0.11209960487E+04 -0.54646929463E+03  0.13597744023E+04  0.10100000352E+00 0. -1.
       -3    1    3    3    0  502  0.54196455957E+03  0.11209960487E+04  0.49475696765E+03  0.13398291653E+04  0.10100000352E+00 0.  1.
</event>
<event>
 5   0  0.2540684E-05  0.2723005E+04  0.7818609E-02  0.8327579E-01
       -2   -1    0    0    0  501  0.00000000000E+00  0.00000000000E+00  0.81888940296E+03  0.81888940296E+03  0.25500000920E-02 0. -1.
        2   -1    0    0  501    0  0.00000000000E+00  0.00000000000E+00 -0.22636630723E+04  0.22636630723E+04  0.25500000920E-02 0.  1.
    10030    2    1    2    0    0  0.00000000000E+00  0.00000000000E+00 -0.14447736693E+04  0.30825524752E+04  0.27230054732E+04 0.  0.
        2    1    3    3  502    0  0.16370317883E+03  0.12720436871E+04 -0.20511018594E+03  0.12988318063E+04  0.25500000920E-02 0.  1.
       -2    1    3    3    0  502 -0.16370317883E+03 -0.12720436871E+04 -0.12396634834E+04  0.17837206689E+04  0.25500000920E-02 0. -1.
</event>
<event>
 5   0  0.1041909E-05  0.2720286E+04  0.7818609E-02  0.8328453E-01
       -1   -1    0    0    0  501  0.00000000000E+00  0.00000000000E+00  0.16740816185E+04  0.16740816185E+04  0.50400001928E-02 0.  1.
        1   -1    0    0  501    0  0.00000000000E+00  0.00000000000E+00 -0.11050767134E+04  0.11050767135E+04  0.50400001928E-02 0. -1.
    10030    2    1    2    0    0  0.00000000000E+00  0.00000000000E+00  0.56900490507E+03  0.27791583320E+04  0.27202857299E+04 0.  0.
        5    1    3    3  502    0 -0.12824388631E+04  0.36725082855E+03  0.13345648187E+02  0.13340625191E+04  0.46999998093E+01 0. -1.
       -5    1    3    3    0  502  0.12824388631E+04 -0.36725082855E+03  0.55565925688E+03  0.14450958129E+04  0.46999998093E+01 0.  1.
</event>
<event>
 5   0  0.2516518E-05  0.2561512E+04  0.7818609E-02  0.8381394E-01
        2   -1    0    0  501    0  0.00000000000E+00  0.00000000000E+00  0.14691624049E+04  0.14691624049E+04  0.25500000920E-02 0. -1.
       -2   -1    0    0    0  501  0.00000000000E+00  0.00000000000E+00 -0.11165106703E+04  0.11165106703E+04  0.25500000920E-02 0.  1.
    10030    2    1    2    0    0  0.00000000000E+00  0.00000000000E+00  0.35265173457E+03  0.25856730753E+04  0.25615116643E+04 0.  0.
        4    1    3    3  502    0  0.83391969176E+03 -0.94710644959E+03 -0.44602007554E+02  0.12627048868E+04  0.12699999809E+01 0.  1.
       -4    1    3    3    0  502 -0.83391969176E+03  0.94710644959E+03  0.39725374213E+03  0.13229681885E+04  0.12699999809E+01 0. -1.
</event>
<event>
 5   0  0.1005265E-05  0.2719914E+04  0.7818609E-02  0.8328572E-01
        1   -1    0    0  501    0  0.00000000000E+00  0.00000000000E+00  0.65412977476E+03  0.65412977478E+03  0.50400001928E-02 0. -1.
       -1   -1    0    0    0  501  0.00000000000E+00  0.00000000000E+00 -0.28273949862E+04  0.28273949862E+04  0.50400001928E-02 0.  1.
    10030    2    1    2    0    0  0.00000000000E+00  0.00000000000E+00 -0.21732652115E+04  0.34815247610E+04  0.27199141498E+04 0.  0.
        3    1    3    3  502    0 -0.33829857317E+03 -0.89210643705E+03 -0.23271118426E+04  0.25151042440E+04  0.10100000352E+00 0.  1.
       -3    1    3    3    0  502  0.33829857317E+03  0.89210643705E+03  0.15384663118E+03  0.96642051705E+03  0.10100000352E+00 0. -1.
</event>
<event>
 5   0  0.1096672E-05  0.2746187E+04  0.7818609E-02  0.8320173E-01
       -1   -1    0    0    0  501  0.00000000000E+00  0.00000000000E+00  0.16272648398E+04  0.16272648398E+04  0.50400001928E-02 0. -1.
        1   -1    0    0  501    0  0.00000000000E+00  0.00000000000E+00 -0.11586227485E+04  0.11586227485E+04  0.50400001928E-02 0.  1.
    10030    2    1    2    0    0  0.00000000000E+00  0.00000000000E+00  0.46864209136E+03  0.27858875883E+04  0.27461872196E+04 0.  0.
        1    1    3    3  502    0  0.89010429637E+03  0.84083795365E+03 -0.39602468207E+03  0.12869070174E+04  0.50400001928E-02 0.  1.
       -1    1    3    3    0  502 -0.89010429637E+03 -0.84083795365E+03  0.86466677343E+03  0.14989805709E+04  0.50400001928E-02 0. -1.
</event>
<event>
 5   0  0.2615843E-05  0.2240420E+04  0.7818609E-02  0.8501790E-01
       -2   -1    0    0    0  501  0.00000000000E+00  0.00000000000E+00  0.60173844969E+03  0.60173844970E+03  0.25500000920E-02 0. -1.
        2   -1    0    0  501    0  0.00000000000E+00  0.00000000000E+00 -0.20854082995E+04  0.20854082995E+04  0.25500000920E-02 0.  1.
    10030    2    1    2    0    0  0.00000000000E+00  0.00000000000E+00 -0.14836698498E+04  0.26871467492E+04  0.22404199223E+04 0.  0.
        3    1    3    3  502    0  0.33314393610E+03  0.81319922199E+03 -0.15750406365E+04  0.18036160549E+04  0.10100000352E+00 0.  1.
       -3    1    3    3    0  502 -0.33314393610E+03 -0.81319922199E+03  0.91370786711E+02  0.88353069424E+03  0.10100000352E+00 0. -1.
</event>
<event>
 5   0  0.8740500E-06  0.2771769E+04  0.7818609E-02  0.8312087E-01
        3   -1    0    0  501    0  0.00000000000E+00  0.00000000000E+00  0.81364484445E+03  0.81364485072E+03  0.10100000352E+00 0. -1.
       -3   -1    0    0    0  501  0.00000000000E+00  0.00000000000E+00 -0.23605817637E+04  0.23605817658E+04  0.10100000352E+00 0.  1.
    10030    2    1    2    0    0  0.00000000000E+00  0.00000000000E+00 -0.15469369192E+04  0.31742266166E+04  0.27717685295E+04 0.  0.
        4    1    3    3  502    0 -0.43892214556E+02  0.34810290305E+02 -0.23592839408E+04  0.23599492810E+04  0.12699999809E+01 0.  1.
       -4    1    3    3    0  502  0.43892214556E+02 -0.34810290305E+02  0.81234702157E+03  0.81427733553E+03  0.12699999809E+01 0. -1.
</event>
<event>
 5   0  0.1005265E-05  0.2172605E+04  0.7818609E-02  0.8529918E-01
       -1   -1    0    0    0  501  0.00000000000E+00  0.00000000000E+00  0.91704900471E+03  0.91704900473E+03  0.50400001928E-02 0.  1.
        1   -1    0    0  501    0  0.00000000000E+00  0.00000000000E+00 -0.12867940842E+04  0.12867940842E+04  0.50400001928E-02 0. -1.
    10030    2    1    2    0    0  0.00000000000E+00  0.00000000000E+00 -0.36974507944E+03  0.22038430889E+04  0.21726051037E+04 0.  0.
        3    1    3    3  502    0  0.57959692278E+03 -0.82249874900E+03  0.23042387275E+03  0.10322460735E+04  0.10100000352E+00 0.  1.
       -3    1    3    3    0  502 -0.57959692278E+03  0.82249874900E+03 -0.60016895219E+03  0.11715970154E+04  0.10100000352E+00 0. -1.
</event>
<event>
 5   0  0.1036691E-05  0.2774023E+04  0.7818609E-02  0.8311379E-01
        1   -1    0    0  501    0  0.00000000000E+00  0.00000000000E+00  0.95499114011E+03  0.95499114012E+03  0.50400001928E-02 0.  1.
       -1   -1    0    0    0  501  0.00000000000E+00  0.00000000000E+00 -0.20144691997E+04  0.20144691997E+04  0.50400001928E-02 0. -1.
    10030    2    1    2    0    0  0.00000000000E+00  0.00000000000E+00 -0.10594780596E+04  0.29694603398E+04  0.27740225217E+04 0.  0.
        4    1    3    3  502    0 -0.63722761585E+03  0.74881871290E+02  0.78658388317E+03  0.10150774095E+04  0.12699999809E+01 0.  1.
       -4    1    3    3    0  502  0.63722761585E+03 -0.74881871290E+02 -0.18460619427E+04  0.19543829303E+04  0.12699999809E+01 0. -1.
</event>
<event>
 5   0  0.1041909E-05  0.2721875E+04  0.7818609E-02  0.8327942E-01
       -1   -1    0    0    0  501  0.00000000000E+00  0.00000000000E+00  0.16558595138E+04  0.16558595138E+04  0.50400001928E-02 0.  1.
        1   -1    0    0  501    0  0.00000000000E+00  0.00000000000E+00 -0.11185432657E+04  0.11185432658E+04  0.50400001928E-02 0. -1.
    10030    2    1    2    0    0  0.00000000000E+00  0.00000000000E+00  0.53731624805E+03  0.27744027796E+04  0.27218747276E+04 0.  0.
        5    1    3    3  502    0  0.96067227983E+03 -0.43707142958E+03  0.11444281778E+04  0.15568110380E+04  0.46999998093E+01 0.  1.
       -5    1    3    3    0  502 -0.96067227983E+03  0.43707142958E+03 -0.60711192979E+03  0.12175917416E+04  0.46999998093E+01 0. -1.
</event>
<event>
 5   0  0.1036691E-05  0.2751481E+04  0.7818609E-02  0.8318492E-01
       -1   -1    0    0    0  501  0.00000000000E+00  0.00000000000E+00  0.74706514760E+03  0.74706514762E+03  0.50400001928E-02 0.  1.
        1   -1    0    0  501    0  0.00000000000E+00  0.00000000000E+00 -0.25334635420E+04  0.25334635420E+04  0.50400001928E-02 0. -1.
    10030    2    1    2    0    0  0.00000000000E+00  0.00000000000E+00 -0.17863983944E+04  0.32805286896E+04  0.27514812847E+04 0.  0.
        4    1    3    3  502    0 -0.10685390127E+04 -0.63725240570E+03 -0.15932948993E+04  0.20214985776E+04  0.12699999809E+01 0. -1.
       -4    1    3    3    0  502  0.10685390127E+04  0.63725240570E+03 -0.19310349511E+03  0.12590301120E+04  0.12699999809E+01 0.  1.
</event>
<event>
 5   0  0.2540232E-05  0.2639138E+04  0.7818609E-02  0.8355027E-01
        2   -1    0    0  501    0  0.00000000000E+00  0.00000000000E+00  0.24338567536E+04  0.24338567536E+04  0.25500000920E-02 0. -1.
       -2   -1    0    0    0  501  0.00000000000E+00  0.00000000000E+00 -0.71543357968E+03  0.71543357969E+03  0.25500000920E-02 0.  1.
    10030    2    1    2    0    0  0.00000000000E+00  0.00000000000E+00  0.17184231739E+04  0.31492903333E+04  0.26391383819E+04 0.  0.
        1    1    3    3  502    0 -0.97232479555E+03 -0.74989277887E+03  0.28257582933E+03  0.12600015028E+04  0.50400001928E-02 0.  1.
       -1    1    3    3    0  502  0.97232479555E+03  0.74989277887E+03  0.14358473446E+04  0.18892888305E+04  0.50400001928E-02 0. -1.
</event>
<event>
 5   0  0.1096672E-05  0.2684356E+04  0.7818609E-02  0.8340099E-01
        1   -1    0    0  501    0  0.00000000000E+00  0.00000000000E+00  0.21368542397E+04  0.21368542397E+04  0.50400001928E-02 0.  1.
       -1   -1    0    0    0  501  0.00000000000E+00  0.00000000000E+00 -0.84303462917E+03  0.84303462919E+03  0.50400001928E-02 0. -1.
    10030    2    1    2    0    0  0.00000000000E+00  0.00000000000E+00  0.12938196106E+04  0.29798888689E+04  0.26843562518E+04 0.  0.
        1    1    3    3  502    0  0.78754452829E+03 -0.28707806520E+03  0.18105524289E+04  0.19951792645E+04  0.50400001928E-02 0.  1.
       -1    1    3    3    0  502 -0.78754452829E+03  0.28707806520E+03 -0.51673281833E+03  0.98470960446E+03  0.50400001928E-02 0. -1.
</event>
<event>
 5   0  0.2615843E-05  0.2694508E+04  0.7818609E-02  0.8336789E-01
       -2   -1    0    0    0  501  0.00000000000E+00  0.00000000000E+00  0.97140614235E+03  0.97140614236E+03  0.25500000920E-02 0.  1.
        2   -1    0    0  501    0  0.00000000000E+00  0.00000000000E+00 -0.18685221978E+04  0.18685221978E+04  0.25500000920E-02 0. -1.
    10030    2    1    2    0    0  0.00000000000E+00  0.00000000000E+00 -0.89711605544E+03  0.28399283402E+04  0.26945084450E+04 0.  0.
        3    1    3    3  502    0  0.51106877033E+03  0.44804271954E+03  0.77747583813E+03  0.10326675436E+04  0.10100000352E+00 0.  1.
       -3    1    3    3    0  502 -0.51106877033E+03 -0.44804271954E+03 -0.16745918936E+04  0.18072607965E+04  0.10100000352E+00 0. -1.
</event>
<event>
 5   0  0.2516518E-05  0.2699063E+04  0.7818609E-02  0.8335309E-01
       -2   -1    0    0    0  501  0.00000000000E+00  0.00000000000E+00  0.11144214252E+04  0.11144214252E+04  0.25500000920E-02 0.  1.
        2   -1    0    0  501    0  0.00000000000E+00  0.00000000000E+00 -0.16342427234E+04  0.16342427234E+04  0.25500000920E-02 0. -1.
    10030    2    1    2    0    0  0.00000000000E+00  0.00000000000E+00 -0.51982129819E+03  0.27486641486E+04  0.26990628780E+04 0.  0.
        4    1    3    3  502    0 -0.65947350992E+02  0.68742848713E+03  0.92084778908E+03  0.11510296441E+04  0.12699999809E+01 0.  1.
       -4    1    3    3    0  502  0.65947350992E+02 -0.68742848713E+03 -0.14406690873E+04  0.15976345045E+04  0.12699999809E+01 0. -1.
</event>
<event>
 5   0  0.1036691E-05  0.2666342E+04  0.7818609E-02  0.8346009E-01
        1   -1    0    0  501    0  0.00000000000E+00  0.00000000000E+00  0.11614697627E+04  0.11614697628E+04  0.50400001928E-02 0.  1.
       -1   -1    0    0    0  501  0.00000000000E+00  0.00000000000E+00 -0.15302546039E+04  0.15302546039E+04  0.50400001928E-02 0. -1.
    10030    2    1    2    0    0  0.00000000000E+00  0.00000000000E+00 -0.36878484112E+03  0.26917243666E+04  0.26663416523E+04 0.  0.
        4    1    3    3  502    0 -0.36010865240E+03  0.10855413458E+04  0.50715772670E+03  0.12511150337E+04  0.12699999809E+01 0.  1.
       -4    1    3    3    0  502  0.36010865240E+03 -0.10855413458E+04 -0.87594256782E+03  0.14406093329E+04  0.12699999809E+01 0. -1.
</event>
<event>
 5   0  0.1096672E-05  0.2721978E+04  0.7818609E-02  0.8327909E-01
       -1   -1    0    0    0  501  0.00000000000E+00  0.00000000000E+00  0.94429698546E+03  0.94429698547E+03  0.50400001928E-02 0.  1.
        1   -1    0    0  501    0  0.00000000000E+00  0.00000000000E+00 -0.19615559028E+04  0.19615559028E+04  0.50400001928E-02 0. -1.
    10030    2    1    2    0    0  0.00000000000E+00  0.00000000000E+00 -0.10172589173E+04  0.29058528883E+04  0.27219781967E+04 0.  0.
        1    1    3    3  502    0 -0.12152385511E+04 -0.37277278561E+03 -0.10278231184E+04  0.16346818187E+04  0.50400001928E-02 0. -1.
       -1    1    3    3    0  502  0.12152385511E+04  0.37277278561E+03  0.10564201082E+02  0.12711710695E+04  0.50400001928E-02 0.  1.
</event>
<event>
 5   0  0.2540684E-05  0.2755320E+04  0.7818609E-02  0.8317275E-01
       -2   -1    0    0    0  501  0.00000000000E+00  0.00000000000E+00  0.11278666395E+04  0.11278666395E+04  0.25500000920E-02 0.  1.
        2   -1    0    0  501    0  0.00000000000E+00  0.00000000000E+00 -0.16827761385E+04  0.16827761385E+04  0.25500000920E-02 0. -1.
    10030    2    1    2    0    0  0.00000000000E+00  0.00000000000E+00 -0.55490949904E+03  0.28106427780E+04  0.27553199947E+04 0.  0.
        2    1    3    3  502    0  0.43075469170E+02 -0.11635078125E+04 -0.10286794928E+04  0.15536368381E+04  0.25500000920E-02 0. -1.
       -2    1    3    3    0  502 -0.43075469170E+02  0.11635078125E+04  0.47376999379E+03  0.12570059399E+04  0.25500000920E-02 0.  1.
</event>
<event>
 5   0  0.2615843E-05  0.2680850E+04  0.7818609E-02  0.8341245E-01
        2   -1    0    0  501    0  0.00000000000E+00  0.00000000000E+00  0.12396272531E+04  0.12396272531E+04  0.25500000920E-02 0. -1.
       -2   -1    0    0    0  501  0.00000000000E+00  0.00000000000E+00 -0.14494192705E+04  0.14494192705E+04  0.25500000920E-02 0.  1.
    10030    2    1    2    0    0  0.00000000000E+00  0.00000000000E+00 -0.20979201737E+03  0.26890465236E+04  0.26808503344E+04 0.  0.
        3    1    3    3  502    0 -0.11931421359E+04 -0.23440735046E+03 -0.67071694387E+03  0.13886670557E+04  0.10100000352E+00 0.  1.
       -3    1    3    3    0  502  0.11931421359E+04  0.23440735046E+03  0.46092492650E+03  0.13003794679E+04  0.10100000352E+00 0. -1.
</event>
<event>
 5   0  0.1036691E-05  0.2674878E+04  0.7818609E-02  0.8343202E-01
        1   -1    0    0  501    0  0.00000000000E+00  0.00000000000E+00  0.14049222724E+04  0.14049222724E+04  0.50400001928E-02 0.  1.
       -1   -1    0    0    0  501  0.00000000000E+00  0.00000000000E+00 -0.12731973773E+04  0.12731973773E+04  0.50400001928E-02 0. -1.
    10030    2    1    2    0    0  0.00000000000E+00  0.00000000000E+00  0.13172489506E+03  0.26781196497E+04  0.26748782048E+04 0.  0.
        4    1    3    3  502    0 -0.20225596334E+03 -0.12726195413E+04  0.42444973574E+03  0.13566971522E+04  0.12699999809E+01 0.  1.
       -4    1    3    3    0  502  0.20225596334E+03  0.12726195413E+04 -0.29272484068E+03  0.13214224975E+04  0.12699999809E+01 0. -1.
</event>
<event>
 5   0  0.9971923E-06  0.2724117E+04  0.7818609E-02  0.8327222E-01
       -1   -1    0    0    0  501  0.00000000000E+00  0.00000000000E+00  0.11899328754E+04  0.11899328755E+04  0.50400001928E-02 0. -1.
        1   -1    0    0  501    0  0.00000000000E+00  0.00000000000E+00 -0.15590818430E+04  0.15590818430E+04  0.50400001928E-02 0.  1.
    10030    2    1    2    0    0  0.00000000000E+00  0.00000000000E+00 -0.36914896754E+03  0.27490147185E+04  0.27241165471E+04 0.  0.
        2    1    3    3  502    0  0.13328696720E+04  0.72051198315E+02  0.88956053278E+02  0.13377765572E+04  0.25500000920E-02 0. -1.
       -2    1    3    3    0  502 -0.13328696720E+04 -0.72051198315E+02 -0.45810502082E+03  0.14112381612E+04  0.25500000920E-02 0.  1.
</event>
<event>
 5   0  0.1096672E-05  0.2674865E+04  0.7818609E-02  0.8343207E-01
        1   -1    0    0  501    0  0.00000000000E+00  0.00000000000E+00  0.10961459325E+04  0.10961459325E+04  0.50400001928E-02 0.  1.
       -1   -1    0    0    0  501  0.00000000000E+00  0.00000000000E+00 -0.16318314454E+04  0.16318314454E+04  0.50400001928E-02 0. -1.
    10030    2    1    2    0    0  0.00000000000E+00  0.00000000000E+00 -0.53568551293E+03  0.27279773779E+04  0.26748647827E+04 0.  0.
        1    1    3    3  502    0 -0.28617401588E+03  0.61468680755E+03  0.90786607959E+03  0.11331179362E+04  0.50400001928E-02 0.  1.
       -1    1    3    3    0  502  0.28617401588E+03 -0.61468680755E+03 -0.14435515925E+04  0.15948594418E+04  0.50400001928E-02 0. -1.
</event>
<event>
 5   0  0.2540684E-05  0.2735496E+04  0.7818609E-02  0.8323579E-01
       -2   -1    0    0    0  501  0.00000000000E+00  0.00000000000E+00  0.12794847518E+04  0.12794847518E+04  0.25500000920E-02 0. -1.
        2   -1    0    0  501    0  0.00000000000E+00  0.00000000000E+00 -0.14620998672E+04  0.14620998673E+04  0.25500000920E-02 0.  1.
    10030    2    1    2    0    0  0.00000000000E+00  0.00000000000E+00 -0.18261511549E+03  0.27415846190E+04  0.27354959226E+04 0.  0.
        2    1    3    3  502    0 -0.26151006651E+03  0.61811944343E+03  0.11030981058E+04  0.12912337481E+04  0.25500000920E-02 0. -1.
       -2    1    3    3    0  502  0.26151006651E+03 -0.61811944343E+03 -0.12857132213E+04  0.14503508709E+04  0.25500000920E-02 0.  1.
</event>
<event>
 5   0  0.1041909E-05  0.2641547E+04  0.7818609E-02  0.8354224E-01
        1   -1    0    0  501    0  0.00000000000E+00  0.00000000000E+00  0.15313126785E+04  0.15313126785E+04  0.50400001928E-02 0. -1.
       -1   -1    0    0    0  501  0.00000000000E+00  0.00000000000E+00 -0.11391808425E+04  0.11391808425E+04  0.50400001928E-02 0.  1.
    10030    2    1    2    0    0  0.00000000000E+00  0.00000000000E+00  0.39213183595E+03  0.26704935210E+04  0.26415465676E+04 0.  0.
        5    1    3    3  502    0  0.43913424597E+03  0.38641938791E+03  0.13932135424E+04  0.15110343788E+04  0.46999998093E+01 0. -1.
       -5    1    3    3    0  502 -0.43913424597E+03 -0.38641938791E+03 -0.10010817064E+04  0.11594591422E+04  0.46999998093E+01 0.  1.
</event>
<event>
 5   0  0.1005265E-05  0.2441089E+04  0.7818609E-02  0.8424279E-01
        1   -1    0    0  501    0  0.00000000000E+00  0.00000000000E+00  0.15841651080E+04  0.15841651080E+04  0.50400001928E-02 0. -1.
       -1   -1    0    0    0  501  0.00000000000E+00  0.00000000000E+00 -0.94038703250E+03  0.94038703251E+03  0.50400001928E-02 0.  1.
    10030    2    1    2    0    0  0.00000000000E+00  0.00000000000E+00  0.64377807554E+03  0.25245521406E+04  0.24410885481E+04 0.  0.
        3    1    3    3  502    0 -0.27500480576E+03 -0.19949848190E+03 -0.89049929130E+03  0.95310874798E+03  0.10100000352E+00 0.  1.
       -3    1    3    3    0  502  0.27500480576E+03  0.19949848190E+03  0.15342773668E+04  0.15714433926E+04  0.10100000352E+00 0. -1.
</event>
<event>
 5   0  0.2615843E-05  0.2648897E+04  0.7818609E-02  0.8351779E-01
       -2   -1    0    0    0  501  0.00000000000E+00  0.00000000000E+00  0.12688996937E+04  0.12688996937E+04  0.25500000920E-02 0. -1.
        2   -1    0    0  501    0  0.00000000000E+00  0.00000000000E+00 -0.13824295744E+04  0.13824295744E+04  0.25500000920E-02 0.  1.
    10030    2    1    2    0    0  0.00000000000E+00  0.00000000000E+00 -0.11352988071E+03  0.26513292681E+04  0.26488974790E+04 0.  0.
        3    1    3    3  502    0  0.63538243443E+03  0.11212464809E+04 -0.36243020747E+03  0.13387532164E+04  0.10100000352E+00 0.  1.
       -3    1    3    3    0  502 -0.63538243443E+03 -0.11212464809E+04  0.24890032676E+03  0.13125760518E+04  0.10100000352E+00 0. -1.
</event>
<event>
 5   0  0.2615843E-05  0.2698230E+04  0.7818609E-02  0.8335580E-01
       -2   -1    0    0    0  501  0.00000000000E+00  0.00000000000E+00  0.80124919284E+03  0.80124919284E+03  0.25500000920E-02 0. -1.
        2   -1    0    0  501    0  0.00000000000E+00  0.00000000000E+00 -0.22715914725E+04  0.22715914725E+04  0.25500000920E-02 0.  1.
    10030    2    1    2    0    0  0.00000000000E+00  0.00000000000E+00 -0.14703422796E+04  0.30728406653E+04  0.26982296669E+04 0.  0.
        3    1    3    3  502    0  0.87400072527E+03  0.76675525245E+03 -0.15145209835E+04  0.19093361947E+04  0.10100000352E+00 0. -1.
       -3    1    3    3    0  502 -0.87400072527E+03 -0.76675525245E+03  0.44178703877E+02  0.11635044706E+04  0.10100000352E+00 0.  1.
</event>
<event>
 5   0  0.1096672E-05  0.2715285E+04  0.7818609E-02  0.8330063E-01
       -1   -1    0    0    0  501  0.00000000000E+00  0.00000000000E+00  0.21523129732E+04  0.21523129732E+04  0.50400001928E-02 0. -1.
        1   -1    0    0  501    0  0.00000000000E+00  0.00000000000E+00 -0.85637780325E+03  0.85637780326E+03  0.50400001928E-02 0.  1.
    10030    2    1    2    0    0  0.00000000000E+00  0.00000000000E+00  0.12959351699E+04  0.30086907764E+04  0.27152849249E+04 0.  0.
        1    1    3    3  502    0 -0.93478254617E+03 -0.33259976293E+01 -0.44298404805E+03  0.10344391416E+04  0.50400001928E-02 0.  1.
       -1    1    3    3    0  502  0.93478254617E+03  0.33259976293E+01  0.17389192180E+04  0.19742516348E+04  0.50400001928E-02 0. -1.
</event>
<event>
 5   0  0.2540232E-05  0.2609012E+04  0.7818609E-02  0.8365146E-01
       -2   -1    0    0    0  501  0.00000000000E+00  0.00000000000E+00  0.84349521108E+03  0.84349521108E+03  0.25500000920E-02 0.  1.
        2   -1    0    0  501    0  0.00000000000E+00  0.00000000000E+00 -0.20174813711E+04  0.20174813711E+04  0.25500000920E-02 0. -1.
    10030    2    1    2    0    0  0.00000000000E+00  0.00000000000E+00 -0.11739861600E+04  0.28609765822E+04  0.26090119777E+04 0.  0.
        1    1    3    3  502    0  0.75856802763E+03  0.10413053471E+04 -0.36227926858E+03  0.13382782023E+04  0.50400001928E-02 0. -1.
       -1    1    3    3    0  502 -0.75856802763E+03 -0.10413053471E+04 -0.81170689147E+03  0.15226983799E+04  0.50400001928E-02 0.  1.
</event>
<event>
 5   0  0.9971923E-06  0.2729970E+04  0.7818609E-02  0.8325346E-01
       -1   -1    0    0    0  501  0.00000000000E+00  0.00000000000E+00  0.19864354119E+04  0.19864354119E+04  0.50400001928E-02 0. -1.
        1   -1    0    0  501    0  0.00000000000E+00  0.00000000000E+00 -0.93795356961E+03  0.93795356962E+03  0.50400001928E-02 0.  1.
    10030    2    1    2    0    0  0.00000000000E+00  0.00000000000E+00  0.10484818422E+04  0.29243889815E+04  0.27299700990E+04 0.  0.
        2    1    3    3  502    0  0.12593165460E+04 -0.48302866262E+03  0.29956789274E+03  0.13816424191E+04  0.25500000920E-02 0.  1.
       -2    1    3    3    0  502 -0.12593165460E+04  0.48302866262E+03  0.74891394951E+03  0.15427465624E+04  0.25500000920E-02 0. -1.
</event>
<event>
 5   0  0.1096672E-05  0.2591760E+04  0.7818609E-02  0.8371006E-01
        1   -1    0    0  501    0  0.00000000000E+00  0.00000000000E+00  0.20344187566E+04  0.20344187566E+04  0.50400001928E-02 0.  1.
       -1   -1    0    0    0  501  0.00000000000E+00  0.00000000000E+00 -0.82544702761E+03  0.82544702762E+03  0.50400001928E-02 0. -1.
    10030    2    1    2    0    0  0.00000000000E+00  0.00000000000E+00  0.12089717290E+04  0.28598657842E+04  0.25917599546E+04 0.  0.
        1    1    3    3  502    0 -0.61343154482E+03 -0.82939315738E+03 -0.26093738315E+03  0.10640862689E+04  0.50400001928E-02 0. -1.
       -1    1    3    3    0  502  0.61343154482E+03  0.82939315738E+03  0.14699091121E+04  0.17957795153E+04  0.50400001928E-02 0.  1.
</event>
<event>
 5   0  0.8740500E-06  0.2743643E+04  0.7818609E-02  0.8320982E-01
       -4   -1    0    0    0  501  0.00000000000E+00  0.00000000000E+00  0.14317998519E+04  0.14318004151E+04  0.12699999809E+01 0. -1.
        4   -1    0    0  501    0  0.00000000000E+00  0.00000000000E+00 -0.13143546467E+04  0.13143552602E+04  0.12699999809E+01 0.  1.
    10030    2    1    2    0    0  0.00000000000E+00  0.00000000000E+00  0.11744520518E+03  0.27461556753E+04  0.27436431286E+04 0.  0.
        1    1    3    3  502    0 -0.60427523330E+03 -0.10483497381E+04  0.70561832363E+03  0.14007437131E+04  0.50400001928E-02 0. -1.
       -1    1    3    3    0  502  0.60427523330E+03  0.10483497381E+04 -0.58817311845E+03  0.13454119623E+04  0.50400001928E-02 0.  1.
</event>
<event>
 5   0  0.2540232E-05  0.2131745E+04  0.7818609E-02  0.8547387E-01
        2   -1    0    0  501    0  0.00000000000E+00  0.00000000000E+00  0.15035330456E+04  0.15035330456E+04  0.25500000920E-02 0.  1.
       -2   -1    0    0    0  501  0.00000000000E+00  0.00000000000E+00 -0.75560964296E+03  0.75560964296E+03  0.25500000920E-02 0. -1.
    10030    2    1    2    0    0  0.00000000000E+00  0.00000000000E+00  0.74792340264E+03  0.22591426886E+04  0.21317448888E+04 0.  0.
        1    1    3    3  502    0 -0.45807845086E+02  0.68700367429E+03  0.12362276804E+04  0.14150375560E+04  0.50400001928E-02 0.  1.
       -1    1    3    3    0  502  0.45807845086E+02 -0.68700367429E+03 -0.48830427772E+03  0.84410513256E+03  0.50400001928E-02 0. -1.
</event>
<event>
 5   0  0.9971923E-06  0.2784800E+04  0.7818609E-02  0.8308003E-01
        1   -1    0    0  501    0  0.00000000000E+00  0.00000000000E+00  0.16055248358E+04  0.16055248358E+04  0.50400001928E-02 0. -1.
       -1   -1    0    0    0  501  0.00000000000E+00  0.00000000000E+00 -0.12075661086E+04  0.12075661086E+04  0.50400001928E-02 0.  1.
    10030    2    1    2    0    0  0.00000000000E+00  0.00000000000E+00  0.39795872723E+03  0.28130909444E+04  0.27847997258E+04 0.  0.
        2    1    3    3  502    0 -0.69332780180E+03 -0.48649751153E+03 -0.91741520678E+03  0.12486128027E+04  0.25500000920E-02 0.  1.
       -2    1    3    3    0  502  0.69332780180E+03  0.48649751153E+03  0.13153739340E+04  0.15644781417E+04  0.25500000920E-02 0. -1.
</event>
<event>
 5   0  0.9971923E-06  0.2536411E+04  0.7818609E-02  0.8390127E-01
       -1   -1    0    0    0  501  0.00000000000E+00  0.00000000000E+00  0.18327306725E+04  0.18327306725E+04  0.50400001928E-02 0. -1.
        1   -1    0    0  501    0  0.00000000000E+00  0.00000000000E+00 -0.87756799011E+03  0.87756799013E+03  0.50400001928E-02 0.  1.
    10030    2    1    2    0    0  0.00000000000E+00  0.00000000000E+00  0.95516268238E+03  0.27102986626E+04  0.25364114593E+04 0.  0.
        2    1    3    3  502    0  0.28281797844E+03  0.10204956248E+04  0.12232380594E+04  0.16179334595E+04  0.25500000920E-02 0. -1.
       -2    1    3    3    0  502 -0.28281797844E+03 -0.10204956248E+04 -0.26807537706E+03  0.10923652031E+04  0.25500000920E-02 0.  1.
</event>
<event>
 5   0  0.2540684E-05  0.2710814E+04  0.7818609E-02  0.8331505E-01
        2   -1    0    0  501    0  0.00000000000E+00  0.00000000000E+00  0.20979479957E+04  0.20979479957E+04  0.25500000920E-02 0.  1.
       -2   -1    0    0    0  501  0.00000000000E+00  0.00000000000E+00 -0.87567862546E+03  0.87567862547E+03  0.25500000920E-02 0. -1.
    10030    2    1    2    0    0  0.00000000000E+00  0.00000000000E+00  0.12222693702E+04  0.29736266211E+04  0.27108140601E+04 0.  0.
        2    1    3    3  502    0 -0.18180195980E+03 -0.11767548250E+04 -0.99197913807E+02  0.11948406156E+04  0.25500000920E-02 0. -1.
       -2    1    3    3    0  502  0.18180195980E+03  0.11767548250E+04  0.13214672840E+04  0.17787860055E+04  0.25500000920E-02 0.  1.
</event>
<event>
 5   0  0.1005265E-05  0.2842834E+04  0.7818609E-02  0.8290092E-01
       -1   -1    0    0    0  501  0.00000000000E+00  0.00000000000E+00  0.12973145800E+04  0.12973145800E+04  0.50400001928E-02 0.  1.
        1   -1    0    0  501    0  0.00000000000E+00  0.00000000000E+00 -0.15573907073E+04  0.15573907073E+04  0.50400001928E-02 0. -1.
    10030    2    1    2    0    0  0.00000000000E+00  0.00000000000E+00 -0.26007612732E+03  0.28547052873E+04  0.28428335663E+04 0.  0.
        3    1    3    3  502    0  0.87357125176E+03  0.10919770730E+04 -0.38582714602E+03  0.14506561469E+04  0.10100000352E+00 0. -1.
       -3    1    3    3    0  502 -0.87357125176E+03 -0.10919770730E+04  0.12575101869E+03  0.14040491404E+04  0.10100000352E+00 0.  1.
</event>
<event>
 5   0  0.2641216E-05  0.2610695E+04  0.7818609E-02  0.8364577E-01
       -2   -1    0    0    0  501  0.00000000000E+00  0.00000000000E+00  0.10205605474E+04  0.10205605474E+04  0.25500000920E-02 0. -1.
        2   -1    0    0  501    0  0.00000000000E+00  0.00000000000E+00 -0.16696047330E+04  0.16696047330E+04  0.25500000920E-02 0.  1.
    10030    2    1    2    0    0  0.00000000000E+00  0.00000000000E+00 -0.64904418561E+03  0.26901652805E+04  0.26106954785E+04 0.  0.
        5    1    3    3  502    0 -0.91696575346E+03 -0.48359869139E+03 -0.11418999746E+04  0.15422877582E+04  0.46999998093E+01 0.  1.
       -5    1    3    3    0  502  0.91696575346E+03  0.48359869139E+03  0.49285578894E+03  0.11478775222E+04  0.46999998093E+01 0. -1.
</event>
<event>
 5   0  0.1005265E-05  0.2149120E+04  0.7818609E-02  0.8539909E-01
       -1   -1    0    0    0  501  0.00000000000E+00  0.00000000000E+00  0.99027100607E+03  0.99027100608E+03  0.50400001928E-02 0. -1.
        1   -1    0    0  501    0  0.00000000000E+00  0.00000000000E+00 -0.11660237646E+04  0.11660237646E+04  0.50400001928E-02 0.  1.
    10030    2    1    2    0    0  0.00000000000E+00  0.00000000000E+00 -0.17575275855E+03  0.21562947707E+04  0.21491203098E+04 0.  0.
        3    1    3    3  502    0  0.47817225690E+03 -0.58625944129E+03  0.67777705652E+03  0.10157413983E+04  0.10100000352E+00 0. -1.
       -3    1    3    3    0  502 -0.47817225690E+03  0.58625944129E+03 -0.85352981507E+03  0.11405533724E+04  0.10100000352E+00 0.  1.
</event>
<event>
 5   0  0.2540684E-05  0.2852479E+04  0.7818609E-02  0.8287158E-01
       -2   -1    0    0    0  501  0.00000000000E+00  0.00000000000E+00  0.72636267945E+03  0.72636267946E+03  0.25500000920E-02 0. -1.
        2   -1    0    0  501    0  0.00000000000E+00  0.00000000000E+00 -0.28004729374E+04  0.28004729374E+04  0.25500000920E-02 0.  1.
    10030    2    1    2    0    0  0.00000000000E+00  0.00000000000E+00 -0.20741102580E+04  0.35268356169E+04  0.28524789406E+04 0.  0.
        2    1    3    3  502    0 -0.28068252628E+03 -0.13053085354E+04 -0.16571690144E+04  0.21281029570E+04  0.25500000920E-02 0.  1.
       -2    1    3    3    0  502  0.28068252628E+03  0.13053085354E+04 -0.41694124355E+03  0.13987326599E+04  0.25500000920E-02 0. -1.
</event>
<event>
 5   0  0.2540684E-05  0.2694285E+04  0.7818609E-02  0.8336862E-01
        2   -1    0    0  501    0  0.00000000000E+00  0.00000000000E+00  0.12981078473E+04  0.12981078473E+04  0.25500000920E-02 0. -1.
       -2   -1    0    0    0  501  0.00000000000E+00  0.00000000000E+00 -0.13980293245E+04  0.13980293245E+04  0.25500000920E-02 0.  1.
    10030    2    1    2    0    0  0.00000000000E+00  0.00000000000E+00 -0.99921477206E+02  0.26961371717E+04  0.26942849417E+04 0.  0.
        2    1    3    3  502    0  0.10251508398E+04  0.45293946887E+03  0.69801845554E+03  0.13203477463E+04  0.25500000920E-02 0. -1.
       -2    1    3    3    0  502 -0.10251508398E+04 -0.45293946887E+03 -0.79793993275E+03  0.13757894254E+04  0.25500000920E-02 0.  1.
</event>
<event>
 5   0  0.1096672E-05  0.2148836E+04  0.7818609E-02  0.8540031E-01
       -1   -1    0    0    0  501  0.00000000000E+00  0.00000000000E+00  0.42111034063E+03  0.42111034066E+03  0.50400001928E-02 0.  1.
        1   -1    0    0  501    0  0.00000000000E+00  0.00000000000E+00 -0.27412624106E+04  0.27412624107E+04  0.50400001928E-02 0. -1.
    10030    2    1    2    0    0  0.00000000000E+00  0.00000000000E+00 -0.23201520700E+04  0.31623727513E+04  0.21488359151E+04 0.  0.
        1    1    3    3  502    0 -0.38970917269E+02 -0.52542743698E+03  0.21794366277E+03  0.57016854007E+03  0.50400001928E-02 0.  1.
       -1    1    3    3    0  502  0.38970917269E+02  0.52542743698E+03 -0.25380957328E+04  0.25922042112E+04  0.50400001928E-02 0. -1.
</event>
<event>
 5   0  0.2615843E-05  0.2640273E+04  0.7818609E-02  0.8354649E-01
        2   -1    0    0  501    0  0.00000000000E+00  0.00000000000E+00  0.15588378729E+04  0.15588378729E+04  0.25500000920E-02 0.  1.
       -2   -1    0    0    0  501  0.00000000000E+00  0.00000000000E+00 -0.11179866528E+04  0.11179866528E+04  0.25500000920E-02 0. -1.
    10030    2    1    2    0    0  0.00000000000E+00  0.00000000000E+00  0.44085122016E+03  0.26768245257E+04  0.26402726646E+04 0.  0.
        3    1    3    3  502    0 -0.19367431001E+03 -0.96873620292E+03 -0.66736853467E+03  0.11921997905E+04  0.10100000352E+00 0.  1.
       -3    1    3    3    0  502  0.19367431001E+03  0.96873620292E+03  0.11082197548E+04  0.14846247352E+04  0.10100000352E+00 0. -1.
</event>
<event>
 5   0  0.2540684E-05  0.2865159E+04  0.7818609E-02  0.8283320E-01
        2   -1    0    0  501    0  0.00000000000E+00  0.00000000000E+00  0.13848273051E+04  0.13848273051E+04  0.25500000920E-02 0. -1.
       -2   -1    0    0    0  501  0.00000000000E+00  0.00000000000E+00 -0.14819783133E+04  0.14819783133E+04  0.25500000920E-02 0.  1.
    10030    2    1    2    0    0  0.00000000000E+00  0.00000000000E+00 -0.97151008201E+02  0.28668056183E+04  0.28651590069E+04 0.  0.
        2    1    3    3  502    0  0.20579189733E+03 -0.13906640279E+04  0.22724083938E+03  0.14240558776E+04  0.25500000920E-02 0. -1.
       -2    1    3    3    0  502 -0.20579189733E+03  0.13906640279E+04 -0.32439184758E+03  0.14427497407E+04  0.25500000920E-02 0.  1.
</event>
<event>
 5   0  0.1005265E-05  0.2792687E+04  0.7818609E-02  0.8305542E-01
       -1   -1    0    0    0  501  0.00000000000E+00  0.00000000000E+00  0.14853626154E+04  0.14853626154E+04  0.50400001928E-02 0. -1.
        1   -1    0    0  501    0  0.00000000000E+00  0.00000000000E+00 -0.13126597139E+04  0.13126597139E+04  0.50400001928E-02 0.  1.
    10030    2    1    2    0    0  0.00000000000E+00  0.00000000000E+00  0.17270290148E+03  0.27980223293E+04  0.27926873551E+04 0.  0.
        3    1    3    3  502    0 -0.40448456743E+03  0.65232751394E+03  0.12550431209E+04  0.14711465584E+04  0.10100000352E+00 0. -1.
       -3    1    3    3    0  502  0.40448456743E+03 -0.65232751394E+03 -0.10823402194E+04  0.13268757709E+04  0.10100000352E+00 0.  1.
</event>
<event>
 5   0  0.1005265E-05  0.2673972E+04  0.7818609E-02  0.8343500E-01
       -1   -1    0    0    0  501  0.00000000000E+00  0.00000000000E+00  0.22593945750E+04  0.22593945750E+04  0.50400001928E-02 0. -1.
        1   -1    0    0  501    0  0.00000000000E+00  0.00000000000E+00 -0.79115519403E+03  0.79115519405E+03  0.50400001928E-02 0.  1.
    10030    2    1    2    0    0  0.00000000000E+00  0.00000000000E+00  0.14682393810E+04  0.30505497691E+04  0.26739721415E+04 0.  0.
        3    1    3    3  502    0  0.44340635880E+03  0.12334502346E+04  0.10349251302E+04  0.16700535068E+04  0.10100000352E+00 0.  1.
       -3    1    3    3    0  502 -0.44340635880E+03 -0.12334502346E+04  0.43331425083E+03  0.13804962623E+04  0.10100000352E+00 0. -1.
</event>
<event>
 5   0  0.1036691E-05  0.2691594E+04  0.7818609E-02  0.8337737E-01
       -1   -1    0    0    0  501  0.00000000000E+00  0.00000000000E+00  0.80377383830E+03  0.80377383832E+03  0.50400001928E-02 0. -1.
        1   -1    0    0  501    0  0.00000000000E+00  0.00000000000E+00 -0.22533326862E+04  0.22533326862E+04  0.50400001928E-02 0.  1.
    10030    2    1    2    0    0  0.00000000000E+00  0.00000000000E+00 -0.14495588479E+04  0.30571065245E+04  0.26915942207E+04 0.  0.
        4    1    3    3  502    0 -0.27682677617E+03  0.13123985380E+04 -0.84995063178E+03  0.15879044920E+04  0.12699999809E+01 0. -1.
       -4    1    3    3    0  502  0.27682677617E+03 -0.13123985380E+04 -0.59960821611E+03  0.14692020325E+04  0.12699999809E+01 0.  1.
</event>
<event>
 5   0  0.2615843E-05  0.2719655E+04  0.7818609E-02  0.8328656E-01
        2   -1    0    0  501    0  0.00000000000E+00  0.00000000000E+00  0.14953625646E+04  0.14953625646E+04  0.25500000920E-02 0.  1.
       -2   -1    0    0    0  501  0.00000000000E+00  0.00000000000E+00 -0.12365768615E+04  0.12365768615E+04  0.25500000920E-02 0. -1.
    10030    2    1    2    0    0  0.00000000000E+00  0.00000000000E+00  0.25878570313E+03  0.27319394262E+04  0.27196549392E+04 0.  0.
        3    1    3    3  502    0 -0.52118577743E+03 -0.12411719753E+04  0.32258485734E+03  0.13842700197E+04  0.10100000352E+00 0.  1.
       -3    1    3    3    0  502  0.52118577743E+03  0.12411719753E+04 -0.63799154214E+02  0.13476694065E+04  0.10100000352E+00 0. -1.
</event>
<event>
 5   0  0.2540684E-05  0.2723423E+04  0.7818609E-02  0.8327445E-01
        2   -1    0    0  501    0  0.00000000000E+00  0.00000000000E+00  0.19570883453E+04  0.19570883453E+04  0.25500000920E-02 0. -1.
       -2   -1    0    0    0  501  0.00000000000E+00  0.00000000000E+00 -0.94745744394E+03  0.94745744395E+03  0.25500000920E-02 0.  1.
    10030    2    1    2    0    0  0.00000000000E+00  0.00000000000E+00  0.10096309014E+04  0.29045457893E+04  0.27234227885E+04 0.  0.
        2    1    3    3  502    0 -0.76092666760E+03  0.11930909135E+03  0.17024466237E+04  0.18685739374E+04  0.25500000920E-02 0. -1.
       -2    1    3    3    0  502  0.76092666760E+03 -0.11930909135E+03 -0.69281572237E+03  0.10359718519E+04  0.25500000920E-02 0.  1.
</event>
<event>
 5   0  0.2516518E-05  0.2724134E+04  0.7818609E-02  0.8327216E-01
        2   -1    0    0  501    0  0.00000000000E+00  0.00000000000E+00  0.97300854575E+03  0.97300854576E+03  0.25500000920E-02 0. -1.
       -2   -1    0    0    0  501  0.00000000000E+00  0.00000000000E+00 -0.19066913955E+04  0.19066913955E+04  0.25500000920E-02 0.  1.
    10030    2    1    2    0    0  0.00000000000E+00  0.00000000000E+00 -0.93368284975E+03  0.28796999413E+04  0.27241343740E+04 0.  0.
        4    1    3    3  502    0 -0.42355018808E+03 -0.52733116897E+03 -0.17166222230E+04  0.18450654170E+04  0.12699999809E+01 0.  1.
       -4    1    3    3    0  502  0.42355018808E+03  0.52733116897E+03  0.78293937329E+03  0.10346345242E+04  0.12699999809E+01 0. -1.
</event>
<event>
 5   0  0.9971923E-06  0.2714347E+04  0.7818609E-02  0.8330365E-01
        1   -1    0    0  501    0  0.00000000000E+00  0.00000000000E+00  0.14347054741E+04  0.14347054741E+04  0.50400001928E-02 0.  1.
       -1   -1    0    0    0  501  0.00000000000E+00  0.00000000000E+00 -0.12838315679E+04  0.12838315680E+04  0.50400001928E-02 0. -1.
    10030    2    1    2    0    0  0.00000000000E+00  0.00000000000E+00  0.15087390614E+03  0.27185370420E+04  0.27143471984E+04 0.  0.
        2    1    3    3  502    0 -0.72875006549E+03 -0.20056572257E+03 -0.10535194527E+04  0.12966134753E+04  0.25500000920E-02 0. -1.
       -2    1    3    3    0  502  0.72875006549E+03  0.20056572257E+03  0.12043933588E+04  0.14219235668E+04  0.25500000920E-02 0.  1.
</event>
<event>
 5   0  0.8740500E-06  0.2724108E+04  0.7818609E-02  0.8327225E-01
        3   -1    0    0  501    0  0.00000000000E+00  0.00000000000E+00  0.11742291965E+04  0.11742292008E+04  0.10100000352E+00 0.  1.
       -3   -1    0    0    0  501  0.00000000000E+00  0.00000000000E+00 -0.15799222151E+04  0.15799222183E+04  0.10100000352E+00 0. -1.
    10030    2    1    2    0    0  0.00000000000E+00  0.00000000000E+00 -0.40569301864E+03  0.27541514192E+04  0.27241077832E+04 0.  0.
        3    1    3    3  502    0  0.90547344772E+03 -0.98790668706E+03 -0.44914982205E+03  0.14133567701E+04  0.10100000352E+00 0.  1.
       -3    1    3    3    0  502 -0.90547344772E+03  0.98790668706E+03  0.43456803417E+02  0.13407946490E+04  0.10100000352E+00 0. -1.
</event>
<event>
 5   0  0.2540232E-05  0.2646793E+04  0.7818609E-02  0.8352478E-01
        2   -1    0    0  501    0  0.00000000000E+00  0.00000000000E+00  0.20073948100E+04  0.20073948100E+04  0.25500000920E-02 0. -1.
       -2   -1    0    0    0  501  0.00000000000E+00  0.00000000000E+00 -0.87246312460E+03  0.87246312461E+03  0.25500000920E-02 0.  1.
    10030    2    1    2    0    0  0.00000000000E+00  0.00000000000E+00  0.11349316854E+04  0.28798579346E+04  0.26467927371E+04 0.  0.
        1    1    3    3  502    0 -0.14852649513E+03  0.62442919637E+03 -0.69177050541E+03  0.94367281047E+03  0.50400001928E-02 0.  1.
       -1    1    3    3    0  502  0.14852649513E+03 -0.62442919637E+03  0.18267021908E+04  0.19361851242E+04  0.50400001928E-02 0. -1.
</event>
<event>
 5   0  0.2540684E-05  0.2654340E+04  0.7818609E-02  0.8349974E-01
        2   -1    0    0  501    0  0.00000000000E+00  0.00000000000E+00  0.73322907473E+03  0.73322907473E+03  0.25500000920E-02 0.  1.
       -2   -1    0    0    0  501  0.00000000000E+00  0.00000000000E+00 -0.24022237303E+04  0.24022237303E+04  0.25500000920E-02 0. -1.
    10030    2    1    2    0    0  0.00000000000E+00  0.00000000000E+00 -0.16689946555E+04  0.31354528050E+04  0.26543400559E+04 0.  0.
        2    1    3    3  502    0  0.32716167194E+02 -0.79789364773E+03 -0.20866699225E+04  0.22342551301E+04  0.25500000920E-02 0. -1.
       -2    1    3    3    0  502 -0.32716167194E+02  0.79789364773E+03  0.41767526696E+03  0.90119767495E+03  0.25500000920E-02 0.  1.
</event>
<event>
 5   0  0.1096672E-05  0.1951120E+04  0.7818609E-02  0.8629821E-01
       -1   -1    0    0    0  501  0.00000000000E+00  0.00000000000E+00  0.51022486626E+03  0.51022486629E+03  0.50400001928E-02 0. -1.
        1   -1    0    0  501    0  0.00000000000E+00  0.00000000000E+00 -0.18652890507E+04  0.18652890507E+04  0.50400001928E-02 0.  1.
    10030    2    1    2    0    0  0.00000000000E+00  0.00000000000E+00 -0.13550641845E+04  0.23755139170E+04  0.19511195314E+04 0.  0.
        1    1    3    3  502    0 -0.93756706468E+03 -0.26297475059E+03 -0.74986033516E+03  0.12290151514E+04  0.50400001928E-02 0.  1.
       -1    1    3    3    0  502  0.93756706468E+03  0.26297475059E+03 -0.60520384929E+03  0.11464987656E+04  0.50400001928E-02 0. -1.
</event>
<event>
 5   0  0.1005265E-05  0.2750324E+04  0.7818609E-02  0.8318859E-01
        1   -1    0    0  501    0  0.00000000000E+00  0.00000000000E+00  0.11624074989E+04  0.11624074989E+04  0.50400001928E-02 0. -1.
       -1   -1    0    0    0  501  0.00000000000E+00  0.00000000000E+00 -0.16268562396E+04  0.16268562396E+04  0.50400001928E-02 0.  1.
    10030    2    1    2    0    0  0.00000000000E+00  0.00000000000E+00 -0.46444874075E+03  0.27892637385E+04  0.27503235392E+04 0.  0.
        3    1    3    3  502    0 -0.54884592141E+03  0.12110751602E+04  0.12364985952E+03  0.13353741749E+04  0.10100000352E+00 0. -1.
       -3    1    3    3    0  502  0.54884592141E+03 -0.12110751602E+04 -0.58809860027E+03  0.14538895635E+04  0.10100000352E+00 0.  1.
</event>
<event>
 5   0  0.1036691E-05  0.2750480E+04  0.7818609E-02  0.8318809E-01
       -1   -1    0    0    0  501  0.00000000000E+00  0.00000000000E+00  0.14499682135E+04  0.14499682135E+04  0.50400001928E-02 0.  1.
        1   -1    0    0  501    0  0.00000000000E+00  0.00000000000E+00 -0.13043633304E+04  0.13043633304E+04  0.50400001928E-02 0. -1.
    10030    2    1    2    0    0  0.00000000000E+00  0.00000000000E+00  0.14560488302E+03  0.27543315439E+04  0.27504802257E+04 0.  0.
        4    1    3    3  502    0 -0.20818762842E+03 -0.13311870733E+04  0.34865620371E+03  0.13917484952E+04  0.12699999809E+01 0. -1.
       -4    1    3    3    0  502  0.20818762842E+03  0.13311870733E+04 -0.20305132069E+03  0.13625830487E+04  0.12699999809E+01 0.  1.
</event>
<event>
 5   0  0.1096672E-05  0.2673445E+04  0.7818609E-02  0.8343673E-01
        1   -1    0    0  501    0  0.00000000000E+00  0.00000000000E+00  0.14335597663E+04  0.14335597663E+04  0.50400001928E-02 0. -1.
       -1   -1    0    0    0  501  0.00000000000E+00  0.00000000000E+00 -0.12464270012E+04  0.12464270012E+04  0.50400001928E-02 0.  1.
    10030    2    1    2    0    0  0.00000000000E+00  0.00000000000E+00  0.18713276508E+03  0.26799867675E+04  0.26734454179E+04 0.  0.
        1    1    3    3  502    0  0.11959932146E+04 -0.48798455726E+03  0.43835402099E+03  0.13640685266E+04  0.50400001928E-02 0. -1.
       -1    1    3    3    0  502 -0.11959932146E+04  0.48798455726E+03 -0.25122125590E+03  0.13159182410E+04  0.50400001928E-02 0.  1.
</event>
<event>
 5   0  0.2615843E-05  0.2453263E+04  0.7818609E-02  0.8419828E-01
       -2   -1    0    0    0  501  0.00000000000E+00  0.00000000000E+00  0.58861014071E+03  0.58861014072E+03  0.25500000920E-02 0.  1.
        2   -1    0    0  501    0  0.00000000000E+00  0.00000000000E+00 -0.25562335625E+04  0.25562335625E+04  0.25500000920E-02 0. -1.
    10030    2    1    2    0    0  0.00000000000E+00  0.00000000000E+00 -0.19676234218E+04  0.31448437033E+04  0.24532631306E+04 0.  0.
        3    1    3    3  502    0  0.47151196896E+03 -0.29738560728E+03  0.41684667610E+03  0.69607679021E+03  0.10100000352E+00 0.  1.
       -3    1    3    3    0  502 -0.47151196896E+03  0.29738560728E+03 -0.23844700979E+04  0.24487669131E+04  0.10100000352E+00 0. -1.
</event>
<event>
 5   0  0.9971923E-06  0.2670650E+04  0.7818609E-02  0.8344591E-01
        1   -1    0    0  501    0  0.00000000000E+00  0.00000000000E+00  0.10252528040E+04  0.10252528041E+04  0.50400001928E-02 0. -1.
       -1   -1    0    0    0  501  0.00000000000E+00  0.00000000000E+00 -0.17391741609E+04  0.17391741609E+04  0.50400001928E-02 0.  1.
    10030    2    1    2    0    0  0.00000000000E+00  0.00000000000E+00 -0.71392135684E+03  0.27644269650E+04  0.26706502468E+04 0.  0.
        2    1    3    3  502    0 -0.12727093386E+04  0.30358204712E+03 -0.80870257440E+02  0.13109123230E+04  0.25500000920E-02 0. -1.
       -2    1    3    3    0  502  0.12727093386E+04 -0.30358204712E+03 -0.63305109940E+03  0.14535146420E+04  0.25500000920E-02 0.  1.
</event>
<event>
 5   0  0.2540232E-05  0.2773485E+04  0.7818609E-02  0.8311548E-01
        2   -1    0    0  501    0  0.00000000000E+00  0.00000000000E+00  0.27972222312E+04  0.27972222312E+04  0.25500000920E-02 0. -1.
       -2   -1    0    0    0  501  0.00000000000E+00  0.00000000000E+00 -0.68748747359E+03  0.68748747360E+03  0.25500000920E-02 0.  1.
    10030    2    1    2    0    0  0.00000000000E+00  0.00000000000E+00  0.21097347576E+04  0.34847097048E+04  0.27734853487E+04 0.  0.
        1    1    3    3  502    0  0.12656670388E+04  0.56459745146E+03  0.99367606305E+03  0.17053080231E+04  0.50400001928E-02 0. -1.
       -1    1    3    3    0  502 -0.12656670388E+04 -0.56459745146E+03  0.11160586945E+04  0.17794016817E+04  0.50400001928E-02 0.  1.
</event>
<event>
 5   0  0.9971923E-06  0.2655887E+04  0.7818609E-02  0.8349462E-01
        1   -1    0    0  501    0  0.00000000000E+00  0.00000000000E+00  0.11188729319E+04  0.11188729319E+04  0.50400001928E-02 0. -1.
       -1   -1    0    0    0  501  0.00000000000E+00  0.00000000000E+00 -0.15760808801E+04  0.15760808801E+04  0.50400001928E-02 0.  1.
    10030    2    1    2    0    0  0.00000000000E+00  0.00000000000E+00 -0.45720794824E+03  0.26949538120E+04  0.26558872229E+04 0.  0.
        2    1    3    3  502    0 -0.78804053812E+03 -0.59738239774E+03  0.67075184255E+03  0.11948981769E+04  0.25500000920E-02 0. -1.
       -2    1    3    3    0  502  0.78804053812E+03  0.59738239774E+03 -0.11279597908E+04  0.15000556351E+04  0.25500000920E-02 0.  1.
</event>
<event>
 5   0  0.1005265E-05  0.2756546E+04  0.7818609E-02  0.8316887E-01
        1   -1    0    0  501    0  0.00000000000E+00  0.00000000000E+00  0.15213202764E+04  0.15213202764E+04  0.50400001928E-02 0.  1.
       -1   -1    0    0    0  501  0.00000000000E+00  0.00000000000E+00 -0.12486764083E+04  0.12486764083E+04  0.50400001928E-02 0. -1.
    10030    2    1    2    0    0  0.00000000000E+00  0.00000000000E+00  0.27264386811E+03  0.27699966847E+04  0.27565462003E+04 0.  0.
        3    1    3    3  502    0  0.11667140124E+04  0.17398595271E+02  0.87346279544E+03  0.14575532796E+04  0.10100000352E+00 0.  1.
       -3    1    3    3    0  502 -0.11667140124E+04 -0.17398595271E+02 -0.60081892733E+03  0.13124434050E+04  0.10100000352E+00 0. -1.
</event>
<event>
 5   0  0.2516518E-05  0.2736456E+04  0.7818609E-02  0.8323272E-01
       -2   -1    0    0    0  501  0.00000000000E+00  0.00000000000E+00  0.13181609194E+04  0.13181609194E+04  0.25500000920E-02 0. -1.
        2   -1    0    0  501    0  0.00000000000E+00  0.00000000000E+00 -0.14201963330E+04  0.14201963330E+04  0.25500000920E-02 0.  1.
    10030    2    1    2    0    0  0.00000000000E+00  0.00000000000E+00 -0.10203541357E+03  0.27383572523E+04  0.27364555936E+04 0.  0.
        4    1    3    3  502    0  0.85259328197E+03  0.76191332498E+03  0.70091546229E+03  0.13411604369E+04  0.12699999809E+01 0. -1.
       -4    1    3    3    0  502 -0.85259328197E+03 -0.76191332498E+03 -0.80295087587E+03  0.13971968155E+04  0.12699999809E+01 0.  1.
</event>
<event>
 5   0  0.1036691E-05  0.2737035E+04  0.7818609E-02  0.8323087E-01
       -1   -1    0    0    0  501  0.00000000000E+00  0.00000000000E+00  0.10547040145E+04  0.10547040145E+04  0.50400001928E-02 0.  1.
        1   -1    0    0  501    0  0.00000000000E+00  0.00000000000E+00 -0.17757025119E+04  0.17757025119E+04  0.50400001928E-02 0. -1.
    10030    2    1    2    0    0  0.00000000000E+00  0.00000000000E+00 -0.72099849741E+03  0.28304065265E+04  0.27370353070E+04 0.  0.
        4    1    3    3  502    0 -0.46872086606E+03  0.77557669384E+03 -0.14209681529E+04  0.16853398953E+04  0.12699999809E+01 0. -1.
       -4    1    3    3    0  502  0.46872086606E+03 -0.77557669384E+03  0.69996965547E+03  0.11450666312E+04  0.12699999809E+01 0.  1.
</event>
<event>
 5   0  0.2540684E-05  0.2651688E+04  0.7818609E-02  0.8350853E-01
        2   -1    0    0  501    0  0.00000000000E+00  0.00000000000E+00  0.15340455622E+04  0.15340455622E+04  0.25500000920E-02 0. -1.
       -2   -1    0    0    0  501  0.00000000000E+00  0.00000000000E+00 -0.11458997224E+04  0.11458997224E+04  0.25500000920E-02 0.  1.
    10030    2    1    2    0    0  0.00000000000E+00  0.00000000000E+00  0.38814583978E+03  0.26799452846E+04  0.26516880539E+04 0.  0.
        2    1    3    3  502    0 -0.93426462087E+03  0.67507114246E+03  0.85625795851E+03  0.14358792152E+04  0.25500000920E-02 0. -1.
       -2    1    3    3    0  502  0.93426462087E+03 -0.67507114246E+03 -0.46811211873E+03  0.12440660693E+04  0.25500000920E-02 0.  1.
</event>
<event>
 5   0  0.1041909E-05  0.2619199E+04  0.7818609E-02  0.8361709E-01
        1   -1    0    0  501    0  0.00000000000E+00  0.00000000000E+00  0.22246560072E+04  0.22246560072E+04  0.50400001928E-02 0. -1.
       -1   -1    0    0    0  501  0.00000000000E+00  0.00000000000E+00 -0.77092836053E+03  0.77092836055E+03  0.50400001928E-02 0.  1.
    10030    2    1    2    0    0  0.00000000000E+00  0.00000000000E+00  0.14537276467E+04  0.29955843677E+04  0.26191986625E+04 0.  0.
        5    1    3    3  502    0 -0.77996270791E+03  0.40220498086E+03 -0.38489374596E+03  0.95826716423E+03  0.46999998093E+01 0.  1.
       -5    1    3    3    0  502  0.77996270791E+03 -0.40220498086E+03  0.18386213926E+04  0.20373172035E+04  0.46999998093E+01 0. -1.
</event>
<event>
 5   0  0.2615843E-05  0.2693240E+04  0.7818609E-02  0.8337202E-01
        2   -1    0    0  501    0  0.00000000000E+00  0.00000000000E+00  0.27475717938E+04  0.27475717938E+04  0.25500000920E-02 0.  1.
       -2   -1    0    0    0  501  0.00000000000E+00  0.00000000000E+00 -0.65999559234E+03  0.65999559235E+03  0.25500000920E-02 0. -1.
    10030    2    1    2    0    0  0.00000000000E+00  0.00000000000E+00  0.20875762015E+04  0.34075673862E+04  0.26932398880E+04 0.  0.
        3    1    3    3  502    0  0.11957701042E+04  0.58186739906E+03  0.77554311521E+03  0.15394489098E+04  0.10100000352E+00 0. -1.
       -3    1    3    3    0  502 -0.11957701042E+04 -0.58186739906E+03  0.13120330863E+04  0.18681184764E+04  0.10100000352E+00 0.  1.
</event>
<event>
 5   0  0.9971923E-06  0.1714272E+04  0.7818609E-02  0.8753266E-01
        1   -1    0    0  501    0  0.00000000000E+00  0.00000000000E+00  0.96162856794E+03  0.96162856795E+03  0.50400001928E-02 0.  1.
       -1   -1    0    0    0  501  0.00000000000E+00  0.00000000000E+00 -0.76399781086E+03  0.76399781088E+03  0.50400001928E-02 0. -1.
    10030    2    1    2    0    0  0.00000000000E+00  0.00000000000E+00  0.19763075707E+03  0.17256263788E+04  0.17142719980E+04 0.  0.
        2    1    3    3  502    0  0.58050156998E+03  0.51874306277E+03  0.45980699798E+03  0.90415646506E+03  0.25500000920E-02 0.  1.
       -2    1    3    3    0  502 -0.58050156998E+03 -0.51874306277E+03 -0.26217624090E+03  0.82146991376E+03  0.25500000920E-02 0. -1.
</event>
<event>
 5   0  0.2540684E-05  0.2685274E+04  0.7818609E-02  0.8339799E-01
        2   -1    0    0  501    0  0.00000000000E+00  0.00000000000E+00  0.94885386380E+03  0.94885386380E+03  0.25500000920E-02 0.  1.
       -2   -1    0    0    0  501  0.00000000000E+00  0.00000000000E+00 -0.18998441593E+04  0.18998441593E+04  0.25500000920E-02 0. -1.
    10030    2    1    2    0    0  0.00000000000E+00  0.00000000000E+00 -0.95099029552E+03  0.28486980231E+04  0.26852742662E+04 0.  0.
        2    1    3    3  502    0  0.21997226725E+03  0.76045457263E+03  0.67493590863E+03  0.10402968020E+04  0.25500000920E-02 0.  1.
       -2    1    3    3    0  502 -0.21997226725E+03 -0.76045457263E+03 -0.16259262041E+04  0.18084012212E+04  0.25500000920E-02 0. -1.
</event>
<event>
 5   0  0.2540232E-05  0.2685851E+04  0.7818609E-02  0.8339611E-01
       -2   -1    0    0    0  501  0.00000000000E+00  0.00000000000E+00  0.11176142174E+04  0.11176142174E+04  0.25500000920E-02 0.  1.
        2   -1    0    0  501    0  0.00000000000E+00  0.00000000000E+00 -0.16136590972E+04  0.16136590972E+04  0.25500000920E-02 0. -1.
    10030    2    1    2    0    0  0.00000000000E+00  0.00000000000E+00 -0.49604487975E+03  0.27312733146E+04  0.26858505909E+04 0.  0.
        1    1    3    3  502    0 -0.64064733732E+03  0.11441409963E+04  0.46637696574E+02  0.13121214521E+04  0.50400001928E-02 0.  1.
       -1    1    3    3    0  502  0.64064733732E+03 -0.11441409963E+04 -0.54268257633E+03  0.14191518625E+04  0.50400001928E-02 0. -1.
</event>
<event>
 5   0  0.1005265E-05  0.2703777E+04  0.7818609E-02  0.8333781E-01
       -1   -1    0    0    0  501  0.00000000000E+00  0.00000000000E+00  0.77787705483E+03  0.77787705485E+03  0.50400001928E-02 0.  1.
        1   -1    0    0  501    0  0.00000000000E+00  0.00000000000E+00 -0.23494743352E+04  0.23494743353E+04  0.50400001928E-02 0. -1.
    10030    2    1    2    0    0  0.00000000000E+00  0.00000000000E+00 -0.15715972804E+04  0.31273513901E+04  0.27037767484E+04 0.  0.
        3    1    3    3  502    0 -0.61729061374E+03  0.70592025371E+03  0.34052432913E+03  0.99766123275E+03  0.10100000352E+00 0.  1.
       -3    1    3    3    0  502  0.61729061374E+03 -0.70592025371E+03 -0.19121216095E+04  0.21296901573E+04  0.10100000352E+00 0. -1.
</event>
<event>
 5   0  0.1036691E-05  0.2732966E+04  0.7818609E-02  0.8324387E-01
        1   -1    0    0  501    0  0.00000000000E+00  0.00000000000E+00  0.15677376460E+04  0.15677376460E+04  0.50400001928E-02 0. -1.
       -1   -1    0    0    0  501  0.00000000000E+00  0.00000000000E+00 -0.11910638126E+04  0.11910638126E+04  0.50400001928E-02 0.  1.
    10030    2    1    2    0    0  0.00000000000E+00  0.00000000000E+00  0.37667383343E+03  0.27588014587E+04  0.27329658453E+04 0.  0.
        4    1    3    3  502    0 -0.34686576636E+03 -0.13188919725E+04  0.27565357826E+03  0.13913225375E+04  0.12699999809E+01 0. -1.
       -4    1    3    3    0  502  0.34686576636E+03  0.13188919725E+04  0.10102025517E+03  0.13674789212E+04  0.12699999809E+01 0.  1.
</event>
<event>
 5   0  0.2540684E-05  0.2733125E+04  0.7818609E-02  0.8324337E-01
        2   -1    0    0  501    0  0.00000000000E+00  0.00000000000E+00  0.12615414037E+04  0.12615414037E+04  0.25500000920E-02 0.  1.
       -2   -1    0    0    0  501  0.00000000000E+00  0.00000000000E+00 -0.14803261058E+04  0.14803261058E+04  0.25500000920E-02 0. -1.
    10030    2    1    2    0    0  0.00000000000E+00  0.00000000000E+00 -0.21878470213E+03  0.27418675095E+04  0.27331247125E+04 0.  0.
        2    1    3    3  502    0  0.99384913992E+03  0.90122650998E+03  0.15133772798E+03  0.13501290468E+04  0.25500000920E-02 0. -1.
       -2    1    3    3    0  502 -0.99384913992E+03 -0.90122650998E+03 -0.37012243010E+03  0.13917384627E+04  0.25500000920E-02 0.  1.
</event>
<event>
 5   0  0.2516518E-05  0.2656644E+04  0.7818609E-02  0.8349211E-01
        2   -1    0    0  501    0  0.00000000000E+00  0.00000000000E+00  0.17381000910E+04  0.17381000910E+04  0.25500000920E-02 0.  1.
       -2   -1    0    0    0  501  0.00000000000E+00  0.00000000000E+00 -0.10151538015E+04  0.10151538015E+04  0.25500000920E-02 0. -1.
    10030    2    1    2    0    0  0.00000000000E+00  0.00000000000E+00  0.72294628948E+03  0.27532538925E+04  0.26566436832E+04 0.  0.
        4    1    3    3  502    0 -0.69772360202E+03 -0.11294038243E+04  0.40858024746E+03  0.13889962760E+04  0.12699999809E+01 0. -1.
       -4    1    3    3    0  502  0.69772360202E+03  0.11294038243E+04  0.31436604202E+03  0.13642576166E+04  0.12699999809E+01 0.  1.
</event>
<event>
 5   0  0.2615843E-05  0.2712902E+04  0.7818609E-02  0.8330831E-01
        2   -1    0    0  501    0  0.00000000000E+00  0.00000000000E+00  0.20358272181E+04  0.20358272181E+04  0.25500000920E-02 0. -1.
       -2   -1    0    0    0  501  0.00000000000E+00  0.00000000000E+00 -0.90378978711E+03  0.90378978712E+03  0.25500000920E-02 0.  1.
    10030    2    1    2    0    0  0.00000000000E+00  0.00000000000E+00  0.11320374310E+04  0.29396170052E+04  0.27129023927E+04 0.  0.
        3    1    3    3  502    0 -0.12685496264E+03 -0.12793304377E+04  0.97218505388E+02  0.12892749894E+04  0.10100000352E+00 0.  1.
       -3    1    3    3    0  502  0.12685496264E+03  0.12793304377E+04  0.10348189256E+04  0.16503420158E+04  0.10100000352E+00 0. -1.
</event>
<event>
 5   0  0.2641216E-05  0.2634818E+04  0.7818609E-02  0.8356470E-01
        2   -1    0    0  501    0  0.00000000000E+00  0.00000000000E+00  0.20592294291E+04  0.20592294291E+04  0.25500000920E-02 0. -1.
       -2   -1    0    0    0  501  0.00000000000E+00  0.00000000000E+00 -0.84282332653E+03  0.84282332654E+03  0.25500000920E-02 0.  1.
    10030    2    1    2    0    0  0.00000000000E+00  0.00000000000E+00  0.12164061026E+04  0.29020527557E+04  0.26348180943E+04 0.  0.
        5    1    3    3  502    0 -0.26104980645E+03  0.11249055050E+04 -0.90125260396E+02  0.11583194936E+04  0.46999998093E+01 0.  1.
       -5    1    3    3    0  502  0.26104980645E+03 -0.11249055050E+04  0.13065313630E+04  0.17437332621E+04  0.46999998093E+01 0. -1.
</event>
<event>
 5   0  0.1036691E-05  0.2712152E+04  0.7818609E-02  0.8331073E-01
       -1   -1    0    0    0  501  0.00000000000E+00  0.00000000000E+00  0.13389096779E+04  0.13389096779E+04  0.50400001928E-02 0. -1.
        1   -1    0    0  501    0  0.00000000000E+00  0.00000000000E+00 -0.13734628597E+04  0.13734628597E+04  0.50400001928E-02 0.  1.
    10030    2    1    2    0    0  0.00000000000E+00  0.00000000000E+00 -0.34553181796E+02  0.27123725375E+04  0.27121524404E+04 0.  0.
        4    1    3    3  502    0 -0.65893932421E+03 -0.11470792297E+04 -0.31554450286E+03  0.13599859332E+04  0.12699999809E+01 0.  1.
       -4    1    3    3    0  502  0.65893932421E+03  0.11470792297E+04  0.28099132107E+03  0.13523866044E+04  0.12699999809E+01 0. -1.
</event>
<event>
 5   0  0.1041909E-05  0.2703021E+04  0.7818609E-02  0.8334025E-01
       -1   -1    0    0    0  501  0.00000000000E+00  0.00000000000E+00  0.20760277928E+04  0.20760277928E+04  0.50400001928E-02 0. -1.
        1   -1    0    0  501    0  0.00000000000E+00  0.00000000000E+00 -0.87984408043E+03  0.87984408045E+03  0.50400001928E-02 0.  1.
    10030    2    1    2    0    0  0.00000000000E+00  0.00000000000E+00  0.11961837124E+04  0.29558718732E+04  0.27030210982E+04 0.  0.
        5    1    3    3  502    0 -0.18122109992E+03  0.26477700097E+03  0.20337656187E+04  0.20589251150E+04  0.46999998093E+01 0. -1.
       -5    1    3    3    0  502  0.18122109992E+03 -0.26477700097E+03 -0.83758190635E+03  0.89694675826E+03  0.46999998093E+01 0.  1.
</event>
<event>
 5   0  0.1096672E-05  0.2624247E+04  0.7818609E-02  0.8360011E-01
       -1   -1    0    0    0  501  0.00000000000E+00  0.00000000000E+00  0.10877376781E+04  0.10877376781E+04  0.50400001928E-02 0.  1.
        1   -1    0    0  501    0  0.00000000000E+00  0.00000000000E+00 -0.15827968411E+04  0.15827968411E+04  0.50400001928E-02 0. -1.
    10030    2    1    2    0    0  0.00000000000E+00  0.00000000000E+00 -0.49505916296E+03  0.26705345192E+04  0.26242467573E+04 0.  0.
        1    1    3    3  502    0  0.11806679526E+04  0.49994398731E+03  0.36219996292E+02  0.12826662438E+04  0.50400001928E-02 0.  1.
       -1    1    3    3    0  502 -0.11806679526E+04 -0.49994398731E+03 -0.53127915925E+03  0.13878682754E+04  0.50400001928E-02 0. -1.
</event>
<event>
 5   0  0.2516518E-05  0.2645290E+04  0.7818609E-02  0.8352978E-01
        2   -1    0    0  501    0  0.00000000000E+00  0.00000000000E+00  0.19816720672E+04  0.19816720672E+04  0.25500000920E-02 0. -1.
       -2   -1    0    0    0  501  0.00000000000E+00  0.00000000000E+00 -0.88278453074E+03  0.88278453074E+03  0.25500000920E-02 0.  1.
    10030    2    1    2    0    0  0.00000000000E+00  0.00000000000E+00  0.10988875364E+04  0.28644565979E+04  0.26452897353E+04 0.  0.
        4    1    3    3  502    0 -0.10641464264E+04  0.14865188526E+03 -0.28574513944E+03  0.11118259295E+04  0.12699999809E+01 0.  1.
       -4    1    3    3    0  502  0.10641464264E+04 -0.14865188526E+03  0.13846326759E+04  0.17526306684E+04  0.12699999809E+01 0. -1.
</event>
<event>
 5   0  0.2516518E-05  0.2493299E+04  0.7818609E-02  0.8405377E-01
        2   -1    0    0  501    0  0.00000000000E+00  0.00000000000E+00  0.23575825598E+04  0.23575825598E+04  0.25500000920E-02 0. -1.
       -2   -1    0    0    0  501  0.00000000000E+00  0.00000000000E+00 -0.65920727902E+03  0.65920727902E+03  0.25500000920E-02 0.  1.
    10030    2    1    2    0    0  0.00000000000E+00  0.00000000000E+00  0.16983752808E+04  0.30167898389E+04  0.24932994881E+04 0.  0.
        4    1    3    3  502    0  0.10981087736E+04  0.58539526210E+03  0.75861448046E+03  0.14574045541E+04  0.12699999809E+01 0.  1.
       -4    1    3    3    0  502 -0.10981087736E+04 -0.58539526210E+03  0.93976080035E+03  0.15593852847E+04  0.12699999809E+01 0. -1.
</event>
<event>
 5   0  0.8740500E-06  0.2734590E+04  0.7818609E-02  0.8323868E-01
       -3   -1    0    0    0  501  0.00000000000E+00  0.00000000000E+00  0.15165640940E+04  0.15165640974E+04  0.10100000352E+00 0. -1.
        3   -1    0    0  501    0  0.00000000000E+00  0.00000000000E+00 -0.12327180510E+04  0.12327180552E+04  0.10100000352E+00 0.  1.
    10030    2    1    2    0    0  0.00000000000E+00  0.00000000000E+00  0.28384604299E+03  0.27492821526E+04  0.27345902395E+04 0.  0.
        2    1    3    3  502    0  0.24740296403E+03 -0.10901668649E+04  0.93344179707E+03  0.14563603979E+04  0.25500000920E-02 0. -1.
       -2    1    3    3    0  502 -0.24740296403E+03  0.10901668649E+04 -0.64959575408E+03  0.12929217547E+04  0.25500000920E-02 0.  1.
</event>
<event>
 5   0  0.2540684E-05  0.2596671E+04  0.7818609E-02  0.8369333E-01
       -2   -1    0    0    0  501  0.00000000000E+00  0.00000000000E+00  0.62365558194E+03  0.62365558195E+03  0.25500000920E-02 0.  1.
        2   -1    0    0  501    0  0.00000000000E+00  0.00000000000E+00 -0.27028932934E+04  0.27028932934E+04  0.25500000920E-02 0. -1.
    10030    2    1    2    0    0  0.00000000000E+00  0.00000000000E+00 -0.20792377114E+04  0.33265488753E+04  0.25966705527E+04 0.  0.
        2    1    3    3  502    0 -0.57085331384E+03 -0.58650033079E+03 -0.23307937762E+04  0.24703149134E+04  0.25500000920E-02 0. -1.
       -2    1    3    3    0  502  0.57085331384E+03  0.58650033079E+03  0.25155606476E+03  0.85623396198E+03  0.25500000920E-02 0.  1.
</event>
<event>
 5   0  0.9971923E-06  0.2190465E+04  0.7818609E-02  0.8522407E-01
        1   -1    0    0  501    0  0.00000000000E+00  0.00000000000E+00  0.22633021677E+04  0.22633021677E+04  0.50400001928E-02 0. -1.
       -1   -1    0    0    0  501  0.00000000000E+00  0.00000000000E+00 -0.52999286745E+03  0.52999286748E+03  0.50400001928E-02 0.  1.
    10030    2    1    2    0    0  0.00000000000E+00  0.00000000000E+00  0.17333093003E+04  0.27932950352E+04  0.21904647962E+04 0.  0.
        2    1    3    3  502    0 -0.60099165367E+03  0.61512699715E+03  0.18033924546E+01  0.85998572234E+03  0.25500000920E-02 0.  1.
       -2    1    3    3    0  502  0.60099165367E+03 -0.61512699715E+03  0.17315059078E+04  0.19333093129E+04  0.25500000920E-02 0. -1.
</event>
<event>
 5   0  0.1005265E-05  0.2689698E+04  0.7818609E-02  0.8338355E-01
        1   -1    0    0  501    0  0.00000000000E+00  0.00000000000E+00  0.14102225526E+04  0.14102225526E+04  0.50400001928E-02 0.  1.
       -1   -1    0    0    0  501  0.00000000000E+00  0.00000000000E+00 -0.12825056004E+04  0.12825056004E+04  0.50400001928E-02 0. -1.
    10030    2    1    2    0    0  0.00000000000E+00  0.00000000000E+00  0.12771695218E+03  0.26927281530E+04  0.26896976198E+04 0.  0.
        3    1    3    3  502    0 -0.47577149810E+02 -0.45464036410E+03 -0.12023419913E+04  0.12863077859E+04  0.10100000352E+00 0. -1.
       -3    1    3    3    0  502  0.47577149810E+02  0.45464036410E+03  0.13300589434E+04  0.14064203671E+04  0.10100000352E+00 0.  1.
</event>
<event>
 5   0  0.2641216E-05  0.2736277E+04  0.7818609E-02  0.8323329E-01
       -2   -1    0    0    0  501  0.00000000000E+00  0.00000000000E+00  0.13738355740E+04  0.13738355740E+04  0.25500000920E-02 0. -1.
        2   -1    0    0  501    0  0.00000000000E+00  0.00000000000E+00 -0.13624651768E+04  0.13624651768E+04  0.25500000920E-02 0.  1.
    10030    2    1    2    0    0  0.00000000000E+00  0.00000000000E+00  0.11370397238E+02  0.27363007508E+04  0.27362771265E+04 0.  0.
        5    1    3    3  502    0 -0.90610341244E+03  0.86549218261E+03 -0.54357442607E+03  0.13658679874E+04  0.46999998093E+01 0.  1.
       -5    1    3    3    0  502  0.90610341244E+03 -0.86549218261E+03  0.55494482331E+03  0.13704327634E+04  0.46999998093E+01 0. -1.
</event>
<event>
 5   0  0.2540232E-05  0.2620572E+04  0.7818609E-02  0.8361247E-01
        2   -1    0    0  501    0  0.00000000000E+00  0.00000000000E+00  0.19975405794E+04  0.19975405794E+04  0.25500000920E-02 0.  1.
       -2   -1    0    0    0  501  0.00000000000E+00  0.00000000000E+00 -0.85948166678E+03  0.85948166679E+03  0.25500000920E-02 0. -1.
    10030    2    1    2    0    0  0.00000000000E+00  0.00000000000E+00  0.11380589126E+04  0.28570222462E+04  0.26205720800E+04 0.  0.
        1    1    3    3  502    0  0.52188873728E+03 -0.11988637618E+04  0.66158550660E+03  0.14653796627E+04  0.50400001928E-02 0.  1.
       -1    1    3    3    0  502 -0.52188873728E+03  0.11988637618E+04  0.47647340598E+03  0.13916425834E+04  0.50400001928E-02 0. -1.
</event>
<event>
 5   0  0.1036691E-05  0.2667709E+04  0.7818609E-02  0.8345559E-01
       -1   -1    0    0    0  501  0.00000000000E+00  0.00000000000E+00  0.13999049109E+04  0.13999049109E+04  0.50400001928E-02 0. -1.
        1   -1    0    0  501    0  0.00000000000E+00  0.00000000000E+00 -0.12709207591E+04  0.12709207591E+04  0.50400001928E-02 0.  1.
    10030    2    1    2    0    0  0.00000000000E+00  0.00000000000E+00  0.12898415183E+03  0.26708256700E+04  0.26677092885E+04 0.  0.
        4    1    3    3  502    0 -0.10184299300E+03 -0.64800156261E+03 -0.10982813009E+04  0.12792581636E+04  0.12699999809E+01 0.  1.
       -4    1    3    3    0  502  0.10184299300E+03  0.64800156261E+03  0.12272654528E+04  0.13915675064E+04  0.12699999809E+01 0. -1.
</event>
<event>
 5   0  0.1036691E-05  0.2741280E+04  0.7818609E-02  0.8321734E-01
       -1   -1    0    0    0  501  0.00000000000E+00  0.00000000000E+00  0.14041326062E+04  0.14041326062E+04  0.50400001928E-02 0. -1.
        1   -1    0    0  501    0  0.00000000000E+00  0.00000000000E+00 -0.13379465965E+04  0.13379465965E+04  0.50400001928E-02 0.  1.
    10030    2    1    2    0    0  0.00000000000E+00  0.00000000000E+00  0.66186009687E+02  0.27420792026E+04  0.27412803151E+04 0.  0.
        4    1    3    3  502    0 -0.36670598784E+03  0.57788709783E+03 -0.11547824640E+04  0.13423676588E+04  0.12699999809E+01 0.  1.
       -4    1    3    3    0  502  0.36670598784E+03 -0.57788709783E+03  0.12209684737E+04  0.13997115438E+04  0.12699999809E+01 0. -1.
</event>
<event>
 5   0  0.1041909E-05  0.2696286E+04  0.7818609E-02  0.8336211E-01
        1   -1    0    0  501    0  0.00000000000E+00  0.00000000000E+00  0.20370527972E+04  0.20370527972E+04  0.50400001928E-02 0. -1.
       -1   -1    0    0    0  501  0.00000000000E+00  0.00000000000E+00 -0.89221492812E+03  0.89221492814E+03  0.50400001928E-02 0.  1.
    10030    2    1    2    0    0  0.00000000000E+00  0.00000000000E+00  0.11448378690E+04  0.29292677253E+04  0.26962855302E+04 0.  0.
        5    1    3    3  502    0  0.10663310695E+04 -0.21965514698E+03  0.14362035935E+04  0.18022245102E+04  0.46999998093E+01 0. -1.
       -5    1    3    3    0  502 -0.10663310695E+04  0.21965514698E+03 -0.29136572446E+03  0.11270432151E+04  0.46999998093E+01 0.  1.
</event>
<event>
 5   0  0.2516518E-05  0.2722749E+04  0.7818609E-02  0.8327661E-01
        2   -1    0    0  501    0  0.00000000000E+00  0.00000000000E+00  0.15411694760E+04  0.15411694760E+04  0.25500000920E-02 0.  1.
       -2   -1    0    0    0  501  0.00000000000E+00  0.00000000000E+00 -0.12025548004E+04  0.12025548004E+04  0.25500000920E-02 0. -1.
    10030    2    1    2    0    0  0.00000000000E+00  0.00000000000E+00  0.33861467565E+03  0.27437242764E+04  0.27227491634E+04 0.  0.
        4    1    3    3  502    0 -0.42018114250E+03  0.86837055984E+03  0.11372902394E+04  0.14913250227E+04  0.12699999809E+01 0.  1.
       -4    1    3    3    0  502  0.42018114250E+03 -0.86837055984E+03 -0.79867556378E+03  0.12523992537E+04  0.12699999809E+01 0. -1.
</event>
<event>
 5   0  0.1041909E-05  0.2687481E+04  0.7818609E-02  0.8339078E-01
        1   -1    0    0  501    0  0.00000000000E+00  0.00000000000E+00  0.14744800525E+04  0.14744800525E+04  0.50400001928E-02 0. -1.
       -1   -1    0    0    0  501  0.00000000000E+00  0.00000000000E+00 -0.12245934751E+04  0.12245934751E+04  0.50400001928E-02 0.  1.
    10030    2    1    2    0    0  0.00000000000E+00  0.00000000000E+00  0.24988657749E+03  0.26990735276E+04  0.26874810894E+04 0.  0.
        5    1    3    3  502    0  0.12163936006E+04  0.45954524037E+03 -0.21537133208E+03  0.13180296355E+04  0.46999998093E+01 0. -1.
       -5    1    3    3    0  502 -0.12163936006E+04 -0.45954524037E+03  0.46525790957E+03  0.13810438921E+04  0.46999998093E+01 0.  1.
</event>
<event>
 5   0  0.2615843E-05  0.2670421E+04  0.7818609E-02  0.8344667E-01
       -2   -1    0    0    0  501  0.00000000000E+00  0.00000000000E+00  0.15411915763E+04  0.15411915763E+04  0.25500000920E-02 0. -1.
        2   -1    0    0  501    0  0.00000000000E+00  0.00000000000E+00 -0.11567587087E+04  0.11567587087E+04  0.25500000920E-02 0.  1.
    10030    2    1    2    0    0  0.00000000000E+00  0.00000000000E+00  0.38443286762E+03  0.26979502850E+04  0.26704207741E+04 0.  0.
        3    1    3    3  502    0  0.16182697376E+03  0.13086712543E+04 -0.19655627649E+02  0.13187853408E+04  0.10100000352E+00 0.  1.
       -3    1    3    3    0  502 -0.16182697376E+03 -0.13086712543E+04  0.40408849527E+03  0.13791649442E+04  0.10100000352E+00 0. -1.
</event>
<event>
 5   0  0.2615843E-05  0.2339593E+04  0.7818609E-02  0.8462472E-01
        2   -1    0    0  501    0  0.00000000000E+00  0.00000000000E+00  0.16291931200E+04  0.16291931200E+04  0.25500000920E-02 0.  1.
       -2   -1    0    0    0  501  0.00000000000E+00  0.00000000000E+00 -0.83993942432E+03  0.83993942433E+03  0.25500000920E-02 0. -1.
    10030    2    1    2    0    0  0.00000000000E+00  0.00000000000E+00  0.78925369563E+03  0.24691325443E+04  0.23395927263E+04 0.  0.
        3    1    3    3  502    0  0.63030358801E+03  0.26959837763E+03 -0.60572537174E+03  0.91480551728E+03  0.10100000352E+00 0. -1.
       -3    1    3    3    0  502 -0.63030358801E+03 -0.26959837763E+03  0.13949790674E+04  0.15543270270E+04  0.10100000352E+00 0.  1.
</event>
<event>
 5   0  0.8740500E-06  0.2694168E+04  0.7818609E-02  0.8336900E-01
       -3   -1    0    0    0  501  0.00000000000E+00  0.00000000000E+00  0.14175640381E+04  0.14175640417E+04  0.10100000352E+00 0. -1.
        3   -1    0    0  501    0  0.00000000000E+00  0.00000000000E+00 -0.12801078264E+04  0.12801078304E+04  0.10100000352E+00 0.  1.
    10030    2    1    2    0    0  0.00000000000E+00  0.00000000000E+00  0.13745621175E+03  0.26976718721E+04  0.26941676487E+04 0.  0.
        4    1    3    3  502    0 -0.12535599366E+04 -0.35955580661E+03  0.40671762410E+03  0.13660577336E+04  0.12699999809E+01 0. -1.
       -4    1    3    3    0  502  0.12535599366E+04  0.35955580661E+03 -0.26926141235E+03  0.13316141385E+04  0.12699999809E+01 0.  1.
</event>
<event>
 5   0  0.1041909E-05  0.2717578E+04  0.7818609E-02  0.8329324E-01
       -1   -1    0    0    0  501  0.00000000000E+00  0.00000000000E+00  0.72126932746E+03  0.72126932747E+03  0.50400001928E-02 0.  1.
        1   -1    0    0  501    0  0.00000000000E+00  0.00000000000E+00 -0.25598026615E+04  0.25598026615E+04  0.50400001928E-02 0. -1.
    10030    2    1    2    0    0  0.00000000000E+00  0.00000000000E+00 -0.18385333341E+04  0.32810719890E+04  0.27175777039E+04 0.  0.
        5    1    3    3  502    0 -0.11697940113E+04  0.49030840062E+03 -0.33091997511E+03  0.13108586791E+04  0.46999998093E+01 0.  1.
       -5    1    3    3    0  502  0.11697940113E+04 -0.49030840062E+03 -0.15076133589E+04  0.19702133099E+04  0.46999998093E+01 0. -1.
</event>
<event>
 5   0  0.2615843E-05  0.1921138E+04  0.7818609E-02  0.8644406E-01
        2   -1    0    0  501    0  0.00000000000E+00  0.00000000000E+00  0.13647567559E+04  0.13647567559E+04  0.25500000920E-02 0.  1.
       -2   -1    0    0    0  501  0.00000000000E+00  0.00000000000E+00 -0.67608583803E+03  0.67608583804E+03  0.25500000920E-02 0. -1.
    10030    2    1    2    0    0  0.00000000000E+00  0.00000000000E+00  0.68867091791E+03  0.20408425940E+04  0.19211379077E+04 0.  0.
        3    1    3    3  502    0 -0.22217412471E+03  0.79216817675E+02  0.13335137053E+04  0.13542139633E+04  0.10100000352E+00 0.  1.
       -3    1    3    3    0  502  0.22217412471E+03 -0.79216817675E+02 -0.64484278738E+03  0.68662863072E+03  0.10100000352E+00 0. -1.
</event>
<event>
 5   0  0.8740500E-06  0.2657962E+04  0.7818609E-02  0.8348775E-01
       -3   -1    0    0    0  501  0.00000000000E+00  0.00000000000E+00  0.15070234338E+04  0.15070234372E+04  0.10100000352E+00 0.  1.
        3   -1    0    0  501    0  0.00000000000E+00  0.00000000000E+00 -0.11719732289E+04  0.11719732332E+04  0.10100000352E+00 0. -1.
    10030    2    1    2    0    0  0.00000000000E+00  0.00000000000E+00  0.33505020497E+03  0.26789966704E+04  0.26579624753E+04 0.  0.
        5    1    3    3  502    0 -0.58374970113E+03 -0.21501698379E+03 -0.10161505250E+04  0.11914612861E+04  0.46999998093E+01 0. -1.
       -5    1    3    3    0  502  0.58374970113E+03  0.21501698379E+03  0.13512007300E+04  0.14875353843E+04  0.46999998093E+01 0.  1.
</event>
<event>
 5   0  0.2540684E-05  0.2701578E+04  0.7818609E-02  0.8334493E-01
       -2   -1    0    0    0  501  0.00000000000E+00  0.00000000000E+00  0.91420309513E+03  0.91420309514E+03  0.25500000920E-02 0. -1.
        2   -1    0    0  501    0  0.00000000000E+00  0.00000000000E+00 -0.19958698173E+04  0.19958698173E+04  0.25500000920E-02 0.  1.
    10030    2    1    2    0    0  0.00000000000E+00  0.00000000000E+00 -0.10816667222E+04  0.29100729124E+04  0.27015775869E+04 0.  0.
        2    1    3    3  502    0 -0.12004153005E+03  0.12232838727E+04  0.62574263262E+02  0.12307513724E+04  0.25500000920E-02 0. -1.
       -2    1    3    3    0  502  0.12004153005E+03 -0.12232838727E+04 -0.11442409854E+04  0.16793215401E+04  0.25500000920E-02 0.  1.
</event>
<event>
 5   0  0.2540232E-05  0.2587795E+04  0.7818609E-02  0.8372359E-01
        2   -1    0    0  501    0  0.00000000000E+00  0.00000000000E+00  0.29932670785E+04  0.29932670785E+04  0.25500000920E-02 0. -1.
       -2   -1    0    0    0  501  0.00000000000E+00  0.00000000000E+00 -0.55931206077E+03  0.55931206077E+03  0.25500000920E-02 0.  1.
    10030    2    1    2    0    0  0.00000000000E+00  0.00000000000E+00  0.24339550177E+04  0.35525791393E+04  0.25877947199E+04 0.  0.
        1    1    3    3  502    0 -0.11840615971E+04 -0.41793879887E+03  0.16456312408E+04  0.20699702621E+04  0.50400001928E-02 0. -1.
       -1    1    3    3    0  502  0.11840615971E+04  0.41793879887E+03  0.78832377691E+03  0.14826088771E+04  0.50400001928E-02 0.  1.
</event>
<event>
 5   0  0.1096672E-05  0.1868745E+04  0.7818609E-02  0.8670572E-01
        1   -1    0    0  501    0  0.00000000000E+00  0.00000000000E+00  0.13731075275E+04  0.13731075275E+04  0.50400001928E-02 0. -1.
       -1   -1    0    0    0  501  0.00000000000E+00  0.00000000000E+00 -0.63582205097E+03  0.63582205099E+03  0.50400001928E-02 0.  1.
    10030    2    1    2    0    0  0.00000000000E+00  0.00000000000E+00  0.73728547656E+03  0.20089295785E+04  0.18687450809E+04 0.  0.
        1    1    3    3  502    0 -0.53652004061E+03  0.10927242424E+03  0.11825775949E+04  0.13031822531E+04  0.50400001928E-02 0. -1.
       -1    1    3    3    0  502  0.53652004061E+03 -0.10927242424E+03 -0.44529211837E+03  0.70574732545E+03  0.50400001928E-02 0.  1.
</event>
<event>
 5   0  0.2516518E-05  0.2634098E+04  0.7818609E-02  0.8356710E-01
        2   -1    0    0  501    0  0.00000000000E+00  0.00000000000E+00  0.14553534727E+04  0.14553534727E+04  0.25500000920E-02 0.  1.
       -2   -1    0    0    0  501  0.00000000000E+00  0.00000000000E+00 -0.11918880125E+04  0.11918880125E+04  0.25500000920E-02 0. -1.
    10030    2    1    2    0    0  0.00000000000E+00  0.00000000000E+00  0.26346546021E+03  0.26472414853E+04  0.26340982200E+04 0.  0.
        4    1    3    3  502    0 -0.30063023664E+03 -0.12821029342E+04  0.15305822679E+03  0.13257431526E+04  0.12699999809E+01 0.  1.
       -4    1    3    3    0  502  0.30063023664E+03  0.12821029342E+04  0.11040723341E+03  0.13214983326E+04  0.12699999809E+01 0. -1.
</event>
<event>
 5   0  0.2516518E-05  0.2713003E+04  0.7818609E-02  0.8330798E-01
        2   -1    0    0  501    0  0.00000000000E+00  0.00000000000E+00  0.19180106246E+04  0.19180106246E+04  0.25500000920E-02 0.  1.
       -2   -1    0    0    0  501  0.00000000000E+00  0.00000000000E+00 -0.95937782787E+03  0.95937782787E+03  0.25500000920E-02 0. -1.
    10030    2    1    2    0    0  0.00000000000E+00  0.00000000000E+00  0.95863279676E+03  0.28773884525E+04  0.27130034035E+04 0.  0.
        4    1    3    3  502    0  0.79508847693E+03 -0.88282854531E+03  0.11736137785E+04  0.16700068385E+04  0.12699999809E+01 0.  1.
       -4    1    3    3    0  502 -0.79508847693E+03  0.88282854531E+03 -0.21498098172E+03  0.12073816141E+04  0.12699999809E+01 0. -1.
</event>
<event>
 5   0  0.2615843E-05  0.2661351E+04  0.7818609E-02  0.8347655E-01
       -2   -1    0    0    0  501  0.00000000000E+00  0.00000000000E+00  0.93465027648E+03  0.93465027649E+03  0.25500000920E-02 0.  1.
        2   -1    0    0  501    0  0.00000000000E+00  0.00000000000E+00 -0.18945022647E+04  0.18945022647E+04  0.25500000920E-02 0. -1.
    10030    2    1    2    0    0  0.00000000000E+00  0.00000000000E+00 -0.95985198819E+03  0.28291525412E+04  0.26613508341E+04 0.  0.
        3    1    3    3  502    0  0.11641888071E+04  0.50019960145E+02 -0.11629805078E+04  0.16463174805E+04  0.10100000352E+00 0. -1.
       -3    1    3    3    0  502 -0.11641888071E+04 -0.50019960145E+02  0.20312851965E+03  0.11828350606E+04  0.10100000352E+00 0.  1.
</event>
<event>
 5   0  0.1036691E-05  0.2653584E+04  0.7818609E-02  0.8350225E-01
        1   -1    0    0  501    0  0.00000000000E+00  0.00000000000E+00  0.17503977661E+04  0.17503977661E+04  0.50400001928E-02 0. -1.
       -1   -1    0    0    0  501  0.00000000000E+00  0.00000000000E+00 -0.10057007675E+04  0.10057007675E+04  0.50400001928E-02 0.  1.
    10030    2    1    2    0    0  0.00000000000E+00  0.00000000000E+00  0.74469699863E+03  0.27560985336E+04  0.26535835218E+04 0.  0.
        4    1    3    3  502    0  0.20431786787E+03  0.11379365520E+04  0.10484412281E+04  0.15607293197E+04  0.12699999809E+01 0. -1.
       -4    1    3    3    0  502 -0.20431786787E+03 -0.11379365520E+04 -0.30374422949E+03  0.11953692139E+04  0.12699999809E+01 0.  1.
</event>
<event>
 5   0  0.9971923E-06  0.2711621E+04  0.7818609E-02  0.8331244E-01
        1   -1    0    0  501    0  0.00000000000E+00  0.00000000000E+00  0.21818448367E+04  0.21818448367E+04  0.50400001928E-02 0. -1.
       -1   -1    0    0    0  501  0.00000000000E+00  0.00000000000E+00 -0.84250841913E+03  0.84250841914E+03  0.50400001928E-02 0.  1.
    10030    2    1    2    0    0  0.00000000000E+00  0.00000000000E+00  0.13393364176E+04  0.30243532559E+04  0.27116213926E+04 0.  0.
        2    1    3    3  502    0  0.11194398674E+04  0.62328749424E+03  0.11641882256E+04  0.17311750755E+04  0.25500000920E-02 0.  1.
       -2    1    3    3    0  502 -0.11194398674E+04 -0.62328749424E+03  0.17514819200E+03  0.12931781804E+04  0.25500000920E-02 0. -1.
</event>
<event>
 5   0  0.2615843E-05  0.2693360E+04  0.7818609E-02  0.8337163E-01
       -2   -1    0    0    0  501  0.00000000000E+00  0.00000000000E+00  0.18304619357E+04  0.18304619357E+04  0.25500000920E-02 0. -1.
        2   -1    0    0  501    0  0.00000000000E+00  0.00000000000E+00 -0.99075907026E+03  0.99075907027E+03  0.25500000920E-02 0.  1.
    10030    2    1    2    0    0  0.00000000000E+00  0.00000000000E+00  0.83970286544E+03  0.28212210060E+04  0.26933598093E+04 0.  0.
        3    1    3    3  502    0 -0.74144745973E+03 -0.50105426917E+03 -0.63427626473E+03  0.10968619359E+04  0.10100000352E+00 0.  1.
       -3    1    3    3    0  502  0.74144745973E+03  0.50105426917E+03  0.14739791302E+04  0.17243590701E+04  0.10100000352E+00 0. -1.
</event>
<event>
 5   0  0.2516518E-05  0.2717162E+04  0.7818609E-02  0.8329458E-01
        2   -1    0    0  501    0  0.00000000000E+00  0.00000000000E+00  0.20861573898E+04  0.20861573898E+04  0.25500000920E-02 0.  1.
       -2   -1    0    0    0  501  0.00000000000E+00  0.00000000000E+00 -0.88475699457E+03  0.88475699457E+03  0.25500000920E-02 0. -1.
    10030    2    1    2    0    0  0.00000000000E+00  0.00000000000E+00  0.12014003952E+04  0.29709143843E+04  0.27171620065E+04 0.  0.
        4    1    3    3  502    0 -0.58294245717E+03 -0.57515893567E+03  0.17859613563E+04  0.19647618911E+04  0.12699999809E+01 0.  1.
       -4    1    3    3    0  502  0.58294245717E+03  0.57515893567E+03 -0.58456096105E+03  0.10061524933E+04  0.12699999809E+01 0. -1.
</event>
<event>
 5   0  0.2516518E-05  0.2696820E+04  0.7818609E-02  0.8336037E-01
        2   -1    0    0  501    0  0.00000000000E+00  0.00000000000E+00  0.11609673829E+04  0.11609673829E+04  0.25500000920E-02 0.  1.
       -2   -1    0    0    0  501  0.00000000000E+00  0.00000000000E+00 -0.15661163739E+04  0.15661163739E+04  0.25500000920E-02 0. -1.
    10030    2    1    2    0    0  0.00000000000E+00  0.00000000000E+00 -0.40514899100E+03  0.27270837568E+04  0.26968203707E+04 0.  0.
        4    1    3    3  502    0 -0.10686305701E+04 -0.54132815189E+03  0.42340447867E+03  0.12705433597E+04  0.12699999809E+01 0.  1.
       -4    1    3    3    0  502  0.10686305701E+04  0.54132815189E+03 -0.82855346967E+03  0.14565403971E+04  0.12699999809E+01 0. -1.
</event>
<event>
 5   0  0.1005265E-05  0.2690128E+04  0.7818609E-02  0.8338215E-01
       -1   -1    0    0    0  501  0.00000000000E+00  0.00000000000E+00  0.12602648891E+04  0.12602648891E+04  0.50400001928E-02 0.  1.
        1   -1    0    0  501    0  0.00000000000E+00  0.00000000000E+00 -0.14355686049E+04  0.14355686049E+04  0.50400001928E-02 0. -1.
    10030    2    1    2    0    0  0.00000000000E+00  0.00000000000E+00 -0.17530371582E+03  0.26958334940E+04  0.26901276614E+04 0.  0.
        3    1    3    3  502    0  0.58513807090E+03 -0.69418704302E+03 -0.10821854051E+04  0.14125889260E+04  0.10100000352E+00 0. -1.
       -3    1    3    3    0  502 -0.58513807090E+03  0.69418704302E+03  0.90688168928E+03  0.12832445680E+04  0.10100000352E+00 0.  1.
</event>
<event>
 5   0  0.1096672E-05  0.2836395E+04  0.7818609E-02  0.8292057E-01
        1   -1    0    0  501    0  0.00000000000E+00  0.00000000000E+00  0.19744665132E+04  0.19744665132E+04  0.50400001928E-02 0. -1.
       -1   -1    0    0    0  501  0.00000000000E+00  0.00000000000E+00 -0.10186471994E+04  0.10186471994E+04  0.50400001928E-02 0.  1.
    10030    2    1    2    0    0  0.00000000000E+00  0.00000000000E+00  0.95581931379E+03  0.29931137126E+04  0.28363954478E+04 0.  0.
        1    1    3    3  502    0  0.22369250278E+03  0.66256362123E+02  0.19540781487E+04  0.19679557039E+04  0.50400001928E-02 0. -1.
       -1    1    3    3    0  502 -0.22369250278E+03 -0.66256362123E+02 -0.99825883492E+03  0.10251580087E+04  0.50400001928E-02 0.  1.
</event>
<event>
 5   0  0.9971923E-06  0.2854938E+04  0.7818609E-02  0.8286413E-01
       -1   -1    0    0    0  501  0.00000000000E+00  0.00000000000E+00  0.12559057360E+04  0.12559057360E+04  0.50400001928E-02 0.  1.
        1   -1    0    0  501    0  0.00000000000E+00  0.00000000000E+00 -0.16224681692E+04  0.16224681692E+04  0.50400001928E-02 0. -1.
    10030    2    1    2    0    0  0.00000000000E+00  0.00000000000E+00 -0.36656243323E+03  0.28783739052E+04  0.28549375336E+04 0.  0.
        2    1    3    3  502    0  0.13319306580E+04 -0.44757732267E+03 -0.43694618224E+03  0.14714913196E+04  0.25500000920E-02 0.  1.
       -2    1    3    3    0  502 -0.13319306580E+04  0.44757732267E+03  0.70383749006E+02  0.14068825856E+04  0.25500000920E-02 0. -1.
</event>
<event>
 5   0  0.2540232E-05  0.2910663E+04  0.7818609E-02  0.8269712E-01
        2   -1    0    0  501    0  0.00000000000E+00  0.00000000000E+00  0.17047222450E+04  0.17047222450E+04  0.25500000920E-02 0. -1.
       -2   -1    0    0    0  501  0.00000000000E+00  0.00000000000E+00 -0.12424247286E+04  0.12424247286E+04  0.25500000920E-02 0.  1.
    10030    2    1    2    0    0  0.00000000000E+00  0.00000000000E+00  0.46229751640E+03  0.29471469736E+04  0.29106625174E+04 0.  0.
        1    1    3    3  502    0  0.10644338488E+04 -0.61927853703E+03 -0.55411340007E+03  0.13503951218E+04  0.50400001928E-02 0.  1.
       -1    1    3    3    0  502 -0.10644338488E+04  0.61927853703E+03  0.10164109165E+04  0.15967518518E+04  0.50400001928E-02 0. -1.
</event>
<event>
 5   0  0.2516518E-05  0.2712801E+04  0.7818609E-02  0.8330863E-01
        2   -1    0    0  501    0  0.00000000000E+00  0.00000000000E+00  0.16076693267E+04  0.16076693267E+04  0.25500000920E-02 0. -1.
       -2   -1    0    0    0  501  0.00000000000E+00  0.00000000000E+00 -0.11444037393E+04  0.11444037393E+04  0.25500000920E-02 0.  1.
    10030    2    1    2    0    0  0.00000000000E+00  0.00000000000E+00  0.46326558741E+03  0.27520730660E+04  0.27128013484E+04 0.  0.
        4    1    3    3  502    0 -0.11931357709E+04  0.56403743243E+03 -0.86126724311E+02  0.13225470194E+04  0.12699999809E+01 0. -1.
       -4    1    3    3    0  502  0.11931357709E+04 -0.56403743243E+03  0.54939231172E+03  0.14295260466E+04  0.12699999809E+01 0.  1.
</event>
<event>
 5   0  0.1041909E-05  0.2708172E+04  0.7818609E-02  0.8332358E-01
        1   -1    0    0  501    0  0.00000000000E+00  0.00000000000E+00  0.14826232083E+04  0.14826232083E+04  0.50400001928E-02 0. -1.
       -1   -1    0    0    0  501  0.00000000000E+00  0.00000000000E+00 -0.12366925057E+04  0.12366925057E+04  0.50400001928E-02 0.  1.
    10030    2    1    2    0    0  0.00000000000E+00  0.00000000000E+00  0.24593070253E+03  0.27193157140E+04  0.27081720850E+04 0.  0.
        5    1    3    3  502    0 -0.12474798135E+04 -0.21657747879E+03  0.60495639349E+03  0.14032483805E+04  0.46999998093E+01 0.  1.
       -5    1    3    3    0  502  0.12474798135E+04  0.21657747879E+03 -0.35902569096E+03  0.13160673335E+04  0.46999998093E+01 0. -1.
</event>
<event>
 5   0  0.2540232E-05  0.2729907E+04  0.7818609E-02  0.8325366E-01
       -2   -1    0    0    0  501  0.00000000000E+00  0.00000000000E+00  0.95782835182E+03  0.95782835183E+03  0.25500000920E-02 0.  1.
        2   -1    0    0  501    0  0.00000000000E+00  0.00000000000E+00 -0.19451268449E+04  0.19451268449E+04  0.25500000920E-02 0. -1.
    10030    2    1    2    0    0  0.00000000000E+00  0.00000000000E+00 -0.98729849309E+03  0.29029551967E+04  0.27299066943E+04 0.  0.
        1    1    3    3  502    0 -0.10180826081E+04  0.88555179014E+03 -0.27467490542E+03  0.13770041662E+04  0.50400001928E-02 0.  1.
       -1    1    3    3    0  502  0.10180826081E+04 -0.88555179014E+03 -0.71262358768E+03  0.15259510306E+04  0.50400001928E-02 0. -1.
</event>
<event>
 5   0  0.1005265E-05  0.2687202E+04  0.7818609E-02  0.8339169E-01
        1   -1    0    0  501    0  0.00000000000E+00  0.00000000000E+00  0.19083597521E+04  0.19083597521E+04  0.50400001928E-02 0.  1.
       -1   -1    0    0    0  501  0.00000000000E+00  0.00000000000E+00 -0.94597644778E+03  0.94597644780E+03  0.50400001928E-02 0. -1.
    10030    2    1    2    0    0  0.00000000000E+00  0.00000000000E+00  0.96238330429E+03  0.28543361999E+04  0.26872018007E+04 0.  0.
        3    1    3    3  502    0 -0.13294729207E+04 -0.17548391385E+03  0.56987403952E+03  0.14570687294E+04  0.10100000352E+00 0. -1.
       -3    1    3    3    0  502  0.13294729207E+04  0.17548391385E+03  0.39250926476E+03  0.13972674705E+04  0.10100000352E+00 0.  1.
</event>
<event>
 5   0  0.1041909E-05  0.2726976E+04  0.7818609E-02  0.8326305E-01
       -1   -1    0    0    0  501  0.00000000000E+00  0.00000000000E+00  0.94757296987E+03  0.94757296989E+03  0.50400001928E-02 0. -1.
        1   -1    0    0  501    0  0.00000000000E+00  0.00000000000E+00 -0.19619593232E+04  0.19619593232E+04  0.50400001928E-02 0.  1.
    10030    2    1    2    0    0  0.00000000000E+00  0.00000000000E+00 -0.10143863533E+04  0.29095322931E+04  0.27269760708E+04 0.  0.
        5    1    3    3  502    0 -0.89366217822E+03 -0.10209926518E+04 -0.36397022921E+03  0.14048325528E+04  0.46999998093E+01 0. -1.
       -5    1    3    3    0  502  0.89366217822E+03  0.10209926518E+04 -0.65041612410E+03  0.15046997402E+04  0.46999998093E+01 0.  1.
</event>
<event>
 5   0  0.1041909E-05  0.2579243E+04  0.7818609E-02  0.8375286E-01
       -1   -1    0    0    0  501  0.00000000000E+00  0.00000000000E+00  0.11437019665E+04  0.11437019665E+04  0.50400001928E-02 0.  1.
        1   -1    0    0  501    0  0.00000000000E+00  0.00000000000E+00 -0.14541581796E+04  0.14541581796E+04  0.50400001928E-02 0. -1.
    10030    2    1    2    0    0  0.00000000000E+00  0.00000000000E+00 -0.31045621312E+03  0.25978601462E+04  0.25792429662E+04 0.  0.
        5    1    3    3  502    0  0.19415532580E+03 -0.65729932694E+03  0.94506845940E+03  0.11674395825E+04  0.46999998093E+01 0.  1.
       -5    1    3    3    0  502 -0.19415532580E+03  0.65729932694E+03 -0.12555246725E+04  0.14304205637E+04  0.46999998093E+01 0. -1.
</event>
<event>
 5   0  0.2641216E-05  0.1784400E+04  0.7818609E-02  0.8714639E-01
       -2   -1    0    0    0  501  0.00000000000E+00  0.00000000000E+00  0.49005375380E+03  0.49005375381E+03  0.25500000920E-02 0.  1.
        2   -1    0    0  501    0  0.00000000000E+00  0.00000000000E+00 -0.16243547216E+04  0.16243547216E+04  0.25500000920E-02 0. -1.
    10030    2    1    2    0    0  0.00000000000E+00  0.00000000000E+00 -0.11343009678E+04  0.21144084754E+04  0.17844003237E+04 0.  0.
        5    1    3    3  502    0  0.87805409047E+03 -0.41624881842E+02 -0.38632596992E+03  0.96019865737E+03  0.46999998093E+01 0.  1.
       -5    1    3    3    0  502 -0.87805409047E+03  0.41624881842E+02 -0.74797499787E+03  0.11542098180E+04  0.46999998093E+01 0. -1.
</event>
<event>
 5   0  0.2641216E-05  0.2668916E+04  0.7818609E-02  0.8345162E-01
       -2   -1    0    0    0  501  0.00000000000E+00  0.00000000000E+00  0.10776661875E+04  0.10776661875E+04  0.25500000920E-02 0. -1.
        2   -1    0    0  501    0  0.00000000000E+00  0.00000000000E+00 -0.16524398786E+04  0.16524398786E+04  0.25500000920E-02 0.  1.
    10030    2    1    2    0    0  0.00000000000E+00  0.00000000000E+00 -0.57477369103E+03  0.27301060661E+04  0.26689163225E+04 0.  0.
        5    1    3    3  502    0 -0.10810267736E+04  0.70102905714E+03 -0.64276503202E+03  0.14398713833E+04  0.46999998093E+01 0.  1.
       -5    1    3    3    0  502  0.10810267736E+04 -0.70102905714E+03  0.67991340990E+02  0.12902346828E+04  0.46999998093E+01 0. -1.
</event>
<event>
 5   0  0.2540684E-05  0.2744329E+04  0.7818609E-02  0.8320763E-01
        2   -1    0    0  501    0  0.00000000000E+00  0.00000000000E+00  0.20815632923E+04  0.20815632923E+04  0.25500000920E-02 0.  1.
       -2   -1    0    0    0  501  0.00000000000E+00  0.00000000000E+00 -0.90452975055E+03  0.90452975055E+03  0.25500000920E-02 0. -1.
    10030    2    1    2    0    0  0.00000000000E+00  0.00000000000E+00  0.11770335417E+04  0.29860930428E+04  0.27443293720E+04 0.  0.
        2    1    3    3  502    0  0.57837962644E+03  0.31562782733E+03 -0.72113288741E+03  0.97681961435E+03  0.25500000920E-02 0. -1.
       -2    1    3    3    0  502 -0.57837962644E+03 -0.31562782733E+03  0.18981664291E+04  0.20092734285E+04  0.25500000920E-02 0.  1.
</event>
<event>
 5   0  0.1096672E-05  0.2769222E+04  0.7818609E-02  0.8312888E-01
        1   -1    0    0  501    0  0.00000000000E+00  0.00000000000E+00  0.18164430622E+04  0.18164430622E+04  0.50400001928E-02 0.  1.
       -1   -1    0    0    0  501  0.00000000000E+00  0.00000000000E+00 -0.10554404320E+04  0.10554404320E+04  0.50400001928E-02 0. -1.
    10030    2    1    2    0    0  0.00000000000E+00  0.00000000000E+00  0.76100263023E+03  0.28718834943E+04  0.27692218765E+04 0.  0.
        1    1    3    3  502    0 -0.81338854643E+03 -0.87300981061E+03 -0.34796388466E+03  0.12429102630E+04  0.50400001928E-02 0. -1.
       -1    1    3    3    0  502  0.81338854643E+03  0.87300981061E+03  0.11089665149E+04  0.16289732312E+04  0.50400001928E-02 0.  1.
</event>
<event>
 5   0  0.2641216E-05  0.2720817E+04  0.7818609E-02  0.8328282E-01
        2   -1    0    0  501    0  0.00000000000E+00  0.00000000000E+00  0.79155842202E+03  0.79155842202E+03  0.25500000920E-02 0.  1.
       -2   -1    0    0    0  501  0.00000000000E+00  0.00000000000E+00 -0.23380600220E+04  0.23380600220E+04  0.25500000920E-02 0. -1.
    10030    2    1    2    0    0  0.00000000000E+00  0.00000000000E+00 -0.15465016000E+04  0.31296184441E+04  0.27208168638E+04 0.  0.
        5    1    3    3  502    0  0.74020634538E+02 -0.10851247225E+04 -0.17131632852E+04  0.20292671706E+04  0.46999998093E+01 0. -1.
       -5    1    3    3    0  502 -0.74020634538E+02  0.10851247225E+04  0.16666168518E+03  0.11003512735E+04  0.46999998093E+01 0.  1.
</event>
<event>
 5   0  0.1041909E-05  0.2679950E+04  0.7818609E-02  0.8341540E-01
        1   -1    0    0  501    0  0.00000000000E+00  0.00000000000E+00  0.13456239284E+04  0.13456239284E+04  0.50400001928E-02 0.  1.
       -1   -1    0    0    0  501  0.00000000000E+00  0.00000000000E+00 -0.13343497044E+04  0.13343497044E+04  0.50400001928E-02 0. -1.
    10030    2    1    2    0    0  0.00000000000E+00  0.00000000000E+00  0.11274224004E+02  0.26799736328E+04  0.26799499183E+04 0.  0.
        5    1    3    3  502    0  0.12661816857E+04  0.14538660922E+03  0.41935259730E+03  0.13417272518E+04  0.46999998093E+01 0. -1.
       -5    1    3    3    0  502 -0.12661816857E+04 -0.14538660922E+03 -0.40807837330E+03  0.13382463810E+04  0.46999998093E+01 0.  1.
</event>
<event>
 5   0  0.2615843E-05  0.2672491E+04  0.7818609E-02  0.8343986E-01
        2   -1    0    0  501    0  0.00000000000E+00  0.00000000000E+00  0.13392394649E+04  0.13392394649E+04  0.25500000920E-02 0. -1.
       -2   -1    0    0    0  501  0.00000000000E+00  0.00000000000E+00 -0.13332582325E+04  0.13332582325E+04  0.25500000920E-02 0.  1.
    10030    2    1    2    0    0  0.00000000000E+00  0.00000000000E+00  0.59812323995E+01  0.26724976974E+04  0.26724910042E+04 0.  0.
        3    1    3    3  502    0  0.11689616840E+03  0.20464999745E+03  0.13182907194E+04  0.13391925802E+04  0.10100000352E+00 0. -1.
       -3    1    3    3    0  502 -0.11689616840E+03 -0.20464999745E+03 -0.13123094870E+04  0.13333051172E+04  0.10100000352E+00 0.  1.
</event>
<event>
 5   0  0.2641216E-05  0.2718438E+04  0.7818609E-02  0.8329047E-01
       -2   -1    0    0    0  501  0.00000000000E+00  0.00000000000E+00  0.12975822352E+04  0.12975822353E+04  0.25500000920E-02 0.  1.
        2   -1    0    0  501    0  0.00000000000E+00  0.00000000000E+00 -0.14237831794E+04  0.14237831794E+04  0.25500000920E-02 0. -1.
    10030    2    1    2    0    0  0.00000000000E+00  0.00000000000E+00 -0.12620094416E+03  0.27213654147E+04  0.27184376104E+04 0.  0.
        5    1    3    3  502    0  0.74281780370E+03  0.65634627378E+03 -0.99409399791E+03  0.14038567189E+04  0.46999998093E+01 0. -1.
       -5    1    3    3    0  502 -0.74281780370E+03 -0.65634627378E+03  0.86789305375E+03  0.13175086957E+04  0.46999998093E+01 0.  1.
</event>
<event>
 5   0  0.1036691E-05  0.2093916E+04  0.7818609E-02  0.8563928E-01
        1   -1    0    0  501    0  0.00000000000E+00  0.00000000000E+00  0.80584101549E+03  0.80584101550E+03  0.50400001928E-02 0.  1.
       -1   -1    0    0    0  501  0.00000000000E+00  0.00000000000E+00 -0.13602195156E+04  0.13602195156E+04  0.50400001928E-02 0. -1.
    10030    2    1    2    0    0  0.00000000000E+00  0.00000000000E+00 -0.55437850011E+03  0.21660605311E+04  0.20939156389E+04 0.  0.
        4    1    3    3  502    0  0.27250376460E+03 -0.13354390560E+03 -0.13137244575E+04  0.13483196355E+04  0.12699999809E+01 0. -1.
       -4    1    3    3    0  502 -0.27250376460E+03  0.13354390560E+03  0.75934595737E+03  0.81774089559E+03  0.12699999809E+01 0.  1.
</event>
<event>
 5   0  0.2615843E-05  0.2740904E+04  0.7818609E-02  0.8321854E-01
       -2   -1    0    0    0  501  0.00000000000E+00  0.00000000000E+00  0.17562691452E+04  0.17562691452E+04  0.25500000920E-02 0. -1.
        2   -1    0    0  501    0  0.00000000000E+00  0.00000000000E+00 -0.10693913966E+04  0.10693913966E+04  0.25500000920E-02 0.  1.
    10030    2    1    2    0    0  0.00000000000E+00  0.00000000000E+00  0.68687774859E+03  0.28256605418E+04  0.27409043135E+04 0.  0.
        3    1    3    3  502    0  0.13424664855E+04 -0.19991685148E+03  0.53892338461E+03  0.14603497653E+04  0.10100000352E+00 0.  1.
       -3    1    3    3    0  502 -0.13424664855E+04  0.19991685148E+03  0.14795436399E+03  0.13653107765E+04  0.10100000352E+00 0. -1.
</event>
<event>
 5   0  0.2540684E-05  0.2701344E+04  0.7818609E-02  0.8334569E-01
       -2   -1    0    0    0  501  0.00000000000E+00  0.00000000000E+00  0.11549038017E+04  0.11549038017E+04  0.25500000920E-02 0.  1.
        2   -1    0    0  501    0  0.00000000000E+00  0.00000000000E+00 -0.15796246542E+04  0.15796246542E+04  0.25500000920E-02 0. -1.
    10030    2    1    2    0    0  0.00000000000E+00  0.00000000000E+00 -0.42472085248E+03  0.27345284559E+04  0.27013437533E+04 0.  0.
        2    1    3    3  502    0  0.18677899736E+03  0.62151099134E+02  0.11403052528E+04  0.11571712157E+04  0.25500000920E-02 0.  1.
       -2    1    3    3    0  502 -0.18677899736E+03 -0.62151099134E+02 -0.15650261053E+04  0.15773572402E+04  0.25500000920E-02 0. -1.
</event>
<event>
 5   0  0.2516518E-05  0.2614384E+04  0.7818609E-02  0.8363332E-01
        2   -1    0    0  501    0  0.00000000000E+00  0.00000000000E+00  0.12901250819E+04  0.12901250819E+04  0.25500000920E-02 0. -1.
       -2   -1    0    0    0  501  0.00000000000E+00  0.00000000000E+00 -0.13244851544E+04  0.13244851544E+04  0.25500000920E-02 0.  1.
    10030    2    1    2    0    0  0.00000000000E+00  0.00000000000E+00 -0.34360072512E+02  0.26146102364E+04  0.26143844541E+04 0.  0.
        4    1    3    3  502    0  0.13280783470E+03 -0.41979059490E+03  0.12137340584E+04  0.12911289796E+04  0.12699999809E+01 0. -1.
       -4    1    3    3    0  502 -0.13280783470E+03  0.41979059490E+03 -0.12480941309E+04  0.13234812568E+04  0.12699999809E+01 0.  1.
</event>
<event>
 5   0  0.2615843E-05  0.2782308E+04  0.7818609E-02  0.8308782E-01
       -2   -1    0    0    0  501  0.00000000000E+00  0.00000000000E+00  0.12467255679E+04  0.12467255679E+04  0.25500000920E-02 0. -1.
        2   -1    0    0  501    0  0.00000000000E+00  0.00000000000E+00 -0.15523140511E+04  0.15523140511E+04  0.25500000920E-02 0.  1.
    10030    2    1    2    0    0  0.00000000000E+00  0.00000000000E+00 -0.30558848321E+03  0.27990396191E+04  0.27823081188E+04 0.  0.
        3    1    3    3  502    0  0.40414306588E+03  0.13311486172E+04 -0.15744242282E+03  0.14000272803E+04  0.10100000352E+00 0.  1.
       -3    1    3    3    0  502 -0.40414306588E+03 -0.13311486172E+04 -0.14814606040E+03  0.13990123388E+04  0.10100000352E+00 0. -1.
</event>
<event>
 5   0  0.2540232E-05  0.2709046E+04  0.7818609E-02  0.8332076E-01
        2   -1    0    0  501    0  0.00000000000E+00  0.00000000000E+00  0.13788577507E+04  0.13788577507E+04  0.25500000920E-02 0. -1.
       -2   -1    0    0    0  501  0.00000000000E+00  0.00000000000E+00 -0.13306178121E+04  0.13306178121E+04  0.25500000920E-02 0.  1.
    10030    2    1    2    0    0  0.00000000000E+00  0.00000000000E+00  0.48239938643E+02  0.27094755628E+04  0.27090460930E+04 0.  0.
        1    1    3    3  502    0  0.54015519967E+03 -0.24335929535E+03  0.12424022743E+04  0.13764282755E+04  0.50400001928E-02 0. -1.
       -1    1    3    3    0  502 -0.54015519967E+03  0.24335929535E+03 -0.11941623356E+04  0.13330472873E+04  0.50400001928E-02 0.  1.
</event>
<event>
 5   0  0.2540232E-05  0.2595931E+04  0.7818609E-02  0.8369585E-01
        2   -1    0    0  501    0  0.00000000000E+00  0.00000000000E+00  0.25486011379E+04  0.25486011379E+04  0.25500000920E-02 0.  1.
       -2   -1    0    0    0  501  0.00000000000E+00  0.00000000000E+00 -0.66103482498E+03  0.66103482499E+03  0.25500000920E-02 0. -1.
    10030    2    1    2    0    0  0.00000000000E+00  0.00000000000E+00  0.18875663129E+04  0.32096359629E+04  0.25959307442E+04 0.  0.
        1    1    3    3  502    0 -0.50916472201E+03  0.48885962256E+03 -0.40298609026E+03  0.81279162993E+03  0.50400001928E-02 0. -1.
       -1    1    3    3    0  502  0.50916472201E+03 -0.48885962256E+03  0.22905524031E+04  0.23968443329E+04  0.50400001928E-02 0.  1.
</event>
<event>
 5   0  0.1096672E-05  0.2586665E+04  0.7818609E-02  0.8372745E-01
        1   -1    0    0  501    0  0.00000000000E+00  0.00000000000E+00  0.18092054244E+04  0.18092054245E+04  0.50400001928E-02 0. -1.
       -1   -1    0    0    0  501  0.00000000000E+00  0.00000000000E+00 -0.92455449067E+03  0.92455449068E+03  0.50400001928E-02 0.  1.
    10030    2    1    2    0    0  0.00000000000E+00  0.00000000000E+00  0.88465093378E+03  0.27337599151E+04  0.25866650342E+04 0.  0.
        1    1    3    3  502    0  0.68714038325E+03  0.56197325239E+03  0.14364168986E+04  0.16885702086E+04  0.50400001928E-02 0. -1.
       -1    1    3    3    0  502 -0.68714038325E+03 -0.56197325239E+03 -0.55176596483E+03  0.10451897065E+04  0.50400001928E-02 0.  1.
</event>
<event>
 5   0  0.9971923E-06  0.1908536E+04  0.7818609E-02  0.8650619E-01
        1   -1    0    0  501    0  0.00000000000E+00  0.00000000000E+00  0.23264135626E+04  0.23264135626E+04  0.50400001928E-02 0.  1.
       -1   -1    0    0    0  501  0.00000000000E+00  0.00000000000E+00 -0.39142976158E+03  0.39142976161E+03  0.50400001928E-02 0. -1.
    10030    2    1    2    0    0  0.00000000000E+00  0.00000000000E+00  0.19349838011E+04  0.27178433243E+04  0.19085360947E+04 0.  0.
        2    1    3    3  502    0  0.74411159051E+03  0.41090738689E+03  0.34990794958E+03  0.91922930377E+03  0.25500000920E-02 0.  1.
       -2    1    3    3    0  502 -0.74411159051E+03 -0.41090738689E+03  0.15850758515E+04  0.17986140205E+04  0.25500000920E-02 0. -1.
</event>
<event>
 5   0  0.2540232E-05  0.2718305E+04  0.7818609E-02  0.8329090E-01
       -2   -1    0    0    0  501  0.00000000000E+00  0.00000000000E+00  0.11957278725E+04  0.11957278725E+04  0.25500000920E-02 0. -1.
        2   -1    0    0  501    0  0.00000000000E+00  0.00000000000E+00 -0.15449133924E+04  0.15449133924E+04  0.25500000920E-02 0.  1.
    10030    2    1    2    0    0  0.00000000000E+00  0.00000000000E+00 -0.34918551989E+03  0.27406412649E+04  0.27183053573E+04 0.  0.
        1    1    3    3  502    0 -0.10927370780E+04  0.20867747385E+03 -0.96182574963E+03  0.14706221073E+04  0.50400001928E-02 0.  1.
       -1    1    3    3    0  502  0.10927370780E+04 -0.20867747385E+03  0.61264022974E+03  0.12700191576E+04  0.50400001928E-02 0. -1.
</event>
<event>
 5   0  0.1041909E-05  0.2545882E+04  0.7818609E-02  0.8386820E-01
        1   -1    0    0  501    0  0.00000000000E+00  0.00000000000E+00  0.11213840110E+04  0.11213840110E+04  0.50400001928E-02 0. -1.
       -1   -1    0    0    0  501  0.00000000000E+00  0.00000000000E+00 -0.14449813556E+04  0.14449813556E+04  0.50400001928E-02 0.  1.
    10030    2    1    2    0    0  0.00000000000E+00  0.00000000000E+00 -0.32359734462E+03  0.25663653666E+04  0.25458821562E+04 0.  0.
        5    1    3    3  502    0  0.12247976402E+04  0.34661343190E+03 -0.17118853154E+03  0.12843666665E+04  0.46999998093E+01 0.  1.
       -5    1    3    3    0  502 -0.12247976402E+04 -0.34661343190E+03 -0.15240881308E+03  0.12819987001E+04  0.46999998093E+01 0. -1.
</event>
<event>
 5   0  0.2641216E-05  0.2703561E+04  0.7818609E-02  0.8333851E-01
        2   -1    0    0  501    0  0.00000000000E+00  0.00000000000E+00  0.21891098295E+04  0.21891098295E+04  0.25500000920E-02 0. -1.
       -2   -1    0    0    0  501  0.00000000000E+00  0.00000000000E+00 -0.83472741293E+03  0.83472741293E+03  0.25500000920E-02 0.  1.
    10030    2    1    2    0    0  0.00000000000E+00  0.00000000000E+00  0.13543824166E+04  0.30238372425E+04  0.27035606038E+04 0.  0.
        5    1    3    3  502    0  0.35950523349E+03 -0.43092829094E+03  0.20526503535E+04  0.21279893723E+04  0.46999998093E+01 0. -1.
       -5    1    3    3    0  502 -0.35950523349E+03  0.43092829094E+03 -0.69826793689E+03  0.89584787019E+03  0.46999998093E+01 0.  1.
</event>
<event>
 5   0  0.1005265E-05  0.2710597E+04  0.7818609E-02  0.8331575E-01
       -1   -1    0    0    0  501  0.00000000000E+00  0.00000000000E+00  0.86248064563E+03  0.86248064564E+03  0.50400001928E-02 0.  1.
        1   -1    0    0  501    0  0.00000000000E+00  0.00000000000E+00 -0.21297109726E+04  0.21297109726E+04  0.50400001928E-02 0. -1.
    10030    2    1    2    0    0  0.00000000000E+00  0.00000000000E+00 -0.12672303270E+04  0.29921916182E+04  0.27105973472E+04 0.  0.
        3    1    3    3  502    0  0.42470677691E+03  0.45539567992E+03  0.69521533497E+03  0.93331958290E+03  0.10100000352E+00 0.  1.
       -3    1    3    3    0  502 -0.42470677691E+03 -0.45539567992E+03 -0.19624456619E+04  0.20588720353E+04  0.10100000352E+00 0. -1.
</event>
<event>
 5   0  0.2540684E-05  0.2701176E+04  0.7818609E-02  0.8334623E-01
        2   -1    0    0  501    0  0.00000000000E+00  0.00000000000E+00  0.27299987269E+04  0.27299987269E+04  0.25500000920E-02 0.  1.
       -2   -1    0    0    0  501  0.00000000000E+00  0.00000000000E+00 -0.66816442997E+03  0.66816442997E+03  0.25500000920E-02 0. -1.
    10030    2    1    2    0    0  0.00000000000E+00  0.00000000000E+00  0.20618342970E+04  0.33981631569E+04  0.27011760722E+04 0.  0.
        2    1    3    3  502    0  0.11323891101E+03  0.10792573427E+04  0.20424151851E+04  0.23128076554E+04  0.25500000920E-02 0.  1.
       -2    1    3    3    0  502 -0.11323891101E+03 -0.10792573427E+04  0.19419111899E+02  0.10853555015E+04  0.25500000920E-02 0. -1.
</event>
<event>
 5   0  0.1036691E-05  0.2688909E+04  0.7818609E-02  0.8338612E-01
       -1   -1    0    0    0  501  0.00000000000E+00  0.00000000000E+00  0.91582371505E+03  0.91582371506E+03  0.50400001928E-02 0.  1.
        1   -1    0    0  501    0  0.00000000000E+00  0.00000000000E+00 -0.19736967645E+04  0.19736967645E+04  0.50400001928E-02 0. -1.
    10030    2    1    2    0    0  0.00000000000E+00  0.00000000000E+00 -0.10578730494E+04  0.28895204795E+04  0.26889092980E+04 0.  0.
        4    1    3    3  502    0 -0.10506872090E+04  0.18494149544E+03  0.35027957455E+03  0.11228732614E+04  0.12699999809E+01 0.  1.
       -4    1    3    3    0  502  0.10506872090E+04 -0.18494149544E+03 -0.14081526240E+04  0.17666472181E+04  0.12699999809E+01 0. -1.
</event>
<event>
 5   0  0.1041909E-05  0.1993672E+04  0.7818609E-02  0.8609585E-01
       -1   -1    0    0    0  501  0.00000000000E+00  0.00000000000E+00  0.93295157242E+03  0.93295157244E+03  0.50400001928E-02 0.  1.
        1   -1    0    0  501    0  0.00000000000E+00  0.00000000000E+00 -0.10650946499E+04  0.10650946499E+04  0.50400001928E-02 0. -1.
    10030    2    1    2    0    0  0.00000000000E+00  0.00000000000E+00 -0.13214307745E+03  0.19980462223E+04  0.19936717166E+04 0.  0.
        5    1    3    3  502    0 -0.94004552476E+03 -0.30282415419E+03  0.69397469648E+02  0.99006371299E+03  0.46999998093E+01 0. -1.
       -5    1    3    3    0  502  0.94004552476E+03  0.30282415419E+03 -0.20154054710E+03  0.10079825093E+04  0.46999998093E+01 0.  1.
</event>
<event>
 5   0  0.1096672E-05  0.2694755E+04  0.7818609E-02  0.8336709E-01
       -1   -1    0    0    0  501  0.00000000000E+00  0.00000000000E+00  0.11942273041E+04  0.11942273041E+04  0.50400001928E-02 0.  1.
        1   -1    0    0  501    0  0.00000000000E+00  0.00000000000E+00 -0.15201677341E+04  0.15201677341E+04  0.50400001928E-02 0. -1.
    10030    2    1    2    0    0  0.00000000000E+00  0.00000000000E+00 -0.32594043005E+03  0.27143950382E+04  0.26947547680E+04 0.  0.
        1    1    3    3  502    0 -0.60527139022E+03 -0.26282674352E+03  0.10203232758E+04  0.12151094355E+04  0.50400001928E-02 0.  1.
       -1    1    3    3    0  502  0.60527139022E+03  0.26282674352E+03 -0.13462637059E+04  0.14992856028E+04  0.50400001928E-02 0. -1.
</event>
<event>
 5   0  0.9971923E-06  0.2621123E+04  0.7818609E-02  0.8361061E-01
       -1   -1    0    0    0  501  0.00000000000E+00  0.00000000000E+00  0.12434339644E+04  0.12434339644E+04  0.50400001928E-02 0.  1.
        1   -1    0    0  501    0  0.00000000000E+00  0.00000000000E+00 -0.13813131123E+04  0.13813131123E+04  0.50400001928E-02 0. -1.
    10030    2    1    2    0    0  0.00000000000E+00  0.00000000000E+00 -0.13787914795E+03  0.26247470767E+04  0.26211231480E+04 0.  0.
        2    1    3    3  502    0 -0.52806925297E+03  0.68252694775E+03  0.91876659991E+03  0.12604888875E+04  0.25500000920E-02 0.  1.
       -2    1    3    3    0  502  0.52806925297E+03 -0.68252694775E+03 -0.10566457479E+04  0.13642581892E+04  0.25500000920E-02 0. -1.
</event>
<event>
 5   0  0.2615843E-05  0.2758413E+04  0.7818609E-02  0.8316297E-01
        2   -1    0    0  501    0  0.00000000000E+00  0.00000000000E+00  0.25609328819E+04  0.25609328819E+04  0.25500000920E-02 0.  1.
       -2   -1    0    0    0  501  0.00000000000E+00  0.00000000000E+00 -0.74278043764E+03  0.74278043765E+03  0.25500000920E-02 0. -1.
    10030    2    1    2    0    0  0.00000000000E+00  0.00000000000E+00  0.18181524443E+04  0.33037133196E+04  0.27584132010E+04 0.  0.
        3    1    3    3  502    0  0.31078344219E+03  0.88643183854E+03 -0.30044632260E+03  0.98621283467E+03  0.10100000352E+00 0. -1.
       -3    1    3    3    0  502 -0.31078344219E+03 -0.88643183854E+03  0.21185987669E+04  0.23175004849E+04  0.10100000352E+00 0.  1.
</event>
<event>
 5   0  0.2540232E-05  0.2711073E+04  0.7818609E-02  0.8331421E-01
       -2   -1    0    0    0  501  0.00000000000E+00  0.00000000000E+00  0.96838215093E+03  0.96838215093E+03  0.25500000920E-02 0. -1.
        2   -1    0    0  501    0  0.00000000000E+00  0.00000000000E+00 -0.18974735761E+04  0.18974735761E+04  0.25500000920E-02 0.  1.
    10030    2    1    2    0    0  0.00000000000E+00  0.00000000000E+00 -0.92909142517E+03  0.28658557270E+04  0.27110732509E+04 0.  0.
        1    1    3    3  502    0  0.88648837993E+03  0.44570514723E+03  0.51174381376E+03  0.11164212722E+04  0.50400001928E-02 0. -1.
       -1    1    3    3    0  502 -0.88648837993E+03 -0.44570514723E+03 -0.14408352389E+04  0.17494344549E+04  0.50400001928E-02 0.  1.
</event>
<event>
 5   0  0.9971923E-06  0.1731697E+04  0.7818609E-02  0.8743490E-01
       -1   -1    0    0    0  501  0.00000000000E+00  0.00000000000E+00  0.43126663920E+03  0.43126663923E+03  0.50400001928E-02 0.  1.
        1   -1    0    0  501    0  0.00000000000E+00  0.00000000000E+00 -0.17383527739E+04  0.17383527739E+04  0.50400001928E-02 0. -1.
    10030    2    1    2    0    0  0.00000000000E+00  0.00000000000E+00 -0.13070861347E+04  0.21696194131E+04  0.17316969233E+04 0.  0.
        2    1    3    3  502    0  0.61449157105E+03 -0.39020488177E+03 -0.12409768572E+04  0.14387089007E+04  0.25500000920E-02 0. -1.
       -2    1    3    3    0  502 -0.61449157105E+03  0.39020488177E+03 -0.66109277449E+02  0.73091051246E+03  0.25500000920E-02 0.  1.
</event>
<event>
 5   0  0.1036691E-05  0.2701022E+04  0.7818609E-02  0.8334674E-01
       -1   -1    0    0    0  501  0.00000000000E+00  0.00000000000E+00  0.92899914590E+03  0.92899914591E+03  0.50400001928E-02 0.  1.
        1   -1    0    0  501    0  0.00000000000E+00  0.00000000000E+00 -0.19632734816E+04  0.19632734816E+04  0.50400001928E-02 0. -1.
    10030    2    1    2    0    0  0.00000000000E+00  0.00000000000E+00 -0.10342743357E+04  0.28922726276E+04  0.27010215754E+04 0.  0.
        4    1    3    3  502    0  0.37201428311E+03  0.65491889365E+02 -0.19055546862E+04  0.19426332874E+04  0.12699999809E+01 0. -1.
       -4    1    3    3    0  502 -0.37201428311E+03 -0.65491889365E+02  0.87128035044E+03  0.94963934016E+03  0.12699999809E+01 0.  1.
</event>
<event>
 5   0  0.1005265E-05  0.1735384E+04  0.7818609E-02  0.8741437E-01
       -1   -1    0    0    0  501  0.00000000000E+00  0.00000000000E+00  0.10098724508E+04  0.10098724509E+04  0.50400001928E-02 0. -1.
        1   -1    0    0  501    0  0.00000000000E+00  0.00000000000E+00 -0.74552887406E+03  0.74552887408E+03  0.50400001928E-02 0.  1.
    10030    2    1    2    0    0  0.00000000000E+00  0.00000000000E+00  0.26434357678E+03  0.17554013249E+04  0.17353836132E+04 0.  0.
        3    1    3    3  502    0  0.77591171604E+02  0.28569158452E+03  0.95720805867E+03  0.10019417893E+04  0.10100000352E+00 0. -1.
       -3    1    3    3    0  502 -0.77591171604E+02 -0.28569158452E+03 -0.69286448188E+03  0.75345953563E+03  0.10100000352E+00 0.  1.
</event>
<event>
 5   0  0.1036691E-05  0.2693895E+04  0.7818609E-02  0.8336988E-01
        1   -1    0    0  501    0  0.00000000000E+00  0.00000000000E+00  0.26877335465E+04  0.26877335465E+04  0.50400001928E-02 0. -1.
       -1   -1    0    0    0  501  0.00000000000E+00  0.00000000000E+00 -0.67501774357E+03  0.67501774358E+03  0.50400001928E-02 0.  1.
    10030    2    1    2    0    0  0.00000000000E+00  0.00000000000E+00  0.20127158029E+04  0.33627512901E+04  0.26938951976E+04 0.  0.
        4    1    3    3  502    0 -0.45791280117E+03  0.16945558143E+03  0.25733752976E+04  0.26192864224E+04  0.12699999809E+01 0. -1.
       -4    1    3    3    0  502  0.45791280117E+03 -0.16945558143E+03 -0.56065949468E+03  0.74346486764E+03  0.12699999809E+01 0.  1.
</event>
<event>
 5   0  0.2540684E-05  0.2670552E+04  0.7818609E-02  0.8344623E-01
        2   -1    0    0  501    0  0.00000000000E+00  0.00000000000E+00  0.20432501557E+04  0.20432501557E+04  0.25500000920E-02 0. -1.
       -2   -1    0    0    0  501  0.00000000000E+00  0.00000000000E+00 -0.87261098310E+03  0.87261098310E+03  0.25500000920E-02 0.  1.
    10030    2    1    2    0    0  0.00000000000E+00  0.00000000000E+00  0.11706391726E+04  0.29158611388E+04  0.26705523976E+04 0.  0.
        2    1    3    3  502    0 -0.80662170196E+03  0.10377913082E+04  0.32852849100E+03  0.13548359085E+04  0.25500000920E-02 0. -1.
       -2    1    3    3    0  502  0.80662170196E+03 -0.10377913082E+04  0.84211068155E+03  0.15610252303E+04  0.25500000920E-02 0.  1.
</event>
<event>
 5   0  0.2540232E-05  0.2767813E+04  0.7818609E-02  0.8313331E-01
       -2   -1    0    0    0  501  0.00000000000E+00  0.00000000000E+00  0.13054001131E+04  0.13054001131E+04  0.25500000920E-02 0.  1.
        2   -1    0    0  501    0  0.00000000000E+00  0.00000000000E+00 -0.14671338729E+04  0.14671338729E+04  0.25500000920E-02 0. -1.
    10030    2    1    2    0    0  0.00000000000E+00  0.00000000000E+00 -0.16173375982E+03  0.27725339860E+04  0.27678126552E+04 0.  0.
        1    1    3    3  502    0 -0.12146615447E+04  0.64161103506E+03 -0.24887099539E+03  0.13960673913E+04  0.50400001928E-02 0. -1.
       -1    1    3    3    0  502  0.12146615447E+04 -0.64161103506E+03  0.87137235564E+02  0.13764665947E+04  0.50400001928E-02 0.  1.
</event>
<event>
 5   0  0.1096672E-05  0.2625086E+04  0.7818609E-02  0.8359730E-01
        1   -1    0    0  501    0  0.00000000000E+00  0.00000000000E+00  0.14110568230E+04  0.14110568230E+04  0.50400001928E-02 0.  1.
       -1   -1    0    0    0  501  0.00000000000E+00  0.00000000000E+00 -0.12209068733E+04  0.12209068733E+04  0.50400001928E-02 0. -1.
    10030    2    1    2    0    0  0.00000000000E+00  0.00000000000E+00  0.19014994964E+03  0.26319636963E+04  0.26250858834E+04 0.  0.
        1    1    3    3  502    0 -0.14423035130E+03 -0.11652787945E+04  0.68320534926E+03  0.13584721611E+04  0.50400001928E-02 0.  1.
       -1    1    3    3    0  502  0.14423035130E+03  0.11652787945E+04 -0.49305539962E+03  0.12734915352E+04  0.50400001928E-02 0. -1.
</event>
<event>
 5   0  0.2540684E-05  0.2693044E+04  0.7818609E-02  0.8337265E-01
        2   -1    0    0  501    0  0.00000000000E+00  0.00000000000E+00  0.16797110642E+04  0.16797110642E+04  0.25500000920E-02 0. -1.
       -2   -1    0    0    0  501  0.00000000000E+00  0.00000000000E+00 -0.10794245865E+04  0.10794245865E+04  0.25500000920E-02 0.  1.
    10030    2    1    2    0    0  0.00000000000E+00  0.00000000000E+00  0.60028647776E+03  0.27591356507E+04  0.26930439438E+04 0.  0.
        2    1    3    3  502    0  0.69207521956E+03  0.11317008830E+04  0.63373411464E+02  0.13280554158E+04  0.25500000920E-02 0.  1.
       -2    1    3    3    0  502 -0.69207521956E+03 -0.11317008830E+04  0.53691306630E+03  0.14310802349E+04  0.25500000920E-02 0. -1.
</event>
<event>
 5   0  0.1005265E-05  0.2769291E+04  0.7818609E-02  0.8312866E-01
        1   -1    0    0  501    0  0.00000000000E+00  0.00000000000E+00  0.14159495531E+04  0.14159495531E+04  0.50400001928E-02 0.  1.
       -1   -1    0    0    0  501  0.00000000000E+00  0.00000000000E+00 -0.13540338191E+04  0.13540338191E+04  0.50400001928E-02 0. -1.
    10030    2    1    2    0    0  0.00000000000E+00  0.00000000000E+00  0.61915733989E+02  0.27699833722E+04  0.27692913036E+04 0.  0.
        3    1    3    3  502    0 -0.10549751791E+04  0.86160596683E+03  0.27982941175E+03  0.13905545586E+04  0.10100000352E+00 0.  1.
       -3    1    3    3    0  502  0.10549751791E+04 -0.86160596683E+03 -0.21791367776E+03  0.13794288136E+04  0.10100000352E+00 0. -1.
</event>
<event>
 5   0  0.2540232E-05  0.2749898E+04  0.7818609E-02  0.8318994E-01
       -2   -1    0    0    0  501  0.00000000000E+00  0.00000000000E+00  0.12110060719E+04  0.12110060719E+04  0.25500000920E-02 0. -1.
        2   -1    0    0  501    0  0.00000000000E+00  0.00000000000E+00 -0.15610863753E+04  0.15610863753E+04  0.25500000920E-02 0.  1.
    10030    2    1    2    0    0  0.00000000000E+00  0.00000000000E+00 -0.35008030346E+03  0.27720924472E+04  0.27498982375E+04 0.  0.
        1    1    3    3  502    0 -0.92885902300E+02 -0.12782741597E+04  0.32684601568E+03  0.13226643324E+04  0.50400001928E-02 0. -1.
       -1    1    3    3    0  502  0.92885902300E+02  0.12782741597E+04 -0.67692631915E+03  0.14494281148E+04  0.50400001928E-02 0.  1.
</event>
<event>
 5   0  0.1005265E-05  0.2713229E+04  0.7818609E-02  0.8330725E-01
       -1   -1    0    0    0  501  0.00000000000E+00  0.00000000000E+00  0.13319191187E+04  0.13319191187E+04  0.50400001928E-02 0. -1.
        1   -1    0    0  501    0  0.00000000000E+00  0.00000000000E+00 -0.13817675740E+04  0.13817675740E+04  0.50400001928E-02 0.  1.
    10030    2    1    2    0    0  0.00000000000E+00  0.00000000000E+00 -0.49848455236E+02  0.27136866927E+04  0.27132288141E+04 0.  0.
        3    1    3    3  502    0  0.41821378721E+03  0.12323876493E+04  0.35818159838E+03  0.13498059703E+04  0.10100000352E+00 0. -1.
       -3    1    3    3    0  502 -0.41821378721E+03 -0.12323876493E+04 -0.40803005362E+03  0.13638807224E+04  0.10100000352E+00 0.  1.
</event>
<event>
 5   0  0.2641216E-05  0.2755677E+04  0.7818609E-02  0.8317162E-01
       -2   -1    0    0    0  501  0.00000000000E+00  0.00000000000E+00  0.93761579402E+03  0.93761579402E+03  0.25500000920E-02 0.  1.
        2   -1    0    0  501    0  0.00000000000E+00  0.00000000000E+00 -0.20247515199E+04  0.20247515199E+04  0.25500000920E-02 0. -1.
    10030    2    1    2    0    0  0.00000000000E+00  0.00000000000E+00 -0.10871357259E+04  0.29623673139E+04  0.27556770522E+04 0.  0.
        5    1    3    3  502    0  0.30242447815E+03  0.11994210477E+04 -0.11960043962E+04  0.17206161746E+04  0.46999998093E+01 0. -1.
       -5    1    3    3    0  502 -0.30242447815E+03 -0.11994210477E+04  0.10886867035E+03  0.12417511393E+04  0.46999998093E+01 0.  1.
</event>
<event>
 5   0  0.2540232E-05  0.2694785E+04  0.7818609E-02  0.8336699E-01
       -2   -1    0    0    0  501  0.00000000000E+00  0.00000000000E+00  0.11290065898E+04  0.11290065898E+04  0.25500000920E-02 0.  1.
        2   -1    0    0  501    0  0.00000000000E+00  0.00000000000E+00 -0.16080211347E+04  0.16080211347E+04  0.25500000920E-02 0. -1.
    10030    2    1    2    0    0  0.00000000000E+00  0.00000000000E+00 -0.47901454490E+03  0.27370277245E+04  0.26947849321E+04 0.  0.
        1    1    3    3  502    0 -0.37506406858E+03 -0.12695413232E+04 -0.49455765331E+03  0.14131509118E+04  0.50400001928E-02 0.  1.
       -1    1    3    3    0  502  0.37506406858E+03  0.12695413232E+04  0.15543108405E+02  0.13238768127E+04  0.50400001928E-02 0. -1.
</event>
<event>
 5   0  0.9971923E-06  0.2709244E+04  0.7818609E-02  0.8332012E-01
       -1   -1    0    0    0  501  0.00000000000E+00  0.00000000000E+00  0.12341089967E+04  0.12341089967E+04  0.50400001928E-02 0.  1.
        1   -1    0    0  501    0  0.00000000000E+00  0.00000000000E+00 -0.14869036051E+04  0.14869036051E+04  0.50400001928E-02 0. -1.
    10030    2    1    2    0    0  0.00000000000E+00  0.00000000000E+00 -0.25279460840E+03  0.27210126019E+04  0.27092442609E+04 0.  0.
        2    1    3    3  502    0 -0.12984661464E+04  0.38453748974E+03 -0.15997457436E+03  0.13636257840E+04  0.25500000920E-02 0.  1.
       -2    1    3    3    0  502  0.12984661464E+04 -0.38453748974E+03 -0.92820034040E+02  0.13573868178E+04  0.25500000920E-02 0. -1.
</event>
<event>
 5   0  0.2540684E-05  0.2717938E+04  0.7818609E-02  0.8329208E-01
       -2   -1    0    0    0  501  0.00000000000E+00  0.00000000000E+00  0.12034762097E+04  0.12034762097E+04  0.25500000920E-02 0. -1.
        2   -1    0    0  501    0  0.00000000000E+00  0.00000000000E+00 -0.15345516642E+04  0.15345516642E+04  0.25500000920E-02 0.  1.
    10030    2    1    2    0    0  0.00000000000E+00  0.00000000000E+00 -0.33107545447E+03  0.27380278739E+04  0.27179377627E+04 0.  0.
        2    1    3    3  502    0  0.39141461023E+02  0.74817953305E+03  0.97663820545E+03  0.12309048915E+04  0.25500000920E-02 0. -1.
       -2    1    3    3    0  502 -0.39141461023E+02 -0.74817953305E+03 -0.13077136599E+04  0.15071229824E+04  0.25500000920E-02 0.  1.
</event>
<event>
 5   0  0.2540232E-05  0.2705020E+04  0.7818609E-02  0.8333378E-01
       -2   -1    0    0    0  501  0.00000000000E+00  0.00000000000E+00  0.12725963202E+04  0.12725963202E+04  0.25500000920E-02 0.  1.
        2   -1    0    0  501    0  0.00000000000E+00  0.00000000000E+00 -0.14374416189E+04  0.14374416189E+04  0.25500000920E-02 0. -1.
    10030    2    1    2    0    0  0.00000000000E+00  0.00000000000E+00 -0.16484529873E+03  0.27100379391E+04  0.27050197151E+04 0.  0.
        1    1    3    3  502    0 -0.77951204426E+03 -0.75102532346E+03 -0.89485543356E+03  0.14044373644E+04  0.50400001928E-02 0. -1.
       -1    1    3    3    0  502  0.77951204426E+03  0.75102532346E+03  0.73001013483E+03  0.13056005747E+04  0.50400001928E-02 0.  1.
</event>
<event>
 5   0  0.9971923E-06  0.2658899E+04  0.7818609E-02  0.8348465E-01
        1   -1    0    0  501    0  0.00000000000E+00  0.00000000000E+00  0.13278212362E+04  0.13278212362E+04  0.50400001928E-02 0.  1.
       -1   -1    0    0    0  501  0.00000000000E+00  0.00000000000E+00 -0.13310797650E+04  0.13310797651E+04  0.50400001928E-02 0. -1.
    10030    2    1    2    0    0  0.00000000000E+00  0.00000000000E+00 -0.32585288308E+01  0.26589010013E+04  0.26588990046E+04 0.  0.
        2    1    3    3  502    0  0.64707192315E+03 -0.66152209252E+03 -0.95615731268E+03  0.13306202911E+04  0.25500000920E-02 0. -1.
       -2    1    3    3    0  502 -0.64707192315E+03  0.66152209252E+03  0.95289878385E+03  0.13282807101E+04  0.25500000920E-02 0.  1.
</event>
<event>
 5   0  0.1036691E-05  0.1933625E+04  0.7818609E-02  0.8638298E-01
        1   -1    0    0  501    0  0.00000000000E+00  0.00000000000E+00  0.10525959927E+04  0.10525959927E+04  0.50400001928E-02 0. -1.
       -1   -1    0    0    0  501  0.00000000000E+00  0.00000000000E+00 -0.88802023577E+03  0.88802023579E+03  0.50400001928E-02 0.  1.
    10030    2    1    2    0    0  0.00000000000E+00  0.00000000000E+00  0.16457575689E+03  0.19406162285E+04  0.19336251360E+04 0.  0.
        4    1    3    3  502    0  0.40413916780E+03  0.28829135787E+03 -0.75034084319E+03  0.89969626421E+03  0.12699999809E+01 0.  1.
       -4    1    3    3    0  502 -0.40413916780E+03 -0.28829135787E+03  0.91491660008E+03  0.10409199643E+04  0.12699999809E+01 0. -1.
</event>
<event>
 5   0  0.2641216E-05  0.2116068E+04  0.7818609E-02  0.8554198E-01
       -2   -1    0    0    0  501  0.00000000000E+00  0.00000000000E+00  0.16461096343E+04  0.16461096343E+04  0.25500000920E-02 0.  1.
        2   -1    0    0  501    0  0.00000000000E+00  0.00000000000E+00 -0.68004915495E+03  0.68004915496E+03  0.25500000920E-02 0. -1.
    10030    2    1    2    0    0  0.00000000000E+00  0.00000000000E+00  0.96606047931E+03  0.23261587892E+04  0.21160675469E+04 0.  0.
        5    1    3    3  502    0 -0.10632057204E+03  0.10296295941E+04  0.72380152798E+03  0.12630724077E+04  0.46999998093E+01 0.  1.
       -5    1    3    3    0  502  0.10632057204E+03 -0.10296295941E+04  0.24225895133E+03  0.10630863815E+04  0.46999998093E+01 0. -1.
</event>
<event>
 5   0  0.1005265E-05  0.2668711E+04  0.7818609E-02  0.8345229E-01
       -1   -1    0    0    0  501  0.00000000000E+00  0.00000000000E+00  0.12768546877E+04  0.12768546877E+04  0.50400001928E-02 0.  1.
        1   -1    0    0  501    0  0.00000000000E+00  0.00000000000E+00 -0.13944453731E+04  0.13944453731E+04  0.50400001928E-02 0. -1.
    10030    2    1    2    0    0  0.00000000000E+00  0.00000000000E+00 -0.11759068543E+03  0.26713000608E+04  0.26687106335E+04 0.  0.
        3    1    3    3  502    0 -0.30888782247E+03 -0.27802352205E+03 -0.13280143583E+04  0.13915210784E+04  0.10100000352E+00 0. -1.
       -3    1    3    3    0  502  0.30888782247E+03  0.27802352205E+03  0.12104236728E+04  0.12797789824E+04  0.10100000352E+00 0.  1.
</event>
<event>
 5   0  0.1005265E-05  0.2366291E+04  0.7818609E-02  0.8452233E-01
       -1   -1    0    0    0  501  0.00000000000E+00  0.00000000000E+00  0.10994125842E+04  0.10994125843E+04  0.50400001928E-02 0.  1.
        1   -1    0    0  501    0  0.00000000000E+00  0.00000000000E+00 -0.12732555231E+04  0.12732555231E+04  0.50400001928E-02 0. -1.
    10030    2    1    2    0    0  0.00000000000E+00  0.00000000000E+00 -0.17384293885E+03  0.23726681074E+04  0.23662908909E+04 0.  0.
        3    1    3    3  502    0 -0.17399580569E+02  0.85171328150E+03 -0.91017919736E+03  0.12466532961E+04  0.10100000352E+00 0. -1.
       -3    1    3    3    0  502  0.17399580569E+02 -0.85171328150E+03  0.73633625851E+03  0.11260148112E+04  0.10100000352E+00 0.  1.
</event>
<event>
 5   0  0.2615843E-05  0.2894070E+04  0.7818609E-02  0.8274644E-01
        2   -1    0    0  501    0  0.00000000000E+00  0.00000000000E+00  0.13744896162E+04  0.13744896162E+04  0.25500000920E-02 0.  1.
       -2   -1    0    0    0  501  0.00000000000E+00  0.00000000000E+00 -0.15234094671E+04  0.15234094671E+04  0.25500000920E-02 0. -1.
    10030    2    1    2    0    0  0.00000000000E+00  0.00000000000E+00 -0.14891985095E+03  0.28978990833E+04  0.28940701399E+04 0.  0.
        3    1    3    3  502    0  0.87570073366E+03 -0.85952083636E+03  0.69355068777E+03  0.14094823198E+04  0.10100000352E+00 0.  1.
       -3    1    3    3    0  502 -0.87570073366E+03  0.85952083636E+03 -0.84247053872E+03  0.14884167635E+04  0.10100000352E+00 0. -1.
</event>
<event>
 5   0  0.2641216E-05  0.2783755E+04  0.7818609E-02  0.8308330E-01
       -2   -1    0    0    0  501  0.00000000000E+00  0.00000000000E+00  0.17883640656E+04  0.17883640656E+04  0.25500000920E-02 0.  1.
        2   -1    0    0  501    0  0.00000000000E+00  0.00000000000E+00 -0.10832933351E+04  0.10832933351E+04  0.25500000920E-02 0. -1.
    10030    2    1    2    0    0  0.00000000000E+00  0.00000000000E+00  0.70507073058E+03  0.28716574007E+04  0.27837549267E+04 0.  0.
        5    1    3    3  502    0  0.28597845379E+03  0.55916266257E+03 -0.92880372036E+03  0.11212247768E+04  0.46999998093E+01 0. -1.
       -5    1    3    3    0  502 -0.28597845379E+03 -0.55916266257E+03  0.16338744509E+04  0.17504326239E+04  0.46999998093E+01 0.  1.
</event>
<event>
 5   0  0.1041909E-05  0.2314191E+04  0.7818609E-02  0.8472347E-01
        1   -1    0    0  501    0  0.00000000000E+00  0.00000000000E+00  0.14554846260E+04  0.14554846260E+04  0.50400001928E-02 0.  1.
       -1   -1    0    0    0  501  0.00000000000E+00  0.00000000000E+00 -0.91987889483E+03  0.91987889484E+03  0.50400001928E-02 0. -1.
    10030    2    1    2    0    0  0.00000000000E+00  0.00000000000E+00  0.53560573116E+03  0.23753635208E+04  0.23141906483E+04 0.  0.
        5    1    3    3  502    0  0.10772896188E+03  0.50268242002E+03  0.13318104860E+04  0.14275981246E+04  0.46999998093E+01 0.  1.
       -5    1    3    3    0  502 -0.10772896188E+03 -0.50268242002E+03 -0.79620475488E+03  0.94776539624E+03  0.46999998093E+01 0. -1.
</event>
<event>
 5   0  0.9971923E-06  0.2657640E+04  0.7818609E-02  0.8348882E-01
        1   -1    0    0  501    0  0.00000000000E+00  0.00000000000E+00  0.25684626423E+04  0.25684626423E+04  0.50400001928E-02 0. -1.
       -1   -1    0    0    0  501  0.00000000000E+00  0.00000000000E+00 -0.68747849452E+03  0.68747849454E+03  0.50400001928E-02 0.  1.
    10030    2    1    2    0    0  0.00000000000E+00  0.00000000000E+00  0.18809841478E+04  0.32559411369E+04  0.26576401793E+04 0.  0.
        2    1    3    3  502    0  0.70898178626E+03 -0.10796771469E+04  0.55813352801E+03  0.14070788713E+04  0.25500000920E-02 0.  1.
       -2    1    3    3    0  502 -0.70898178626E+03  0.10796771469E+04  0.13228506198E+04  0.18488622656E+04  0.25500000920E-02 0. -1.
</event>
<event>
 5   0  0.2516518E-05  0.2696253E+04  0.7818609E-02  0.8336222E-01
        2   -1    0    0  501    0  0.00000000000E+00  0.00000000000E+00  0.10050862497E+04  0.10050862497E+04  0.25500000920E-02 0. -1.
       -2   -1    0    0    0  501  0.00000000000E+00  0.00000000000E+00 -0.18082473372E+04  0.18082473372E+04  0.25500000920E-02 0.  1.
    10030    2    1    2    0    0  0.00000000000E+00  0.00000000000E+00 -0.80316108756E+03  0.28133335869E+04  0.26962526103E+04 0.  0.
        4    1    3    3  502    0  0.59464543896E+03 -0.10527448452E+04  0.22060797922E+03  0.12290420663E+04  0.12699999809E+01 0. -1.
       -4    1    3    3    0  502 -0.59464543896E+03  0.10527448452E+04 -0.10237690668E+04  0.15842915206E+04  0.12699999809E+01 0.  1.
</event>
<event>
 5   0  0.2641216E-05  0.2659201E+04  0.7818609E-02  0.8348365E-01
       -2   -1    0    0    0  501  0.00000000000E+00  0.00000000000E+00  0.16875275911E+04  0.16875275911E+04  0.25500000920E-02 0.  1.
        2   -1    0    0  501    0  0.00000000000E+00  0.00000000000E+00 -0.10475902989E+04  0.10475902989E+04  0.25500000920E-02 0. -1.
    10030    2    1    2    0    0  0.00000000000E+00  0.00000000000E+00  0.63993729218E+03  0.27351178900E+04  0.26592010331E+04 0.  0.
        5    1    3    3  502    0 -0.23983581713E+03 -0.11031486194E+04 -0.40247783456E+03  0.11985276772E+04  0.46999998093E+01 0. -1.
       -5    1    3    3    0  502  0.23983581713E+03  0.11031486194E+04  0.10424151267E+04  0.15365902128E+04  0.46999998093E+01 0.  1.
</event>
<event>
 5   0  0.1096672E-05  0.2756344E+04  0.7818609E-02  0.8316951E-01
        1   -1    0    0  501    0  0.00000000000E+00  0.00000000000E+00  0.10593103523E+04  0.10593103523E+04  0.50400001928E-02 0. -1.
       -1   -1    0    0    0  501  0.00000000000E+00  0.00000000000E+00 -0.17930140813E+04  0.17930140814E+04  0.50400001928E-02 0.  1.
    10030    2    1    2    0    0  0.00000000000E+00  0.00000000000E+00 -0.73370372910E+03  0.28523244336E+04  0.27563442297E+04 0.  0.
        1    1    3    3  502    0  0.73362185651E+03 -0.11634856821E+04 -0.45622125702E+03  0.14491507155E+04  0.50400001928E-02 0.  1.
       -1    1    3    3    0  502 -0.73362185651E+03  0.11634856821E+04 -0.27748247208E+03  0.14031737181E+04  0.50400001928E-02 0. -1.
</event>
<event>
 5   0  0.2540684E-05  0.2686665E+04  0.7818609E-02  0.8339345E-01
       -2   -1    0    0    0  501  0.00000000000E+00  0.00000000000E+00  0.86042338150E+03  0.86042338150E+03  0.25500000920E-02 0. -1.
        2   -1    0    0  501    0  0.00000000000E+00  0.00000000000E+00 -0.20972728003E+04  0.20972728003E+04  0.25500000920E-02 0.  1.
    10030    2    1    2    0    0  0.00000000000E+00  0.00000000000E+00 -0.12368494188E+04  0.29576961818E+04  0.26866652600E+04 0.  0.
        2    1    3    3  502    0  0.54673488763E+01  0.43023898875E+03  0.78251039278E+03  0.89300503590E+03  0.25500000920E-02 0. -1.
       -2    1    3    3    0  502 -0.54673488763E+01 -0.43023898875E+03 -0.20193598116E+04  0.20646911459E+04  0.25500000920E-02 0.  1.
</event>
<event>
 5   0  0.9971923E-06  0.2745252E+04  0.7818609E-02  0.8320470E-01
        1   -1    0    0  501    0  0.00000000000E+00  0.00000000000E+00  0.22605278123E+04  0.22605278123E+04  0.50400001928E-02 0. -1.
       -1   -1    0    0    0  501  0.00000000000E+00  0.00000000000E+00 -0.83347876949E+03  0.83347876950E+03  0.50400001928E-02 0.  1.
    10030    2    1    2    0    0  0.00000000000E+00  0.00000000000E+00  0.14270490428E+04  0.30940065818E+04  0.27452518569E+04 0.  0.
        2    1    3    3  502    0 -0.34256420241E+03 -0.75574365449E+03 -0.51882125237E+03  0.97860829549E+03  0.25500000920E-02 0.  1.
       -2    1    3    3    0  502  0.34256420241E+03  0.75574365449E+03  0.19458702952E+04  0.21153982863E+04  0.25500000920E-02 0. -1.
</event>
<event>
 5   0  0.2540232E-05  0.2667496E+04  0.7818609E-02  0.8345629E-01
       -2   -1    0    0    0  501  0.00000000000E+00  0.00000000000E+00  0.11524355067E+04  0.11524355067E+04  0.25500000920E-02 0.  1.
        2   -1    0    0  501    0  0.00000000000E+00  0.00000000000E+00 -0.15435859323E+04  0.15435859323E+04  0.25500000920E-02 0. -1.
    10030    2    1    2    0    0  0.00000000000E+00  0.00000000000E+00 -0.39115042562E+03  0.26960214389E+04  0.26674956314E+04 0.  0.
        1    1    3    3  502    0 -0.10744730825E+03  0.10924224284E+04 -0.96127273384E+03  0.14591014204E+04  0.50400001928E-02 0. -1.
       -1    1    3    3    0  502  0.10744730825E+03 -0.10924224284E+04  0.57012230822E+03  0.12369200186E+04  0.50400001928E-02 0.  1.
</event>
<event>
 5   0  0.1005265E-05  0.2722266E+04  0.7818609E-02  0.8327817E-01
        1   -1    0    0  501    0  0.00000000000E+00  0.00000000000E+00  0.19247574641E+04  0.19247574641E+04  0.50400001928E-02 0.  1.
       -1   -1    0    0    0  501  0.00000000000E+00  0.00000000000E+00 -0.96255372012E+03  0.96255372013E+03  0.50400001928E-02 0. -1.
    10030    2    1    2    0    0  0.00000000000E+00  0.00000000000E+00  0.96220374402E+03  0.28873111843E+04  0.27222655693E+04 0.  0.
        3    1    3    3  502    0 -0.30209267758E+03 -0.22464605030E+03 -0.90623714769E+03  0.98132136012E+03  0.10100000352E+00 0. -1.
       -3    1    3    3    0  502  0.30209267758E+03  0.22464605030E+03  0.18684408917E+04  0.19059898242E+04  0.10100000352E+00 0.  1.
</event>
<event>
 5   0  0.1005265E-05  0.2682946E+04  0.7818609E-02  0.8340560E-01
       -1   -1    0    0    0  501  0.00000000000E+00  0.00000000000E+00  0.18295617959E+04  0.18295617960E+04  0.50400001928E-02 0.  1.
        1   -1    0    0  501    0  0.00000000000E+00  0.00000000000E+00 -0.98359602198E+03  0.98359602199E+03  0.50400001928E-02 0. -1.
    10030    2    1    2    0    0  0.00000000000E+00  0.00000000000E+00  0.84596577397E+03  0.28131578179E+04  0.26829459215E+04 0.  0.
        3    1    3    3  502    0 -0.10578702324E+04 -0.58790718698E+03  0.10297071731E+04  0.15890315169E+04  0.10100000352E+00 0. -1.
       -3    1    3    3    0  502  0.10578702324E+04  0.58790718698E+03 -0.18374139917E+03  0.12241263011E+04  0.10100000352E+00 0.  1.
</event>
<event>
 5   0  0.2516518E-05  0.2695889E+04  0.7818609E-02  0.8336340E-01
        2   -1    0    0  501    0  0.00000000000E+00  0.00000000000E+00  0.21040910805E+04  0.21040910805E+04  0.25500000920E-02 0. -1.
       -2   -1    0    0    0  501  0.00000000000E+00  0.00000000000E+00 -0.86353434330E+03  0.86353434331E+03  0.25500000920E-02 0.  1.
    10030    2    1    2    0    0  0.00000000000E+00  0.00000000000E+00  0.12405567372E+04  0.29676254238E+04  0.26958893964E+04 0.  0.
        4    1    3    3  502    0  0.48414106831E+03 -0.10516566459E+04  0.13802099146E+04  0.18014869681E+04  0.12699999809E+01 0. -1.
       -4    1    3    3    0  502 -0.48414106831E+03  0.10516566459E+04 -0.13965317742E+03  0.11661384557E+04  0.12699999809E+01 0.  1.
</event>
<event>
 5   0  0.2540232E-05  0.2624839E+04  0.7818609E-02  0.8359813E-01
        2   -1    0    0  501    0  0.00000000000E+00  0.00000000000E+00  0.14788138786E+04  0.14788138786E+04  0.25500000920E-02 0. -1.
       -2   -1    0    0    0  501  0.00000000000E+00  0.00000000000E+00 -0.11647475419E+04  0.11647475419E+04  0.25500000920E-02 0.  1.
    10030    2    1    2    0    0  0.00000000000E+00  0.00000000000E+00  0.31406633675E+03  0.26435614205E+04  0.26248389132E+04 0.  0.
        1    1    3    3  502    0 -0.12577294941E+04  0.37379089059E+03  0.12781382041E+03  0.13183093275E+04  0.50400001928E-02 0.  1.
       -1    1    3    3    0  502  0.12577294941E+04 -0.37379089059E+03  0.18625251634E+03  0.13252520930E+04  0.50400001928E-02 0. -1.
</event>
<event>
 5   0  0.8740500E-06  0.2801975E+04  0.7818609E-02  0.8302655E-01
       -4   -1    0    0    0  501  0.00000000000E+00  0.00000000000E+00  0.15032305239E+04  0.15032310604E+04  0.12699999809E+01 0.  1.
        4   -1    0    0  501    0  0.00000000000E+00  0.00000000000E+00 -0.13056975844E+04  0.13056982020E+04  0.12699999809E+01 0. -1.
    10030    2    1    2    0    0  0.00000000000E+00  0.00000000000E+00  0.19753293957E+03  0.28089292624E+04  0.28019750782E+04 0.  0.
        1    1    3    3  502    0 -0.44425693269E+03 -0.12621497379E+04 -0.31745056274E+03  0.13751949109E+04  0.50400001928E-02 0. -1.
       -1    1    3    3    0  502  0.44425693269E+03  0.12621497379E+04  0.51498350231E+03  0.14337343515E+04  0.50400001928E-02 0.  1.
</event>
<event>
 5   0  0.1036691E-05  0.2912178E+04  0.7818609E-02  0.8269263E-01
        1   -1    0    0  501    0  0.00000000000E+00  0.00000000000E+00  0.30002216054E+04  0.30002216054E+04  0.50400001928E-02 0.  1.
       -1   -1    0    0    0  501  0.00000000000E+00  0.00000000000E+00 -0.70667953680E+03  0.70667953682E+03  0.50400001928E-02 0. -1.
    10030    2    1    2    0    0  0.00000000000E+00  0.00000000000E+00  0.22935420686E+04  0.37069011422E+04  0.29121780265E+04 0.  0.
        4    1    3    3  502    0 -0.37488137989E+03 -0.38111359161E+03  0.28707870108E+04  0.29201375469E+04  0.12699999809E+01 0.  1.
       -4    1    3    3    0  502  0.37488137989E+03  0.38111359161E+03 -0.57724494220E+03  0.78676359530E+03  0.12699999809E+01 0. -1.
</event>
<event>
 5   0  0.1041909E-05  0.1713809E+04  0.7818609E-02  0.8753528E-01
        1   -1    0    0  501    0  0.00000000000E+00  0.00000000000E+00  0.13356898899E+04  0.13356898899E+04  0.50400001928E-02 0. -1.
       -1   -1    0    0    0  501  0.00000000000E+00  0.00000000000E+00 -0.54974233993E+03  0.54974233995E+03  0.50400001928E-02 0.  1.
    10030    2    1    2    0    0  0.00000000000E+00  0.00000000000E+00  0.78594754996E+03  0.18854322299E+04  0.17138089573E+04 0.  0.
        5    1    3    3  502    0 -0.26028456648E+03  0.63775442467E+03  0.95370543859E+03  0.11764586331E+04  0.46999998093E+01 0. -1.
       -5    1    3    3    0  502  0.26028456648E+03 -0.63775442467E+03 -0.16775788863E+03  0.70897359678E+03  0.46999998093E+01 0.  1.
</event>
<event>
 5   0  0.2540684E-05  0.2637820E+04  0.7818609E-02  0.8355467E-01
        2   -1    0    0  501    0  0.00000000000E+00  0.00000000000E+00  0.10935904265E+04  0.10935904265E+04  0.25500000920E-02 0. -1.
       -2   -1    0    0    0  501  0.00000000000E+00  0.00000000000E+00 -0.15906534116E+04  0.15906534116E+04  0.25500000920E-02 0.  1.
    10030    2    1    2    0    0  0.00000000000E+00  0.00000000000E+00 -0.49706298516E+03  0.26842438381E+04  0.26378198140E+04 0.  0.
        2    1    3    3  502    0  0.78283796560E+03 -0.22840205517E+03 -0.13033656978E+04  0.15374540388E+04  0.25500000920E-02 0.  1.
       -2    1    3    3    0  502 -0.78283796560E+03  0.22840205517E+03  0.80630271269E+03  0.11467897993E+04  0.25500000920E-02 0. -1.
</event>
<event>
 5   0  0.1036691E-05  0.2587634E+04  0.7818609E-02  0.8372414E-01
        1   -1    0    0  501    0  0.00000000000E+00  0.00000000000E+00  0.20831709272E+04  0.20831709273E+04  0.50400001928E-02 0.  1.
       -1   -1    0    0    0  501  0.00000000000E+00  0.00000000000E+00 -0.80356441869E+03  0.80356441871E+03  0.50400001928E-02 0. -1.
    10030    2    1    2    0    0  0.00000000000E+00  0.00000000000E+00  0.12796065086E+04  0.28867353460E+04  0.25876336953E+04 0.  0.
        4    1    3    3  502    0 -0.11753341486E+04 -0.30053061616E+03  0.11414852060E+04  0.16657488108E+04  0.12699999809E+01 0.  1.
       -4    1    3    3    0  502  0.11753341486E+04  0.30053061616E+03  0.13812130253E+03  0.12209865352E+04  0.12699999809E+01 0. -1.
</event>
<event>
 5   0  0.2641216E-05  0.2696792E+04  0.7818609E-02  0.8336047E-01
       -2   -1    0    0    0  501  0.00000000000E+00  0.00000000000E+00  0.15707775989E+04  0.15707775989E+04  0.25500000920E-02 0. -1.
        2   -1    0    0  501    0  0.00000000000E+00  0.00000000000E+00 -0.11574979098E+04  0.11574979098E+04  0.25500000920E-02 0.  1.
    10030    2    1    2    0    0  0.00000000000E+00  0.00000000000E+00  0.41327968908E+03  0.27282755088E+04  0.26967920109E+04 0.  0.
        5    1    3    3  502    0  0.68905002233E+03  0.60737924803E+03  0.12053066140E+04  0.15154159851E+04  0.46999998093E+01 0. -1.
       -5    1    3    3    0  502 -0.68905002233E+03 -0.60737924803E+03 -0.79202692494E+03  0.12128595236E+04  0.46999998093E+01 0.  1.
</event>
<event>
 5   0  0.1041909E-05  0.2789409E+04  0.7818609E-02  0.8306564E-01
       -1   -1    0    0    0  501  0.00000000000E+00  0.00000000000E+00  0.12190688911E+04  0.12190688911E+04  0.50400001928E-02 0. -1.
        1   -1    0    0  501    0  0.00000000000E+00  0.00000000000E+00 -0.15956446979E+04  0.15956446979E+04  0.50400001928E-02 0.  1.
    10030    2    1    2    0    0  0.00000000000E+00  0.00000000000E+00 -0.37657580678E+03  0.28147135890E+04  0.27894091220E+04 0.  0.
        5    1    3    3  502    0  0.69539943773E+03  0.20162810566E+03 -0.13911353297E+04  0.15682837328E+04  0.46999998093E+01 0.  1.
       -5    1    3    3    0  502 -0.69539943773E+03 -0.20162810566E+03  0.10145595229E+04  0.12464298562E+04  0.46999998093E+01 0. -1.
</event>
<event>
 5   0  0.1096672E-05  0.2774095E+04  0.7818609E-02  0.8311356E-01
       -1   -1    0    0    0  501  0.00000000000E+00  0.00000000000E+00  0.11814161751E+04  0.11814161751E+04  0.50400001928E-02 0. -1.
        1   -1    0    0  501    0  0.00000000000E+00  0.00000000000E+00 -0.16284693872E+04  0.16284693873E+04  0.50400001928E-02 0.  1.
    10030    2    1    2    0    0  0.00000000000E+00  0.00000000000E+00 -0.44705321211E+03  0.28098855624E+04  0.27740945008E+04 0.  0.
        1    1    3    3  502    0 -0.49868459034E+03  0.62034192804E+03  0.92708252534E+03  0.12218806968E+04  0.50400001928E-02 0. -1.
       -1    1    3    3    0  502  0.49868459034E+03 -0.62034192804E+03 -0.13741357374E+04  0.15880048656E+04  0.50400001928E-02 0.  1.
</event>
<event>
 5   0  0.2540684E-05  0.2776360E+04  0.7818609E-02  0.8310645E-01
        2   -1    0    0  501    0  0.00000000000E+00  0.00000000000E+00  0.20375423109E+04  0.20375423109E+04  0.25500000920E-02 0. -1.
       -2   -1    0    0    0  501  0.00000000000E+00  0.00000000000E+00 -0.94576902459E+03  0.94576902459E+03  0.25500000920E-02 0.  1.
    10030    2    1    2    0    0  0.00000000000E+00  0.00000000000E+00  0.10917732863E+04  0.29833113355E+04  0.27763604982E+04 0.  0.
        2    1    3    3  502    0 -0.53114141916E+03  0.86948719899E+03 -0.46722039517E+03  0.11208987885E+04  0.25500000920E-02 0.  1.
       -2    1    3    3    0  502  0.53114141916E+03 -0.86948719899E+03  0.15589936815E+04  0.18624125470E+04  0.25500000920E-02 0. -1.
</event>
<event>
 5   0  0.1041909E-05  0.2602284E+04  0.7818609E-02  0.8367426E-01
        1   -1    0    0  501    0  0.00000000000E+00  0.00000000000E+00  0.18610644008E+04  0.18610644008E+04  0.50400001928E-02 0.  1.
       -1   -1    0    0    0  501  0.00000000000E+00  0.00000000000E+00 -0.90967869849E+03  0.90967869851E+03  0.50400001928E-02 0. -1.
    10030    2    1    2    0    0  0.00000000000E+00  0.00000000000E+00  0.95138570233E+03  0.27707430993E+04  0.26022841059E+04 0.  0.
        5    1    3    3  502    0  0.86979263117E+03 -0.53395095642E+03  0.13349714450E+04  0.16804206896E+04  0.46999998093E+01 0.  1.
       -5    1    3    3    0  502 -0.86979263117E+03  0.53395095642E+03 -0.38358574270E+03  0.10903224097E+04  0.46999998093E+01 0. -1.
</event>
<event>
 5   0  0.2540232E-05  0.2633712E+04  0.7818609E-02  0.8356839E-01
        2   -1    0    0  501    0  0.00000000000E+00  0.00000000000E+00  0.14964373497E+04  0.14964373497E+04  0.25500000920E-02 0.  1.
       -2   -1    0    0    0  501  0.00000000000E+00  0.00000000000E+00 -0.11588258472E+04  0.11588258472E+04  0.25500000920E-02 0. -1.
    10030    2    1    2    0    0  0.00000000000E+00  0.00000000000E+00  0.33761150248E+03  0.26552631969E+04  0.26337124213E+04 0.  0.
        1    1    3    3  502    0  0.88255621364E+03  0.61108834691E+03 -0.60017782708E+03  0.12298568462E+04  0.50400001928E-02 0. -1.
       -1    1    3    3    0  502 -0.88255621364E+03 -0.61108834691E+03  0.93778932956E+03  0.14254063507E+04  0.50400001928E-02 0.  1.
</event>
<event>
 5   0  0.1096672E-05  0.2735926E+04  0.7818609E-02  0.8323442E-01
       -1   -1    0    0    0  501  0.00000000000E+00  0.00000000000E+00  0.10647543098E+04  0.10647543098E+04  0.50400001928E-02 0.  1.
        1   -1    0    0  501    0  0.00000000000E+00  0.00000000000E+00 -0.17575154436E+04  0.17575154437E+04  0.50400001928E-02 0. -1.
    10030    2    1    2    0    0  0.00000000000E+00  0.00000000000E+00 -0.69276113382E+03  0.28222697535E+04  0.27359255423E+04 0.  0.
        1    1    3    3  502    0  0.10807043961E+04  0.46800494161E+03  0.37155182763E+03  0.12349094614E+04  0.50400001928E-02 0.  1.
       -1    1    3    3    0  502 -0.10807043961E+04 -0.46800494161E+03 -0.10643129614E+04  0.15873602921E+04  0.50400001928E-02 0. -1.
</event>
<event>
 5   0  0.9971923E-06  0.2675559E+04  0.7818609E-02  0.8342979E-01
       -1   -1    0    0    0  501  0.00000000000E+00  0.00000000000E+00  0.88763941524E+03  0.88763941526E+03  0.50400001928E-02 0.  1.
        1   -1    0    0  501    0  0.00000000000E+00  0.00000000000E+00 -0.20161943818E+04  0.20161943818E+04  0.50400001928E-02 0. -1.
    10030    2    1    2    0    0  0.00000000000E+00  0.00000000000E+00 -0.11285549666E+04  0.29038337971E+04  0.26755587096E+04 0.  0.
        2    1    3    3  502    0 -0.11554278006E+03 -0.12618070728E+04 -0.98542498280E+02  0.12709122105E+04  0.25500000920E-02 0. -1.
       -2    1    3    3    0  502  0.11554278006E+03  0.12618070728E+04 -0.10300124683E+04  0.16329215865E+04  0.25500000920E-02 0.  1.
</event>
<event>
 5   0  0.2516518E-05  0.2752130E+04  0.7818609E-02  0.8318286E-01
       -2   -1    0    0    0  501  0.00000000000E+00  0.00000000000E+00  0.11004668513E+04  0.11004668513E+04  0.25500000920E-02 0. -1.
        2   -1    0    0  501    0  0.00000000000E+00  0.00000000000E+00 -0.17206826808E+04  0.17206826808E+04  0.25500000920E-02 0.  1.
    10030    2    1    2    0    0  0.00000000000E+00  0.00000000000E+00 -0.62021582951E+03  0.28211495321E+04  0.27521295404E+04 0.  0.
        4    1    3    3  502    0  0.78715991655E+03 -0.36523701262E+03 -0.14048487543E+04  0.16512481476E+04  0.12699999809E+01 0.  1.
       -4    1    3    3    0  502 -0.78715991655E+03  0.36523701262E+03  0.78463292483E+03  0.11699013844E+04  0.12699999809E+01 0. -1.
</event>
<event>
 5   0  0.2540684E-05  0.2695676E+04  0.7818609E-02  0.8336409E-01
       -2   -1    0    0    0  501  0.00000000000E+00  0.00000000000E+00  0.12297353630E+04  0.12297353630E+04  0.25500000920E-02 0.  1.
        2   -1    0    0  501    0  0.00000000000E+00  0.00000000000E+00 -0.14772832549E+04  0.14772832549E+04  0.25500000920E-02 0. -1.
    10030    2    1    2    0    0  0.00000000000E+00  0.00000000000E+00 -0.24754789183E+03  0.27070186179E+04  0.26956761376E+04 0.  0.
        2    1    3    3  502    0  0.71834266794E+02  0.33475931837E+03  0.11853383237E+04  0.12337953253E+04  0.25500000920E-02 0.  1.
       -2    1    3    3    0  502 -0.71834266794E+02 -0.33475931837E+03 -0.14328862155E+04  0.14732232926E+04  0.25500000920E-02 0. -1.
</event>
<event>
 5   0  0.2516518E-05  0.2544040E+04  0.7818609E-02  0.8387462E-01
        2   -1    0    0  501    0  0.00000000000E+00  0.00000000000E+00  0.14217536058E+04  0.14217536058E+04  0.25500000920E-02 0.  1.
       -2   -1    0    0    0  501  0.00000000000E+00  0.00000000000E+00 -0.11380560062E+04  0.11380560062E+04  0.25500000920E-02 0. -1.
    10030    2    1    2    0    0  0.00000000000E+00  0.00000000000E+00  0.28369759951E+03  0.25598096120E+04  0.25440402752E+04 0.  0.
        4    1    3    3  502    0  0.25588910980E+03  0.70271932223E+02 -0.11098946336E+04  0.11411770641E+04  0.12699999809E+01 0. -1.
       -4    1    3    3    0  502 -0.25588910980E+03 -0.70271932223E+02  0.13935922331E+04  0.14186325479E+04  0.12699999809E+01 0.  1.
</event>
<event>
 5   0  0.9971923E-06  0.2734072E+04  0.7818609E-02  0.8324034E-01
        1   -1    0    0  501    0  0.00000000000E+00  0.00000000000E+00  0.16846241253E+04  0.16846241253E+04  0.50400001928E-02 0. -1.
       -1   -1    0    0    0  501  0.00000000000E+00  0.00000000000E+00 -0.11093201698E+04  0.11093201698E+04  0.50400001928E-02 0.  1.
    10030    2    1    2    0    0  0.00000000000E+00  0.00000000000E+00  0.57530395552E+03  0.27939442951E+04  0.27340720698E+04 0.  0.
        2    1    3    3  502    0  0.24011466589E+03  0.13457778542E+04  0.28376943304E+03  0.13961726888E+04  0.25500000920E-02 0. -1.
       -2    1    3    3    0  502 -0.24011466589E+03 -0.13457778542E+04  0.29153452249E+03  0.13977716064E+04  0.25500000920E-02 0.  1.
</event>
<event>
 5   0  0.2540232E-05  0.2627049E+04  0.7818609E-02  0.8359071E-01
       -2   -1    0    0    0  501  0.00000000000E+00  0.00000000000E+00  0.11055848903E+04  0.11055848903E+04  0.25500000920E-02 0. -1.
        2   -1    0    0  501    0  0.00000000000E+00  0.00000000000E+00 -0.15605734016E+04  0.15605734016E+04  0.25500000920E-02 0.  1.
    10030    2    1    2    0    0  0.00000000000E+00  0.00000000000E+00 -0.45498851128E+03  0.26661582919E+04  0.26270488180E+04 0.  0.
        1    1    3    3  502    0 -0.78291264488E+03 -0.92331689299E+03  0.28987936520E+03  0.12447876690E+04  0.50400001928E-02 0. -1.
       -1    1    3    3    0  502  0.78291264488E+03  0.92331689299E+03 -0.74486787648E+03  0.14213706230E+04  0.50400001928E-02 0.  1.
</event>
<event>
 5   0  0.1036691E-05  0.2684183E+04  0.7818609E-02  0.8340155E-01
        1   -1    0    0  501    0  0.00000000000E+00  0.00000000000E+00  0.26595668645E+04  0.26595668645E+04  0.50400001928E-02 0.  1.
       -1   -1    0    0    0  501  0.00000000000E+00  0.00000000000E+00 -0.67725689225E+03  0.67725689227E+03  0.50400001928E-02 0. -1.
    10030    2    1    2    0    0  0.00000000000E+00  0.00000000000E+00  0.19823099722E+04  0.33368237567E+04  0.26841832943E+04 0.  0.
        4    1    3    3  502    0 -0.34106360586E+02  0.40795694424E+03 -0.59774340048E+03  0.72449354579E+03  0.12699999809E+01 0. -1.
       -4    1    3    3    0  502  0.34106360586E+02 -0.40795694424E+03  0.25800533727E+04  0.26123302109E+04  0.12699999809E+01 0.  1.
</event>
<event>
 5   0  0.9971923E-06  0.2687897E+04  0.7818609E-02  0.8338943E-01
       -1   -1    0    0    0  501  0.00000000000E+00  0.00000000000E+00  0.11837238949E+04  0.11837238949E+04  0.50400001928E-02 0.  1.
        1   -1    0    0  501    0  0.00000000000E+00  0.00000000000E+00 -0.15258605855E+04  0.15258605855E+04  0.50400001928E-02 0. -1.
    10030    2    1    2    0    0  0.00000000000E+00  0.00000000000E+00 -0.34213669056E+03  0.27095844804E+04  0.26878970481E+04 0.  0.
        2    1    3    3  502    0 -0.52225897362E+03 -0.56733431120E+03  0.93852850112E+03  0.12146844873E+04  0.25500000920E-02 0.  1.
       -2    1    3    3    0  502  0.52225897362E+03  0.56733431120E+03 -0.12806651917E+04  0.14948999931E+04  0.25500000920E-02 0. -1.
</event>
<event>
 5   0  0.1096672E-05  0.2702698E+04  0.7818609E-02  0.8334130E-01
       -1   -1    0    0    0  501  0.00000000000E+00  0.00000000000E+00  0.12912558721E+04  0.12912558721E+04  0.50400001928E-02 0. -1.
        1   -1    0    0  501    0  0.00000000000E+00  0.00000000000E+00 -0.14142385240E+04  0.14142385240E+04  0.50400001928E-02 0.  1.
    10030    2    1    2    0    0  0.00000000000E+00  0.00000000000E+00 -0.12298265193E+03  0.27054943961E+04  0.27026977624E+04 0.  0.
        1    1    3    3  502    0  0.36403302199E+03  0.88139668401E+03  0.89697718090E+03  0.13091784518E+04  0.50400001928E-02 0. -1.
       -1    1    3    3    0  502 -0.36403302199E+03 -0.88139668401E+03 -0.10199598328E+04  0.13963159443E+04  0.50400001928E-02 0.  1.
</event>
<event>
 5   0  0.2540232E-05  0.2341388E+04  0.7818609E-02  0.8461779E-01
        2   -1    0    0  501    0  0.00000000000E+00  0.00000000000E+00  0.20857158409E+04  0.20857158409E+04  0.25500000920E-02 0.  1.
       -2   -1    0    0    0  501  0.00000000000E+00  0.00000000000E+00 -0.65710002747E+03  0.65710002748E+03  0.25500000920E-02 0. -1.
    10030    2    1    2    0    0  0.00000000000E+00  0.00000000000E+00  0.14286158134E+04  0.27428158683E+04  0.23413875684E+04 0.  0.
        1    1    3    3  502    0  0.40901420483E+03 -0.51170102963E+03  0.18509112091E+04  0.19634161219E+04  0.50400001928E-02 0.  1.
       -1    1    3    3    0  502 -0.40901420483E+03  0.51170102963E+03 -0.42229539576E+03  0.77939974646E+03  0.50400001928E-02 0. -1.
</event>
<event>
 5   0  0.1005265E-05  0.2706380E+04  0.7818609E-02  0.8332938E-01
       -1   -1    0    0    0  501  0.00000000000E+00  0.00000000000E+00  0.94857640065E+03  0.94857640066E+03  0.50400001928E-02 0. -1.
        1   -1    0    0  501    0  0.00000000000E+00  0.00000000000E+00 -0.19303903660E+04  0.19303903660E+04  0.50400001928E-02 0.  1.
    10030    2    1    2    0    0  0.00000000000E+00  0.00000000000E+00 -0.98181396537E+03  0.28789667667E+04  0.27063796816E+04 0.  0.
        3    1    3    3  502    0  0.10652865407E+04 -0.20071599931E+03  0.37068169338E+03  0.11456558184E+04  0.10100000352E+00 0. -1.
       -3    1    3    3    0  502 -0.10652865407E+04  0.20071599931E+03 -0.13524956588E+04  0.17333109483E+04  0.10100000352E+00 0.  1.
</event>
<event>
 5   0  0.1041909E-05  0.2644279E+04  0.7818609E-02  0.8353314E-01
        1   -1    0    0  501    0  0.00000000000E+00  0.00000000000E+00  0.16416149430E+04  0.16416149430E+04  0.50400001928E-02 0.  1.
       -1   -1    0    0    0  501  0.00000000000E+00  0.00000000000E+00 -0.10648373638E+04  0.10648373638E+04  0.50400001928E-02 0. -1.
    10030    2    1    2    0    0  0.00000000000E+00  0.00000000000E+00  0.57677757924E+03  0.27064523068E+04  0.26442790536E+04 0.  0.
        5    1    3    3  502    0 -0.11971422514E+04  0.29723085793E+03 -0.19875910573E+03  0.12494090704E+04  0.46999998093E+01 0. -1.
       -5    1    3    3    0  502  0.11971422514E+04 -0.29723085793E+03  0.77553668497E+03  0.14570432364E+04  0.46999998093E+01 0.  1.
</event>
<event>
 5   0  0.1005265E-05  0.2720053E+04  0.7818609E-02  0.8328528E-01
        1   -1    0    0  501    0  0.00000000000E+00  0.00000000000E+00  0.25718756379E+04  0.25718756379E+04  0.50400001928E-02 0.  1.
       -1   -1    0    0    0  501  0.00000000000E+00  0.00000000000E+00 -0.71919165330E+03  0.71919165332E+03  0.50400001928E-02 0. -1.
    10030    2    1    2    0    0  0.00000000000E+00  0.00000000000E+00  0.18526839846E+04  0.32910672912E+04  0.27200525672E+04 0.  0.
        3    1    3    3  502    0 -0.38096162348E+03 -0.62163051162E+03  0.23154504454E+04  0.24275228170E+04  0.10100000352E+00 0.  1.
       -3    1    3    3    0  502  0.38096162348E+03  0.62163051162E+03 -0.46276646082E+03  0.86354447425E+03  0.10100000352E+00 0. -1.
</event>
<event>
 5   0  0.2540684E-05  0.2704795E+04  0.7818609E-02  0.8333451E-01
       -2   -1    0    0    0  501  0.00000000000E+00  0.00000000000E+00  0.10256388222E+04  0.10256388222E+04  0.25500000920E-02 0.  1.
        2   -1    0    0  501    0  0.00000000000E+00  0.00000000000E+00 -0.17832589212E+04  0.17832589212E+04  0.25500000920E-02 0. -1.
    10030    2    1    2    0    0  0.00000000000E+00  0.00000000000E+00 -0.75762009906E+03  0.28088977434E+04  0.27047954300E+04 0.  0.
        2    1    3    3  502    0 -0.47916800984E+03  0.79367787979E+03 -0.14013137523E+04  0.16802400992E+04  0.25500000920E-02 0.  1.
       -2    1    3    3    0  502  0.47916800984E+03 -0.79367787979E+03  0.64369365325E+03  0.11286576442E+04  0.25500000920E-02 0. -1.
</event>
<event>
 5   0  0.2540684E-05  0.2625387E+04  0.7818609E-02  0.8359629E-01
       -2   -1    0    0    0  501  0.00000000000E+00  0.00000000000E+00  0.10770528983E+04  0.10770528983E+04  0.25500000920E-02 0.  1.
        2   -1    0    0  501    0  0.00000000000E+00  0.00000000000E+00 -0.15998884696E+04  0.15998884696E+04  0.25500000920E-02 0. -1.
    10030    2    1    2    0    0  0.00000000000E+00  0.00000000000E+00 -0.52283557128E+03  0.26769413680E+04  0.26253872196E+04 0.  0.
        2    1    3    3  502    0 -0.10403765555E+04 -0.29390863531E+03 -0.10206185781E+04  0.14867508013E+04  0.25500000920E-02 0. -1.
       -2    1    3    3    0  502  0.10403765555E+04  0.29390863531E+03  0.49778300679E+03  0.11901905667E+04  0.25500000920E-02 0.  1.
</event>
<event>
 5   0  0.2516518E-05  0.2624840E+04  0.7818609E-02  0.8359812E-01
        2   -1    0    0  501    0  0.00000000000E+00  0.00000000000E+00  0.20974863464E+04  0.20974863464E+04  0.25500000920E-02 0. -1.
       -2   -1    0    0    0  501  0.00000000000E+00  0.00000000000E+00 -0.82119515949E+03  0.82119515949E+03  0.25500000920E-02 0.  1.
    10030    2    1    2    0    0  0.00000000000E+00  0.00000000000E+00  0.12762911869E+04  0.29186815059E+04  0.26248395263E+04 0.  0.
        4    1    3    3  502    0  0.22261034703E+03  0.11801023175E+04  0.49499086692E+02  0.12019353638E+04  0.12699999809E+01 0.  1.
       -4    1    3    3    0  502 -0.22261034703E+03 -0.11801023175E+04  0.12267921002E+04  0.17167461421E+04  0.12699999809E+01 0. -1.
</event>
<event>
 5   0  0.8740500E-06  0.2680431E+04  0.7818609E-02  0.8341382E-01
        3   -1    0    0  501    0  0.00000000000E+00  0.00000000000E+00  0.13330671933E+04  0.13330671971E+04  0.10100000352E+00 0.  1.
       -3   -1    0    0    0  501  0.00000000000E+00  0.00000000000E+00 -0.13474020187E+04  0.13474020225E+04  0.10100000352E+00 0. -1.
    10030    2    1    2    0    0  0.00000000000E+00  0.00000000000E+00 -0.14334825399E+02  0.26804692196E+04  0.26804308889E+04 0.  0.
        4    1    3    3  502    0  0.13351803832E+04  0.93629635622E+02 -0.75744338400E+02  0.13406013509E+04  0.12699999809E+01 0.  1.
       -4    1    3    3    0  502 -0.13351803832E+04 -0.93629635622E+02  0.61409513001E+02  0.13398678687E+04  0.12699999809E+01 0. -1.
</event>
<event>
 5   0  0.1005265E-05  0.2437035E+04  0.7818609E-02  0.8425767E-01
        1   -1    0    0  501    0  0.00000000000E+00  0.00000000000E+00  0.16267326309E+04  0.16267326309E+04  0.50400001928E-02 0. -1.
       -1   -1    0    0    0  501  0.00000000000E+00  0.00000000000E+00 -0.91274079100E+03  0.91274079102E+03  0.50400001928E-02 0.  1.
    10030    2    1    2    0    0  0.00000000000E+00  0.00000000000E+00  0.71399183990E+03  0.25394734219E+04  0.24370352712E+04 0.  0.
        3    1    3    3  502    0  0.10600409027E+04  0.21835459074E+03  0.94036721347E+03  0.14337558890E+04  0.10100000352E+00 0. -1.
       -3    1    3    3    0  502 -0.10600409027E+04 -0.21835459074E+03 -0.22637537357E+03  0.11057175330E+04  0.10100000352E+00 0.  1.
</event>
<event>
 5   0  0.1036691E-05  0.2541032E+04  0.7818609E-02  0.8388512E-01
       -1   -1    0    0    0  501  0.00000000000E+00  0.00000000000E+00  0.98752773267E+03  0.98752773269E+03  0.50400001928E-02 0.  1.
        1   -1    0    0  501    0  0.00000000000E+00  0.00000000000E+00 -0.16345986355E+04  0.16345986355E+04  0.50400001928E-02 0. -1.
    10030    2    1    2    0    0  0.00000000000E+00  0.00000000000E+00 -0.64707090287E+03  0.26221263682E+04  0.25410324551E+04 0.  0.
        4    1    3    3  502    0 -0.53588188874E+03  0.37173656229E+02 -0.15116525644E+04  0.16042588219E+04  0.12699999809E+01 0. -1.
       -4    1    3    3    0  502  0.53588188874E+03 -0.37173656229E+02  0.86458166155E+03  0.10178675463E+04  0.12699999809E+01 0.  1.
</event>
<event>
 5   0  0.2641216E-05  0.1721512E+04  0.7818609E-02  0.8749190E-01
        2   -1    0    0  501    0  0.00000000000E+00  0.00000000000E+00  0.10583880046E+04  0.10583880047E+04  0.25500000920E-02 0.  1.
       -2   -1    0    0    0  501  0.00000000000E+00  0.00000000000E+00 -0.70002744410E+03  0.70002744411E+03  0.25500000920E-02 0. -1.
    10030    2    1    2    0    0  0.00000000000E+00  0.00000000000E+00  0.35836056055E+03  0.17584154488E+04  0.17215117191E+04 0.  0.
        5    1    3    3  502    0 -0.31032487308E+03  0.21348334819E+03 -0.61136291465E+03  0.71809704791E+03  0.46999998093E+01 0. -1.
       -5    1    3    3    0  502  0.31032487308E+03 -0.21348334819E+03  0.96972347519E+03  0.10403184008E+04  0.46999998093E+01 0.  1.
</event>
<event>
 5   0  0.1005265E-05  0.2694628E+04  0.7818609E-02  0.8336750E-01
       -1   -1    0    0    0  501  0.00000000000E+00  0.00000000000E+00  0.12846279311E+04  0.12846279311E+04  0.50400001928E-02 0. -1.
        1   -1    0    0  501    0  0.00000000000E+00  0.00000000000E+00 -0.14130585095E+04  0.14130585095E+04  0.50400001928E-02 0.  1.
    10030    2    1    2    0    0  0.00000000000E+00  0.00000000000E+00 -0.12843057841E+03  0.26976864406E+04  0.26946275658E+04 0.  0.
        3    1    3    3  502    0 -0.10343092496E+04 -0.82721439326E+03 -0.31183215260E+03  0.13606316834E+04  0.10100000352E+00 0.  1.
       -3    1    3    3    0  502  0.10343092496E+04  0.82721439326E+03  0.18340157420E+03  0.13370547572E+04  0.10100000352E+00 0. -1.
</event>
<event>
 5   0  0.9971923E-06  0.2789065E+04  0.7818609E-02  0.8306671E-01
       -1   -1    0    0    0  501  0.00000000000E+00  0.00000000000E+00  0.81871612890E+03  0.81871612892E+03  0.50400001928E-02 0.  1.
        1   -1    0    0  501    0  0.00000000000E+00  0.00000000000E+00 -0.23753295074E+04  0.23753295074E+04  0.50400001928E-02 0. -1.
    10030    2    1    2    0    0  0.00000000000E+00  0.00000000000E+00 -0.15566133785E+04  0.31940456363E+04  0.27890647746E+04 0.  0.
        2    1    3    3  502    0  0.39096155543E+03  0.12729419481E+04 -0.30406477091E+03  0.13659017264E+04  0.25500000920E-02 0. -1.
       -2    1    3    3    0  502 -0.39096155543E+03 -0.12729419481E+04 -0.12525486076E+04  0.18281439100E+04  0.25500000920E-02 0.  1.
</event>
<event>
 5   0  0.2615843E-05  0.1717148E+04  0.7818609E-02  0.8751644E-01
        2   -1    0    0  501    0  0.00000000000E+00  0.00000000000E+00  0.12837621519E+04  0.12837621519E+04  0.25500000920E-02 0.  1.
       -2   -1    0    0    0  501  0.00000000000E+00  0.00000000000E+00 -0.57421007193E+03  0.57421007194E+03  0.25500000920E-02 0. -1.
    10030    2    1    2    0    0  0.00000000000E+00  0.00000000000E+00  0.70955207999E+03  0.18579722239E+04  0.17171478185E+04 0.  0.
        3    1    3    3  502    0 -0.67369759674E+03 -0.38918738829E+02  0.92912501333E+03  0.11483276626E+04  0.10100000352E+00 0.  1.
       -3    1    3    3    0  502  0.67369759674E+03  0.38918738829E+02 -0.21957293334E+03  0.70964456127E+03  0.10100000352E+00 0. -1.
</event>
<event>
 5   0  0.1005265E-05  0.2568942E+04  0.7818609E-02  0.8378828E-01
       -1   -1    0    0    0  501  0.00000000000E+00  0.00000000000E+00  0.99035617824E+03  0.99035617825E+03  0.50400001928E-02 0. -1.
        1   -1    0    0  501    0  0.00000000000E+00  0.00000000000E+00 -0.16659322821E+04  0.16659322821E+04  0.50400001928E-02 0.  1.
    10030    2    1    2    0    0  0.00000000000E+00  0.00000000000E+00 -0.67557610389E+03  0.26562884604E+04  0.25689424502E+04 0.  0.
        3    1    3    3  502    0  0.12754045692E+03  0.33936446619E+03  0.93635580276E+03  0.10040901397E+04  0.10100000352E+00 0. -1.
       -3    1    3    3    0  502 -0.12754045692E+03 -0.33936446619E+03 -0.16119319066E+04  0.16521983207E+04  0.10100000352E+00 0.  1.
</event>
<event>
 5   0  0.1005265E-05  0.2699819E+04  0.7818609E-02  0.8335064E-01
        1   -1    0    0  501    0  0.00000000000E+00  0.00000000000E+00  0.24044499521E+04  0.24044499521E+04  0.50400001928E-02 0. -1.
       -1   -1    0    0    0  501  0.00000000000E+00  0.00000000000E+00 -0.75786806339E+03  0.75786806341E+03  0.50400001928E-02 0.  1.
    10030    2    1    2    0    0  0.00000000000E+00  0.00000000000E+00  0.16465818887E+04  0.31623180155E+04  0.26998191263E+04 0.  0.
        3    1    3    3  502    0  0.84585446232E+03  0.98583328832E+03  0.39305462770E+03  0.13571400054E+04  0.10100000352E+00 0.  1.
       -3    1    3    3    0  502 -0.84585446232E+03 -0.98583328832E+03  0.12535272610E+04  0.18051780101E+04  0.10100000352E+00 0. -1.
</event>
<event>
 5   0  0.1005265E-05  0.2654134E+04  0.7818609E-02  0.8350042E-01
       -1   -1    0    0    0  501  0.00000000000E+00  0.00000000000E+00  0.81188033413E+03  0.81188033414E+03  0.50400001928E-02 0. -1.
        1   -1    0    0  501    0  0.00000000000E+00  0.00000000000E+00 -0.21691708271E+04  0.21691708271E+04  0.50400001928E-02 0.  1.
    10030    2    1    2    0    0  0.00000000000E+00  0.00000000000E+00 -0.13572904930E+04  0.29810511613E+04  0.26541342362E+04 0.  0.
        3    1    3    3  502    0 -0.55551536524E+03 -0.95318016598E+03 -0.15070240553E+04  0.18676914262E+04  0.10100000352E+00 0. -1.
       -3    1    3    3    0  502  0.55551536524E+03  0.95318016598E+03  0.14973356234E+03  0.11133597351E+04  0.10100000352E+00 0.  1.
</event>
<event>
 5   0  0.8740500E-06  0.2690388E+04  0.7818609E-02  0.8338130E-01
        4   -1    0    0  501    0  0.00000000000E+00  0.00000000000E+00  0.11123046364E+04  0.11123053614E+04  0.12699999809E+01 0.  1.
       -4   -1    0    0    0  501  0.00000000000E+00  0.00000000000E+00 -0.16268437578E+04  0.16268442535E+04  0.12699999809E+01 0. -1.
    10030    2    1    2    0    0  0.00000000000E+00  0.00000000000E+00 -0.51453912144E+03  0.27391496149E+04  0.26903884674E+04 0.  0.
        3    1    3    3  502    0  0.62378468861E+02 -0.82283180283E+03 -0.13388818318E+04  0.15727516711E+04  0.10100000352E+00 0. -1.
       -3    1    3    3    0  502 -0.62378468861E+02  0.82283180283E+03  0.82434271037E+03  0.11663979439E+04  0.10100000352E+00 0.  1.
</event>
<event>
 5   0  0.1036691E-05  0.2638059E+04  0.7818609E-02  0.8355387E-01
       -1   -1    0    0    0  501  0.00000000000E+00  0.00000000000E+00  0.13028251052E+04  0.13028251052E+04  0.50400001928E-02 0.  1.
        1   -1    0    0  501    0  0.00000000000E+00  0.00000000000E+00 -0.13354355299E+04  0.13354355299E+04  0.50400001928E-02 0. -1.
    10030    2    1    2    0    0  0.00000000000E+00  0.00000000000E+00 -0.32610424672E+02  0.26382606352E+04  0.26380590856E+04 0.  0.
        4    1    3    3  502    0 -0.21816823120E+03  0.60881510989E+03  0.11333843346E+04  0.13049194910E+04  0.12699999809E+01 0.  1.
       -4    1    3    3    0  502  0.21816823120E+03 -0.60881510989E+03 -0.11659947593E+04  0.13333411442E+04  0.12699999809E+01 0. -1.
</event>
<event>
 5   0  0.1036691E-05  0.2676482E+04  0.7818609E-02  0.8342676E-01
       -1   -1    0    0    0  501  0.00000000000E+00  0.00000000000E+00  0.12996106064E+04  0.12996106064E+04  0.50400001928E-02 0.  1.
        1   -1    0    0  501    0  0.00000000000E+00  0.00000000000E+00 -0.13780196350E+04  0.13780196351E+04  0.50400001928E-02 0. -1.
    10030    2    1    2    0    0  0.00000000000E+00  0.00000000000E+00 -0.78409028609E+02  0.26776302415E+04  0.26764819698E+04 0.  0.
        4    1    3    3  502    0  0.19527383929E+03 -0.10442748569E+04 -0.85333830567E+03  0.13626553952E+04  0.12699999809E+01 0. -1.
       -4    1    3    3    0  502 -0.19527383929E+03  0.10442748569E+04  0.77492927707E+03  0.13149748463E+04  0.12699999809E+01 0.  1.
</event>
<event>
 5   0  0.2615843E-05  0.2554893E+04  0.7818609E-02  0.8383686E-01
       -2   -1    0    0    0  501  0.00000000000E+00  0.00000000000E+00  0.86865277544E+03  0.86865277545E+03  0.25500000920E-02 0.  1.
        2   -1    0    0  501    0  0.00000000000E+00  0.00000000000E+00 -0.18786214130E+04  0.18786214130E+04  0.25500000920E-02 0. -1.
    10030    2    1    2    0    0  0.00000000000E+00  0.00000000000E+00 -0.10099686376E+04  0.27472741885E+04  0.25548931128E+04 0.  0.
        3    1    3    3  502    0  0.36990458889E+03  0.68004619063E+03 -0.15976582761E+04  0.17753321390E+04  0.10100000352E+00 0. -1.
       -3    1    3    3    0  502 -0.36990458889E+03 -0.68004619063E+03  0.58768963849E+03  0.97194204954E+03  0.10100000352E+00 0.  1.
</event>
<event>
 5   0  0.2516518E-05  0.2284233E+04  0.7818609E-02  0.8484164E-01
       -2   -1    0    0    0  501  0.00000000000E+00  0.00000000000E+00  0.43398476822E+03  0.43398476823E+03  0.25500000920E-02 0.  1.
        2   -1    0    0  501    0  0.00000000000E+00  0.00000000000E+00 -0.30057049563E+04  0.30057049563E+04  0.25500000920E-02 0. -1.
    10030    2    1    2    0    0  0.00000000000E+00  0.00000000000E+00 -0.25717201880E+04  0.34396897245E+04  0.22842330606E+04 0.  0.
        4    1    3    3  502    0  0.72411413411E+03 -0.86797213019E+03 -0.10397500841E+04  0.15358381257E+04  0.12699999809E+01 0.  1.
       -4    1    3    3    0  502 -0.72411413411E+03  0.86797213019E+03 -0.15319701039E+04  0.19038515988E+04  0.12699999809E+01 0. -1.
</event>
<event>
 5   0  0.2516518E-05  0.2748343E+04  0.7818609E-02  0.8319488E-01
       -2   -1    0    0    0  501  0.00000000000E+00  0.00000000000E+00  0.16511309413E+04  0.16511309413E+04  0.25500000920E-02 0.  1.
        2   -1    0    0  501    0  0.00000000000E+00  0.00000000000E+00 -0.11436689971E+04  0.11436689971E+04  0.25500000920E-02 0. -1.
    10030    2    1    2    0    0  0.00000000000E+00  0.00000000000E+00  0.50746194415E+03  0.27947999384E+04  0.27483429682E+04 0.  0.
        4    1    3    3  502    0  0.27514844877E+03  0.43768011989E+03  0.15484673920E+04  0.16324899489E+04  0.12699999809E+01 0.  1.
       -4    1    3    3    0  502 -0.27514844877E+03 -0.43768011989E+03 -0.10410054479E+04  0.11623099895E+04  0.12699999809E+01 0. -1.
</event>
<event>
 5   0  0.1041909E-05  0.2715019E+04  0.7818609E-02  0.8330148E-01
        1   -1    0    0  501    0  0.00000000000E+00  0.00000000000E+00  0.12555812980E+04  0.12555812980E+04  0.50400001928E-02 0.  1.
       -1   -1    0    0    0  501  0.00000000000E+00  0.00000000000E+00 -0.14677120247E+04  0.14677120247E+04  0.50400001928E-02 0. -1.
    10030    2    1    2    0    0  0.00000000000E+00  0.00000000000E+00 -0.21213072673E+03  0.27232933227E+04  0.27150187985E+04 0.  0.
        5    1    3    3  502    0  0.27857441845E+03 -0.12422388730E+04 -0.57872177750E+03  0.13984641969E+04  0.46999998093E+01 0.  1.
       -5    1    3    3    0  502 -0.27857441845E+03  0.12422388730E+04  0.36659105077E+03  0.13248291259E+04  0.46999998093E+01 0. -1.
</event>
<event>
 5   0  0.1005265E-05  0.2780715E+04  0.7818609E-02  0.8309281E-01
       -1   -1    0    0    0  501  0.00000000000E+00  0.00000000000E+00  0.72463231202E+03  0.72463231203E+03  0.50400001928E-02 0.  1.
        1   -1    0    0  501    0  0.00000000000E+00  0.00000000000E+00 -0.26676896777E+04  0.26676896777E+04  0.50400001928E-02 0. -1.
    10030    2    1    2    0    0  0.00000000000E+00  0.00000000000E+00 -0.19430573656E+04  0.33923219897E+04  0.27807151159E+04 0.  0.
        3    1    3    3  502    0  0.26083311730E+03  0.12231124278E+04 -0.17126457663E+04  0.21206587318E+04  0.10100000352E+00 0. -1.
       -3    1    3    3    0  502 -0.26083311730E+03 -0.12231124278E+04 -0.23041159939E+03  0.12716632579E+04  0.10100000352E+00 0.  1.
</event>
<event>
 5   0  0.2516518E-05  0.2769428E+04  0.7818609E-02  0.8312823E-01
       -2   -1    0    0    0  501  0.00000000000E+00  0.00000000000E+00  0.14170995889E+04  0.14170995889E+04  0.25500000920E-02 0.  1.
        2   -1    0    0  501    0  0.00000000000E+00  0.00000000000E+00 -0.13530685329E+04  0.13530685329E+04  0.25500000920E-02 0. -1.
    10030    2    1    2    0    0  0.00000000000E+00  0.00000000000E+00  0.64031056017E+02  0.27701681218E+04  0.27694279999E+04 0.  0.
        4    1    3    3  502    0 -0.32990163643E+03 -0.13436934204E+04 -0.23534446010E+02  0.13838000509E+04  0.12699999809E+01 0. -1.
       -4    1    3    3    0  502  0.32990163643E+03  0.13436934204E+04  0.87565502027E+02  0.13863680709E+04  0.12699999809E+01 0.  1.
</event>
<event>
 5   0  0.2641216E-05  0.2670256E+04  0.7818609E-02  0.8344721E-01
       -2   -1    0    0    0  501  0.00000000000E+00  0.00000000000E+00  0.12979098553E+04  0.12979098553E+04  0.25500000920E-02 0. -1.
        2   -1    0    0  501    0  0.00000000000E+00  0.00000000000E+00 -0.13734131903E+04  0.13734131903E+04  0.25500000920E-02 0.  1.
    10030    2    1    2    0    0  0.00000000000E+00  0.00000000000E+00 -0.75503334996E+02  0.26713230455E+04  0.26702558042E+04 0.  0.
        5    1    3    3  502    0 -0.67633711066E+03  0.11179192644E+04  0.23689231050E+03  0.13278988763E+04  0.46999998093E+01 0. -1.
       -5    1    3    3    0  502  0.67633711066E+03 -0.11179192644E+04 -0.31239564549E+03  0.13434241692E+04  0.46999998093E+01 0.  1.
</event>
<event>
 5   0  0.1041909E-05  0.2652798E+04  0.7818609E-02  0.8350485E-01
       -1   -1    0    0    0  501  0.00000000000E+00  0.00000000000E+00  0.10813873308E+04  0.10813873308E+04  0.50400001928E-02 0. -1.
        1   -1    0    0  501    0  0.00000000000E+00  0.00000000000E+00 -0.16269231002E+04  0.16269231003E+04  0.50400001928E-02 0.  1.
    10030    2    1    2    0    0  0.00000000000E+00  0.00000000000E+00 -0.54553576944E+03  0.27083104311E+04  0.26527977901E+04 0.  0.
        5    1    3    3  502    0  0.33138661738E+03  0.11910034029E+04  0.21792039387E+03  0.12553157308E+04  0.46999998093E+01 0. -1.
       -5    1    3    3    0  502 -0.33138661738E+03 -0.11910034029E+04 -0.76345616331E+03  0.14529947003E+04  0.46999998093E+01 0.  1.
</event>
<event>
 5   0  0.1005265E-05  0.1712382E+04  0.7818609E-02  0.8754334E-01
        1   -1    0    0  501    0  0.00000000000E+00  0.00000000000E+00  0.65872306613E+03  0.65872306615E+03  0.50400001928E-02 0.  1.
       -1   -1    0    0    0  501  0.00000000000E+00  0.00000000000E+00 -0.11128542154E+04  0.11128542154E+04  0.50400001928E-02 0. -1.
    10030    2    1    2    0    0  0.00000000000E+00  0.00000000000E+00 -0.45413114924E+03  0.17715772815E+04  0.17123816641E+04 0.  0.
        3    1    3    3  502    0 -0.16999128706E+03 -0.49172340466E+02 -0.10937281744E+04  0.11079513918E+04  0.10100000352E+00 0. -1.
       -3    1    3    3    0  502  0.16999128706E+03  0.49172340466E+02  0.63959702519E+03  0.66362588977E+03  0.10100000352E+00 0.  1.
</event>
<event>
 5   0  0.2540684E-05  0.2712868E+04  0.7818609E-02  0.8330842E-01
        2   -1    0    0  501    0  0.00000000000E+00  0.00000000000E+00  0.21645175745E+04  0.21645175745E+04  0.25500000920E-02 0. -1.
       -2   -1    0    0    0  501  0.00000000000E+00  0.00000000000E+00 -0.85003378662E+03  0.85003378663E+03  0.25500000920E-02 0.  1.
    10030    2    1    2    0    0  0.00000000000E+00  0.00000000000E+00  0.13144837879E+04  0.30145513611E+04  0.27128679069E+04 0.  0.
        2    1    3    3  502    0 -0.10866670905E+04 -0.42410752114E+03 -0.11198184380E+03  0.11718585616E+04  0.25500000920E-02 0.  1.
       -2    1    3    3    0  502  0.10866670905E+04  0.42410752114E+03  0.14264656317E+04  0.18426927995E+04  0.25500000920E-02 0. -1.
</event>
<event>
 5   0  0.2641216E-05  0.2729629E+04  0.7818609E-02  0.8325455E-01
       -2   -1    0    0    0  501  0.00000000000E+00  0.00000000000E+00  0.15925945496E+04  0.15925945496E+04  0.25500000920E-02 0.  1.
        2   -1    0    0  501    0  0.00000000000E+00  0.00000000000E+00 -0.11696129507E+04  0.11696129507E+04  0.25500000920E-02 0. -1.
    10030    2    1    2    0    0  0.00000000000E+00  0.00000000000E+00  0.42298159887E+03  0.27622075003E+04  0.27296294330E+04 0.  0.
        5    1    3    3  502    0  0.16804946223E+02  0.94267085179E+03 -0.78709286113E+03  0.12281889118E+04  0.46999998093E+01 0. -1.
       -5    1    3    3    0  502 -0.16804946223E+02 -0.94267085179E+03  0.12100744600E+04  0.15340185885E+04  0.46999998093E+01 0.  1.
</event>
<event>
 5   0  0.2540232E-05  0.2573483E+04  0.7818609E-02  0.8377265E-01
       -2   -1    0    0    0  501  0.00000000000E+00  0.00000000000E+00  0.93993629440E+03  0.93993629440E+03  0.25500000920E-02 0.  1.
        2   -1    0    0  501    0  0.00000000000E+00  0.00000000000E+00 -0.17615059008E+04  0.17615059008E+04  0.25500000920E-02 0. -1.
    10030    2    1    2    0    0  0.00000000000E+00  0.00000000000E+00 -0.82156960640E+03  0.27014421952E+04  0.25734827211E+04 0.  0.
        1    1    3    3  502    0  0.14955187211E+03  0.82840916923E+03 -0.14323516626E+04  0.16614026602E+04  0.50400001928E-02 0. -1.
       -1    1    3    3    0  502 -0.14955187211E+03 -0.82840916923E+03  0.61078205618E+03  0.10400395350E+04  0.50400001928E-02 0.  1.
</event>
<event>
 5   0  0.2516518E-05  0.2748467E+04  0.7818609E-02  0.8319448E-01
       -2   -1    0    0    0  501  0.00000000000E+00  0.00000000000E+00  0.17239815879E+04  0.17239815879E+04  0.25500000920E-02 0. -1.
        2   -1    0    0  501    0  0.00000000000E+00  0.00000000000E+00 -0.10954394456E+04  0.10954394456E+04  0.25500000920E-02 0.  1.
    10030    2    1    2    0    0  0.00000000000E+00  0.00000000000E+00  0.62854214225E+03  0.28194210335E+04  0.27484667979E+04 0.  0.
        4    1    3    3  502    0  0.61796738538E+03  0.11207233149E+04  0.82780582225E+03  0.15241943873E+04  0.12699999809E+01 0. -1.
       -4    1    3    3    0  502 -0.61796738538E+03 -0.11207233149E+04 -0.19926368000E+03  0.12952266462E+04  0.12699999809E+01 0.  1.
</event>
<event>
 5   0  0.2641216E-05  0.2709004E+04  0.7818609E-02  0.8332089E-01
        2   -1    0    0  501    0  0.00000000000E+00  0.00000000000E+00  0.33408728024E+04  0.33408728024E+04  0.25500000920E-02 0. -1.
       -2   -1    0    0    0  501  0.00000000000E+00  0.00000000000E+00 -0.54916056921E+03  0.54916056922E+03  0.25500000920E-02 0.  1.
    10030    2    1    2    0    0  0.00000000000E+00  0.00000000000E+00  0.27917122332E+04  0.38900333716E+04  0.27090039571E+04 0.  0.
        5    1    3    3  502    0  0.96127342009E+03 -0.89227201540E+03  0.91004665208E+03  0.15963718040E+04  0.46999998093E+01 0.  1.
       -5    1    3    3    0  502 -0.96127342009E+03  0.89227201540E+03  0.18816655811E+04  0.22936615676E+04  0.46999998093E+01 0. -1.
</event>
<event>
 5   0  0.2615843E-05  0.2505536E+04  0.7818609E-02  0.8401016E-01
        2   -1    0    0  501    0  0.00000000000E+00  0.00000000000E+00  0.10924973591E+04  0.10924973591E+04  0.25500000920E-02 0. -1.
       -2   -1    0    0    0  501  0.00000000000E+00  0.00000000000E+00 -0.14365509947E+04  0.14365509947E+04  0.25500000920E-02 0.  1.
    10030    2    1    2    0    0  0.00000000000E+00  0.00000000000E+00 -0.34405363556E+03  0.25290483538E+04  0.25055364040E+04 0.  0.
        3    1    3    3  502    0 -0.28926239741E+03  0.12092665506E+04 -0.32653127443E+03  0.12855430791E+04  0.10100000352E+00 0. -1.
       -3    1    3    3    0  502  0.28926239741E+03 -0.12092665506E+04 -0.17522361132E+02  0.12435052747E+04  0.10100000352E+00 0.  1.
</event>
<event>
 5   0  0.1036691E-05  0.2674504E+04  0.7818609E-02  0.8343325E-01
        1   -1    0    0  501    0  0.00000000000E+00  0.00000000000E+00  0.13470390619E+04  0.13470390619E+04  0.50400001928E-02 0.  1.
       -1   -1    0    0    0  501  0.00000000000E+00  0.00000000000E+00 -0.13275361684E+04  0.13275361684E+04  0.50400001928E-02 0. -1.
    10030    2    1    2    0    0  0.00000000000E+00  0.00000000000E+00  0.19502893465E+02  0.26745752303E+04  0.26745041222E+04 0.  0.
        4    1    3    3  502    0 -0.10463774939E+04  0.91604381496E+01 -0.82288806271E+03  0.13312160418E+04  0.12699999809E+01 0. -1.
       -4    1    3    3    0  502  0.10463774939E+04 -0.91604381496E+01  0.84239095617E+03  0.13433591885E+04  0.12699999809E+01 0.  1.
</event>
<event>
 5   0  0.2641216E-05  0.2816271E+04  0.7818609E-02  0.8298235E-01
        2   -1    0    0  501    0  0.00000000000E+00  0.00000000000E+00  0.64784958777E+03  0.64784958778E+03  0.25500000920E-02 0.  1.
       -2   -1    0    0    0  501  0.00000000000E+00  0.00000000000E+00 -0.30606579750E+04  0.30606579750E+04  0.25500000920E-02 0. -1.
    10030    2    1    2    0    0  0.00000000000E+00  0.00000000000E+00 -0.24128083872E+04  0.37085075628E+04  0.28162712990E+04 0.  0.
        5    1    3    3  502    0  0.92574210042E+03  0.10601695172E+04 -0.12632880863E+04  0.18912632605E+04  0.46999998093E+01 0. -1.
       -5    1    3    3    0  502 -0.92574210042E+03 -0.10601695172E+04 -0.11495203009E+04  0.18172443022E+04  0.46999998093E+01 0.  1.
</event>
<event>
 5   0  0.1041909E-05  0.2648173E+04  0.7818609E-02  0.8352020E-01
       -1   -1    0    0    0  501  0.00000000000E+00  0.00000000000E+00  0.66479511154E+03  0.66479511156E+03  0.50400001928E-02 0.  1.
        1   -1    0    0  501    0  0.00000000000E+00  0.00000000000E+00 -0.26372103150E+04  0.26372103150E+04  0.50400001928E-02 0. -1.
    10030    2    1    2    0    0  0.00000000000E+00  0.00000000000E+00 -0.19724152034E+04  0.33020054265E+04  0.26481725968E+04 0.  0.
        5    1    3    3  502    0 -0.56257828430E+03  0.39170881431E+02 -0.24799672065E+04  0.25432829412E+04  0.46999998093E+01 0. -1.
       -5    1    3    3    0  502  0.56257828430E+03 -0.39170881431E+02  0.50755200305E+03  0.75872248531E+03  0.46999998093E+01 0.  1.
</event>
<event>
 5   0  0.1041909E-05  0.2692599E+04  0.7818609E-02  0.8337410E-01
        1   -1    0    0  501    0  0.00000000000E+00  0.00000000000E+00  0.10131847937E+04  0.10131847937E+04  0.50400001928E-02 0. -1.
       -1   -1    0    0    0  501  0.00000000000E+00  0.00000000000E+00 -0.17889360066E+04  0.17889360066E+04  0.50400001928E-02 0.  1.
    10030    2    1    2    0    0  0.00000000000E+00  0.00000000000E+00 -0.77575121291E+03  0.28021208003E+04  0.26925993083E+04 0.  0.
        5    1    3    3  502    0 -0.86405385977E+03 -0.97308977862E+02 -0.14575166729E+04  0.16971844483E+04  0.46999998093E+01 0.  1.
       -5    1    3    3    0  502  0.86405385977E+03  0.97308977862E+02  0.68176545994E+03  0.11049363521E+04  0.46999998093E+01 0. -1.
</event>
<event>
 5   0  0.1041909E-05  0.1836609E+04  0.7818609E-02  0.8687070E-01
       -1   -1    0    0    0  501  0.00000000000E+00  0.00000000000E+00  0.75249563883E+03  0.75249563885E+03  0.50400001928E-02 0.  1.
        1   -1    0    0  501    0  0.00000000000E+00  0.00000000000E+00 -0.11206483843E+04  0.11206483843E+04  0.50400001928E-02 0. -1.
    10030    2    1    2    0    0  0.00000000000E+00  0.00000000000E+00 -0.36815274546E+03  0.18731440231E+04  0.18366088553E+04 0.  0.
        5    1    3    3  502    0  0.74981206667E+03  0.39487951894E+03 -0.54482579979E+03  0.10074746706E+04  0.46999998093E+01 0. -1.
       -5    1    3    3    0  502 -0.74981206667E+03 -0.39487951894E+03  0.17667305434E+03  0.86566935254E+03  0.46999998093E+01 0.  1.
</event>
<event>
 5   0  0.1096672E-05  0.2702941E+04  0.7818609E-02  0.8334051E-01
        1   -1    0    0  501    0  0.00000000000E+00  0.00000000000E+00  0.10679865574E+04  0.10679865574E+04  0.50400001928E-02 0.  1.
       -1   -1    0    0    0  501  0.00000000000E+00  0.00000000000E+00 -0.17102019991E+04  0.17102019991E+04  0.50400001928E-02 0. -1.
    10030    2    1    2    0    0  0.00000000000E+00  0.00000000000E+00 -0.64221544171E+03  0.27781885565E+04  0.27029411724E+04 0.  0.
        1    1    3    3  502    0  0.13434090746E+03  0.98610543543E+03 -0.12609041813E+04  0.16063407994E+04  0.50400001928E-02 0. -1.
       -1    1    3    3    0  502 -0.13434090746E+03 -0.98610543543E+03  0.61868873964E+03  0.11718477571E+04  0.50400001928E-02 0.  1.
</event>
<event>
 5   0  0.2615843E-05  0.2631215E+04  0.7818609E-02  0.8357675E-01
        2   -1    0    0  501    0  0.00000000000E+00  0.00000000000E+00  0.93813898463E+03  0.93813898464E+03  0.25500000920E-02 0.  1.
       -2   -1    0    0    0  501  0.00000000000E+00  0.00000000000E+00 -0.18449534172E+04  0.18449534173E+04  0.25500000920E-02 0. -1.
    10030    2    1    2    0    0  0.00000000000E+00  0.00000000000E+00 -0.90681443262E+03  0.27830924019E+04  0.26312147199E+04 0.  0.
        3    1    3    3  502    0 -0.55508218069E+03 -0.33663169184E+03 -0.16637408849E+04  0.17859089746E+04  0.10100000352E+00 0. -1.
       -3    1    3    3    0  502  0.55508218069E+03  0.33663169184E+03  0.75692645229E+03  0.99718342728E+03  0.10100000352E+00 0.  1.
</event>
<event>
 5   0  0.8740500E-06  0.2675674E+04  0.7818609E-02  0.8342941E-01
        4   -1    0    0  501    0  0.00000000000E+00  0.00000000000E+00  0.70712326004E+03  0.70712440050E+03  0.12699999809E+01 0.  1.
       -4   -1    0    0    0  501  0.00000000000E+00  0.00000000000E+00 -0.25311077294E+04  0.25311080480E+04  0.12699999809E+01 0. -1.
    10030    2    1    2    0    0  0.00000000000E+00  0.00000000000E+00 -0.18239844694E+04  0.32382324485E+04  0.26756737556E+04 0.  0.
        2    1    3    3  502    0  0.17708891536E+03  0.69187285707E+03 -0.22811041615E+04  0.23902896749E+04  0.25500000920E-02 0. -1.
       -2    1    3    3    0  502 -0.17708891536E+03 -0.69187285707E+03  0.45711969217E+03  0.84794277358E+03  0.25500000920E-02 0.  1.
</event>
<event>
 5   0  0.1036691E-05  0.2719309E+04  0.7818609E-02  0.8328767E-01
       -1   -1    0    0    0  501  0.00000000000E+00  0.00000000000E+00  0.98043864772E+03  0.98043864773E+03  0.50400001928E-02 0.  1.
        1   -1    0    0  501    0  0.00000000000E+00  0.00000000000E+00 -0.18855441883E+04  0.18855441883E+04  0.50400001928E-02 0. -1.
    10030    2    1    2    0    0  0.00000000000E+00  0.00000000000E+00 -0.90510554062E+03  0.28659828361E+04  0.27193090257E+04 0.  0.
        4    1    3    3  502    0  0.57504934779E+03 -0.11755159943E+04 -0.63680854376E+02  0.13101818460E+04  0.12699999809E+01 0.  1.
       -4    1    3    3    0  502 -0.57504934779E+03  0.11755159943E+04 -0.84142468624E+03  0.15558009901E+04  0.12699999809E+01 0. -1.
</event>
<event>
 5   0  0.2540684E-05  0.2667706E+04  0.7818609E-02  0.8345560E-01
        2   -1    0    0  501    0  0.00000000000E+00  0.00000000000E+00  0.19623205509E+04  0.19623205509E+04  0.25500000920E-02 0. -1.
       -2   -1    0    0    0  501  0.00000000000E+00  0.00000000000E+00 -0.90666310825E+03  0.90666310825E+03  0.25500000920E-02 0.  1.
    10030    2    1    2    0    0  0.00000000000E+00  0.00000000000E+00  0.10556574427E+04  0.28689836592E+04  0.26677058684E+04 0.  0.
        2    1    3    3  502    0 -0.36108921236E+03 -0.34940200300E+03 -0.80099227409E+03  0.94554524067E+03  0.25500000920E-02 0.  1.
       -2    1    3    3    0  502  0.36108921236E+03  0.34940200300E+03  0.18566497168E+04  0.19234384185E+04  0.25500000920E-02 0. -1.
</event>
<event>
 5   0  0.2540684E-05  0.2710986E+04  0.7818609E-02  0.8331449E-01
       -2   -1    0    0    0  501  0.00000000000E+00  0.00000000000E+00  0.89294326434E+03  0.89294326434E+03  0.25500000920E-02 0.  1.
        2   -1    0    0  501    0  0.00000000000E+00  0.00000000000E+00 -0.20576458128E+04  0.20576458128E+04  0.25500000920E-02 0. -1.
    10030    2    1    2    0    0  0.00000000000E+00  0.00000000000E+00 -0.11647025485E+04  0.29505890771E+04  0.27109857756E+04 0.  0.
        2    1    3    3  502    0 -0.41313682175E+03 -0.67117299606E+01  0.82273048429E+03  0.92065874817E+03  0.25500000920E-02 0.  1.
       -2    1    3    3    0  502  0.41313682175E+03  0.67117299606E+01 -0.19874330327E+04  0.20299303290E+04  0.25500000920E-02 0. -1.
</event>
<event>
 5   0  0.1096672E-05  0.2701996E+04  0.7818609E-02  0.8334358E-01
       -1   -1    0    0    0  501  0.00000000000E+00  0.00000000000E+00  0.20628367823E+04  0.20628367823E+04  0.50400001928E-02 0. -1.
        1   -1    0    0  501    0  0.00000000000E+00  0.00000000000E+00 -0.88479884164E+03  0.88479884165E+03  0.50400001928E-02 0.  1.
    10030    2    1    2    0    0  0.00000000000E+00  0.00000000000E+00  0.11780379407E+04  0.29476356240E+04  0.27019959996E+04 0.  0.
        1    1    3    3  502    0 -0.62320064159E+03 -0.10573924066E+04 -0.26874950210E+02  0.12276725965E+04  0.50400001928E-02 0.  1.
       -1    1    3    3    0  502  0.62320064159E+03  0.10573924066E+04  0.12049128909E+04  0.17199630275E+04  0.50400001928E-02 0. -1.
</event>
<event>
 5   0  0.2641216E-05  0.2518715E+04  0.7818609E-02  0.8396348E-01
       -2   -1    0    0    0  501  0.00000000000E+00  0.00000000000E+00  0.95907242172E+03  0.95907242173E+03  0.25500000920E-02 0. -1.
        2   -1    0    0  501    0  0.00000000000E+00  0.00000000000E+00 -0.16536618285E+04  0.16536618285E+04  0.25500000920E-02 0.  1.
    10030    2    1    2    0    0  0.00000000000E+00  0.00000000000E+00 -0.69458940673E+03  0.26127342502E+04  0.25187151125E+04 0.  0.
        5    1    3    3  502    0  0.80278486391E+03  0.92236301960E+03 -0.34815549060E+02  0.12232952588E+04  0.46999998093E+01 0. -1.
       -5    1    3    3    0  502 -0.80278486391E+03 -0.92236301960E+03 -0.65977385767E+03  0.13894389914E+04  0.46999998093E+01 0.  1.
</event>
<event>
 5   0  0.1005265E-05  0.2680209E+04  0.7818609E-02  0.8341455E-01
       -1   -1    0    0    0  501  0.00000000000E+00  0.00000000000E+00  0.74204108315E+03  0.74204108316E+03  0.50400001928E-02 0. -1.
        1   -1    0    0  501    0  0.00000000000E+00  0.00000000000E+00 -0.24201900379E+04  0.24201900379E+04  0.50400001928E-02 0.  1.
    10030    2    1    2    0    0  0.00000000000E+00  0.00000000000E+00 -0.16781489548E+04  0.31622311211E+04  0.26802092733E+04 0.  0.
        3    1    3    3  502    0 -0.42679864866E+03  0.77745246692E+03 -0.20243876307E+04  0.22101435958E+04  0.10100000352E+00 0.  1.
       -3    1    3    3    0  502  0.42679864866E+03 -0.77745246692E+03  0.34623867591E+03  0.95208752524E+03  0.10100000352E+00 0. -1.
</event>
<event>
 5   0  0.2516518E-05  0.2613033E+04  0.7818609E-02  0.8363787E-01
        2   -1    0    0  501    0  0.00000000000E+00  0.00000000000E+00  0.22686762171E+04  0.22686762171E+04  0.25500000920E-02 0. -1.
       -2   -1    0    0    0  501  0.00000000000E+00  0.00000000000E+00 -0.75241495067E+03  0.75241495067E+03  0.25500000920E-02 0.  1.
    10030    2    1    2    0    0  0.00000000000E+00  0.00000000000E+00  0.15162612664E+04  0.30210911678E+04  0.26130334127E+04 0.  0.
        4    1    3    3  502    0  0.12375072687E+04 -0.39503565832E+03  0.91960841356E+03  0.15915899782E+04  0.12699999809E+01 0. -1.
       -4    1    3    3    0  502 -0.12375072687E+04  0.39503565832E+03  0.59665285288E+03  0.14295011896E+04  0.12699999809E+01 0.  1.
</event>
<event>
 5   0  0.8740500E-06  0.2746682E+04  0.7818609E-02  0.8320015E-01
        4   -1    0    0  501    0  0.00000000000E+00  0.00000000000E+00  0.12803377436E+04  0.12803383734E+04  0.12699999809E+01 0. -1.
       -4   -1    0    0    0  501  0.00000000000E+00  0.00000000000E+00 -0.14730991017E+04  0.14730996492E+04  0.12699999809E+01 0.  1.
    10030    2    1    2    0    0  0.00000000000E+00  0.00000000000E+00 -0.19276135815E+03  0.27534380226E+04  0.27466823630E+04 0.  0.
        2    1    3    3  502    0 -0.53223505396E+03  0.41301093033E+02 -0.13648331703E+04  0.14655202202E+04  0.25500000920E-02 0.  1.
       -2    1    3    3    0  502  0.53223505396E+03 -0.41301093033E+02  0.11720718122E+04  0.12879178024E+04  0.25500000920E-02 0. -1.
</event>
<event>
 5   0  0.1096672E-05  0.1821996E+04  0.7818609E-02  0.8694689E-01
       -1   -1    0    0    0  501  0.00000000000E+00  0.00000000000E+00  0.78261334225E+03  0.78261334226E+03  0.50400001928E-02 0.  1.
        1   -1    0    0  501    0  0.00000000000E+00  0.00000000000E+00 -0.10604431301E+04  0.10604431301E+04  0.50400001928E-02 0. -1.
    10030    2    1    2    0    0  0.00000000000E+00  0.00000000000E+00 -0.27782978782E+03  0.18430564723E+04  0.18219955459E+04 0.  0.
        1    1    3    3  502    0  0.77805197613E+03 -0.46891374947E+03 -0.20805672913E+03  0.93195095609E+03  0.50400001928E-02 0. -1.
       -1    1    3    3    0  502 -0.77805197613E+03  0.46891374947E+03 -0.69773058684E+02  0.91110551625E+03  0.50400001928E-02 0.  1.
</event>
<event>
 5   0  0.1096672E-05  0.2714137E+04  0.7818609E-02  0.8330433E-01
       -1   -1    0    0    0  501  0.00000000000E+00  0.00000000000E+00  0.96983911606E+03  0.96983911607E+03  0.50400001928E-02 0. -1.
        1   -1    0    0  501    0  0.00000000000E+00  0.00000000000E+00 -0.18989070994E+04  0.18989070994E+04  0.50400001928E-02 0.  1.
    10030    2    1    2    0    0  0.00000000000E+00  0.00000000000E+00 -0.92906798335E+03  0.28687462155E+04  0.27141366088E+04 0.  0.
        1    1    3    3  502    0 -0.98952369442E+03  0.13996845089E+03  0.50585277698E+03  0.11201050580E+04  0.50400001928E-02 0. -1.
       -1    1    3    3    0  502  0.98952369442E+03 -0.13996845089E+03 -0.14349207603E+04  0.17486411574E+04  0.50400001928E-02 0.  1.
</event>
<event>
 5   0  0.1005265E-05  0.2748642E+04  0.7818609E-02  0.8319393E-01
        1   -1    0    0  501    0  0.00000000000E+00  0.00000000000E+00  0.11593875281E+04  0.11593875281E+04  0.50400001928E-02 0. -1.
       -1   -1    0    0    0  501  0.00000000000E+00  0.00000000000E+00 -0.16291004832E+04  0.16291004833E+04  0.50400001928E-02 0.  1.
    10030    2    1    2    0    0  0.00000000000E+00  0.00000000000E+00 -0.46971295513E+03  0.27884880114E+04  0.27486424157E+04 0.  0.
        3    1    3    3  502    0  0.41330970831E+03  0.13087979498E+04 -0.16325153874E+03  0.13821823553E+04  0.10100000352E+00 0.  1.
       -3    1    3    3    0  502 -0.41330970831E+03 -0.13087979498E+04 -0.30646141639E+03  0.14063056560E+04  0.10100000352E+00 0. -1.
</event>
<event>
 5   0  0.2516518E-05  0.2704585E+04  0.7818609E-02  0.8333519E-01
       -2   -1    0    0    0  501  0.00000000000E+00  0.00000000000E+00  0.92594727007E+03  0.92594727007E+03  0.25500000920E-02 0. -1.
        2   -1    0    0  501    0  0.00000000000E+00  0.00000000000E+00 -0.19749450508E+04  0.19749450508E+04  0.25500000920E-02 0.  1.
    10030    2    1    2    0    0  0.00000000000E+00  0.00000000000E+00 -0.10489977808E+04  0.29008923209E+04  0.27045849799E+04 0.  0.
        4    1    3    3  502    0  0.99088654067E+02  0.17574895538E+03 -0.19587102837E+04  0.19690743625E+04  0.12699999809E+01 0.  1.
       -4    1    3    3    0  502 -0.99088654067E+02 -0.17574895538E+03  0.90971250294E+03  0.93181795840E+03  0.12699999809E+01 0. -1.
</event>
<event>
 5   0  0.2540232E-05  0.2666460E+04  0.7818609E-02  0.8345970E-01
       -2   -1    0    0    0  501  0.00000000000E+00  0.00000000000E+00  0.11557842593E+04  0.11557842593E+04  0.25500000920E-02 0. -1.
        2   -1    0    0  501    0  0.00000000000E+00  0.00000000000E+00 -0.15379187818E+04  0.15379187818E+04  0.25500000920E-02 0.  1.
    10030    2    1    2    0    0  0.00000000000E+00  0.00000000000E+00 -0.38213452251E+03  0.26937030411E+04  0.26664600654E+04 0.  0.
        1    1    3    3  502    0  0.12757404507E+03 -0.10951944287E+04 -0.94824242025E+03  0.14542660215E+04  0.50400001928E-02 0.  1.
       -1    1    3    3    0  502 -0.12757404507E+03  0.10951944287E+04  0.56610789773E+03  0.12394370196E+04  0.50400001928E-02 0. -1.
</event>
<event>
 5   0  0.8740500E-06  0.2445038E+04  0.7818609E-02  0.8422832E-01
       -4   -1    0    0    0  501  0.00000000000E+00  0.00000000000E+00  0.14762143890E+04  0.14762149353E+04  0.12699999809E+01 0. -1.
        4   -1    0    0  501    0  0.00000000000E+00  0.00000000000E+00 -0.10124216839E+04  0.10124224805E+04  0.12699999809E+01 0.  1.
    10030    2    1    2    0    0  0.00000000000E+00  0.00000000000E+00  0.46379270510E+03  0.24886374158E+04  0.24450383461E+04 0.  0.
        4    1    3    3  502    0 -0.88357806862E+03  0.60494889317E+03 -0.36843292894E+03  0.11324388737E+04  0.12699999809E+01 0.  1.
       -4    1    3    3    0  502  0.88357806862E+03 -0.60494889317E+03  0.83222563404E+03  0.13561985421E+04  0.12699999809E+01 0. -1.
</event>
<event>
 5   0  0.9971923E-06  0.2950947E+04  0.7818609E-02  0.8257879E-01
       -1   -1    0    0    0  501  0.00000000000E+00  0.00000000000E+00  0.11009049724E+04  0.11009049724E+04  0.50400001928E-02 0. -1.
        1   -1    0    0  501    0  0.00000000000E+00  0.00000000000E+00 -0.19774838796E+04  0.19774838796E+04  0.50400001928E-02 0.  1.
    10030    2    1    2    0    0  0.00000000000E+00  0.00000000000E+00 -0.87657890720E+03  0.30783888520E+04  0.29509468554E+04 0.  0.
        2    1    3    3  502    0  0.66469076367E+03 -0.46835046634E+03 -0.17226620879E+04  0.19049227385E+04  0.25500000920E-02 0.  1.
       -2    1    3    3    0  502 -0.66469076367E+03  0.46835046634E+03  0.84608318073E+03  0.11734661134E+04  0.25500000920E-02 0. -1.
</event>
<event>
 5   0  0.1041909E-05  0.2709868E+04  0.7818609E-02  0.8331810E-01
        1   -1    0    0  501    0  0.00000000000E+00  0.00000000000E+00  0.21845119236E+04  0.21845119236E+04  0.50400001928E-02 0.  1.
       -1   -1    0    0    0  501  0.00000000000E+00  0.00000000000E+00 -0.84039170686E+03  0.84039170687E+03  0.50400001928E-02 0. -1.
    10030    2    1    2    0    0  0.00000000000E+00  0.00000000000E+00  0.13441202167E+04  0.30249036304E+04  0.27098676751E+04 0.  0.
        5    1    3    3  502    0 -0.76120073140E+02  0.11301653055E+04  0.15019683656E+04  0.18812227259E+04  0.46999998093E+01 0.  1.
       -5    1    3    3    0  502  0.76120073140E+02 -0.11301653055E+04 -0.15784814886E+03  0.11436809045E+04  0.46999998093E+01 0. -1.
</event>
<event>
 5   0  0.2516518E-05  0.2599524E+04  0.7818609E-02  0.8368363E-01
       -2   -1    0    0    0  501  0.00000000000E+00  0.00000000000E+00  0.86694423803E+03  0.86694423803E+03  0.25500000920E-02 0.  1.
        2   -1    0    0  501    0  0.00000000000E+00  0.00000000000E+00 -0.19486620832E+04  0.19486620832E+04  0.25500000920E-02 0. -1.
    10030    2    1    2    0    0  0.00000000000E+00  0.00000000000E+00 -0.10817178452E+04  0.28156063213E+04  0.25995240833E+04 0.  0.
        4    1    3    3  502    0  0.10265981030E+04 -0.70049134957E+03 -0.95299848451E+03  0.15661416029E+04  0.12699999809E+01 0. -1.
       -4    1    3    3    0  502 -0.10265981030E+04  0.70049134957E+03 -0.12871936070E+03  0.12494647184E+04  0.12699999809E+01 0.  1.
</event>
<event>
 5   0  0.1005265E-05  0.2732445E+04  0.7818609E-02  0.8324554E-01
       -1   -1    0    0    0  501  0.00000000000E+00  0.00000000000E+00  0.10351888764E+04  0.10351888764E+04  0.50400001928E-02 0. -1.
        1   -1    0    0  501    0  0.00000000000E+00  0.00000000000E+00 -0.18031139791E+04  0.18031139791E+04  0.50400001928E-02 0.  1.
    10030    2    1    2    0    0  0.00000000000E+00  0.00000000000E+00 -0.76792510267E+03  0.28383028555E+04  0.27324447179E+04 0.  0.
        3    1    3    3  502    0  0.10429685418E+04 -0.42754824429E+03  0.41794472852E+03  0.12021891226E+04  0.10100000352E+00 0. -1.
       -3    1    3    3    0  502 -0.10429685418E+04  0.42754824429E+03 -0.11858698312E+04  0.16361137329E+04  0.10100000352E+00 0.  1.
</event>
<event>
 5   0  0.2516518E-05  0.2120717E+04  0.7818609E-02  0.8552172E-01
        2   -1    0    0  501    0  0.00000000000E+00  0.00000000000E+00  0.21498159968E+04  0.21498159968E+04  0.25500000920E-02 0.  1.
       -2   -1    0    0    0  501  0.00000000000E+00  0.00000000000E+00 -0.52300285681E+03  0.52300285682E+03  0.25500000920E-02 0. -1.
    10030    2    1    2    0    0  0.00000000000E+00  0.00000000000E+00  0.16268131400E+04  0.26728188536E+04  0.21207167731E+04 0.  0.
        4    1    3    3  502    0 -0.30531609850E+03 -0.65074457013E+03  0.17958813808E+04  0.19343934352E+04  0.12699999809E+01 0.  1.
       -4    1    3    3    0  502  0.30531609850E+03  0.65074457013E+03 -0.16906824080E+03  0.73842541838E+03  0.12699999809E+01 0. -1.
</event>
<event>
 5   0  0.1005265E-05  0.2720652E+04  0.7818609E-02  0.8328335E-01
        1   -1    0    0  501    0  0.00000000000E+00  0.00000000000E+00  0.12376838609E+04  0.12376838609E+04  0.50400001928E-02 0. -1.
       -1   -1    0    0    0  501  0.00000000000E+00  0.00000000000E+00 -0.14951205847E+04  0.14951205847E+04  0.50400001928E-02 0.  1.
    10030    2    1    2    0    0  0.00000000000E+00  0.00000000000E+00 -0.25743672376E+03  0.27328044456E+04  0.27206518468E+04 0.  0.
        3    1    3    3  502    0  0.46595889654E+03 -0.95004660590E+03 -0.98739375831E+03  0.14472915017E+04  0.10100000352E+00 0.  1.
       -3    1    3    3    0  502 -0.46595889654E+03  0.95004660590E+03  0.72995703455E+03  0.12855129440E+04  0.10100000352E+00 0. -1.
</event>
<event>
 5   0  0.1005265E-05  0.2701876E+04  0.7818609E-02  0.8334397E-01
        1   -1    0    0  501    0  0.00000000000E+00  0.00000000000E+00  0.20216106937E+04  0.20216106937E+04  0.50400001928E-02 0.  1.
       -1   -1    0    0    0  501  0.00000000000E+00  0.00000000000E+00 -0.90276196459E+03  0.90276196460E+03  0.50400001928E-02 0. -1.
    10030    2    1    2    0    0  0.00000000000E+00  0.00000000000E+00  0.11188487291E+04  0.29243726583E+04  0.27018758236E+04 0.  0.
        3    1    3    3  502    0 -0.78334666512E+03 -0.47045487887E+03 -0.51753925965E+03  0.10501460309E+04  0.10100000352E+00 0.  1.
       -3    1    3    3    0  502  0.78334666512E+03  0.47045487887E+03  0.16363879887E+04  0.18742266273E+04  0.10100000352E+00 0. -1.
</event>
<event>
 5   0  0.2516518E-05  0.2699714E+04  0.7818609E-02  0.8335098E-01
       -2   -1    0    0    0  501  0.00000000000E+00  0.00000000000E+00  0.13936552343E+04  0.13936552343E+04  0.25500000920E-02 0. -1.
        2   -1    0    0  501    0  0.00000000000E+00  0.00000000000E+00 -0.13074355661E+04  0.13074355661E+04  0.25500000920E-02 0.  1.
    10030    2    1    2    0    0  0.00000000000E+00  0.00000000000E+00  0.86219668232E+02  0.27010908004E+04  0.26997143702E+04 0.  0.
        4    1    3    3  502    0  0.63464983989E+03  0.68947855461E+03  0.10151769564E+04  0.13815740886E+04  0.12699999809E+01 0. -1.
       -4    1    3    3    0  502 -0.63464983989E+03 -0.68947855461E+03 -0.92895728820E+03  0.13195167118E+04  0.12699999809E+01 0.  1.
</event>
<event>
 5   0  0.2540232E-05  0.2682409E+04  0.7818609E-02  0.8340735E-01
        2   -1    0    0  501    0  0.00000000000E+00  0.00000000000E+00  0.13104147252E+04  0.13104147252E+04  0.25500000920E-02 0. -1.
       -2   -1    0    0    0  501  0.00000000000E+00  0.00000000000E+00 -0.13727179776E+04  0.13727179776E+04  0.25500000920E-02 0.  1.
    10030    2    1    2    0    0  0.00000000000E+00  0.00000000000E+00 -0.62303252349E+02  0.26831327028E+04  0.26824092540E+04 0.  0.
        1    1    3    3  502    0 -0.59798314464E+03  0.51249093339E+03  0.10547741899E+04  0.13163507853E+04  0.50400001928E-02 0. -1.
       -1    1    3    3    0  502  0.59798314464E+03 -0.51249093339E+03 -0.11170774423E+04  0.13667819176E+04  0.50400001928E-02 0.  1.
</event>
<event>
 5   0  0.2540684E-05  0.2724203E+04  0.7818609E-02  0.8327194E-01
       -2   -1    0    0    0  501  0.00000000000E+00  0.00000000000E+00  0.91457186895E+03  0.91457186896E+03  0.25500000920E-02 0.  1.
        2   -1    0    0  501    0  0.00000000000E+00  0.00000000000E+00 -0.20286221576E+04  0.20286221576E+04  0.25500000920E-02 0. -1.
    10030    2    1    2    0    0  0.00000000000E+00  0.00000000000E+00 -0.11140502886E+04  0.29431940265E+04  0.27242031922E+04 0.  0.
        2    1    3    3  502    0  0.18125721243E+03 -0.29923831310E+02 -0.20151760267E+04  0.20235325624E+04  0.25500000920E-02 0. -1.
       -2    1    3    3    0  502 -0.18125721243E+03  0.29923831310E+02  0.90112573806E+03  0.91966146409E+03  0.25500000920E-02 0.  1.
</event>
<event>
 5   0  0.2516518E-05  0.2647935E+04  0.7818609E-02  0.8352099E-01
        2   -1    0    0  501    0  0.00000000000E+00  0.00000000000E+00  0.17100983411E+04  0.17100983411E+04  0.25500000920E-02 0.  1.
       -2   -1    0    0    0  501  0.00000000000E+00  0.00000000000E+00 -0.10250232325E+04  0.10250232325E+04  0.25500000920E-02 0. -1.
    10030    2    1    2    0    0  0.00000000000E+00  0.00000000000E+00  0.68507510861E+03  0.27351215736E+04  0.26479354445E+04 0.  0.
        4    1    3    3  502    0  0.12010293802E+04  0.37636301667E+03  0.76687815069E+03  0.14738468046E+04  0.12699999809E+01 0.  1.
       -4    1    3    3    0  502 -0.12010293802E+04 -0.37636301667E+03 -0.81803042085E+02  0.12612747690E+04  0.12699999809E+01 0. -1.
</event>
<event>
 5   0  0.1096672E-05  0.2616441E+04  0.7818609E-02  0.8362638E-01
        1   -1    0    0  501    0  0.00000000000E+00  0.00000000000E+00  0.15422373085E+04  0.15422373085E+04  0.50400001928E-02 0.  1.
       -1   -1    0    0    0  501  0.00000000000E+00  0.00000000000E+00 -0.11097129786E+04  0.11097129786E+04  0.50400001928E-02 0. -1.
    10030    2    1    2    0    0  0.00000000000E+00  0.00000000000E+00  0.43252432994E+03  0.26519502871E+04  0.26164409088E+04 0.  0.
        1    1    3    3  502    0  0.12013597500E+03  0.21560910164E+03  0.15184239664E+04  0.15383534311E+04  0.50400001928E-02 0.  1.
       -1    1    3    3    0  502 -0.12013597500E+03 -0.21560910164E+03 -0.10858996364E+04  0.11135968560E+04  0.50400001928E-02 0. -1.
</event>
<event>
 5   0  0.1005265E-05  0.2689703E+04  0.7818609E-02  0.8338354E-01
        1   -1    0    0  501    0  0.00000000000E+00  0.00000000000E+00  0.17087601266E+04  0.17087601266E+04  0.50400001928E-02 0. -1.
       -1   -1    0    0    0  501  0.00000000000E+00  0.00000000000E+00 -0.10584429957E+04  0.10584429957E+04  0.50400001928E-02 0.  1.
    10030    2    1    2    0    0  0.00000000000E+00  0.00000000000E+00  0.65031713085E+03  0.27672031223E+04  0.26897027251E+04 0.  0.
        3    1    3    3  502    0  0.39211176511E+03 -0.55420483993E+03  0.15195269263E+04  0.16642886561E+04  0.10100000352E+00 0. -1.
       -3    1    3    3    0  502 -0.39211176511E+03  0.55420483993E+03 -0.86920979545E+03  0.11029144662E+04  0.10100000352E+00 0.  1.
</event>
<event>
 5   0  0.2540684E-05  0.2733104E+04  0.7818609E-02  0.8324343E-01
       -2   -1    0    0    0  501  0.00000000000E+00  0.00000000000E+00  0.17729031332E+04  0.17729031332E+04  0.25500000920E-02 0.  1.
        2   -1    0    0  501    0  0.00000000000E+00  0.00000000000E+00 -0.10533371565E+04  0.10533371566E+04  0.25500000920E-02 0. -1.
    10030    2    1    2    0    0  0.00000000000E+00  0.00000000000E+00  0.71956597668E+03  0.28262402898E+04  0.27331042755E+04 0.  0.
        2    1    3    3  502    0  0.36312058818E+03 -0.58566966137E+03 -0.86051517398E+03  0.11024299880E+04  0.25500000920E-02 0. -1.
       -2    1    3    3    0  502 -0.36312058818E+03  0.58566966137E+03  0.15800811507E+04  0.17238103018E+04  0.25500000920E-02 0.  1.
</event>
<event>
 5   0  0.9971923E-06  0.2742076E+04  0.7818609E-02  0.8321481E-01
        1   -1    0    0  501    0  0.00000000000E+00  0.00000000000E+00  0.81113706602E+03  0.81113706603E+03  0.50400001928E-02 0. -1.
       -1   -1    0    0    0  501  0.00000000000E+00  0.00000000000E+00 -0.23174195280E+04  0.23174195280E+04  0.50400001928E-02 0.  1.
    10030    2    1    2    0    0  0.00000000000E+00  0.00000000000E+00 -0.15062824620E+04  0.31285565940E+04  0.27420757661E+04 0.  0.
        2    1    3    3  502    0 -0.66553542890E+03 -0.11220116007E+04 -0.27191486821E+03  0.13325858827E+04  0.25500000920E-02 0. -1.
       -2    1    3    3    0  502  0.66553542890E+03  0.11220116007E+04 -0.12343675938E+04  0.17959707113E+04  0.25500000920E-02 0.  1.
</event>
<event>
 5   0  0.1036691E-05  0.2648154E+04  0.7818609E-02  0.8352026E-01
        1   -1    0    0  501    0  0.00000000000E+00  0.00000000000E+00  0.13453184091E+04  0.13453184091E+04  0.50400001928E-02 0. -1.
       -1   -1    0    0    0  501  0.00000000000E+00  0.00000000000E+00 -0.13031705246E+04  0.13031705246E+04  0.50400001928E-02 0.  1.
    10030    2    1    2    0    0  0.00000000000E+00  0.00000000000E+00  0.42147884497E+02  0.26484889338E+04  0.26481535431E+04 0.  0.
        4    1    3    3  502    0  0.13028314064E+04  0.22508477765E+03 -0.50662775765E+02  0.13231028533E+04  0.12699999809E+01 0. -1.
       -4    1    3    3    0  502 -0.13028314064E+04 -0.22508477765E+03  0.92810660261E+02  0.13253860805E+04  0.12699999809E+01 0.  1.
</event>
<event>
 5   0  0.1036691E-05  0.2725086E+04  0.7818609E-02  0.8326911E-01
        1   -1    0    0  501    0  0.00000000000E+00  0.00000000000E+00  0.26369836318E+04  0.26369836318E+04  0.50400001928E-02 0. -1.
       -1   -1    0    0    0  501  0.00000000000E+00  0.00000000000E+00 -0.70403271801E+03  0.70403271802E+03  0.50400001928E-02 0.  1.
    10030    2    1    2    0    0  0.00000000000E+00  0.00000000000E+00  0.19329509138E+04  0.33410163498E+04  0.27250855059E+04 0.  0.
        4    1    3    3  502    0 -0.11501404932E+04 -0.64901115868E+03  0.55528696403E+03  0.14326143457E+04  0.12699999809E+01 0. -1.
       -4    1    3    3    0  502  0.11501404932E+04  0.64901115868E+03  0.13776639498E+04  0.19084020042E+04  0.12699999809E+01 0.  1.
</event>
<event>
 5   0  0.2540684E-05  0.2725074E+04  0.7818609E-02  0.8326915E-01
        2   -1    0    0  501    0  0.00000000000E+00  0.00000000000E+00  0.16297569698E+04  0.16297569698E+04  0.25500000920E-02 0. -1.
       -2   -1    0    0    0  501  0.00000000000E+00  0.00000000000E+00 -0.11391316235E+04  0.11391316235E+04  0.25500000920E-02 0.  1.
    10030    2    1    2    0    0  0.00000000000E+00  0.00000000000E+00  0.49062534626E+03  0.27688885933E+04  0.27250744598E+04 0.  0.
        2    1    3    3  502    0  0.39488815762E+03 -0.13002725944E+04  0.14440723177E+03  0.13665646437E+04  0.25500000920E-02 0.  1.
       -2    1    3    3    0  502 -0.39488815762E+03  0.13002725944E+04  0.34621811448E+03  0.14023239496E+04  0.25500000920E-02 0. -1.
</event>
<event>
 5   0  0.1096672E-05  0.1815451E+04  0.7818609E-02  0.8698126E-01
        1   -1    0    0  501    0  0.00000000000E+00  0.00000000000E+00  0.68331101876E+03  0.68331101878E+03  0.50400001928E-02 0.  1.
       -1   -1    0    0    0  501  0.00000000000E+00  0.00000000000E+00 -0.12058426689E+04  0.12058426690E+04  0.50400001928E-02 0. -1.
    10030    2    1    2    0    0  0.00000000000E+00  0.00000000000E+00 -0.52253165019E+03  0.18891536877E+04  0.18154509992E+04 0.  0.
        1    1    3    3  502    0  0.83480312765E+03  0.40806205683E+02  0.10723524673E+03  0.84265105858E+03  0.50400001928E-02 0.  1.
       -1    1    3    3    0  502 -0.83480312765E+03 -0.40806205683E+02 -0.62976689692E+03  0.10465026292E+04  0.50400001928E-02 0. -1.
</event>
<event>
 5   0  0.2540684E-05  0.2699031E+04  0.7818609E-02  0.8335320E-01
        2   -1    0    0  501    0  0.00000000000E+00  0.00000000000E+00  0.19034255774E+04  0.19034255774E+04  0.25500000920E-02 0.  1.
       -2   -1    0    0    0  501  0.00000000000E+00  0.00000000000E+00 -0.95679691129E+03  0.95679691129E+03  0.25500000920E-02 0. -1.
    10030    2    1    2    0    0  0.00000000000E+00  0.00000000000E+00  0.94662866606E+03  0.28602224886E+04  0.26990307248E+04 0.  0.
        2    1    3    3  502    0  0.10921474534E+03 -0.97828374795E+03 -0.50497892989E+03  0.11063320802E+04  0.25500000920E-02 0. -1.
       -2    1    3    3    0  502 -0.10921474534E+03  0.97828374795E+03  0.14516075960E+04  0.17538904084E+04  0.25500000920E-02 0.  1.
</event>
<event>
 5   0  0.2540684E-05  0.2112029E+04  0.7818609E-02  0.8555963E-01
        2   -1    0    0  501    0  0.00000000000E+00  0.00000000000E+00  0.10646075811E+04  0.10646075811E+04  0.25500000920E-02 0.  1.
       -2   -1    0    0    0  501  0.00000000000E+00  0.00000000000E+00 -0.10474907597E+04  0.10474907597E+04  0.25500000920E-02 0. -1.
    10030    2    1    2    0    0  0.00000000000E+00  0.00000000000E+00  0.17116821423E+02  0.21120983409E+04  0.21120289808E+04 0.  0.
        2    1    3    3  502    0  0.29364987345E+03 -0.93208256191E+03  0.40876957136E+03  0.10592925530E+04  0.25500000920E-02 0.  1.
       -2    1    3    3    0  502 -0.29364987345E+03  0.93208256191E+03 -0.39165274994E+03  0.10528057878E+04  0.25500000920E-02 0. -1.
</event>
<event>
 5   0  0.2540684E-05  0.2651965E+04  0.7818609E-02  0.8350761E-01
        2   -1    0    0  501    0  0.00000000000E+00  0.00000000000E+00  0.12052426774E+04  0.12052426774E+04  0.25500000920E-02 0. -1.
       -2   -1    0    0    0  501  0.00000000000E+00  0.00000000000E+00 -0.14588174990E+04  0.14588174990E+04  0.25500000920E-02 0.  1.
    10030    2    1    2    0    0  0.00000000000E+00  0.00000000000E+00 -0.25357482158E+03  0.26640601764E+04  0.26519646365E+04 0.  0.
        2    1    3    3  502    0 -0.10868277522E+02  0.12286842859E+03 -0.14530416401E+04  0.14582677320E+04  0.25500000920E-02 0.  1.
       -2    1    3    3    0  502  0.10868277522E+02 -0.12286842859E+03  0.11994668185E+04  0.12057924444E+04  0.25500000920E-02 0. -1.
</event>
<event>
 5   0  0.2540232E-05  0.2693175E+04  0.7818609E-02  0.8337223E-01
        2   -1    0    0  501    0  0.00000000000E+00  0.00000000000E+00  0.21625199893E+04  0.21625199893E+04  0.25500000920E-02 0. -1.
       -2   -1    0    0    0  501  0.00000000000E+00  0.00000000000E+00 -0.83851150171E+03  0.83851150172E+03  0.25500000920E-02 0.  1.
    10030    2    1    2    0    0  0.00000000000E+00  0.00000000000E+00  0.13240084876E+04  0.30010314910E+04  0.26931749915E+04 0.  0.
        1    1    3    3  502    0 -0.52751332743E+02  0.60422395039E+03 -0.67768571181E+03  0.90946534258E+03  0.50400001928E-02 0.  1.
       -1    1    3    3    0  502  0.52751332743E+02 -0.60422395039E+03  0.20016941994E+04  0.20915661484E+04  0.50400001928E-02 0. -1.
</event>
<event>
 5   0  0.9971923E-06  0.2699842E+04  0.7818609E-02  0.8335056E-01
       -1   -1    0    0    0  501  0.00000000000E+00  0.00000000000E+00  0.75444452582E+03  0.75444452583E+03  0.50400001928E-02 0.  1.
        1   -1    0    0  501    0  0.00000000000E+00  0.00000000000E+00 -0.24154023526E+04  0.24154023526E+04  0.50400001928E-02 0. -1.
    10030    2    1    2    0    0  0.00000000000E+00  0.00000000000E+00 -0.16609578268E+04  0.31698468785E+04  0.26998422788E+04 0.  0.
        2    1    3    3  502    0  0.92495867957E+03  0.73323301755E+03 -0.61378353492E+02  0.11819249211E+04  0.25500000920E-02 0.  1.
       -2    1    3    3    0  502 -0.92495867957E+03 -0.73323301755E+03 -0.15995794733E+04  0.19879219573E+04  0.25500000920E-02 0. -1.
</event>
<event>
 5   0  0.2516518E-05  0.2675345E+04  0.7818609E-02  0.8343049E-01
       -2   -1    0    0    0  501  0.00000000000E+00  0.00000000000E+00  0.18016653552E+04  0.18016653552E+04  0.25500000920E-02 0.  1.
        2   -1    0    0  501    0  0.00000000000E+00  0.00000000000E+00 -0.99317422469E+03  0.99317422470E+03  0.25500000920E-02 0. -1.
    10030    2    1    2    0    0  0.00000000000E+00  0.00000000000E+00  0.80849113055E+03  0.27948395799E+04  0.26753449066E+04 0.  0.
        4    1    3    3  502    0  0.29800376563E+03 -0.12977162305E+04  0.27008712965E+03  0.13586104407E+04  0.12699999809E+01 0. -1.
       -4    1    3    3    0  502 -0.29800376563E+03  0.12977162305E+04  0.53840400089E+03  0.14362291392E+04  0.12699999809E+01 0.  1.
</event>
<event>
 5   0  0.2641216E-05  0.2690030E+04  0.7818609E-02  0.8338247E-01
       -2   -1    0    0    0  501  0.00000000000E+00  0.00000000000E+00  0.10767856235E+04  0.10767856235E+04  0.25500000920E-02 0. -1.
        2   -1    0    0  501    0  0.00000000000E+00  0.00000000000E+00 -0.16800609227E+04  0.16800609227E+04  0.25500000920E-02 0.  1.
    10030    2    1    2    0    0  0.00000000000E+00  0.00000000000E+00 -0.60327529917E+03  0.27568465462E+04  0.26900300728E+04 0.  0.
        5    1    3    3  502    0  0.48832805153E+03 -0.50420719259E+03  0.87418503847E+03  0.11211203104E+04  0.46999998093E+01 0. -1.
       -5    1    3    3    0  502 -0.48832805153E+03  0.50420719259E+03 -0.14774603376E+04  0.16357262357E+04  0.46999998093E+01 0.  1.
</event>
<event>
 5   0  0.1005265E-05  0.2758316E+04  0.7818609E-02  0.8316328E-01
       -1   -1    0    0    0  501  0.00000000000E+00  0.00000000000E+00  0.91776929531E+03  0.91776929533E+03  0.50400001928E-02 0.  1.
        1   -1    0    0  501    0  0.00000000000E+00  0.00000000000E+00 -0.20724996529E+04  0.20724996529E+04  0.50400001928E-02 0. -1.
    10030    2    1    2    0    0  0.00000000000E+00  0.00000000000E+00 -0.11547303575E+04  0.29902689482E+04  0.27583158238E+04 0.  0.
        3    1    3    3  502    0  0.72336879722E+03 -0.42001637482E+03  0.61138558681E+03  0.10360832582E+04  0.10100000352E+00 0.  1.
       -3    1    3    3    0  502 -0.72336879722E+03  0.42001637482E+03 -0.17661159444E+04  0.19541856900E+04  0.10100000352E+00 0. -1.
</event>
<event>
 5   0  0.2641216E-05  0.2655868E+04  0.7818609E-02  0.8349468E-01
       -2   -1    0    0    0  501  0.00000000000E+00  0.00000000000E+00  0.77011189783E+03  0.77011189784E+03  0.25500000920E-02 0. -1.
        2   -1    0    0  501    0  0.00000000000E+00  0.00000000000E+00 -0.22898080303E+04  0.22898080303E+04  0.25500000920E-02 0.  1.
    10030    2    1    2    0    0  0.00000000000E+00  0.00000000000E+00 -0.15196961325E+04  0.30599199282E+04  0.26558677738E+04 0.  0.
        5    1    3    3  502    0  0.12541432635E+04 -0.43610588809E+03 -0.73915297289E+03  0.15196818346E+04  0.46999998093E+01 0. -1.
       -5    1    3    3    0  502 -0.12541432635E+04  0.43610588809E+03 -0.78054315960E+03  0.15402380936E+04  0.46999998093E+01 0.  1.
</event>
<event>
 5   0  0.1041909E-05  0.2774178E+04  0.7818609E-02  0.8311330E-01
        1   -1    0    0  501    0  0.00000000000E+00  0.00000000000E+00  0.59691014907E+03  0.59691014909E+03  0.50400001928E-02 0. -1.
       -1   -1    0    0    0  501  0.00000000000E+00  0.00000000000E+00 -0.32232921265E+04  0.32232921265E+04  0.50400001928E-02 0.  1.
    10030    2    1    2    0    0  0.00000000000E+00  0.00000000000E+00 -0.26263819774E+04  0.38202022756E+04  0.27741779206E+04 0.  0.
        5    1    3    3  502    0 -0.71753184974E+03  0.11218988745E+03 -0.29405414678E+04  0.30289015732E+04  0.46999998093E+01 0.  1.
       -5    1    3    3    0  502  0.71753184974E+03 -0.11218988745E+03  0.31415949037E+03  0.79130070240E+03  0.46999998093E+01 0. -1.
</event>
<event>
 5   0  0.2641216E-05  0.2043858E+04  0.7818609E-02  0.8586386E-01
        2   -1    0    0  501    0  0.00000000000E+00  0.00000000000E+00  0.75498148754E+03  0.75498148754E+03  0.25500000920E-02 0. -1.
       -2   -1    0    0    0  501  0.00000000000E+00  0.00000000000E+00 -0.13832636770E+04  0.13832636770E+04  0.25500000920E-02 0.  1.
    10030    2    1    2    0    0  0.00000000000E+00  0.00000000000E+00 -0.62828218951E+03  0.21382451646E+04  0.20438575964E+04 0.  0.
        5    1    3    3  502    0  0.74360878680E+03 -0.85295483490E+02  0.41375365873E+03  0.85524471786E+03  0.46999998093E+01 0. -1.
       -5    1    3    3    0  502 -0.74360878680E+03  0.85295483490E+02 -0.10420358482E+04  0.12830004467E+04  0.46999998093E+01 0.  1.
</event>
<event>
 5   0  0.2540684E-05  0.1795544E+04  0.7818609E-02  0.8708673E-01
       -2   -1    0    0    0  501  0.00000000000E+00  0.00000000000E+00  0.14785763211E+04  0.14785763211E+04  0.25500000920E-02 0.  1.
        2   -1    0    0  501    0  0.00000000000E+00  0.00000000000E+00 -0.54511501325E+03  0.54511501326E+03  0.25500000920E-02 0. -1.
    10030    2    1    2    0    0  0.00000000000E+00  0.00000000000E+00  0.93346130785E+03  0.20236913344E+04  0.17955435399E+04 0.  0.
        2    1    3    3  502    0  0.14790350517E+03 -0.88371305607E+03  0.40327449878E+03  0.98257545953E+03  0.25500000920E-02 0. -1.
       -2    1    3    3    0  502 -0.14790350517E+03  0.88371305607E+03  0.53018680907E+03  0.10411158748E+04  0.25500000920E-02 0.  1.
</event>
<event>
 5   0  0.1096672E-05  0.2904418E+04  0.7818609E-02  0.8271564E-01
        1   -1    0    0  501    0  0.00000000000E+00  0.00000000000E+00  0.21546237346E+04  0.21546237346E+04  0.50400001928E-02 0. -1.
       -1   -1    0    0    0  501  0.00000000000E+00  0.00000000000E+00 -0.97878368634E+03  0.97878368635E+03  0.50400001928E-02 0.  1.
    10030    2    1    2    0    0  0.00000000000E+00  0.00000000000E+00  0.11758400483E+04  0.31334074210E+04  0.29044177121E+04 0.  0.
        1    1    3    3  502    0  0.75196748046E+03 -0.10762728149E+04  0.12574040320E+04  0.18179337621E+04  0.50400001928E-02 0. -1.
       -1    1    3    3    0  502 -0.75196748046E+03  0.10762728149E+04 -0.81563983750E+02  0.13154736588E+04  0.50400001928E-02 0.  1.
</event>
<event>
 5   0  0.1005265E-05  0.2732220E+04  0.7818609E-02  0.8324626E-01
       -1   -1    0    0    0  501  0.00000000000E+00  0.00000000000E+00  0.95742438854E+03  0.95742438855E+03  0.50400001928E-02 0.  1.
        1   -1    0    0  501    0  0.00000000000E+00  0.00000000000E+00 -0.19492471082E+04  0.19492471082E+04  0.50400001928E-02 0. -1.
    10030    2    1    2    0    0  0.00000000000E+00  0.00000000000E+00 -0.99182271970E+03  0.29066714968E+04  0.27322201381E+04 0.  0.
        3    1    3    3  502    0 -0.11537131354E+04 -0.23003011370E+03  0.24290053426E+03  0.12012362514E+04  0.10100000352E+00 0.  1.
       -3    1    3    3    0  502  0.11537131354E+04  0.23003011370E+03 -0.12347232540E+04  0.17054352454E+04  0.10100000352E+00 0. -1.
</event>
<event>
 5   0  0.2516518E-05  0.2711668E+04  0.7818609E-02  0.8331229E-01
        2   -1    0    0  501    0  0.00000000000E+00  0.00000000000E+00  0.93160423698E+03  0.93160423698E+03  0.25500000920E-02 0.  1.
       -2   -1    0    0    0  501  0.00000000000E+00  0.00000000000E+00 -0.19732480209E+04  0.19732480209E+04  0.25500000920E-02 0. -1.
    10030    2    1    2    0    0  0.00000000000E+00  0.00000000000E+00 -0.10416437839E+04  0.29048522579E+04  0.27116682813E+04 0.  0.
        4    1    3    3  502    0  0.10541735093E+04 -0.79047244960E+03 -0.17843298293E+03  0.13296497372E+04  0.12699999809E+01 0.  1.
       -4    1    3    3    0  502 -0.10541735093E+04  0.79047244960E+03 -0.86321080102E+03  0.15752025207E+04  0.12699999809E+01 0. -1.
</event>
<event>
 5   0  0.2516518E-05  0.2746262E+04  0.7818609E-02  0.8320149E-01
       -2   -1    0    0    0  501  0.00000000000E+00  0.00000000000E+00  0.13041005366E+04  0.13041005366E+04  0.25500000920E-02 0.  1.
        2   -1    0    0  501    0  0.00000000000E+00  0.00000000000E+00 -0.14458150802E+04  0.14458150802E+04  0.25500000920E-02 0. -1.
    10030    2    1    2    0    0  0.00000000000E+00  0.00000000000E+00 -0.14171454358E+03  0.27499156168E+04  0.27462616204E+04 0.  0.
        4    1    3    3  502    0  0.51824900226E+03 -0.23289497354E+03  0.11808717872E+04  0.13104510245E+04  0.12699999809E+01 0.  1.
       -4    1    3    3    0  502 -0.51824900226E+03  0.23289497354E+03 -0.13225863308E+04  0.14394645922E+04  0.12699999809E+01 0. -1.
</event>
<event>
 5   0  0.2540232E-05  0.2699135E+04  0.7818609E-02  0.8335286E-01
        2   -1    0    0  501    0  0.00000000000E+00  0.00000000000E+00  0.21451821061E+04  0.21451821061E+04  0.25500000920E-02 0.  1.
       -2   -1    0    0    0  501  0.00000000000E+00  0.00000000000E+00 -0.84903388493E+03  0.84903388493E+03  0.25500000920E-02 0. -1.
    10030    2    1    2    0    0  0.00000000000E+00  0.00000000000E+00  0.12961482211E+04  0.29942159910E+04  0.26991348965E+04 0.  0.
        1    1    3    3  502    0  0.43582132287E+03  0.45564338458E+03 -0.67559720912E+03  0.92411184841E+03  0.50400001928E-02 0. -1.
       -1    1    3    3    0  502 -0.43582132287E+03 -0.45564338458E+03  0.19717454303E+04  0.20701041426E+04  0.50400001928E-02 0.  1.
</event>
<event>
 5   0  0.2641216E-05  0.2322921E+04  0.7818609E-02  0.8468938E-01
       -2   -1    0    0    0  501  0.00000000000E+00  0.00000000000E+00  0.40659426873E+03  0.40659426874E+03  0.25500000920E-02 0. -1.
        2   -1    0    0  501    0  0.00000000000E+00  0.00000000000E+00 -0.33177797704E+04  0.33177797704E+04  0.25500000920E-02 0.  1.
    10030    2    1    2    0    0  0.00000000000E+00  0.00000000000E+00 -0.29111855017E+04  0.37243740391E+04  0.23229207818E+04 0.  0.
        5    1    3    3  502    0 -0.86705661877E+03  0.61536476217E+03 -0.70612707738E+03  0.12763614339E+04  0.46999998093E+01 0. -1.
       -5    1    3    3    0  502  0.86705661877E+03 -0.61536476217E+03 -0.22050584243E+04  0.24480126052E+04  0.46999998093E+01 0.  1.
</event>
<event>
 5   0  0.1005265E-05  0.2702200E+04  0.7818609E-02  0.8334291E-01
       -1   -1    0    0    0  501  0.00000000000E+00  0.00000000000E+00  0.11359764224E+04  0.11359764224E+04  0.50400001928E-02 0. -1.
        1   -1    0    0  501    0  0.00000000000E+00  0.00000000000E+00 -0.16069625148E+04  0.16069625148E+04  0.50400001928E-02 0.  1.
    10030    2    1    2    0    0  0.00000000000E+00  0.00000000000E+00 -0.47098609245E+03  0.27429389372E+04  0.27022002357E+04 0.  0.
        3    1    3    3  502    0 -0.59818351469E+03 -0.79381274738E+03 -0.11644453950E+04  0.15309785378E+04  0.10100000352E+00 0.  1.
       -3    1    3    3    0  502  0.59818351469E+03  0.79381274738E+03  0.69345930256E+03  0.12119603994E+04  0.10100000352E+00 0. -1.
</event>
<event>
 5   0  0.1096672E-05  0.2544111E+04  0.7818609E-02  0.8387437E-01
        1   -1    0    0  501    0  0.00000000000E+00  0.00000000000E+00  0.14613254325E+04  0.14613254325E+04  0.50400001928E-02 0.  1.
       -1   -1    0    0    0  501  0.00000000000E+00  0.00000000000E+00 -0.11072992717E+04  0.11072992717E+04  0.50400001928E-02 0. -1.
    10030    2    1    2    0    0  0.00000000000E+00  0.00000000000E+00  0.35402616084E+03  0.25686247043E+04  0.25441105221E+04 0.  0.
        1    1    3    3  502    0  0.12554131519E+04  0.17542935606E+03  0.69749346633E+02  0.12695285000E+04  0.50400001928E-02 0. -1.
       -1    1    3    3    0  502 -0.12554131519E+04 -0.17542935606E+03  0.28427681421E+03  0.12990962043E+04  0.50400001928E-02 0.  1.
</event>
<event>
 5   0  0.2540684E-05  0.2705448E+04  0.7818609E-02  0.8333239E-01
        2   -1    0    0  501    0  0.00000000000E+00  0.00000000000E+00  0.20308695403E+04  0.20308695403E+04  0.25500000920E-02 0. -1.
       -2   -1    0    0    0  501  0.00000000000E+00  0.00000000000E+00 -0.90102402396E+03  0.90102402396E+03  0.25500000920E-02 0.  1.
    10030    2    1    2    0    0  0.00000000000E+00  0.00000000000E+00  0.11298455163E+04  0.29318935642E+04  0.27054480186E+04 0.  0.
        2    1    3    3  502    0  0.48145842303E+03 -0.89202153867E+03 -0.40579504186E+03  0.10918673246E+04  0.25500000920E-02 0.  1.
       -2    1    3    3    0  502 -0.48145842303E+03  0.89202153867E+03  0.15356405582E+04  0.18400262396E+04  0.25500000920E-02 0. -1.
</event>
<event>
 5   0  0.1041909E-05  0.2788066E+04  0.7818609E-02  0.8306983E-01
       -1   -1    0    0    0  501  0.00000000000E+00  0.00000000000E+00  0.19134231362E+04  0.19134231362E+04  0.50400001928E-02 0. -1.
        1   -1    0    0  501    0  0.00000000000E+00  0.00000000000E+00 -0.10156290081E+04  0.10156290081E+04  0.50400001928E-02 0.  1.
    10030    2    1    2    0    0  0.00000000000E+00  0.00000000000E+00  0.89779412818E+03  0.29290521443E+04  0.27880660264E+04 0.  0.
        5    1    3    3  502    0  0.29670748819E+03 -0.12814169057E+04  0.93402886318E+03  0.16132255350E+04  0.46999998093E+01 0.  1.
       -5    1    3    3    0  502 -0.29670748819E+03  0.12814169057E+04 -0.36234735003E+02  0.13158266093E+04  0.46999998093E+01 0. -1.
</event>
<event>
 5   0  0.1005265E-05  0.2756078E+04  0.7818609E-02  0.8317035E-01
        1   -1    0    0  501    0  0.00000000000E+00  0.00000000000E+00  0.22850402467E+04  0.22850402467E+04  0.50400001928E-02 0. -1.
       -1   -1    0    0    0  501  0.00000000000E+00  0.00000000000E+00 -0.83105405473E+03  0.83105405475E+03  0.50400001928E-02 0.  1.
    10030    2    1    2    0    0  0.00000000000E+00  0.00000000000E+00  0.14539861920E+04  0.31160943015E+04  0.27560783460E+04 0.  0.
        3    1    3    3  502    0  0.24690162256E+01  0.33651311609E+03 -0.78388257396E+03  0.85306451883E+03  0.10100000352E+00 0.  1.
       -3    1    3    3    0  502 -0.24690162256E+01 -0.33651311609E+03  0.22378687660E+04  0.22630297827E+04  0.10100000352E+00 0. -1.
</event>
<event>
 5   0  0.9971923E-06  0.2675209E+04  0.7818609E-02  0.8343094E-01
       -1   -1    0    0    0  501  0.00000000000E+00  0.00000000000E+00  0.73440135348E+03  0.73440135350E+03  0.50400001928E-02 0.  1.
        1   -1    0    0  501    0  0.00000000000E+00  0.00000000000E+00 -0.24362500345E+04  0.24362500345E+04  0.50400001928E-02 0. -1.
    10030    2    1    2    0    0  0.00000000000E+00  0.00000000000E+00 -0.17018486810E+04  0.31706513880E+04  0.26752086444E+04 0.  0.
        2    1    3    3  502    0 -0.50297350074E+03 -0.24927562149E+03  0.58803691295E+03  0.81296253844E+03  0.25500000920E-02 0.  1.
       -2    1    3    3    0  502  0.50297350074E+03  0.24927562149E+03 -0.22898855940E+04  0.23576888496E+04  0.25500000920E-02 0. -1.
</event>
<event>
 5   0  0.2540684E-05  0.2612862E+04  0.7818609E-02  0.8363846E-01
        2   -1    0    0  501    0  0.00000000000E+00  0.00000000000E+00  0.18257121117E+04  0.18257121117E+04  0.25500000920E-02 0. -1.
       -2   -1    0    0    0  501  0.00000000000E+00  0.00000000000E+00 -0.93484693123E+03  0.93484693123E+03  0.25500000920E-02 0.  1.
    10030    2    1    2    0    0  0.00000000000E+00  0.00000000000E+00  0.89086518052E+03  0.27605590430E+04  0.26128615463E+04 0.  0.
        2    1    3    3  502    0 -0.86452080544E+03 -0.87671188157E+03 -0.15994562549E+02  0.12313715005E+04  0.25500000920E-02 0.  1.
       -2    1    3    3    0  502  0.86452080544E+03  0.87671188157E+03  0.90685974307E+03  0.15291875424E+04  0.25500000920E-02 0. -1.
</event>
<event>
 5   0  0.2615843E-05  0.2726836E+04  0.7818609E-02  0.8326350E-01
       -2   -1    0    0    0  501  0.00000000000E+00  0.00000000000E+00  0.12382117387E+04  0.12382117387E+04  0.25500000920E-02 0. -1.
        2   -1    0    0  501    0  0.00000000000E+00  0.00000000000E+00 -0.15012848665E+04  0.15012848665E+04  0.25500000920E-02 0.  1.
    10030    2    1    2    0    0  0.00000000000E+00  0.00000000000E+00 -0.26307312781E+03  0.27394966053E+04  0.27268359283E+04 0.  0.
        3    1    3    3  502    0  0.94928767771E+02  0.11814174109E+04  0.54549887419E+03  0.13047327702E+04  0.10100000352E+00 0. -1.
       -3    1    3    3    0  502 -0.94928767771E+02 -0.11814174109E+04 -0.80857200200E+03  0.14347638350E+04  0.10100000352E+00 0.  1.
</event>
<event>
 5   0  0.1041909E-05  0.2675783E+04  0.7818609E-02  0.8342905E-01
        1   -1    0    0  501    0  0.00000000000E+00  0.00000000000E+00  0.15891087254E+04  0.15891087254E+04  0.50400001928E-02 0.  1.
       -1   -1    0    0    0  501  0.00000000000E+00  0.00000000000E+00 -0.11263887395E+04  0.11263887395E+04  0.50400001928E-02 0. -1.
    10030    2    1    2    0    0  0.00000000000E+00  0.00000000000E+00  0.46271998589E+03  0.27154974649E+04  0.26757833800E+04 0.  0.
        5    1    3    3  502    0  0.73782212541E+03  0.99340384085E+03 -0.28481405355E+03  0.12697928236E+04  0.46999998093E+01 0. -1.
       -5    1    3    3    0  502 -0.73782212541E+03 -0.99340384085E+03  0.74753403944E+03  0.14457046413E+04  0.46999998093E+01 0.  1.
</event>
<event>
 5   0  0.1096672E-05  0.2657560E+04  0.7818609E-02  0.8348908E-01
        1   -1    0    0  501    0  0.00000000000E+00  0.00000000000E+00  0.90970885957E+03  0.90970885959E+03  0.50400001928E-02 0. -1.
       -1   -1    0    0    0  501  0.00000000000E+00  0.00000000000E+00 -0.19409024225E+04  0.19409024225E+04  0.50400001928E-02 0.  1.
    10030    2    1    2    0    0  0.00000000000E+00  0.00000000000E+00 -0.10311935629E+04  0.28506112821E+04  0.26575598803E+04 0.  0.
        1    1    3    3  502    0 -0.12677747625E+04 -0.15522903918E+03 -0.12249534514E+03  0.12831032744E+04  0.50400001928E-02 0.  1.
       -1    1    3    3    0  502  0.12677747625E+04  0.15522903918E+03 -0.90869821776E+03  0.15675080077E+04  0.50400001928E-02 0. -1.
</event>
<event>
 5   0  0.1005265E-05  0.2632108E+04  0.7818609E-02  0.8357376E-01
        1   -1    0    0  501    0  0.00000000000E+00  0.00000000000E+00  0.88456854150E+03  0.88456854151E+03  0.50400001928E-02 0. -1.
       -1   -1    0    0    0  501  0.00000000000E+00  0.00000000000E+00 -0.19580147370E+04  0.19580147370E+04  0.50400001928E-02 0.  1.
    10030    2    1    2    0    0  0.00000000000E+00  0.00000000000E+00 -0.10734461955E+04  0.28425832785E+04  0.26321080830E+04 0.  0.
        3    1    3    3  502    0 -0.58160360151E+03 -0.55750540384E+03 -0.16605729896E+04  0.18456916559E+04  0.10100000352E+00 0.  1.
       -3    1    3    3    0  502  0.58160360151E+03  0.55750540384E+03  0.58712679413E+03  0.99689162259E+03  0.10100000352E+00 0. -1.
</event>
<event>
 5   0  0.2641216E-05  0.2692132E+04  0.7818609E-02  0.8337562E-01
        2   -1    0    0  501    0  0.00000000000E+00  0.00000000000E+00  0.14851219687E+04  0.14851219687E+04  0.25500000920E-02 0. -1.
       -2   -1    0    0    0  501  0.00000000000E+00  0.00000000000E+00 -0.12200304806E+04  0.12200304806E+04  0.25500000920E-02 0.  1.
    10030    2    1    2    0    0  0.00000000000E+00  0.00000000000E+00  0.26509148812E+03  0.27051524493E+04  0.26921322919E+04 0.  0.
        5    1    3    3  502    0 -0.30573624899E+03  0.19901828595E+03 -0.11694015731E+04  0.12249918618E+04  0.46999998093E+01 0.  1.
       -5    1    3    3    0  502  0.30573624899E+03 -0.19901828595E+03  0.14344930613E+04  0.14801605875E+04  0.46999998093E+01 0. -1.
</event>
<event>
 5   0  0.8740500E-06  0.2730445E+04  0.7818609E-02  0.8325194E-01
       -3   -1    0    0    0  501  0.00000000000E+00  0.00000000000E+00  0.10209281926E+04  0.10209281976E+04  0.10100000352E+00 0.  1.
        3   -1    0    0  501    0  0.00000000000E+00  0.00000000000E+00 -0.18256248017E+04  0.18256248045E+04  0.10100000352E+00 0. -1.
    10030    2    1    2    0    0  0.00000000000E+00  0.00000000000E+00 -0.80469660911E+03  0.28465530021E+04  0.27304445355E+04 0.  0.
        1    1    3    3  502    0  0.12143606019E+02  0.98188726121E+03 -0.13911432573E+04  0.17028005236E+04  0.50400001928E-02 0. -1.
       -1    1    3    3    0  502 -0.12143606019E+02 -0.98188726121E+03  0.58644664820E+03  0.11437524785E+04  0.50400001928E-02 0.  1.
</event>
<event>
 5   0  0.2540684E-05  0.2210398E+04  0.7818609E-02  0.8514113E-01
        2   -1    0    0  501    0  0.00000000000E+00  0.00000000000E+00  0.92433651817E+03  0.92433651817E+03  0.25500000920E-02 0.  1.
       -2   -1    0    0    0  501  0.00000000000E+00  0.00000000000E+00 -0.13214504828E+04  0.13214504828E+04  0.25500000920E-02 0. -1.
    10030    2    1    2    0    0  0.00000000000E+00  0.00000000000E+00 -0.39711396464E+03  0.22457870010E+04  0.22103980983E+04 0.  0.
        2    1    3    3  502    0  0.25450603152E+03  0.83744913919E+03 -0.88417234310E+03  0.12441282543E+04  0.25500000920E-02 0. -1.
       -2    1    3    3    0  502 -0.25450603152E+03 -0.83744913919E+03  0.48705837846E+03  0.10016587467E+04  0.25500000920E-02 0.  1.
</event>
<event>
 5   0  0.2540684E-05  0.1991403E+04  0.7818609E-02  0.8610651E-01
       -2   -1    0    0    0  501  0.00000000000E+00  0.00000000000E+00  0.88101288203E+03  0.88101288204E+03  0.25500000920E-02 0. -1.
        2   -1    0    0  501    0  0.00000000000E+00  0.00000000000E+00 -0.11253203193E+04  0.11253203193E+04  0.25500000920E-02 0.  1.
    10030    2    1    2    0    0  0.00000000000E+00  0.00000000000E+00 -0.24430743724E+03  0.20063332013E+04  0.19914032216E+04 0.  0.
        2    1    3    3  502    0  0.79633994161E+03  0.50268552861E+03  0.20364610448E+03  0.96349456623E+03  0.25500000920E-02 0. -1.
       -2    1    3    3    0  502 -0.79633994161E+03 -0.50268552861E+03 -0.44795354172E+03  0.10428386351E+04  0.25500000920E-02 0.  1.
</event>
<event>
 5   0  0.2641216E-05  0.2625604E+04  0.7818609E-02  0.8359556E-01
       -2   -1    0    0    0  501  0.00000000000E+00  0.00000000000E+00  0.11138213412E+04  0.11138213412E+04  0.25500000920E-02 0. -1.
        2   -1    0    0  501    0  0.00000000000E+00  0.00000000000E+00 -0.15473297535E+04  0.15473297535E+04  0.25500000920E-02 0.  1.
    10030    2    1    2    0    0  0.00000000000E+00  0.00000000000E+00 -0.43350841228E+03  0.26611510946E+04  0.26256038553E+04 0.  0.
        5    1    3    3  502    0 -0.10694292027E+04  0.28580092677E+03  0.49853834521E+03  0.12140525363E+04  0.46999998093E+01 0. -1.
       -5    1    3    3    0  502  0.10694292027E+04 -0.28580092677E+03 -0.93204675750E+03  0.14470985583E+04  0.46999998093E+01 0.  1.
</event>
<event>
 5   0  0.2540232E-05  0.2632906E+04  0.7818609E-02  0.8357109E-01
        2   -1    0    0  501    0  0.00000000000E+00  0.00000000000E+00  0.11159803515E+04  0.11159803515E+04  0.25500000920E-02 0. -1.
       -2   -1    0    0    0  501  0.00000000000E+00  0.00000000000E+00 -0.15529379082E+04  0.15529379082E+04  0.25500000920E-02 0.  1.
    10030    2    1    2    0    0  0.00000000000E+00  0.00000000000E+00 -0.43695755672E+03  0.26689182598E+04  0.26329057657E+04 0.  0.
        1    1    3    3  502    0 -0.41306626504E+03 -0.11506030572E+04 -0.71356163337E+03  0.14155145140E+04  0.50400001928E-02 0.  1.
       -1    1    3    3    0  502  0.41306626504E+03  0.11506030572E+04  0.27660407666E+03  0.12534037458E+04  0.50400001928E-02 0. -1.
</event>
<event>
 5   0  0.2540684E-05  0.2725031E+04  0.7818609E-02  0.8326929E-01
       -2   -1    0    0    0  501  0.00000000000E+00  0.00000000000E+00  0.16701245209E+04  0.16701245209E+04  0.25500000920E-02 0.  1.
        2   -1    0    0  501    0  0.00000000000E+00  0.00000000000E+00 -0.11115625520E+04  0.11115625520E+04  0.25500000920E-02 0. -1.
    10030    2    1    2    0    0  0.00000000000E+00  0.00000000000E+00  0.55856196892E+03  0.27816870729E+04  0.27250305500E+04 0.  0.
        2    1    3    3  502    0 -0.13501173015E+04  0.17327079019E+03  0.34059969680E+03  0.14031563163E+04  0.25500000920E-02 0. -1.
       -2    1    3    3    0  502  0.13501173015E+04 -0.17327079019E+03  0.21796227212E+03  0.13785307565E+04  0.25500000920E-02 0.  1.
</event>
<event>
 5   0  0.2540232E-05  0.2640652E+04  0.7818609E-02  0.8354522E-01
       -2   -1    0    0    0  501  0.00000000000E+00  0.00000000000E+00  0.17633601540E+04  0.17633601540E+04  0.25500000920E-02 0. -1.
        2   -1    0    0  501    0  0.00000000000E+00  0.00000000000E+00 -0.98860172815E+03  0.98860172815E+03  0.25500000920E-02 0.  1.
    10030    2    1    2    0    0  0.00000000000E+00  0.00000000000E+00  0.77475842586E+03  0.27519618822E+04  0.26406521131E+04 0.  0.
        1    1    3    3  502    0 -0.10923413718E+04 -0.64309838887E+03  0.77237756121E+03  0.14843693298E+04  0.50400001928E-02 0. -1.
       -1    1    3    3    0  502  0.10923413718E+04  0.64309838887E+03  0.23808646461E+01  0.12675925523E+04  0.50400001928E-02 0.  1.
</event>
<event>
 5   0  0.1036691E-05  0.2431816E+04  0.7818609E-02  0.8427687E-01
       -1   -1    0    0    0  501  0.00000000000E+00  0.00000000000E+00  0.11634039051E+04  0.11634039051E+04  0.50400001928E-02 0.  1.
        1   -1    0    0  501    0  0.00000000000E+00  0.00000000000E+00 -0.12707819203E+04  0.12707819203E+04  0.50400001928E-02 0. -1.
    10030    2    1    2    0    0  0.00000000000E+00  0.00000000000E+00 -0.10737801522E+03  0.24341858254E+04  0.24318163159E+04 0.  0.
        4    1    3    3  502    0 -0.19550117466E+03  0.64988269442E+03 -0.10635639224E+04  0.12616410170E+04  0.12699999809E+01 0. -1.
       -4    1    3    3    0  502  0.19550117466E+03 -0.64988269442E+03  0.95618590716E+03  0.11725448084E+04  0.12699999809E+01 0.  1.
</event>
<event>
 5   0  0.1036691E-05  0.1786857E+04  0.7818609E-02  0.8713320E-01
       -1   -1    0    0    0  501  0.00000000000E+00  0.00000000000E+00  0.60070617630E+03  0.60070617633E+03  0.50400001928E-02 0. -1.
        1   -1    0    0  501    0  0.00000000000E+00  0.00000000000E+00 -0.13287932781E+04  0.13287932781E+04  0.50400001928E-02 0.  1.
    10030    2    1    2    0    0  0.00000000000E+00  0.00000000000E+00 -0.72808710179E+03  0.19294994544E+04  0.17868568261E+04 0.  0.
        4    1    3    3  502    0  0.44515284626E+03  0.76942591487E+03 -0.46083995651E+03  0.10012753734E+04  0.12699999809E+01 0.  1.
       -4    1    3    3    0  502 -0.44515284626E+03 -0.76942591487E+03 -0.26724714528E+03  0.92822408101E+03  0.12699999809E+01 0. -1.
</event>
<event>
 5   0  0.1036691E-05  0.2777093E+04  0.7818609E-02  0.8310415E-01
       -1   -1    0    0    0  501  0.00000000000E+00  0.00000000000E+00  0.14390699783E+04  0.14390699783E+04  0.50400001928E-02 0.  1.
        1   -1    0    0  501    0  0.00000000000E+00  0.00000000000E+00 -0.13397973033E+04  0.13397973033E+04  0.50400001928E-02 0. -1.
    10030    2    1    2    0    0  0.00000000000E+00  0.00000000000E+00  0.99272675043E+02  0.27788672816E+04  0.27770934995E+04 0.  0.
        4    1    3    3  502    0 -0.11109942465E+04 -0.65212574219E+03  0.56812196456E+03  0.14079560998E+04  0.12699999809E+01 0.  1.
       -4    1    3    3    0  502  0.11109942465E+04  0.65212574219E+03 -0.46884928952E+03  0.13709111818E+04  0.12699999809E+01 0. -1.
</event>
<event>
 5   0  0.2516518E-05  0.2686733E+04  0.7818609E-02  0.8339322E-01
        2   -1    0    0  501    0  0.00000000000E+00  0.00000000000E+00  0.10661336853E+04  0.10661336853E+04  0.25500000920E-02 0. -1.
       -2   -1    0    0    0  501  0.00000000000E+00  0.00000000000E+00 -0.16926897475E+04  0.16926897475E+04  0.25500000920E-02 0.  1.
    10030    2    1    2    0    0  0.00000000000E+00  0.00000000000E+00 -0.62655606226E+03  0.27588234328E+04  0.26867330039E+04 0.  0.
        4    1    3    3  502    0 -0.10397355779E+04 -0.31546540004E+03 -0.11244515631E+04  0.15636372409E+04  0.12699999809E+01 0.  1.
       -4    1    3    3    0  502  0.10397355779E+04  0.31546540004E+03  0.49789550085E+03  0.11951861919E+04  0.12699999809E+01 0. -1.
</event>
<event>
 5   0  0.1041909E-05  0.2611299E+04  0.7818609E-02  0.8364373E-01
        1   -1    0    0  501    0  0.00000000000E+00  0.00000000000E+00  0.12566630635E+04  0.12566630635E+04  0.50400001928E-02 0. -1.
       -1   -1    0    0    0  501  0.00000000000E+00  0.00000000000E+00 -0.13565455711E+04  0.13565455711E+04  0.50400001928E-02 0.  1.
    10030    2    1    2    0    0  0.00000000000E+00  0.00000000000E+00 -0.99882507548E+02  0.26132086346E+04  0.26112990738E+04 0.  0.
        5    1    3    3  502    0 -0.12112104929E+04  0.17870483458E+03  0.40396771118E+03  0.12892549312E+04  0.46999998093E+01 0. -1.
       -5    1    3    3    0  502  0.12112104929E+04 -0.17870483458E+03 -0.50385021873E+03  0.13239537034E+04  0.46999998093E+01 0.  1.
</event>
<event>
 5   0  0.9971923E-06  0.2750836E+04  0.7818609E-02  0.8318696E-01
        1   -1    0    0  501    0  0.00000000000E+00  0.00000000000E+00  0.22109119160E+04  0.22109119160E+04  0.50400001928E-02 0.  1.
       -1   -1    0    0    0  501  0.00000000000E+00  0.00000000000E+00 -0.85565358715E+03  0.85565358716E+03  0.50400001928E-02 0. -1.
    10030    2    1    2    0    0  0.00000000000E+00  0.00000000000E+00  0.13552583289E+04  0.30665655032E+04  0.27508360270E+04 0.  0.
        2    1    3    3  502    0 -0.82809728701E+03 -0.10834944962E+04  0.87726205337E+03  0.16215098366E+04  0.25500000920E-02 0. -1.
       -2    1    3    3    0  502  0.82809728701E+03  0.10834944962E+04  0.47799627552E+03  0.14450556666E+04  0.25500000920E-02 0.  1.
</event>
<event>
 5   0  0.1036691E-05  0.2781357E+04  0.7818609E-02  0.8309080E-01
       -1   -1    0    0    0  501  0.00000000000E+00  0.00000000000E+00  0.15428058081E+04  0.15428058081E+04  0.50400001928E-02 0. -1.
        1   -1    0    0  501    0  0.00000000000E+00  0.00000000000E+00 -0.12535515898E+04  0.12535515898E+04  0.50400001928E-02 0.  1.
    10030    2    1    2    0    0  0.00000000000E+00  0.00000000000E+00  0.28925421831E+03  0.27963573980E+04  0.27813569879E+04 0.  0.
        4    1    3    3  502    0  0.58103626004E+03 -0.16025615900E+03  0.14046619369E+04  0.15285162551E+04  0.12699999809E+01 0. -1.
       -4    1    3    3    0  502 -0.58103626004E+03  0.16025615900E+03 -0.11154077186E+04  0.12678411429E+04  0.12699999809E+01 0.  1.
</event>
<event>
 5   0  0.1036691E-05  0.2714136E+04  0.7818609E-02  0.8330433E-01
       -1   -1    0    0    0  501  0.00000000000E+00  0.00000000000E+00  0.11586751022E+04  0.11586751023E+04  0.50400001928E-02 0. -1.
        1   -1    0    0  501    0  0.00000000000E+00  0.00000000000E+00 -0.15894308151E+04  0.15894308151E+04  0.50400001928E-02 0.  1.
    10030    2    1    2    0    0  0.00000000000E+00  0.00000000000E+00 -0.43075571284E+03  0.27481059173E+04  0.27141362620E+04 0.  0.
        4    1    3    3  502    0 -0.40380495200E+03 -0.34651017380E+03 -0.14794034236E+04  0.15721844174E+04  0.12699999809E+01 0.  1.
       -4    1    3    3    0  502  0.40380495200E+03  0.34651017380E+03  0.10486477107E+04  0.11759214999E+04  0.12699999809E+01 0. -1.
</event>
<event>
 5   0  0.2615843E-05  0.2569463E+04  0.7818609E-02  0.8378648E-01
        2   -1    0    0  501    0  0.00000000000E+00  0.00000000000E+00  0.19850021972E+04  0.19850021972E+04  0.25500000920E-02 0.  1.
       -2   -1    0    0    0  501  0.00000000000E+00  0.00000000000E+00 -0.83150299600E+03  0.83150299601E+03  0.25500000920E-02 0. -1.
    10030    2    1    2    0    0  0.00000000000E+00  0.00000000000E+00  0.11534992012E+04  0.28165051932E+04  0.25694631922E+04 0.  0.
        3    1    3    3  502    0 -0.31130687675E+03  0.10935809068E+04  0.12323362639E+04  0.16767479980E+04  0.10100000352E+00 0.  1.
       -3    1    3    3    0  502  0.31130687675E+03 -0.10935809068E+04 -0.78837062741E+02  0.11397571952E+04  0.10100000352E+00 0. -1.
</event>
<event>
 5   0  0.9971923E-06  0.2777296E+04  0.7818609E-02  0.8310352E-01
       -1   -1    0    0    0  501  0.00000000000E+00  0.00000000000E+00  0.67824932848E+03  0.67824932850E+03  0.50400001928E-02 0.  1.
        1   -1    0    0  501    0  0.00000000000E+00  0.00000000000E+00 -0.28431192224E+04  0.28431192224E+04  0.50400001928E-02 0. -1.
    10030    2    1    2    0    0  0.00000000000E+00  0.00000000000E+00 -0.21648698940E+04  0.35213685509E+04  0.27772963136E+04 0.  0.
        2    1    3    3  502    0 -0.37957941406E+03 -0.12674325810E+04 -0.16171841774E+04  0.20894378532E+04  0.25500000920E-02 0.  1.
       -2    1    3    3    0  502  0.37957941406E+03  0.12674325810E+04 -0.54768571660E+03  0.14319306977E+04  0.25500000920E-02 0. -1.
</event>
<event>
 5   0  0.2615843E-05  0.2690364E+04  0.7818609E-02  0.8338138E-01
       -2   -1    0    0    0  501  0.00000000000E+00  0.00000000000E+00  0.78874727688E+03  0.78874727688E+03  0.25500000920E-02 0.  1.
        2   -1    0    0  501    0  0.00000000000E+00  0.00000000000E+00 -0.22941628112E+04  0.22941628112E+04  0.25500000920E-02 0. -1.
    10030    2    1    2    0    0  0.00000000000E+00  0.00000000000E+00 -0.15054155344E+04  0.30829100881E+04  0.26903640423E+04 0.  0.
        3    1    3    3  502    0  0.11907511673E+04 -0.40377514725E+02 -0.37092049510E+02  0.11920128005E+04  0.10100000352E+00 0.  1.
       -3    1    3    3    0  502 -0.11907511673E+04  0.40377514725E+02 -0.14683234848E+04  0.18908972877E+04  0.10100000352E+00 0. -1.
</event>
<event>
 5   0  0.1041909E-05  0.2692299E+04  0.7818609E-02  0.8337508E-01
       -1   -1    0    0    0  501  0.00000000000E+00  0.00000000000E+00  0.13497670688E+04  0.13497670688E+04  0.50400001928E-02 0. -1.
        1   -1    0    0  501    0  0.00000000000E+00  0.00000000000E+00 -0.13425419275E+04  0.13425419275E+04  0.50400001928E-02 0.  1.
    10030    2    1    2    0    0  0.00000000000E+00  0.00000000000E+00  0.72251412963E+01  0.26923089964E+04  0.26922993016E+04 0.  0.
        5    1    3    3  502    0 -0.28585819428E+02  0.13373144243E+04  0.15484067126E+03  0.13465603373E+04  0.46999998093E+01 0. -1.
       -5    1    3    3    0  502  0.28585819428E+02 -0.13373144243E+04 -0.14761552997E+03  0.13457486590E+04  0.46999998093E+01 0.  1.
</event>
<event>
 5   0  0.2615843E-05  0.2707497E+04  0.7818609E-02  0.8332577E-01
       -2   -1    0    0    0  501  0.00000000000E+00  0.00000000000E+00  0.13896931351E+04  0.13896931351E+04  0.25500000920E-02 0.  1.
        2   -1    0    0  501    0  0.00000000000E+00  0.00000000000E+00 -0.13187336775E+04  0.13187336775E+04  0.25500000920E-02 0. -1.
    10030    2    1    2    0    0  0.00000000000E+00  0.00000000000E+00  0.70959457642E+02  0.27084268126E+04  0.27074971015E+04 0.  0.
        3    1    3    3  502    0  0.24915885303E+03 -0.27511445892E+03 -0.12668379010E+04  0.13200933214E+04  0.10100000352E+00 0. -1.
       -3    1    3    3    0  502 -0.24915885303E+03  0.27511445892E+03  0.13377973587E+04  0.13883334912E+04  0.10100000352E+00 0.  1.
</event>
<event>
 5   0  0.1005265E-05  0.2551182E+04  0.7818609E-02  0.8384975E-01
        1   -1    0    0  501    0  0.00000000000E+00  0.00000000000E+00  0.10080918518E+04  0.10080918518E+04  0.50400001928E-02 0.  1.
       -1   -1    0    0    0  501  0.00000000000E+00  0.00000000000E+00 -0.16140721401E+04  0.16140721401E+04  0.50400001928E-02 0. -1.
    10030    2    1    2    0    0  0.00000000000E+00  0.00000000000E+00 -0.60598028832E+03  0.26221639919E+04  0.25511824495E+04 0.  0.
        3    1    3    3  502    0 -0.71299645799E+03  0.10558823547E+04 -0.36702497171E+03  0.13258804004E+04  0.10100000352E+00 0.  1.
       -3    1    3    3    0  502  0.71299645799E+03 -0.10558823547E+04 -0.23895531661E+03  0.12962835915E+04  0.10100000352E+00 0. -1.
</event>
<event>
 5   0  0.1041909E-05  0.2203333E+04  0.7818609E-02  0.8517042E-01
        1   -1    0    0  501    0  0.00000000000E+00  0.00000000000E+00  0.18079586568E+04  0.18079586568E+04  0.50400001928E-02 0. -1.
       -1   -1    0    0    0  501  0.00000000000E+00  0.00000000000E+00 -0.67129268064E+03  0.67129268065E+03  0.50400001928E-02 0.  1.
    10030    2    1    2    0    0  0.00000000000E+00  0.00000000000E+00  0.11366659762E+04  0.24792513375E+04  0.22033333050E+04 0.  0.
        5    1    3    3  502    0 -0.94257932646E+03  0.47873634136E+03  0.91697753508E+03  0.13994692426E+04  0.46999998093E+01 0. -1.
       -5    1    3    3    0  502  0.94257932646E+03 -0.47873634136E+03  0.21968844109E+03  0.10797820948E+04  0.46999998093E+01 0.  1.
</event>
<event>
 5   0  0.2641216E-05  0.2845584E+04  0.7818609E-02  0.8289254E-01
        2   -1    0    0  501    0  0.00000000000E+00  0.00000000000E+00  0.14968906878E+04  0.14968906878E+04  0.25500000920E-02 0.  1.
       -2   -1    0    0    0  501  0.00000000000E+00  0.00000000000E+00 -0.13523616824E+04  0.13523616824E+04  0.25500000920E-02 0. -1.
    10030    2    1    2    0    0  0.00000000000E+00  0.00000000000E+00  0.14452900541E+03  0.28492523702E+04  0.28455843750E+04 0.  0.
        5    1    3    3  502    0 -0.99008652579E+03  0.15317926738E+03 -0.93927545230E+03  0.13733155798E+04  0.46999998093E+01 0. -1.
       -5    1    3    3    0  502  0.99008652579E+03 -0.15317926738E+03  0.10838044577E+04  0.14759367903E+04  0.46999998093E+01 0.  1.
</event>
<event>
 5   0  0.1005265E-05  0.2728015E+04  0.7818609E-02  0.8325972E-01
        1   -1    0    0  501    0  0.00000000000E+00  0.00000000000E+00  0.14119015186E+04  0.14119015186E+04  0.50400001928E-02 0. -1.
       -1   -1    0    0    0  501  0.00000000000E+00  0.00000000000E+00 -0.13177384242E+04  0.13177384242E+04  0.50400001928E-02 0.  1.
    10030    2    1    2    0    0  0.00000000000E+00  0.00000000000E+00  0.94163094385E+02  0.27296399428E+04  0.27280153095E+04 0.  0.
        3    1    3    3  502    0 -0.13572463448E+04  0.11635430729E+02 -0.88142741713E+02  0.13601552032E+04  0.10100000352E+00 0. -1.
       -3    1    3    3    0  502  0.13572463448E+04 -0.11635430729E+02  0.18230583610E+03  0.13694847395E+04  0.10100000352E+00 0.  1.
</event>
<event>
 5   0  0.9971923E-06  0.2636857E+04  0.7818609E-02  0.8355789E-01
       -1   -1    0    0    0  501  0.00000000000E+00  0.00000000000E+00  0.18349631865E+04  0.18349631865E+04  0.50400001928E-02 0.  1.
        1   -1    0    0  501    0  0.00000000000E+00  0.00000000000E+00 -0.94729598855E+03  0.94729598856E+03  0.50400001928E-02 0. -1.
    10030    2    1    2    0    0  0.00000000000E+00  0.00000000000E+00  0.88766719792E+03  0.27822591750E+04  0.26368566633E+04 0.  0.
        2    1    3    3  502    0 -0.81016905578E+03 -0.91418703062E+03  0.96731761908E+03  0.15581447950E+04  0.25500000920E-02 0. -1.
       -2    1    3    3    0  502  0.81016905578E+03  0.91418703062E+03 -0.79650421157E+02  0.12241143801E+04  0.25500000920E-02 0.  1.
</event>
<event>
 5   0  0.2540684E-05  0.2478391E+04  0.7818609E-02  0.8410724E-01
        2   -1    0    0  501    0  0.00000000000E+00  0.00000000000E+00  0.14898465286E+04  0.14898465286E+04  0.25500000920E-02 0.  1.
       -2   -1    0    0    0  501  0.00000000000E+00  0.00000000000E+00 -0.10307142423E+04  0.10307142423E+04  0.25500000920E-02 0. -1.
    10030    2    1    2    0    0  0.00000000000E+00  0.00000000000E+00  0.45913228631E+03  0.25205607708E+04  0.24783914427E+04 0.  0.
        2    1    3    3  502    0  0.77024625908E+02 -0.11921526176E+04 -0.10534746771E+03  0.11992742579E+04  0.25500000920E-02 0. -1.
       -2    1    3    3    0  502 -0.77024625908E+02  0.11921526176E+04  0.56447975402E+03  0.13212865130E+04  0.25500000920E-02 0.  1.
</event>
<event>
 5   0  0.2540684E-05  0.2703234E+04  0.7818609E-02  0.8333957E-01
        2   -1    0    0  501    0  0.00000000000E+00  0.00000000000E+00  0.11496869116E+04  0.11496869116E+04  0.25500000920E-02 0. -1.
       -2   -1    0    0    0  501  0.00000000000E+00  0.00000000000E+00 -0.15890135030E+04  0.15890135030E+04  0.25500000920E-02 0.  1.
    10030    2    1    2    0    0  0.00000000000E+00  0.00000000000E+00 -0.43932659145E+03  0.27387004146E+04  0.27032336390E+04 0.  0.
        2    1    3    3  502    0  0.10675924598E+04 -0.82272193836E+03 -0.32219875414E+03  0.13857983566E+04  0.25500000920E-02 0.  1.
       -2    1    3    3    0  502 -0.10675924598E+04  0.82272193836E+03 -0.11712783731E+03  0.13529020579E+04  0.25500000920E-02 0. -1.
</event>
<event>
 5   0  0.2516518E-05  0.2681277E+04  0.7818609E-02  0.8341106E-01
        2   -1    0    0  501    0  0.00000000000E+00  0.00000000000E+00  0.18577995382E+04  0.18577995382E+04  0.25500000920E-02 0.  1.
       -2   -1    0    0    0  501  0.00000000000E+00  0.00000000000E+00 -0.96744101812E+03  0.96744101813E+03  0.25500000920E-02 0. -1.
    10030    2    1    2    0    0  0.00000000000E+00  0.00000000000E+00  0.89035852008E+03  0.28252405563E+04  0.26812769172E+04 0.  0.
        4    1    3    3  502    0 -0.36702754088E+02 -0.13398627206E+04  0.47366135251E+03  0.14215962479E+04  0.12699999809E+01 0. -1.
       -4    1    3    3    0  502  0.36702754088E+02  0.13398627206E+04  0.41669716756E+03  0.14036443084E+04  0.12699999809E+01 0.  1.
</event>
<event>
 5   0  0.2540232E-05  0.2712592E+04  0.7818609E-02  0.8330931E-01
        2   -1    0    0  501    0  0.00000000000E+00  0.00000000000E+00  0.14805534154E+04  0.14805534154E+04  0.25500000920E-02 0. -1.
       -2   -1    0    0    0  501  0.00000000000E+00  0.00000000000E+00 -0.12424668027E+04  0.12424668027E+04  0.25500000920E-02 0.  1.
    10030    2    1    2    0    0  0.00000000000E+00  0.00000000000E+00  0.23808661263E+03  0.27230202181E+04  0.27125917262E+04 0.  0.
        1    1    3    3  502    0  0.11671044354E+04  0.44219394712E+02 -0.57313664979E+03  0.13009895224E+04  0.50400001928E-02 0. -1.
       -1    1    3    3    0  502 -0.11671044354E+04 -0.44219394712E+02  0.81122326242E+03  0.14220306957E+04  0.50400001928E-02 0.  1.
</event>
<event>
 5   0  0.8740500E-06  0.2699227E+04  0.7818609E-02  0.8335256E-01
        4   -1    0    0  501    0  0.00000000000E+00  0.00000000000E+00  0.10670857031E+04  0.10670864589E+04  0.12699999809E+01 0. -1.
       -4   -1    0    0    0  501  0.00000000000E+00  0.00000000000E+00 -0.17069429940E+04  0.17069434665E+04  0.12699999809E+01 0.  1.
    10030    2    1    2    0    0  0.00000000000E+00  0.00000000000E+00 -0.63985729090E+03  0.27740299253E+04  0.26992266807E+04 0.  0.
        1    1    3    3  502    0  0.31958836932E+03  0.12642769078E+04  0.37448566287E+02  0.13045823932E+04  0.50400001928E-02 0. -1.
       -1    1    3    3    0  502 -0.31958836932E+03 -0.12642769078E+04 -0.67730585718E+03  0.14694475321E+04  0.50400001928E-02 0.  1.
</event>
<event>
 5   0  0.2540684E-05  0.2625197E+04  0.7818609E-02  0.8359692E-01
        2   -1    0    0  501    0  0.00000000000E+00  0.00000000000E+00  0.16047833717E+04  0.16047833717E+04  0.25500000920E-02 0. -1.
       -2   -1    0    0    0  501  0.00000000000E+00  0.00000000000E+00 -0.10736122080E+04  0.10736122081E+04  0.25500000920E-02 0.  1.
    10030    2    1    2    0    0  0.00000000000E+00  0.00000000000E+00  0.53117116365E+03  0.26783955797E+04  0.26251971500E+04 0.  0.
        2    1    3    3  502    0 -0.39948742942E+03 -0.77493545244E+03 -0.73552212363E+03  0.11406611925E+04  0.25500000920E-02 0.  1.
       -2    1    3    3    0  502  0.39948742942E+03  0.77493545244E+03  0.12666932873E+04  0.15377343873E+04  0.25500000920E-02 0. -1.
</event>
<event>
 5   0  0.2540232E-05  0.2556963E+04  0.7818609E-02  0.8382969E-01
       -2   -1    0    0    0  501  0.00000000000E+00  0.00000000000E+00  0.11803048158E+04  0.11803048158E+04  0.25500000920E-02 0. -1.
        2   -1    0    0  501    0  0.00000000000E+00  0.00000000000E+00 -0.13848239658E+04  0.13848239658E+04  0.25500000920E-02 0.  1.
    10030    2    1    2    0    0  0.00000000000E+00  0.00000000000E+00 -0.20451914992E+03  0.25651287816E+04  0.25569625698E+04 0.  0.
        1    1    3    3  502    0 -0.89918128522E+03 -0.44912186858E+02  0.80836755288E+03  0.12099595815E+04  0.50400001928E-02 0. -1.
       -1    1    3    3    0  502  0.89918128522E+03  0.44912186858E+02 -0.10128867028E+04  0.13551692001E+04  0.50400001928E-02 0.  1.
</event>
<event>
 5   0  0.8740500E-06  0.2682106E+04  0.7818609E-02  0.8340834E-01
       -3   -1    0    0    0  501  0.00000000000E+00  0.00000000000E+00  0.92983231804E+03  0.92983232352E+03  0.10100000352E+00 0. -1.
        3   -1    0    0  501    0  0.00000000000E+00  0.00000000000E+00 -0.19341370331E+04  0.19341370357E+04  0.10100000352E+00 0.  1.
    10030    2    1    2    0    0  0.00000000000E+00  0.00000000000E+00 -0.10043047150E+04  0.28639693592E+04  0.26821059878E+04 0.  0.
        5    1    3    3  502    0  0.70658716718E+03 -0.48125855538E+03 -0.16054218916E+04  0.18188668896E+04  0.46999998093E+01 0.  1.
       -5    1    3    3    0  502 -0.70658716718E+03  0.48125855538E+03  0.60111717662E+03  0.10451024696E+04  0.46999998093E+01 0. -1.
</event>
<event>
 5   0  0.8740500E-06  0.2424659E+04  0.7818609E-02  0.8430329E-01
        3   -1    0    0  501    0  0.00000000000E+00  0.00000000000E+00  0.14160653606E+04  0.14160653642E+04  0.10100000352E+00 0.  1.
       -3   -1    0    0    0  501  0.00000000000E+00  0.00000000000E+00 -0.10379059751E+04  0.10379059800E+04  0.10100000352E+00 0. -1.
    10030    2    1    2    0    0  0.00000000000E+00  0.00000000000E+00  0.37815938547E+03  0.24539713442E+04  0.24246589115E+04 0.  0.
        3    1    3    3  502    0 -0.16656687057E+03 -0.79249673942E+03  0.11021767072E+04  0.13676948155E+04  0.10100000352E+00 0.  1.
       -3    1    3    3    0  502  0.16656687057E+03  0.79249673942E+03 -0.72401732169E+03  0.10862765286E+04  0.10100000352E+00 0. -1.
</event>
<event>
 5   0  0.1005265E-05  0.2596858E+04  0.7818609E-02  0.8369269E-01
       -1   -1    0    0    0  501  0.00000000000E+00  0.00000000000E+00  0.94102686496E+03  0.94102686497E+03  0.50400001928E-02 0. -1.
        1   -1    0    0  501    0  0.00000000000E+00  0.00000000000E+00 -0.17915722399E+04  0.17915722399E+04  0.50400001928E-02 0.  1.
    10030    2    1    2    0    0  0.00000000000E+00  0.00000000000E+00 -0.85054537489E+03  0.27325991048E+04  0.25968577999E+04 0.  0.
        3    1    3    3  502    0 -0.11387220486E+04 -0.48069322868E+03 -0.84375892482E+03  0.14965570545E+04  0.10100000352E+00 0.  1.
       -3    1    3    3    0  502  0.11387220486E+04  0.48069322868E+03 -0.67864500771E+01  0.12360420503E+04  0.10100000352E+00 0. -1.
</event>
<event>
 5   0  0.2641216E-05  0.2697663E+04  0.7818609E-02  0.8335764E-01
       -2   -1    0    0    0  501  0.00000000000E+00  0.00000000000E+00  0.85520933290E+03  0.85520933290E+03  0.25500000920E-02 0. -1.
        2   -1    0    0  501    0  0.00000000000E+00  0.00000000000E+00 -0.21273689542E+04  0.21273689542E+04  0.25500000920E-02 0.  1.
    10030    2    1    2    0    0  0.00000000000E+00  0.00000000000E+00 -0.12721596213E+04  0.29825782871E+04  0.26976625320E+04 0.  0.
        5    1    3    3  502    0  0.57417383895E+03 -0.12099752454E+04 -0.45915363809E+03  0.14158247932E+04  0.46999998093E+01 0.  1.
       -5    1    3    3    0  502 -0.57417383895E+03  0.12099752454E+04 -0.81300598317E+03  0.15667534938E+04  0.46999998093E+01 0. -1.
</event>
<event>
 5   0  0.1036691E-05  0.2688697E+04  0.7818609E-02  0.8338682E-01
       -1   -1    0    0    0  501  0.00000000000E+00  0.00000000000E+00  0.79201799105E+03  0.79201799107E+03  0.50400001928E-02 0. -1.
        1   -1    0    0  501    0  0.00000000000E+00  0.00000000000E+00 -0.22818578224E+04  0.22818578224E+04  0.50400001928E-02 0.  1.
    10030    2    1    2    0    0  0.00000000000E+00  0.00000000000E+00 -0.14898398314E+04  0.30738758135E+04  0.26886966719E+04 0.  0.
        4    1    3    3  502    0 -0.33818441240E+03  0.12853573434E+04 -0.51411006376E+03  0.14250694606E+04  0.12699999809E+01 0.  1.
       -4    1    3    3    0  502  0.33818441240E+03 -0.12853573434E+04 -0.97572976760E+03  0.16488063529E+04  0.12699999809E+01 0. -1.
</event>
<event>
 5   0  0.2540232E-05  0.2656585E+04  0.7818609E-02  0.8349231E-01
       -2   -1    0    0    0  501  0.00000000000E+00  0.00000000000E+00  0.12530555879E+04  0.12530555879E+04  0.25500000920E-02 0.  1.
        2   -1    0    0  501    0  0.00000000000E+00  0.00000000000E+00 -0.14080466322E+04  0.14080466322E+04  0.25500000920E-02 0. -1.
    10030    2    1    2    0    0  0.00000000000E+00  0.00000000000E+00 -0.15499104429E+03  0.26611022200E+04  0.26565848004E+04 0.  0.
        1    1    3    3  502    0  0.49048287083E+03 -0.49773939241E+03  0.10540459766E+04  0.12646465396E+04  0.50400001928E-02 0.  1.
       -1    1    3    3    0  502 -0.49048287083E+03  0.49773939241E+03 -0.12090370209E+04  0.13964556804E+04  0.50400001928E-02 0. -1.
</event>
<event>
 5   0  0.2540684E-05  0.2530664E+04  0.7818609E-02  0.8392142E-01
       -2   -1    0    0    0  501  0.00000000000E+00  0.00000000000E+00  0.10865765599E+04  0.10865765599E+04  0.25500000920E-02 0.  1.
        2   -1    0    0  501    0  0.00000000000E+00  0.00000000000E+00 -0.14734955261E+04  0.14734955261E+04  0.25500000920E-02 0. -1.
    10030    2    1    2    0    0  0.00000000000E+00  0.00000000000E+00 -0.38691896625E+03  0.25600720860E+04  0.25306644975E+04 0.  0.
        2    1    3    3  502    0  0.53065368172E+03  0.57371761834E+03 -0.12001720699E+04  0.14321865217E+04  0.25500000920E-02 0. -1.
       -2    1    3    3    0  502 -0.53065368172E+03 -0.57371761834E+03  0.81325310367E+03  0.11278855643E+04  0.25500000920E-02 0.  1.
</event>
<event>
 5   0  0.1041909E-05  0.2724045E+04  0.7818609E-02  0.8327245E-01
        1   -1    0    0  501    0  0.00000000000E+00  0.00000000000E+00  0.22388092861E+04  0.22388092862E+04  0.50400001928E-02 0. -1.
       -1   -1    0    0    0  501  0.00000000000E+00  0.00000000000E+00 -0.82861277007E+03  0.82861277008E+03  0.50400001928E-02 0.  1.
    10030    2    1    2    0    0  0.00000000000E+00  0.00000000000E+00  0.14101965161E+04  0.30674220562E+04  0.27240454947E+04 0.  0.
        5    1    3    3  502    0 -0.74242901559E+02  0.39711772047E+03  0.21697777307E+04  0.22070731712E+04  0.46999998093E+01 0. -1.
       -5    1    3    3    0  502  0.74242901559E+02 -0.39711772047E+03 -0.75958121463E+03  0.86034888503E+03  0.46999998093E+01 0.  1.
</event>
<event>
 5   0  0.2516518E-05  0.2484382E+04  0.7818609E-02  0.8408571E-01
       -2   -1    0    0    0  501  0.00000000000E+00  0.00000000000E+00  0.71623862484E+03  0.71623862484E+03  0.25500000920E-02 0. -1.
        2   -1    0    0  501    0  0.00000000000E+00  0.00000000000E+00 -0.21543634543E+04  0.21543634543E+04  0.25500000920E-02 0.  1.
    10030    2    1    2    0    0  0.00000000000E+00  0.00000000000E+00 -0.14381248295E+04  0.28706020792E+04  0.24843818692E+04 0.  0.
        4    1    3    3  502    0  0.45065107810E+03 -0.11049059207E+04 -0.32024778694E+03  0.12355014147E+04  0.12699999809E+01 0. -1.
       -4    1    3    3    0  502 -0.45065107810E+03  0.11049059207E+04 -0.11178770426E+04  0.16351006645E+04  0.12699999809E+01 0.  1.
</event>
<event>
 5   0  0.2641216E-05  0.2735482E+04  0.7818609E-02  0.8323583E-01
        2   -1    0    0  501    0  0.00000000000E+00  0.00000000000E+00  0.18533296307E+04  0.18533296307E+04  0.25500000920E-02 0.  1.
       -2   -1    0    0    0  501  0.00000000000E+00  0.00000000000E+00 -0.10093806034E+04  0.10093806034E+04  0.25500000920E-02 0. -1.
    10030    2    1    2    0    0  0.00000000000E+00  0.00000000000E+00  0.84394902730E+03  0.28627102340E+04  0.27354816620E+04 0.  0.
        5    1    3    3  502    0  0.42463472714E+03 -0.11696802898E+04 -0.17207691881E+03  0.12562241790E+04  0.46999998093E+01 0. -1.
       -5    1    3    3    0  502 -0.42463472714E+03  0.11696802898E+04  0.10160259461E+04  0.16064860550E+04  0.46999998093E+01 0.  1.
</event>
<event>
 5   0  0.1036691E-05  0.2497210E+04  0.7818609E-02  0.8403980E-01
        1   -1    0    0  501    0  0.00000000000E+00  0.00000000000E+00  0.11721629547E+04  0.11721629547E+04  0.50400001928E-02 0. -1.
       -1   -1    0    0    0  501  0.00000000000E+00  0.00000000000E+00 -0.13300321856E+04  0.13300321856E+04  0.50400001928E-02 0.  1.
    10030    2    1    2    0    0  0.00000000000E+00  0.00000000000E+00 -0.15786923086E+03  0.25021951403E+04  0.24972100084E+04 0.  0.
        4    1    3    3  502    0 -0.38208694796E+03  0.11061370991E+04 -0.51510018484E+03  0.12786162564E+04  0.12699999809E+01 0.  1.
       -4    1    3    3    0  502  0.38208694796E+03 -0.11061370991E+04  0.35723095399E+03  0.12235788839E+04  0.12699999809E+01 0. -1.
</event>
<event>
 5   0  0.2540232E-05  0.2671606E+04  0.7818609E-02  0.8344277E-01
        2   -1    0    0  501    0  0.00000000000E+00  0.00000000000E+00  0.29987110362E+04  0.29987110362E+04  0.25500000920E-02 0. -1.
       -2   -1    0    0    0  501  0.00000000000E+00  0.00000000000E+00 -0.59504557713E+03  0.59504557714E+03  0.25500000920E-02 0.  1.
    10030    2    1    2    0    0  0.00000000000E+00  0.00000000000E+00  0.24036654591E+04  0.35937566133E+04  0.26716060632E+04 0.  0.
        1    1    3    3  502    0  0.44000900442E+03 -0.10988406794E+04  0.20346541153E+04  0.23539065681E+04  0.50400001928E-02 0. -1.
       -1    1    3    3    0  502 -0.44000900442E+03  0.10988406794E+04  0.36901134380E+03  0.12398500452E+04  0.50400001928E-02 0.  1.
</event>
<event>
 5   0  0.1041909E-05  0.2671186E+04  0.7818609E-02  0.8344415E-01
        1   -1    0    0  501    0  0.00000000000E+00  0.00000000000E+00  0.11593478920E+04  0.11593478920E+04  0.50400001928E-02 0.  1.
       -1   -1    0    0    0  501  0.00000000000E+00  0.00000000000E+00 -0.15386311578E+04  0.15386311578E+04  0.50400001928E-02 0. -1.
    10030    2    1    2    0    0  0.00000000000E+00  0.00000000000E+00 -0.37928326586E+03  0.26979790498E+04  0.26711860956E+04 0.  0.
        5    1    3    3  502    0 -0.98106843467E+03  0.77620208972E+02  0.72233609845E+03  0.12207832320E+04  0.46999998093E+01 0.  1.
       -5    1    3    3    0  502  0.98106843467E+03 -0.77620208972E+02 -0.11016193643E+04  0.14771958178E+04  0.46999998093E+01 0. -1.
</event>
<event>
 5   0  0.1005265E-05  0.2684176E+04  0.7818609E-02  0.8340158E-01
        1   -1    0    0  501    0  0.00000000000E+00  0.00000000000E+00  0.11864835415E+04  0.11864835415E+04  0.50400001928E-02 0.  1.
       -1   -1    0    0    0  501  0.00000000000E+00  0.00000000000E+00 -0.15180992795E+04  0.15180992795E+04  0.50400001928E-02 0. -1.
    10030    2    1    2    0    0  0.00000000000E+00  0.00000000000E+00 -0.33161573803E+03  0.27045828210E+04  0.26841757092E+04 0.  0.
        3    1    3    3  502    0  0.49677295326E+03 -0.10391157278E+04  0.52838211655E+03  0.12671750211E+04  0.10100000352E+00 0.  1.
       -3    1    3    3    0  502 -0.49677295326E+03  0.10391157278E+04 -0.85999785458E+03  0.14374077998E+04  0.10100000352E+00 0. -1.
</event>
<event>
 5   0  0.1005265E-05  0.2689808E+04  0.7818609E-02  0.8338320E-01
        1   -1    0    0  501    0  0.00000000000E+00  0.00000000000E+00  0.20905334979E+04  0.20905334979E+04  0.50400001928E-02 0.  1.
       -1   -1    0    0    0  501  0.00000000000E+00  0.00000000000E+00 -0.86521751232E+03  0.86521751233E+03  0.50400001928E-02 0. -1.
    10030    2    1    2    0    0  0.00000000000E+00  0.00000000000E+00  0.12253159856E+04  0.29557510103E+04  0.26898075712E+04 0.  0.
        3    1    3    3  502    0 -0.59063296106E+03  0.11489222790E+04  0.10236657659E+04  0.16482600852E+04  0.10100000352E+00 0. -1.
       -3    1    3    3    0  502  0.59063296106E+03 -0.11489222790E+04  0.20165021967E+03  0.13074909251E+04  0.10100000352E+00 0.  1.
</event>
<event>
 5   0  0.1096672E-05  0.2523277E+04  0.7818609E-02  0.8394740E-01
        1   -1    0    0  501    0  0.00000000000E+00  0.00000000000E+00  0.21962598212E+04  0.21962598212E+04  0.50400001928E-02 0.  1.
       -1   -1    0    0    0  501  0.00000000000E+00  0.00000000000E+00 -0.72474642801E+03  0.72474642803E+03  0.50400001928E-02 0. -1.
    10030    2    1    2    0    0  0.00000000000E+00  0.00000000000E+00  0.14715133931E+04  0.29210062492E+04  0.25232768064E+04 0.  0.
        1    1    3    3  502    0 -0.69031981930E+03 -0.94144859768E+03  0.18195172535E+03  0.11815131592E+04  0.50400001928E-02 0. -1.
       -1    1    3    3    0  502  0.69031981930E+03  0.94144859768E+03  0.12895616678E+04  0.17394930900E+04  0.50400001928E-02 0.  1.
</event>
<event>
 5   0  0.2615843E-05  0.2744800E+04  0.7818609E-02  0.8320614E-01
       -2   -1    0    0    0  501  0.00000000000E+00  0.00000000000E+00  0.10573910244E+04  0.10573910244E+04  0.25500000920E-02 0. -1.
        2   -1    0    0  501    0  0.00000000000E+00  0.00000000000E+00 -0.17812540552E+04  0.17812540552E+04  0.25500000920E-02 0.  1.
    10030    2    1    2    0    0  0.00000000000E+00  0.00000000000E+00 -0.72386303084E+03  0.28386450796E+04  0.27448002114E+04 0.  0.
        3    1    3    3  502    0 -0.36879455480E+02  0.27863780634E+03 -0.17511698047E+04  0.17735824809E+04  0.10100000352E+00 0.  1.
       -3    1    3    3    0  502  0.36879455480E+02 -0.27863780634E+03  0.10273067739E+04  0.10650625987E+04  0.10100000352E+00 0. -1.
</event>
<event>
 5   0  0.8740500E-06  0.1984987E+04  0.7818609E-02  0.8613672E-01
       -3   -1    0    0    0  501  0.00000000000E+00  0.00000000000E+00  0.70341411917E+03  0.70341412642E+03  0.10100000352E+00 0. -1.
        3   -1    0    0  501    0  0.00000000000E+00  0.00000000000E+00 -0.14003753188E+04  0.14003753224E+04  0.10100000352E+00 0.  1.
    10030    2    1    2    0    0  0.00000000000E+00  0.00000000000E+00 -0.69696119959E+03  0.21037894488E+04  0.19849874386E+04 0.  0.
        4    1    3    3  502    0  0.36918929020E+03  0.31591611057E+03 -0.12656880492E+04  0.13557549822E+04  0.12699999809E+01 0.  1.
       -4    1    3    3    0  502 -0.36918929020E+03 -0.31591611057E+03  0.56872684961E+03  0.74803446664E+03  0.12699999809E+01 0. -1.
</event>
<event>
 5   0  0.2615843E-05  0.2678142E+04  0.7818609E-02  0.8342132E-01
        2   -1    0    0  501    0  0.00000000000E+00  0.00000000000E+00  0.19863135603E+04  0.19863135603E+04  0.25500000920E-02 0. -1.
       -2   -1    0    0    0  501  0.00000000000E+00  0.00000000000E+00 -0.90273316168E+03  0.90273316169E+03  0.25500000920E-02 0.  1.
    10030    2    1    2    0    0  0.00000000000E+00  0.00000000000E+00  0.10835803986E+04  0.28890467220E+04  0.26781419831E+04 0.  0.
        3    1    3    3  502    0 -0.12215865884E+04 -0.51685781474E+02  0.11308372047E+04  0.16654542944E+04  0.10100000352E+00 0. -1.
       -3    1    3    3    0  502  0.12215865884E+04  0.51685781474E+02 -0.47256806083E+02  0.12235924276E+04  0.10100000352E+00 0.  1.
</event>
<event>
 5   0  0.2641216E-05  0.2815889E+04  0.7818609E-02  0.8298352E-01
        2   -1    0    0  501    0  0.00000000000E+00  0.00000000000E+00  0.20221624389E+04  0.20221624389E+04  0.25500000920E-02 0. -1.
       -2   -1    0    0    0  501  0.00000000000E+00  0.00000000000E+00 -0.98029078719E+03  0.98029078719E+03  0.25500000920E-02 0.  1.
    10030    2    1    2    0    0  0.00000000000E+00  0.00000000000E+00  0.10418716517E+04  0.30024532261E+04  0.28158886406E+04 0.  0.
        5    1    3    3  502    0 -0.69958931483E+03 -0.10209063946E+04 -0.19481392915E+03  0.12528565892E+04  0.46999998093E+01 0.  1.
       -5    1    3    3    0  502  0.69958931483E+03  0.10209063946E+04  0.12366855808E+04  0.17495966369E+04  0.46999998093E+01 0. -1.
</event>
<event>
 5   0  0.9971923E-06  0.2258174E+04  0.7818609E-02  0.8494598E-01
        1   -1    0    0  501    0  0.00000000000E+00  0.00000000000E+00  0.15723382208E+04  0.15723382208E+04  0.50400001928E-02 0. -1.
       -1   -1    0    0    0  501  0.00000000000E+00  0.00000000000E+00 -0.81079079449E+03  0.81079079451E+03  0.50400001928E-02 0.  1.
    10030    2    1    2    0    0  0.00000000000E+00  0.00000000000E+00  0.76154742631E+03  0.23831290153E+04  0.22581739130E+04 0.  0.
        2    1    3    3  502    0 -0.10631439480E+04  0.33614256347E+03  0.19326098724E+03  0.11316433566E+04  0.25500000920E-02 0. -1.
       -2    1    3    3    0  502  0.10631439480E+04 -0.33614256347E+03  0.56828643907E+03  0.12514856588E+04  0.25500000920E-02 0.  1.
</event>
<event>
 5   0  0.1036691E-05  0.2679867E+04  0.7818609E-02  0.8341567E-01
       -1   -1    0    0    0  501  0.00000000000E+00  0.00000000000E+00  0.15050246790E+04  0.15050246790E+04  0.50400001928E-02 0.  1.
        1   -1    0    0  501    0  0.00000000000E+00  0.00000000000E+00 -0.11929517510E+04  0.11929517511E+04  0.50400001928E-02 0. -1.
    10030    2    1    2    0    0  0.00000000000E+00  0.00000000000E+00  0.31207292791E+03  0.26979764300E+04  0.26798670311E+04 0.  0.
        4    1    3    3  502    0 -0.88918659066E+03  0.69094906137E+03  0.88713714206E+03  0.14335540869E+04  0.12699999809E+01 0.  1.
       -4    1    3    3    0  502  0.88918659066E+03 -0.69094906137E+03 -0.57506421415E+03  0.12644223431E+04  0.12699999809E+01 0. -1.
</event>
<event>
 5   0  0.2540684E-05  0.1913418E+04  0.7818609E-02  0.8648206E-01
        2   -1    0    0  501    0  0.00000000000E+00  0.00000000000E+00  0.10278031715E+04  0.10278031715E+04  0.25500000920E-02 0. -1.
       -2   -1    0    0    0  501  0.00000000000E+00  0.00000000000E+00 -0.89053262129E+03  0.89053262129E+03  0.25500000920E-02 0.  1.
    10030    2    1    2    0    0  0.00000000000E+00  0.00000000000E+00  0.13727055021E+03  0.19183357928E+04  0.19134181482E+04 0.  0.
        2    1    3    3  502    0  0.91000768917E+03 -0.29161531940E+03  0.22269648105E+02  0.95585010649E+03  0.25500000920E-02 0. -1.
       -2    1    3    3    0  502 -0.91000768917E+03  0.29161531940E+03  0.11500090211E+03  0.96248568631E+03  0.25500000920E-02 0.  1.
</event>
<event>
 5   0  0.2615843E-05  0.2683879E+04  0.7818609E-02  0.8340255E-01
        2   -1    0    0  501    0  0.00000000000E+00  0.00000000000E+00  0.12982562311E+04  0.12982562311E+04  0.25500000920E-02 0. -1.
       -2   -1    0    0    0  501  0.00000000000E+00  0.00000000000E+00 -0.13870924695E+04  0.13870924695E+04  0.25500000920E-02 0.  1.
    10030    2    1    2    0    0  0.00000000000E+00  0.00000000000E+00 -0.88836238344E+02  0.26853487006E+04  0.26838788658E+04 0.  0.
        3    1    3    3  502    0 -0.49759548351E+03  0.76853852682E+03 -0.10260510818E+04  0.13751485611E+04  0.10100000352E+00 0.  1.
       -3    1    3    3    0  502  0.49759548351E+03 -0.76853852682E+03  0.93721484348E+03  0.13102001395E+04  0.10100000352E+00 0. -1.
</event>
<event>
 5   0  0.1096672E-05  0.2718304E+04  0.7818609E-02  0.8329090E-01
        1   -1    0    0  501    0  0.00000000000E+00  0.00000000000E+00  0.19698512690E+04  0.19698512690E+04  0.50400001928E-02 0.  1.
       -1   -1    0    0    0  501  0.00000000000E+00  0.00000000000E+00 -0.93778357929E+03  0.93778357930E+03  0.50400001928E-02 0. -1.
    10030    2    1    2    0    0  0.00000000000E+00  0.00000000000E+00  0.10320676897E+04  0.29076348483E+04  0.27183040108E+04 0.  0.
        1    1    3    3  502    0 -0.11032105423E+04 -0.76952608732E+03  0.72468497146E+03  0.15278783353E+04  0.50400001928E-02 0.  1.
       -1    1    3    3    0  502  0.11032105423E+04  0.76952608732E+03  0.30738271827E+03  0.13797565130E+04  0.50400001928E-02 0. -1.
</event>
<event>
 5   0  0.2641216E-05  0.2677750E+04  0.7818609E-02  0.8342260E-01
       -2   -1    0    0    0  501  0.00000000000E+00  0.00000000000E+00  0.15763148347E+04  0.15763148347E+04  0.25500000920E-02 0. -1.
        2   -1    0    0  501    0  0.00000000000E+00  0.00000000000E+00 -0.11372009790E+04  0.11372009790E+04  0.25500000920E-02 0.  1.
    10030    2    1    2    0    0  0.00000000000E+00  0.00000000000E+00  0.43911385569E+03  0.27135158136E+04  0.26777503790E+04 0.  0.
        5    1    3    3  502    0  0.12909694730E+04  0.34547876991E+03  0.30192556267E+03  0.13700871856E+04  0.46999998093E+01 0. -1.
       -5    1    3    3    0  502 -0.12909694730E+04 -0.34547876991E+03  0.13718829302E+03  0.13434286280E+04  0.46999998093E+01 0.  1.
</event>
<event>
 5   0  0.1036691E-05  0.2792859E+04  0.7818609E-02  0.8305489E-01
        1   -1    0    0  501    0  0.00000000000E+00  0.00000000000E+00  0.12210917266E+04  0.12210917267E+04  0.50400001928E-02 0. -1.
       -1   -1    0    0    0  501  0.00000000000E+00  0.00000000000E+00 -0.15969444241E+04  0.15969444241E+04  0.50400001928E-02 0.  1.
    10030    2    1    2    0    0  0.00000000000E+00  0.00000000000E+00 -0.37585269746E+03  0.28180361508E+04  0.27928591975E+04 0.  0.
        4    1    3    3  502    0 -0.17885143725E+03  0.95289116319E+03 -0.12019859839E+04  0.15442672450E+04  0.12699999809E+01 0.  1.
       -4    1    3    3    0  502  0.17885143725E+03 -0.95289116319E+03  0.82613328644E+03  0.12737689058E+04  0.12699999809E+01 0. -1.
</event>
<event>
 5   0  0.1041909E-05  0.2289834E+04  0.7818609E-02  0.8481940E-01
        1   -1    0    0  501    0  0.00000000000E+00  0.00000000000E+00  0.12044125696E+04  0.12044125696E+04  0.50400001928E-02 0. -1.
       -1   -1    0    0    0  501  0.00000000000E+00  0.00000000000E+00 -0.10883607928E+04  0.10883607929E+04  0.50400001928E-02 0.  1.
    10030    2    1    2    0    0  0.00000000000E+00  0.00000000000E+00  0.11605177679E+03  0.22927733625E+04  0.22898344213E+04 0.  0.
        5    1    3    3  502    0 -0.10850677317E+04  0.35711314737E+03  0.13501115431E+03  0.11502833930E+04  0.46999998093E+01 0. -1.
       -5    1    3    3    0  502  0.10850677317E+04 -0.35711314737E+03 -0.18959377517E+02  0.11424899695E+04  0.46999998093E+01 0.  1.
</event>
<event>
 5   0  0.2540684E-05  0.2785965E+04  0.7818609E-02  0.8307639E-01
        2   -1    0    0  501    0  0.00000000000E+00  0.00000000000E+00  0.32476545543E+04  0.32476545543E+04  0.25500000920E-02 0.  1.
       -2   -1    0    0    0  501  0.00000000000E+00  0.00000000000E+00 -0.59747731318E+03  0.59747731319E+03  0.25500000920E-02 0. -1.
    10030    2    1    2    0    0  0.00000000000E+00  0.00000000000E+00  0.26501772412E+04  0.38451318675E+04  0.27859647645E+04 0.  0.
        2    1    3    3  502    0  0.12057333094E+04 -0.19440503834E+03  0.22497201802E+04  0.25598490232E+04  0.25500000920E-02 0.  1.
       -2    1    3    3    0  502 -0.12057333094E+04  0.19440503834E+03  0.40045706093E+03  0.12852828443E+04  0.25500000920E-02 0. -1.
</event>
<event>
 5   0  0.1096672E-05  0.1901920E+04  0.7818609E-02  0.8653901E-01
        1   -1    0    0  501    0  0.00000000000E+00  0.00000000000E+00  0.12941462052E+04  0.12941462052E+04  0.50400001928E-02 0. -1.
       -1   -1    0    0    0  501  0.00000000000E+00  0.00000000000E+00 -0.69878110586E+03  0.69878110588E+03  0.50400001928E-02 0.  1.
    10030    2    1    2    0    0  0.00000000000E+00  0.00000000000E+00  0.59536509929E+03  0.19929273111E+04  0.19019199946E+04 0.  0.
        1    1    3    3  502    0  0.89414075128E+03  0.29538923397E+03  0.43662620158E+03  0.10379715423E+04  0.50400001928E-02 0. -1.
       -1    1    3    3    0  502 -0.89414075128E+03 -0.29538923397E+03  0.15873889772E+03  0.95495576878E+03  0.50400001928E-02 0.  1.
</event>
<event>
 5   0  0.9971923E-06  0.2736563E+04  0.7818609E-02  0.8323238E-01
       -1   -1    0    0    0  501  0.00000000000E+00  0.00000000000E+00  0.19618266357E+04  0.19618266358E+04  0.50400001928E-02 0. -1.
        1   -1    0    0  501    0  0.00000000000E+00  0.00000000000E+00 -0.95431192283E+03  0.95431192284E+03  0.50400001928E-02 0.  1.
    10030    2    1    2    0    0  0.00000000000E+00  0.00000000000E+00  0.10075147129E+04  0.29161385586E+04  0.27365632089E+04 0.  0.
        2    1    3    3  502    0  0.13226311228E+04  0.93425140614E+02  0.86373093316E+03  0.15824387726E+04  0.25500000920E-02 0. -1.
       -2    1    3    3    0  502 -0.13226311228E+04 -0.93425140614E+02  0.14378377976E+03  0.13336997860E+04  0.25500000920E-02 0.  1.
</event>
<event>
 5   0  0.2641216E-05  0.2601629E+04  0.7818609E-02  0.8367648E-01
       -2   -1    0    0    0  501  0.00000000000E+00  0.00000000000E+00  0.92215533259E+03  0.92215533259E+03  0.25500000920E-02 0.  1.
        2   -1    0    0  501    0  0.00000000000E+00  0.00000000000E+00 -0.18349602921E+04  0.18349602921E+04  0.25500000920E-02 0. -1.
    10030    2    1    2    0    0  0.00000000000E+00  0.00000000000E+00 -0.91280495955E+03  0.27571156247E+04  0.26016290423E+04 0.  0.
        5    1    3    3  502    0  0.57128546163E+02 -0.94845502848E+03  0.48509947658E+03  0.10668524753E+04  0.46999998093E+01 0.  1.
       -5    1    3    3    0  502 -0.57128546163E+02  0.94845502848E+03 -0.13979044361E+04  0.16902631495E+04  0.46999998093E+01 0. -1.
</event>
<event>
 5   0  0.2516518E-05  0.2702543E+04  0.7818609E-02  0.8334180E-01
        2   -1    0    0  501    0  0.00000000000E+00  0.00000000000E+00  0.17218743309E+04  0.17218743309E+04  0.25500000920E-02 0. -1.
       -2   -1    0    0    0  501  0.00000000000E+00  0.00000000000E+00 -0.10604340448E+04  0.10604340448E+04  0.25500000920E-02 0.  1.
    10030    2    1    2    0    0  0.00000000000E+00  0.00000000000E+00  0.66144028607E+03  0.27823083757E+04  0.27025426260E+04 0.  0.
        4    1    3    3  502    0  0.80005103280E+03 -0.60429332104E+03  0.12633724337E+04  0.16128743262E+04  0.12699999809E+01 0. -1.
       -4    1    3    3    0  502 -0.80005103280E+03  0.60429332104E+03 -0.60193214764E+03  0.11694340495E+04  0.12699999809E+01 0.  1.
</event>
<event>
 5   0  0.9971923E-06  0.2746146E+04  0.7818609E-02  0.8320186E-01
        1   -1    0    0  501    0  0.00000000000E+00  0.00000000000E+00  0.14326548478E+04  0.14326548478E+04  0.50400001928E-02 0.  1.
       -1   -1    0    0    0  501  0.00000000000E+00  0.00000000000E+00 -0.13159686564E+04  0.13159686564E+04  0.50400001928E-02 0. -1.
    10030    2    1    2    0    0  0.00000000000E+00  0.00000000000E+00  0.11668619145E+03  0.27486235042E+04  0.27461455716E+04 0.  0.
        2    1    3    3  502    0  0.70416245250E+03  0.83286202207E+03 -0.77657082999E+03  0.13388674921E+04  0.25500000920E-02 0. -1.
       -2    1    3    3    0  502 -0.70416245250E+03 -0.83286202207E+03  0.89325702144E+03  0.14097560121E+04  0.25500000920E-02 0.  1.
</event>
<event>
 5   0  0.1005265E-05  0.2702501E+04  0.7818609E-02  0.8334194E-01
       -1   -1    0    0    0  501  0.00000000000E+00  0.00000000000E+00  0.10905893438E+04  0.10905893438E+04  0.50400001928E-02 0. -1.
        1   -1    0    0  501    0  0.00000000000E+00  0.00000000000E+00 -0.16742116408E+04  0.16742116408E+04  0.50400001928E-02 0.  1.
    10030    2    1    2    0    0  0.00000000000E+00  0.00000000000E+00 -0.58362229696E+03  0.27648009846E+04  0.27025006011E+04 0.  0.
        3    1    3    3  502    0  0.19675894648E+03 -0.37962727827E+03 -0.16031743474E+04  0.16592163668E+04  0.10100000352E+00 0.  1.
       -3    1    3    3    0  502 -0.19675894648E+03  0.37962727827E+03  0.10195520505E+04  0.11055846178E+04  0.10100000352E+00 0. -1.
</event>
<event>
 5   0  0.9971923E-06  0.1943580E+04  0.7818609E-02  0.8633463E-01
       -1   -1    0    0    0  501  0.00000000000E+00  0.00000000000E+00  0.72825805721E+03  0.72825805723E+03  0.50400001928E-02 0.  1.
        1   -1    0    0  501    0  0.00000000000E+00  0.00000000000E+00 -0.12967596200E+04  0.12967596200E+04  0.50400001928E-02 0. -1.
    10030    2    1    2    0    0  0.00000000000E+00  0.00000000000E+00 -0.56850156275E+03  0.20250176772E+04  0.19435798327E+04 0.  0.
        2    1    3    3  502    0 -0.69991899849E+03  0.16895440319E+03  0.39573902940E+03  0.82160913712E+03  0.25500000920E-02 0. -1.
       -2    1    3    3    0  502  0.69991899849E+03 -0.16895440319E+03 -0.96424059215E+03  0.12034085401E+04  0.25500000920E-02 0.  1.
</event>
<event>
 5   0  0.2615843E-05  0.2696751E+04  0.7818609E-02  0.8336060E-01
       -2   -1    0    0    0  501  0.00000000000E+00  0.00000000000E+00  0.13021484241E+04  0.13021484241E+04  0.25500000920E-02 0. -1.
        2   -1    0    0  501    0  0.00000000000E+00  0.00000000000E+00 -0.13962437344E+04  0.13962437344E+04  0.25500000920E-02 0.  1.
    10030    2    1    2    0    0  0.00000000000E+00  0.00000000000E+00 -0.94095310300E+02  0.26983921585E+04  0.26967510663E+04 0.  0.
        3    1    3    3  502    0 -0.13380971365E+03  0.11886887297E+04 -0.66970492046E+03  0.13709086863E+04  0.10100000352E+00 0. -1.
       -3    1    3    3    0  502  0.13380971365E+03 -0.11886887297E+04  0.57560961016E+03  0.13274834722E+04  0.10100000352E+00 0.  1.
</event>
<event>
 5   0  0.1041909E-05  0.2441905E+04  0.7818609E-02  0.8423979E-01
       -1   -1    0    0    0  501  0.00000000000E+00  0.00000000000E+00  0.17110060539E+04  0.17110060539E+04  0.50400001928E-02 0. -1.
        1   -1    0    0  501    0  0.00000000000E+00  0.00000000000E+00 -0.87125671698E+03  0.87125671700E+03  0.50400001928E-02 0.  1.
    10030    2    1    2    0    0  0.00000000000E+00  0.00000000000E+00  0.83974933691E+03  0.25822627709E+04  0.24419054177E+04 0.  0.
        5    1    3    3  502    0 -0.61667702077E+03 -0.82422084867E+03 -0.27442497463E+03  0.10653458180E+04  0.46999998093E+01 0.  1.
       -5    1    3    3    0  502  0.61667702077E+03  0.82422084867E+03  0.11141743115E+04  0.15169169528E+04  0.46999998093E+01 0. -1.
</event>
<event>
 5   0  0.1036691E-05  0.2699130E+04  0.7818609E-02  0.8335287E-01
        1   -1    0    0  501    0  0.00000000000E+00  0.00000000000E+00  0.19254170470E+04  0.19254170470E+04  0.50400001928E-02 0.  1.
       -1   -1    0    0    0  501  0.00000000000E+00  0.00000000000E+00 -0.94593817747E+03  0.94593817748E+03  0.50400001928E-02 0. -1.
    10030    2    1    2    0    0  0.00000000000E+00  0.00000000000E+00  0.97947886956E+03  0.28713552245E+04  0.26991298541E+04 0.  0.
        4    1    3    3  502    0  0.83437956243E+03  0.32663490396E+03 -0.58383405417E+03  0.10694594104E+04  0.12699999809E+01 0. -1.
       -4    1    3    3    0  502 -0.83437956243E+03 -0.32663490396E+03  0.15633129237E+04  0.18018958142E+04  0.12699999809E+01 0.  1.
</event>
<event>
 5   0  0.1005265E-05  0.2634181E+04  0.7818609E-02  0.8356683E-01
       -1   -1    0    0    0  501  0.00000000000E+00  0.00000000000E+00  0.13780285980E+04  0.13780285980E+04  0.50400001928E-02 0.  1.
        1   -1    0    0  501    0  0.00000000000E+00  0.00000000000E+00 -0.12588467466E+04  0.12588467466E+04  0.50400001928E-02 0. -1.
    10030    2    1    2    0    0  0.00000000000E+00  0.00000000000E+00  0.11918185139E+03  0.26368753446E+04  0.26341805688E+04 0.  0.
        3    1    3    3  502    0  0.24153575009E+03 -0.80231515751E+03  0.10768380062E+04  0.13644153445E+04  0.10100000352E+00 0.  1.
       -3    1    3    3    0  502 -0.24153575009E+03  0.80231515751E+03 -0.95765615484E+03  0.12724600000E+04  0.10100000352E+00 0. -1.
</event>
<event>
 5   0  0.2540232E-05  0.2638591E+04  0.7818609E-02  0.8355210E-01
       -2   -1    0    0    0  501  0.00000000000E+00  0.00000000000E+00  0.76054009685E+03  0.76054009685E+03  0.25500000920E-02 0.  1.
        2   -1    0    0  501    0  0.00000000000E+00  0.00000000000E+00 -0.22885580302E+04  0.22885580302E+04  0.25500000920E-02 0. -1.
    10030    2    1    2    0    0  0.00000000000E+00  0.00000000000E+00 -0.15280179333E+04  0.30490981270E+04  0.26385906434E+04 0.  0.
        1    1    3    3  502    0 -0.45772605672E+03  0.99180855660E+03  0.90918133468E+02  0.10961128879E+04  0.50400001928E-02 0.  1.
       -1    1    3    3    0  502  0.45772605672E+03 -0.99180855660E+03 -0.16189360668E+04  0.19529852392E+04  0.50400001928E-02 0. -1.
</event>
<event>
 5   0  0.1096672E-05  0.2729611E+04  0.7818609E-02  0.8325461E-01
        1   -1    0    0  501    0  0.00000000000E+00  0.00000000000E+00  0.72345313692E+03  0.72345313694E+03  0.50400001928E-02 0.  1.
       -1   -1    0    0    0  501  0.00000000000E+00  0.00000000000E+00 -0.25747258759E+04  0.25747258759E+04  0.50400001928E-02 0. -1.
    10030    2    1    2    0    0  0.00000000000E+00  0.00000000000E+00 -0.18512727390E+04  0.32981790128E+04  0.27296106035E+04 0.  0.
        1    1    3    3  502    0 -0.61146008837E+03  0.11464246581E+04 -0.14304102162E+04  0.19324198102E+04  0.50400001928E-02 0. -1.
       -1    1    3    3    0  502  0.61146008837E+03 -0.11464246581E+04 -0.42086252280E+03  0.13657592026E+04  0.50400001928E-02 0.  1.
</event>
<event>
 5   0  0.2615843E-05  0.2730170E+04  0.7818609E-02  0.8325282E-01
        2   -1    0    0  501    0  0.00000000000E+00  0.00000000000E+00  0.22680990082E+04  0.22680990082E+04  0.25500000920E-02 0.  1.
       -2   -1    0    0    0  501  0.00000000000E+00  0.00000000000E+00 -0.82159432502E+03  0.82159432502E+03  0.25500000920E-02 0. -1.
    10030    2    1    2    0    0  0.00000000000E+00  0.00000000000E+00  0.14465046832E+04  0.30896933332E+04  0.27301701586E+04 0.  0.
        3    1    3    3  502    0  0.71017677947E+03 -0.93418025958E+02 -0.59183180638E+03  0.92916246314E+03  0.10100000352E+00 0. -1.
       -3    1    3    3    0  502 -0.71017677947E+03  0.93418025958E+02  0.20383364895E+04  0.21605308701E+04  0.10100000352E+00 0.  1.
</event>
<event>
 5   0  0.2615843E-05  0.2697869E+04  0.7818609E-02  0.8335697E-01
        2   -1    0    0  501    0  0.00000000000E+00  0.00000000000E+00  0.17884902051E+04  0.17884902051E+04  0.25500000920E-02 0. -1.
       -2   -1    0    0    0  501  0.00000000000E+00  0.00000000000E+00 -0.10174078084E+04  0.10174078084E+04  0.25500000920E-02 0.  1.
    10030    2    1    2    0    0  0.00000000000E+00  0.00000000000E+00  0.77108239671E+03  0.28058980135E+04  0.26978687143E+04 0.  0.
        3    1    3    3  502    0  0.40389963652E+03  0.12059879728E+04  0.85307699383E+03  0.15314314462E+04  0.10100000352E+00 0. -1.
       -3    1    3    3    0  502 -0.40389963652E+03 -0.12059879728E+04 -0.81994597122E+02  0.12744665672E+04  0.10100000352E+00 0.  1.
</event>
<event>
 5   0  0.2516518E-05  0.2715754E+04  0.7818609E-02  0.8329911E-01
        2   -1    0    0  501    0  0.00000000000E+00  0.00000000000E+00  0.19877618368E+04  0.19877618368E+04  0.25500000920E-02 0. -1.
       -2   -1    0    0    0  501  0.00000000000E+00  0.00000000000E+00 -0.92759084996E+03  0.92759084996E+03  0.25500000920E-02 0.  1.
    10030    2    1    2    0    0  0.00000000000E+00  0.00000000000E+00  0.10601709869E+04  0.29153526868E+04  0.27157538119E+04 0.  0.
        4    1    3    3  502    0  0.14571505807E+03 -0.69444959243E+03 -0.71273205544E+03  0.10057244704E+04  0.12699999809E+01 0.  1.
       -4    1    3    3    0  502 -0.14571505807E+03  0.69444959243E+03  0.17729030423E+04  0.19096282164E+04  0.12699999809E+01 0. -1.
</event>
<event>
 5   0  0.1005265E-05  0.2684744E+04  0.7818609E-02  0.8339972E-01
        1   -1    0    0  501    0  0.00000000000E+00  0.00000000000E+00  0.23770182524E+04  0.23770182524E+04  0.50400001928E-02 0.  1.
       -1   -1    0    0    0  501  0.00000000000E+00  0.00000000000E+00 -0.75807677077E+03  0.75807677078E+03  0.50400001928E-02 0. -1.
    10030    2    1    2    0    0  0.00000000000E+00  0.00000000000E+00  0.16189414816E+04  0.31350950232E+04  0.26847438022E+04 0.  0.
        3    1    3    3  502    0  0.38876713587E+02 -0.27020037524E+03 -0.72532180599E+03  0.77499120904E+03  0.10100000352E+00 0. -1.
       -3    1    3    3    0  502 -0.38876713587E+02  0.27020037524E+03  0.23442632876E+04  0.23601038142E+04  0.10100000352E+00 0.  1.
</event>
<event>
 5   0  0.2516518E-05  0.2775288E+04  0.7818609E-02  0.8310982E-01
       -2   -1    0    0    0  501  0.00000000000E+00  0.00000000000E+00  0.93207805211E+03  0.93207805211E+03  0.25500000920E-02 0. -1.
        2   -1    0    0  501    0  0.00000000000E+00  0.00000000000E+00 -0.20658741613E+04  0.20658741613E+04  0.25500000920E-02 0.  1.
    10030    2    1    2    0    0  0.00000000000E+00  0.00000000000E+00 -0.11337961092E+04  0.29979522134E+04  0.27752880674E+04 0.  0.
        4    1    3    3  502    0 -0.80066073966E+02 -0.37609785289E+03 -0.20071721943E+04  0.20436736534E+04  0.12699999809E+01 0.  1.
       -4    1    3    3    0  502  0.80066073966E+02  0.37609785289E+03  0.87337608511E+03  0.95427856001E+03  0.12699999809E+01 0. -1.
</event>
<event>
 5   0  0.1041909E-05  0.2651190E+04  0.7818609E-02  0.8351018E-01
       -1   -1    0    0    0  501  0.00000000000E+00  0.00000000000E+00  0.12431489775E+04  0.12431489775E+04  0.50400001928E-02 0. -1.
        1   -1    0    0  501    0  0.00000000000E+00  0.00000000000E+00 -0.14135092059E+04  0.14135092059E+04  0.50400001928E-02 0.  1.
    10030    2    1    2    0    0  0.00000000000E+00  0.00000000000E+00 -0.17036022842E+03  0.26566581834E+04  0.26511903169E+04 0.  0.
        5    1    3    3  502    0 -0.74230899678E+03 -0.59756653645E+03  0.83817134587E+03  0.12691184764E+04  0.46999998093E+01 0. -1.
       -5    1    3    3    0  502  0.74230899678E+03  0.59756653645E+03 -0.10085315743E+04  0.13875397070E+04  0.46999998093E+01 0.  1.
</event>
<event>
 5   0  0.2540232E-05  0.2650115E+04  0.7818609E-02  0.8351375E-01
        2   -1    0    0  501    0  0.00000000000E+00  0.00000000000E+00  0.18045974747E+04  0.18045974747E+04  0.25500000920E-02 0.  1.
       -2   -1    0    0    0  501  0.00000000000E+00  0.00000000000E+00 -0.97294652198E+03  0.97294652198E+03  0.25500000920E-02 0. -1.
    10030    2    1    2    0    0  0.00000000000E+00  0.00000000000E+00  0.83165095271E+03  0.27775439967E+04  0.26501145912E+04 0.  0.
        1    1    3    3  502    0 -0.42559576753E+03 -0.74553849121E+03  0.14737251384E+04  0.17055278311E+04  0.50400001928E-02 0.  1.
       -1    1    3    3    0  502  0.42559576753E+03  0.74553849121E+03 -0.64207418569E+03  0.10720161655E+04  0.50400001928E-02 0. -1.
</event>
<event>
 5   0  0.9971923E-06  0.2382188E+04  0.7818609E-02  0.8446202E-01
        1   -1    0    0  501    0  0.00000000000E+00  0.00000000000E+00  0.24341706213E+04  0.24341706213E+04  0.50400001928E-02 0.  1.
       -1   -1    0    0    0  501  0.00000000000E+00  0.00000000000E+00 -0.58282888753E+03  0.58282888755E+03  0.50400001928E-02 0. -1.
    10030    2    1    2    0    0  0.00000000000E+00  0.00000000000E+00  0.18513417338E+04  0.30169995089E+04  0.23821880323E+04 0.  0.
        2    1    3    3  502    0 -0.82431053196E+03  0.49189954561E+03  0.32596871474E+02  0.96047674210E+03  0.25500000920E-02 0. -1.
       -2    1    3    3    0  502  0.82431053196E+03 -0.49189954561E+03  0.18187448623E+04  0.20565227668E+04  0.25500000920E-02 0.  1.
</event>
<event>
 5   0  0.2641216E-05  0.2714188E+04  0.7818609E-02  0.8330416E-01
        2   -1    0    0  501    0  0.00000000000E+00  0.00000000000E+00  0.19520859534E+04  0.19520859534E+04  0.25500000920E-02 0. -1.
       -2   -1    0    0    0  501  0.00000000000E+00  0.00000000000E+00 -0.94345416450E+03  0.94345416451E+03  0.25500000920E-02 0.  1.
    10030    2    1    2    0    0  0.00000000000E+00  0.00000000000E+00  0.10086317889E+04  0.28955401179E+04  0.27141876296E+04 0.  0.
        5    1    3    3  502    0 -0.11709588664E+04  0.68590218750E+03  0.51355815015E+03  0.14509895042E+04  0.46999998093E+01 0.  1.
       -5    1    3    3    0  502  0.11709588664E+04 -0.68590218750E+03  0.49507363871E+03  0.14445506137E+04  0.46999998093E+01 0. -1.
</event>
<event>
 5   0  0.1005265E-05  0.2705745E+04  0.7818609E-02  0.8333143E-01
       -1   -1    0    0    0  501  0.00000000000E+00  0.00000000000E+00  0.24274396731E+04  0.24274396731E+04  0.50400001928E-02 0. -1.
        1   -1    0    0  501    0  0.00000000000E+00  0.00000000000E+00 -0.75398962731E+03  0.75398962733E+03  0.50400001928E-02 0.  1.
    10030    2    1    2    0    0  0.00000000000E+00  0.00000000000E+00  0.16734500458E+04  0.31814293004E+04  0.27057452463E+04 0.  0.
        3    1    3    3  502    0 -0.12347975726E+04  0.97042818591E+02  0.14765639929E+04  0.19272736156E+04  0.10100000352E+00 0. -1.
       -3    1    3    3    0  502  0.12347975726E+04 -0.97042818591E+02  0.19688605291E+03  0.12541556849E+04  0.10100000352E+00 0.  1.
</event>
<event>
 5   0  0.1005265E-05  0.2710694E+04  0.7818609E-02  0.8331543E-01
        1   -1    0    0  501    0  0.00000000000E+00  0.00000000000E+00  0.17208453359E+04  0.17208453359E+04  0.50400001928E-02 0.  1.
       -1   -1    0    0    0  501  0.00000000000E+00  0.00000000000E+00 -0.10674786119E+04  0.10674786119E+04  0.50400001928E-02 0. -1.
    10030    2    1    2    0    0  0.00000000000E+00  0.00000000000E+00  0.65336672395E+03  0.27883239478E+04  0.27106940738E+04 0.  0.
        3    1    3    3  502    0 -0.40688408470E+03  0.12871711427E+04  0.45098004603E+03  0.14232874696E+04  0.10100000352E+00 0. -1.
       -3    1    3    3    0  502  0.40688408470E+03 -0.12871711427E+04  0.20238667792E+03  0.13650364781E+04  0.10100000352E+00 0.  1.
</event>
<event>
 5   0  0.8740500E-06  0.2644586E+04  0.7818609E-02  0.8353212E-01
        3   -1    0    0  501    0  0.00000000000E+00  0.00000000000E+00  0.11221902624E+04  0.11221902670E+04  0.10100000352E+00 0.  1.
       -3   -1    0    0    0  501  0.00000000000E+00  0.00000000000E+00 -0.15580775151E+04  0.15580775183E+04  0.10100000352E+00 0. -1.
    10030    2    1    2    0    0  0.00000000000E+00  0.00000000000E+00 -0.43588725264E+03  0.26802677853E+04  0.26445864902E+04 0.  0.
        1    1    3    3  502    0  0.22115520544E+03  0.11646592239E+04 -0.81161020603E+03  0.14366808481E+04  0.50400001928E-02 0. -1.
       -1    1    3    3    0  502 -0.22115520544E+03 -0.11646592239E+04  0.37572295340E+03  0.12435869372E+04  0.50400001928E-02 0.  1.
</event>
<event>
 5   0  0.1005265E-05  0.2641574E+04  0.7818609E-02  0.8354215E-01
        1   -1    0    0  501    0  0.00000000000E+00  0.00000000000E+00  0.24260718432E+04  0.24260718432E+04  0.50400001928E-02 0. -1.
       -1   -1    0    0    0  501  0.00000000000E+00  0.00000000000E+00 -0.71905466118E+03  0.71905466120E+03  0.50400001928E-02 0.  1.
    10030    2    1    2    0    0  0.00000000000E+00  0.00000000000E+00  0.17070171820E+04  0.31451265044E+04  0.26415739757E+04 0.  0.
        3    1    3    3  502    0  0.65648085961E+03 -0.83179259528E+03 -0.85224436839E+02  0.10630659695E+04  0.10100000352E+00 0.  1.
       -3    1    3    3    0  502 -0.65648085961E+03  0.83179259528E+03  0.17922416189E+04  0.20820605350E+04  0.10100000352E+00 0. -1.
</event>
<event>
 5   0  0.9971923E-06  0.2693651E+04  0.7818609E-02  0.8337068E-01
        1   -1    0    0  501    0  0.00000000000E+00  0.00000000000E+00  0.18945782471E+04  0.18945782471E+04  0.50400001928E-02 0. -1.
       -1   -1    0    0    0  501  0.00000000000E+00  0.00000000000E+00 -0.95743685924E+03  0.95743685925E+03  0.50400001928E-02 0.  1.
    10030    2    1    2    0    0  0.00000000000E+00  0.00000000000E+00  0.93714138782E+03  0.28520151063E+04  0.26936510884E+04 0.  0.
        2    1    3    3  502    0 -0.74883022647E+03 -0.11109782861E+04  0.32293551355E+03  0.13781534044E+04  0.25500000920E-02 0. -1.
       -2    1    3    3    0  502  0.74883022647E+03  0.11109782861E+04  0.61420587427E+03  0.14738617019E+04  0.25500000920E-02 0.  1.
</event>
<event>
 5   0  0.1041909E-05  0.2691597E+04  0.7818609E-02  0.8337737E-01
        1   -1    0    0  501    0  0.00000000000E+00  0.00000000000E+00  0.14408122086E+04  0.14408122086E+04  0.50400001928E-02 0. -1.
       -1   -1    0    0    0  501  0.00000000000E+00  0.00000000000E+00 -0.12570499771E+04  0.12570499771E+04  0.50400001928E-02 0.  1.
    10030    2    1    2    0    0  0.00000000000E+00  0.00000000000E+00  0.18376223148E+03  0.26978621857E+04  0.26915965179E+04 0.  0.
        5    1    3    3  502    0  0.12782545745E+04 -0.21536317921E+03 -0.27067184264E+03  0.13242361544E+04  0.46999998093E+01 0.  1.
       -5    1    3    3    0  502 -0.12782545745E+04  0.21536317921E+03  0.45443407412E+03  0.13736260313E+04  0.46999998093E+01 0. -1.
</event>
<event>
 5   0  0.2641216E-05  0.2784037E+04  0.7818609E-02  0.8308241E-01
       -2   -1    0    0    0  501  0.00000000000E+00  0.00000000000E+00  0.12237326026E+04  0.12237326026E+04  0.25500000920E-02 0.  1.
        2   -1    0    0  501    0  0.00000000000E+00  0.00000000000E+00 -0.15834472492E+04  0.15834472492E+04  0.25500000920E-02 0. -1.
    10030    2    1    2    0    0  0.00000000000E+00  0.00000000000E+00 -0.35971464664E+03  0.28071798518E+04  0.27840373728E+04 0.  0.
        5    1    3    3  502    0  0.80099425872E+03 -0.94209315270E+03 -0.82435965579E+03  0.14861770564E+04  0.46999998093E+01 0. -1.
       -5    1    3    3    0  502 -0.80099425872E+03  0.94209315270E+03  0.46464500915E+03  0.13210027954E+04  0.46999998093E+01 0.  1.
</event>
<event>
 5   0  0.1041909E-05  0.2695889E+04  0.7818609E-02  0.8336340E-01
        1   -1    0    0  501    0  0.00000000000E+00  0.00000000000E+00  0.15321022169E+04  0.15321022169E+04  0.50400001928E-02 0. -1.
       -1   -1    0    0    0  501  0.00000000000E+00  0.00000000000E+00 -0.11859224122E+04  0.11859224122E+04  0.50400001928E-02 0.  1.
    10030    2    1    2    0    0  0.00000000000E+00  0.00000000000E+00  0.34617980471E+03  0.27180246291E+04  0.26958889864E+04 0.  0.
        5    1    3    3  502    0  0.26850690119E+03  0.12623785269E+04 -0.21899495852E+03  0.13090746285E+04  0.46999998093E+01 0. -1.
       -5    1    3    3    0  502 -0.26850690119E+03 -0.12623785269E+04  0.56517476322E+03  0.14089500006E+04  0.46999998093E+01 0.  1.
</event>
<event>
 5   0  0.2540232E-05  0.2723626E+04  0.7818609E-02  0.8327380E-01
       -2   -1    0    0    0  501  0.00000000000E+00  0.00000000000E+00  0.11663646820E+04  0.11663646820E+04  0.25500000920E-02 0.  1.
        2   -1    0    0  501    0  0.00000000000E+00  0.00000000000E+00 -0.15900121554E+04  0.15900121554E+04  0.25500000920E-02 0. -1.
    10030    2    1    2    0    0  0.00000000000E+00  0.00000000000E+00 -0.42364747341E+03  0.27563768373E+04  0.27236255410E+04 0.  0.
        1    1    3    3  502    0  0.11781533119E+04 -0.49322376449E+03 -0.68996572515E+03  0.14516775159E+04  0.50400001928E-02 0. -1.
       -1    1    3    3    0  502 -0.11781533119E+04  0.49322376449E+03  0.26631825174E+03  0.13046993215E+04  0.50400001928E-02 0.  1.
</event>
<event>
 5   0  0.1096672E-05  0.2713176E+04  0.7818609E-02  0.8330742E-01
        1   -1    0    0  501    0  0.00000000000E+00  0.00000000000E+00  0.86563633818E+03  0.86563633819E+03  0.50400001928E-02 0. -1.
       -1   -1    0    0    0  501  0.00000000000E+00  0.00000000000E+00 -0.21259867896E+04  0.21259867896E+04  0.50400001928E-02 0.  1.
    10030    2    1    2    0    0  0.00000000000E+00  0.00000000000E+00 -0.12603504515E+04  0.29916231278E+04  0.27131763080E+04 0.  0.
        1    1    3    3  502    0 -0.54696514325E+03 -0.59853011686E+03  0.56906715103E+03  0.99057891716E+03  0.50400001928E-02 0. -1.
       -1    1    3    3    0  502  0.54696514325E+03  0.59853011686E+03 -0.18294176025E+04  0.20010442107E+04  0.50400001928E-02 0.  1.
</event>
<event>
 5   0  0.2516518E-05  0.2814429E+04  0.7818609E-02  0.8298803E-01
       -2   -1    0    0    0  501  0.00000000000E+00  0.00000000000E+00  0.82518531155E+03  0.82518531156E+03  0.25500000920E-02 0.  1.
        2   -1    0    0  501    0  0.00000000000E+00  0.00000000000E+00 -0.23997674768E+04  0.23997674768E+04  0.25500000920E-02 0. -1.
    10030    2    1    2    0    0  0.00000000000E+00  0.00000000000E+00 -0.15745821652E+04  0.32249527883E+04  0.28144291592E+04 0.  0.
        4    1    3    3  502    0  0.13479854241E+04 -0.86776822228E+02 -0.12393722816E+04  0.18332048947E+04  0.12699999809E+01 0.  1.
       -4    1    3    3    0  502 -0.13479854241E+04  0.86776822228E+02 -0.33520988362E+03  0.13917478937E+04  0.12699999809E+01 0. -1.
</event>
<event>
 5   0  0.2615843E-05  0.2711806E+04  0.7818609E-02  0.8331184E-01
        2   -1    0    0  501    0  0.00000000000E+00  0.00000000000E+00  0.12374236875E+04  0.12374236875E+04  0.25500000920E-02 0.  1.
       -2   -1    0    0    0  501  0.00000000000E+00  0.00000000000E+00 -0.14857266783E+04  0.14857266783E+04  0.25500000920E-02 0. -1.
    10030    2    1    2    0    0  0.00000000000E+00  0.00000000000E+00 -0.24830299083E+03  0.27231503658E+04  0.27118063241E+04 0.  0.
        3    1    3    3  502    0  0.95302343310E+03  0.69303126792E+03 -0.79772370572E+03  0.14229930159E+04  0.10100000352E+00 0. -1.
       -3    1    3    3    0  502 -0.95302343310E+03 -0.69303126792E+03  0.54942071489E+03  0.13001573499E+04  0.10100000352E+00 0.  1.
</event>
<event>
 5   0  0.1005265E-05  0.1777073E+04  0.7818609E-02  0.8718587E-01
       -1   -1    0    0    0  501  0.00000000000E+00  0.00000000000E+00  0.86555867730E+03  0.86555867731E+03  0.50400001928E-02 0. -1.
        1   -1    0    0  501    0  0.00000000000E+00  0.00000000000E+00 -0.91212473268E+03  0.91212473269E+03  0.50400001928E-02 0.  1.
    10030    2    1    2    0    0  0.00000000000E+00  0.00000000000E+00 -0.46566055379E+02  0.17776834100E+04  0.17770734112E+04 0.  0.
        3    1    3    3  502    0 -0.19517125886E+03  0.60434268045E+03 -0.64492660265E+03  0.90512553202E+03  0.10100000352E+00 0.  1.
       -3    1    3    3    0  502  0.19517125886E+03 -0.60434268045E+03  0.59836054728E+03  0.87255787799E+03  0.10100000352E+00 0. -1.
</event>
<event>
 5   0  0.1041909E-05  0.2576743E+04  0.7818609E-02  0.8376144E-01
        1   -1    0    0  501    0  0.00000000000E+00  0.00000000000E+00  0.16292775567E+04  0.16292775567E+04  0.50400001928E-02 0. -1.
       -1   -1    0    0    0  501  0.00000000000E+00  0.00000000000E+00 -0.10187955385E+04  0.10187955385E+04  0.50400001928E-02 0.  1.
    10030    2    1    2    0    0  0.00000000000E+00  0.00000000000E+00  0.61048201823E+03  0.26480730952E+04  0.25767426769E+04 0.  0.
        5    1    3    3  502    0  0.84446526302E+03  0.41870109118E+03  0.12078752530E+04  0.15321282260E+04  0.46999998093E+01 0. -1.
       -5    1    3    3    0  502 -0.84446526302E+03 -0.41870109118E+03 -0.59739323475E+03  0.11159448692E+04  0.46999998093E+01 0.  1.
</event>
<event>
 5   0  0.8740500E-06  0.2675968E+04  0.7818609E-02  0.8342845E-01
        3   -1    0    0  501    0  0.00000000000E+00  0.00000000000E+00  0.98306463050E+03  0.98306463569E+03  0.10100000352E+00 0. -1.
       -3   -1    0    0    0  501  0.00000000000E+00  0.00000000000E+00 -0.18210412164E+04  0.18210412192E+04  0.10100000352E+00 0.  1.
    10030    2    1    2    0    0  0.00000000000E+00  0.00000000000E+00 -0.83797658589E+03  0.28041058549E+04  0.26759680280E+04 0.  0.
        5    1    3    3  502    0  0.12282289168E+04 -0.49755275934E+03 -0.22555743752E+03  0.13442482167E+04  0.46999998093E+01 0. -1.
       -5    1    3    3    0  502 -0.12282289168E+04  0.49755275934E+03 -0.61241914838E+03  0.14598576382E+04  0.46999998093E+01 0.  1.
</event>
<event>
 5   0  0.1036691E-05  0.2742093E+04  0.7818609E-02  0.8321475E-01
       -1   -1    0    0    0  501  0.00000000000E+00  0.00000000000E+00  0.15116002219E+04  0.15116002219E+04  0.50400001928E-02 0.  1.
        1   -1    0    0  501    0  0.00000000000E+00  0.00000000000E+00 -0.12435622171E+04  0.12435622171E+04  0.50400001928E-02 0. -1.
    10030    2    1    2    0    0  0.00000000000E+00  0.00000000000E+00  0.26803800486E+03  0.27551624390E+04  0.27420933050E+04 0.  0.
        4    1    3    3  502    0  0.37406368515E+03 -0.12872613317E+04  0.42314371917E+03  0.14057089303E+04  0.12699999809E+01 0.  1.
       -4    1    3    3    0  502 -0.37406368515E+03  0.12872613317E+04 -0.15510571430E+03  0.13494535087E+04  0.12699999809E+01 0. -1.
</event>
<event>
 5   0  0.2615843E-05  0.2724663E+04  0.7818609E-02  0.8327047E-01
       -2   -1    0    0    0  501  0.00000000000E+00  0.00000000000E+00  0.88315502655E+03  0.88315502655E+03  0.25500000920E-02 0. -1.
        2   -1    0    0  501    0  0.00000000000E+00  0.00000000000E+00 -0.21014970076E+04  0.21014970076E+04  0.25500000920E-02 0.  1.
    10030    2    1    2    0    0  0.00000000000E+00  0.00000000000E+00 -0.12183419811E+04  0.29846520342E+04  0.27246633888E+04 0.  0.
        3    1    3    3  502    0  0.54424050124E+03  0.93975906520E+03 -0.15102186213E+04  0.18601357795E+04  0.10100000352E+00 0.  1.
       -3    1    3    3    0  502 -0.54424050124E+03 -0.93975906520E+03  0.29187664020E+03  0.11245162547E+04  0.10100000352E+00 0. -1.
</event>
<event>
 5   0  0.2540684E-05  0.2979691E+04  0.7818609E-02  0.8249554E-01
        2   -1    0    0  501    0  0.00000000000E+00  0.00000000000E+00  0.14814419850E+04  0.14814419850E+04  0.25500000920E-02 0. -1.
       -2   -1    0    0    0  501  0.00000000000E+00  0.00000000000E+00 -0.14982962314E+04  0.14982962314E+04  0.25500000920E-02 0.  1.
    10030    2    1    2    0    0  0.00000000000E+00  0.00000000000E+00 -0.16854246336E+02  0.29797382164E+04  0.29796905498E+04 0.  0.
        2    1    3    3  502    0 -0.13533435773E+04 -0.22214930059E+03  0.57360434629E+03  0.14865769728E+04  0.25500000920E-02 0.  1.
       -2    1    3    3    0  502  0.13533435773E+04  0.22214930059E+03 -0.59045859262E+03  0.14931612436E+04  0.25500000920E-02 0. -1.
</event>
<event>
 5   0  0.2615843E-05  0.2682692E+04  0.7818609E-02  0.8340643E-01
       -2   -1    0    0    0  501  0.00000000000E+00  0.00000000000E+00  0.19299021369E+04  0.19299021369E+04  0.25500000920E-02 0. -1.
        2   -1    0    0  501    0  0.00000000000E+00  0.00000000000E+00 -0.93227972193E+03  0.93227972193E+03  0.25500000920E-02 0.  1.
    10030    2    1    2    0    0  0.00000000000E+00  0.00000000000E+00  0.99762241498E+03  0.28621818588E+04  0.26826916540E+04 0.  0.
        3    1    3    3  502    0 -0.24110079261E+03  0.42085061932E+03 -0.83544678275E+03  0.96603114494E+03  0.10100000352E+00 0.  1.
       -3    1    3    3    0  502  0.24110079261E+03 -0.42085061932E+03  0.18330691977E+04  0.18961507139E+04  0.10100000352E+00 0. -1.
</event>
<event>
 5   0  0.2540684E-05  0.2699662E+04  0.7818609E-02  0.8335115E-01
       -2   -1    0    0    0  501  0.00000000000E+00  0.00000000000E+00  0.15988190488E+04  0.15988190488E+04  0.25500000920E-02 0.  1.
        2   -1    0    0  501    0  0.00000000000E+00  0.00000000000E+00 -0.11396187570E+04  0.11396187570E+04  0.25500000920E-02 0. -1.
    10030    2    1    2    0    0  0.00000000000E+00  0.00000000000E+00  0.45920029172E+03  0.27384378058E+04  0.26996623323E+04 0.  0.
        2    1    3    3  502    0  0.53854440690E+03  0.12368381347E+04  0.27766776641E+03  0.13772792157E+04  0.25500000920E-02 0. -1.
       -2    1    3    3    0  502 -0.53854440690E+03 -0.12368381347E+04  0.18153252531E+03  0.13611585901E+04  0.25500000920E-02 0.  1.
</event>
<event>
 5   0  0.2615843E-05  0.2676433E+04  0.7818609E-02  0.8342692E-01
        2   -1    0    0  501    0  0.00000000000E+00  0.00000000000E+00  0.10346993206E+04  0.10346993206E+04  0.25500000920E-02 0. -1.
       -2   -1    0    0    0  501  0.00000000000E+00  0.00000000000E+00 -0.17307673253E+04  0.17307673253E+04  0.25500000920E-02 0.  1.
    10030    2    1    2    0    0  0.00000000000E+00  0.00000000000E+00 -0.69606800472E+03  0.27654666460E+04  0.26764332801E+04 0.  0.
        3    1    3    3  502    0 -0.12712932520E+04 -0.41007963519E+03 -0.26490955564E+03  0.13618108982E+04  0.10100000352E+00 0.  1.
       -3    1    3    3    0  502  0.12712932520E+04  0.41007963519E+03 -0.43115844909E+03  0.14036557477E+04  0.10100000352E+00 0. -1.
</event>
<event>
 5   0  0.2641216E-05  0.1809854E+04  0.7818609E-02  0.8701076E-01
       -2   -1    0    0    0  501  0.00000000000E+00  0.00000000000E+00  0.65898166990E+03  0.65898166991E+03  0.25500000920E-02 0. -1.
        2   -1    0    0  501    0  0.00000000000E+00  0.00000000000E+00 -0.12426647778E+04  0.12426647778E+04  0.25500000920E-02 0.  1.
    10030    2    1    2    0    0  0.00000000000E+00  0.00000000000E+00 -0.58368310787E+03  0.19016464477E+04  0.18098544808E+04 0.  0.
        5    1    3    3  502    0  0.20159406188E+03 -0.82789098303E+02  0.63098369274E+03  0.66757524751E+03  0.46999998093E+01 0. -1.
       -5    1    3    3    0  502 -0.20159406188E+03  0.82789098303E+02 -0.12146668006E+04  0.12340712002E+04  0.46999998093E+01 0.  1.
</event>
<event>
 5   0  0.2516518E-05  0.2700514E+04  0.7818609E-02  0.8334838E-01
        2   -1    0    0  501    0  0.00000000000E+00  0.00000000000E+00  0.14806729497E+04  0.14806729497E+04  0.25500000920E-02 0.  1.
       -2   -1    0    0    0  501  0.00000000000E+00  0.00000000000E+00 -0.12313283595E+04  0.12313283595E+04  0.25500000920E-02 0. -1.
    10030    2    1    2    0    0  0.00000000000E+00  0.00000000000E+00  0.24934459020E+03  0.27120013091E+04  0.27005144651E+04 0.  0.
        4    1    3    3  502    0 -0.85768299424E+03  0.82708768770E+03  0.76258980216E+03  0.14146515405E+04  0.12699999809E+01 0.  1.
       -4    1    3    3    0  502  0.85768299424E+03 -0.82708768770E+03 -0.51324521195E+03  0.12973497687E+04  0.12699999809E+01 0. -1.
</event>
<event>
 5   0  0.2516518E-05  0.2485071E+04  0.7818609E-02  0.8408323E-01
       -2   -1    0    0    0  501  0.00000000000E+00  0.00000000000E+00  0.11442905372E+04  0.11442905372E+04  0.25500000920E-02 0. -1.
        2   -1    0    0  501    0  0.00000000000E+00  0.00000000000E+00 -0.13492156052E+04  0.13492156052E+04  0.25500000920E-02 0.  1.
    10030    2    1    2    0    0  0.00000000000E+00  0.00000000000E+00 -0.20492506798E+03  0.24935061424E+04  0.24850711456E+04 0.  0.
        4    1    3    3  502    0  0.11919071971E+03 -0.12364342367E+04 -0.72077952048E+02  0.12442559598E+04  0.12699999809E+01 0. -1.
       -4    1    3    3    0  502 -0.11919071971E+03  0.12364342367E+04 -0.13284711593E+03  0.12492501825E+04  0.12699999809E+01 0.  1.
</event>
<event>
 5   0  0.1096672E-05  0.2750469E+04  0.7818609E-02  0.8318813E-01
        1   -1    0    0  501    0  0.00000000000E+00  0.00000000000E+00  0.16712762931E+04  0.16712762931E+04  0.50400001928E-02 0. -1.
       -1   -1    0    0    0  501  0.00000000000E+00  0.00000000000E+00 -0.11316318354E+04  0.11316318354E+04  0.50400001928E-02 0.  1.
    10030    2    1    2    0    0  0.00000000000E+00  0.00000000000E+00  0.53964445777E+03  0.28029081285E+04  0.27504686575E+04 0.  0.
        1    1    3    3  502    0 -0.12982267883E+04 -0.45184200985E+03  0.31203004276E+03  0.14095803430E+04  0.50400001928E-02 0. -1.
       -1    1    3    3    0  502  0.12982267883E+04  0.45184200985E+03  0.22761441501E+03  0.13933277855E+04  0.50400001928E-02 0.  1.
</event>
<event>
 5   0  0.2540684E-05  0.2221423E+04  0.7818609E-02  0.8509564E-01
        2   -1    0    0  501    0  0.00000000000E+00  0.00000000000E+00  0.17113844271E+04  0.17113844271E+04  0.25500000920E-02 0.  1.
       -2   -1    0    0    0  501  0.00000000000E+00  0.00000000000E+00 -0.72086673732E+03  0.72086673733E+03  0.25500000920E-02 0. -1.
    10030    2    1    2    0    0  0.00000000000E+00  0.00000000000E+00  0.99051768983E+03  0.24322511645E+04  0.22214230649E+04 0.  0.
        2    1    3    3  502    0 -0.44819896175E+02 -0.25234690210E+03  0.16785650391E+04  0.16980189553E+04  0.25500000920E-02 0.  1.
       -2    1    3    3    0  502  0.44819896175E+02  0.25234690210E+03 -0.68804734929E+03  0.73423220915E+03  0.25500000920E-02 0. -1.
</event>
<event>
 5   0  0.1041909E-05  0.2424417E+04  0.7818609E-02  0.8430418E-01
        1   -1    0    0  501    0  0.00000000000E+00  0.00000000000E+00  0.13725941638E+04  0.13725941638E+04  0.50400001928E-02 0.  1.
       -1   -1    0    0    0  501  0.00000000000E+00  0.00000000000E+00 -0.10705640472E+04  0.10705640472E+04  0.50400001928E-02 0. -1.
    10030    2    1    2    0    0  0.00000000000E+00  0.00000000000E+00  0.30203011655E+03  0.24431582110E+04  0.24244174254E+04 0.  0.
        5    1    3    3  502    0  0.11074128157E+04  0.50832399485E+02 -0.34316406544E+03  0.11604872869E+04  0.46999998093E+01 0.  1.
       -5    1    3    3    0  502 -0.11074128157E+04 -0.50832399485E+02  0.64519418200E+03  0.12826709241E+04  0.46999998093E+01 0. -1.
</event>
<event>
 5   0  0.1036691E-05  0.2669599E+04  0.7818609E-02  0.8344937E-01
       -1   -1    0    0    0  501  0.00000000000E+00  0.00000000000E+00  0.98911543896E+03  0.98911543897E+03  0.50400001928E-02 0.  1.
        1   -1    0    0  501    0  0.00000000000E+00  0.00000000000E+00 -0.18012957583E+04  0.18012957583E+04  0.50400001928E-02 0. -1.
    10030    2    1    2    0    0  0.00000000000E+00  0.00000000000E+00 -0.81218031937E+03  0.27904111973E+04  0.26695988048E+04 0.  0.
        4    1    3    3  502    0  0.79424612348E+03  0.60826865784E+02 -0.15256167094E+04  0.17210562946E+04  0.12699999809E+01 0. -1.
       -4    1    3    3    0  502 -0.79424612348E+03 -0.60826865784E+02  0.71343639008E+03  0.10693549027E+04  0.12699999809E+01 0.  1.
</event>
<event>
 5   0  0.1041909E-05  0.2761554E+04  0.7818609E-02  0.8315305E-01
       -1   -1    0    0    0  501  0.00000000000E+00  0.00000000000E+00  0.17648695047E+04  0.17648695047E+04  0.50400001928E-02 0.  1.
        1   -1    0    0  501    0  0.00000000000E+00  0.00000000000E+00 -0.10802757420E+04  0.10802757420E+04  0.50400001928E-02 0. -1.
    10030    2    1    2    0    0  0.00000000000E+00  0.00000000000E+00  0.68459376277E+03  0.28451452467E+04  0.27615544273E+04 0.  0.
        5    1    3    3  502    0  0.11234250603E+04 -0.61104893885E+02 -0.48237315203E+03  0.12241419942E+04  0.46999998093E+01 0. -1.
       -5    1    3    3    0  502 -0.11234250603E+04  0.61104893885E+02  0.11669669148E+04  0.16210032525E+04  0.46999998093E+01 0.  1.
</event>
<event>
 5   0  0.2540232E-05  0.2713289E+04  0.7818609E-02  0.8330706E-01
        2   -1    0    0  501    0  0.00000000000E+00  0.00000000000E+00  0.15513721946E+04  0.15513721946E+04  0.25500000920E-02 0.  1.
       -2   -1    0    0    0  501  0.00000000000E+00  0.00000000000E+00 -0.11863591897E+04  0.11863591897E+04  0.25500000920E-02 0. -1.
    10030    2    1    2    0    0  0.00000000000E+00  0.00000000000E+00  0.36501300497E+03  0.27377313843E+04  0.27132892656E+04 0.  0.
        1    1    3    3  502    0 -0.20954601783E+03  0.13129251045E+03  0.15284408986E+04  0.15483148380E+04  0.50400001928E-02 0.  1.
       -1    1    3    3    0  502  0.20954601783E+03 -0.13129251045E+03 -0.11634278937E+04  0.11894165463E+04  0.50400001928E-02 0. -1.
</event>
<event>
 5   0  0.2615843E-05  0.2639616E+04  0.7818609E-02  0.8354868E-01
        2   -1    0    0  501    0  0.00000000000E+00  0.00000000000E+00  0.20330151345E+04  0.20330151345E+04  0.25500000920E-02 0. -1.
       -2   -1    0    0    0  501  0.00000000000E+00  0.00000000000E+00 -0.85680290030E+03  0.85680290031E+03  0.25500000920E-02 0.  1.
    10030    2    1    2    0    0  0.00000000000E+00  0.00000000000E+00  0.11762122342E+04  0.28898180348E+04  0.26396160808E+04 0.  0.
        3    1    3    3  502    0 -0.10489472075E+04  0.68989819509E+03  0.14253511689E+03  0.12635529405E+04  0.10100000352E+00 0. -1.
       -3    1    3    3    0  502  0.10489472075E+04 -0.68989819509E+03  0.10336771173E+04  0.16262650942E+04  0.10100000352E+00 0.  1.
</event>
<event>
 5   0  0.2641216E-05  0.2723632E+04  0.7818609E-02  0.8327378E-01
       -2   -1    0    0    0  501  0.00000000000E+00  0.00000000000E+00  0.58023125284E+03  0.58023125284E+03  0.25500000920E-02 0. -1.
        2   -1    0    0  501    0  0.00000000000E+00  0.00000000000E+00 -0.31962132387E+04  0.31962132387E+04  0.25500000920E-02 0.  1.
    10030    2    1    2    0    0  0.00000000000E+00  0.00000000000E+00 -0.26159819859E+04  0.37764444916E+04  0.27236319956E+04 0.  0.
        5    1    3    3  502    0  0.51948747108E+03 -0.33506011970E+03  0.37447325040E+03  0.72276193985E+03  0.46999998093E+01 0. -1.
       -5    1    3    3    0  502 -0.51948747108E+03  0.33506011970E+03 -0.29904552363E+04  0.30536825517E+04  0.46999998093E+01 0.  1.
</event>
<event>
 5   0  0.1041909E-05  0.2753323E+04  0.7818609E-02  0.8317908E-01
       -1   -1    0    0    0  501  0.00000000000E+00  0.00000000000E+00  0.81253486500E+03  0.81253486501E+03  0.50400001928E-02 0.  1.
        1   -1    0    0  501    0  0.00000000000E+00  0.00000000000E+00 -0.23324502873E+04  0.23324502873E+04  0.50400001928E-02 0. -1.
    10030    2    1    2    0    0  0.00000000000E+00  0.00000000000E+00 -0.15199154223E+04  0.31449851523E+04  0.27533232134E+04 0.  0.
        5    1    3    3  502    0  0.10261823395E+04  0.15998750333E+03 -0.17921180851E+04  0.20713173383E+04  0.46999998093E+01 0. -1.
       -5    1    3    3    0  502 -0.10261823395E+04 -0.15998750333E+03  0.27220266280E+03  0.10736678140E+04  0.46999998093E+01 0.  1.
</event>
<event>
 5   0  0.2615843E-05  0.2675009E+04  0.7818609E-02  0.8343160E-01
       -2   -1    0    0    0  501  0.00000000000E+00  0.00000000000E+00  0.67246720876E+03  0.67246720876E+03  0.25500000920E-02 0. -1.
        2   -1    0    0  501    0  0.00000000000E+00  0.00000000000E+00 -0.26602305468E+04  0.26602305468E+04  0.25500000920E-02 0.  1.
    10030    2    1    2    0    0  0.00000000000E+00  0.00000000000E+00 -0.19877633381E+04  0.33326977556E+04  0.26750086433E+04 0.  0.
        3    1    3    3  502    0 -0.80687410497E+03  0.26944608710E+02 -0.23224345549E+04  0.24587545842E+04  0.10100000352E+00 0.  1.
       -3    1    3    3    0  502  0.80687410497E+03 -0.26944608710E+02  0.33467121686E+03  0.87394317138E+03  0.10100000352E+00 0. -1.
</event>
<event>
 5   0  0.2516518E-05  0.2697814E+04  0.7818609E-02  0.8335715E-01
       -2   -1    0    0    0  501  0.00000000000E+00  0.00000000000E+00  0.13270463430E+04  0.13270463430E+04  0.25500000920E-02 0.  1.
        2   -1    0    0  501    0  0.00000000000E+00  0.00000000000E+00 -0.13711277735E+04  0.13711277735E+04  0.25500000920E-02 0. -1.
    10030    2    1    2    0    0  0.00000000000E+00  0.00000000000E+00 -0.44081430434E+02  0.26981741165E+04  0.26978140022E+04 0.  0.
        4    1    3    3  502    0  0.51089030329E+03 -0.18505479432E+03  0.12127472301E+04  0.13289137052E+04  0.12699999809E+01 0.  1.
       -4    1    3    3    0  502 -0.51089030329E+03  0.18505479432E+03 -0.12568286606E+04  0.13692604112E+04  0.12699999809E+01 0. -1.
</event>
<event>
 5   0  0.2641216E-05  0.2615750E+04  0.7818609E-02  0.8362871E-01
        2   -1    0    0  501    0  0.00000000000E+00  0.00000000000E+00  0.15397794761E+04  0.15397794761E+04  0.25500000920E-02 0.  1.
       -2   -1    0    0    0  501  0.00000000000E+00  0.00000000000E+00 -0.11108972875E+04  0.11108972875E+04  0.25500000920E-02 0. -1.
    10030    2    1    2    0    0  0.00000000000E+00  0.00000000000E+00  0.42888218859E+03  0.26506767637E+04  0.26157498683E+04 0.  0.
        5    1    3    3  502    0 -0.22557633277E+03  0.61351970976E+03 -0.93347920091E+03  0.11396037139E+04  0.46999998093E+01 0. -1.
       -5    1    3    3    0  502  0.22557633277E+03 -0.61351970976E+03  0.13623613895E+04  0.15110730498E+04  0.46999998093E+01 0.  1.
</event>
<event>
 5   0  0.1041909E-05  0.2610140E+04  0.7818609E-02  0.8364765E-01
       -1   -1    0    0    0  501  0.00000000000E+00  0.00000000000E+00  0.12544686392E+04  0.12544686392E+04  0.50400001928E-02 0.  1.
        1   -1    0    0  501    0  0.00000000000E+00  0.00000000000E+00 -0.13577129127E+04  0.13577129127E+04  0.50400001928E-02 0. -1.
    10030    2    1    2    0    0  0.00000000000E+00  0.00000000000E+00 -0.10324427351E+03  0.26121815519E+04  0.26101404330E+04 0.  0.
        5    1    3    3  502    0 -0.30866980530E+03  0.36628749475E+03 -0.12665494699E+04  0.13541097545E+04  0.46999998093E+01 0. -1.
       -5    1    3    3    0  502  0.30866980530E+03 -0.36628749475E+03  0.11633051964E+04  0.12580717974E+04  0.46999998093E+01 0.  1.
</event>
<event>
 5   0  0.2615843E-05  0.2738276E+04  0.7818609E-02  0.8322692E-01
       -2   -1    0    0    0  501  0.00000000000E+00  0.00000000000E+00  0.24119469084E+04  0.24119469084E+04  0.25500000920E-02 0.  1.
        2   -1    0    0  501    0  0.00000000000E+00  0.00000000000E+00 -0.77718896225E+03  0.77718896226E+03  0.25500000920E-02 0. -1.
    10030    2    1    2    0    0  0.00000000000E+00  0.00000000000E+00  0.16347579461E+04  0.31891358706E+04  0.27382757456E+04 0.  0.
        3    1    3    3  502    0 -0.44498994925E+03 -0.11008527022E+04  0.23495355039E+02  0.11876214754E+04  0.10100000352E+00 0. -1.
       -3    1    3    3    0  502  0.44498994925E+03  0.11008527022E+04  0.16112625911E+04  0.20015143953E+04  0.10100000352E+00 0.  1.
</event>
<event>
 5   0  0.2540232E-05  0.2754910E+04  0.7818609E-02  0.8317405E-01
       -2   -1    0    0    0  501  0.00000000000E+00  0.00000000000E+00  0.10019257430E+04  0.10019257430E+04  0.25500000920E-02 0.  1.
        2   -1    0    0  501    0  0.00000000000E+00  0.00000000000E+00 -0.18937355112E+04  0.18937355112E+04  0.25500000920E-02 0. -1.
    10030    2    1    2    0    0  0.00000000000E+00  0.00000000000E+00 -0.89180976823E+03  0.28956612543E+04  0.27549100596E+04 0.  0.
        1    1    3    3  502    0 -0.79453607951E+03 -0.11252087607E+04 -0.44574742663E+03  0.14477821332E+04  0.50400001928E-02 0.  1.
       -1    1    3    3    0  502  0.79453607951E+03  0.11252087607E+04 -0.44606234160E+03  0.14478791211E+04  0.50400001928E-02 0. -1.
</event>
<event>
 5   0  0.2516518E-05  0.2689675E+04  0.7818609E-02  0.8338363E-01
        2   -1    0    0  501    0  0.00000000000E+00  0.00000000000E+00  0.83805376046E+03  0.83805376047E+03  0.25500000920E-02 0. -1.
       -2   -1    0    0    0  501  0.00000000000E+00  0.00000000000E+00 -0.21580814692E+04  0.21580814692E+04  0.25500000920E-02 0.  1.
    10030    2    1    2    0    0  0.00000000000E+00  0.00000000000E+00 -0.13200277087E+04  0.29961352297E+04  0.26896752894E+04 0.  0.
        4    1    3    3  502    0 -0.27176516763E+03 -0.39691557064E+03 -0.20589675679E+04  0.21144141825E+04  0.12699999809E+01 0.  1.
       -4    1    3    3    0  502  0.27176516763E+03  0.39691557064E+03  0.73893985920E+03  0.88172104714E+03  0.12699999809E+01 0. -1.
</event>
<event>
 5   0  0.2540232E-05  0.2750202E+04  0.7818609E-02  0.8318897E-01
       -2   -1    0    0    0  501  0.00000000000E+00  0.00000000000E+00  0.18352055100E+04  0.18352055100E+04  0.25500000920E-02 0.  1.
        2   -1    0    0  501    0  0.00000000000E+00  0.00000000000E+00 -0.10303496367E+04  0.10303496367E+04  0.25500000920E-02 0. -1.
    10030    2    1    2    0    0  0.00000000000E+00  0.00000000000E+00  0.80485587332E+03  0.28655551467E+04  0.27502024147E+04 0.  0.
        1    1    3    3  502    0 -0.92086258522E+03  0.17192155895E+03 -0.64645168836E+03  0.11381760447E+04  0.50400001928E-02 0. -1.
       -1    1    3    3    0  502  0.92086258522E+03 -0.17192155895E+03  0.14513075617E+04  0.17273791020E+04  0.50400001928E-02 0.  1.
</event>
<event>
 5   0  0.2615843E-05  0.2394402E+04  0.7818609E-02  0.8441602E-01
        2   -1    0    0  501    0  0.00000000000E+00  0.00000000000E+00  0.15161739160E+04  0.15161739160E+04  0.25500000920E-02 0.  1.
       -2   -1    0    0    0  501  0.00000000000E+00  0.00000000000E+00 -0.94533339803E+03  0.94533339804E+03  0.25500000920E-02 0. -1.
    10030    2    1    2    0    0  0.00000000000E+00  0.00000000000E+00  0.57084051792E+03  0.24615073140E+04  0.23944016705E+04 0.  0.
        3    1    3    3  502    0 -0.55500842716E+03  0.87386417447E+03 -0.33277898729E+03  0.10873889894E+04  0.10100000352E+00 0. -1.
       -3    1    3    3    0  502  0.55500842716E+03 -0.87386417447E+03  0.90361950521E+03  0.13741183246E+04  0.10100000352E+00 0.  1.
</event>
<event>
 5   0  0.2540684E-05  0.2698559E+04  0.7818609E-02  0.8335473E-01
       -2   -1    0    0    0  501  0.00000000000E+00  0.00000000000E+00  0.12159529416E+04  0.12159529417E+04  0.25500000920E-02 0.  1.
        2   -1    0    0  501    0  0.00000000000E+00  0.00000000000E+00 -0.14972253057E+04  0.14972253057E+04  0.25500000920E-02 0. -1.
    10030    2    1    2    0    0  0.00000000000E+00  0.00000000000E+00 -0.28127236406E+03  0.27131782474E+04  0.26985592562E+04 0.  0.
        2    1    3    3  502    0 -0.10175240657E+04 -0.63181372572E+03 -0.76530036544E+03  0.14213474092E+04  0.25500000920E-02 0. -1.
       -2    1    3    3    0  502  0.10175240657E+04  0.63181372572E+03  0.48402800138E+03  0.12918308382E+04  0.25500000920E-02 0.  1.
</event>
<event>
 5   0  0.2540232E-05  0.2703957E+04  0.7818609E-02  0.8333722E-01
       -2   -1    0    0    0  501  0.00000000000E+00  0.00000000000E+00  0.27732133876E+04  0.27732133876E+04  0.25500000920E-02 0.  1.
        2   -1    0    0  501    0  0.00000000000E+00  0.00000000000E+00 -0.65910772968E+03  0.65910772969E+03  0.25500000920E-02 0. -1.
    10030    2    1    2    0    0  0.00000000000E+00  0.00000000000E+00  0.21141056579E+04  0.34323211173E+04  0.27039573812E+04 0.  0.
        1    1    3    3  502    0 -0.24535607834E+03  0.76680982955E+03  0.24357362616E+04  0.25653475507E+04  0.50400001928E-02 0.  1.
       -1    1    3    3    0  502  0.24535607834E+03 -0.76680982955E+03 -0.32163060368E+03  0.86697356657E+03  0.50400001928E-02 0. -1.
</event>
<event>
 5   0  0.2540684E-05  0.2692475E+04  0.7818609E-02  0.8337451E-01
        2   -1    0    0  501    0  0.00000000000E+00  0.00000000000E+00  0.11656997530E+04  0.11656997530E+04  0.25500000920E-02 0. -1.
       -2   -1    0    0    0  501  0.00000000000E+00  0.00000000000E+00 -0.15547357892E+04  0.15547357892E+04  0.25500000920E-02 0.  1.
    10030    2    1    2    0    0  0.00000000000E+00  0.00000000000E+00 -0.38903603623E+03  0.27204355422E+04  0.26924747913E+04 0.  0.
        2    1    3    3  502    0 -0.37301243371E+03 -0.46473572205E+03  0.10251790291E+04  0.11857949269E+04  0.25500000920E-02 0. -1.
       -2    1    3    3    0  502  0.37301243371E+03  0.46473572205E+03 -0.14142150653E+04  0.15346406153E+04  0.25500000920E-02 0.  1.
</event>
<event>
 5   0  0.1096672E-05  0.1830071E+04  0.7818609E-02  0.8690469E-01
       -1   -1    0    0    0  501  0.00000000000E+00  0.00000000000E+00  0.62622565111E+03  0.62622565113E+03  0.50400001928E-02 0.  1.
        1   -1    0    0  501    0  0.00000000000E+00  0.00000000000E+00 -0.13370424742E+04  0.13370424742E+04  0.50400001928E-02 0. -1.
    10030    2    1    2    0    0  0.00000000000E+00  0.00000000000E+00 -0.71081682306E+03  0.19632681253E+04  0.18300713581E+04 0.  0.
        1    1    3    3  502    0  0.64019143787E+03 -0.41237458644E+03  0.18885540890E+03  0.78457902226E+03  0.50400001928E-02 0.  1.
       -1    1    3    3    0  502 -0.64019143787E+03  0.41237458644E+03 -0.89967223196E+03  0.11786891031E+04  0.50400001928E-02 0. -1.
</event>
<event>
 5   0  0.9971923E-06  0.2710211E+04  0.7818609E-02  0.8331700E-01
        1   -1    0    0  501    0  0.00000000000E+00  0.00000000000E+00  0.10737266910E+04  0.10737266910E+04  0.50400001928E-02 0. -1.
       -1   -1    0    0    0  501  0.00000000000E+00  0.00000000000E+00 -0.17102213243E+04  0.17102213243E+04  0.50400001928E-02 0.  1.
    10030    2    1    2    0    0  0.00000000000E+00  0.00000000000E+00 -0.63649463333E+03  0.27839480153E+04  0.27102105331E+04 0.  0.
        2    1    3    3  502    0 -0.69994043236E+03  0.26457444744E+03  0.84226692868E+03  0.11266453862E+04  0.25500000920E-02 0. -1.
       -2    1    3    3    0  502  0.69994043236E+03 -0.26457444744E+03 -0.14787615620E+04  0.16573026291E+04  0.25500000920E-02 0.  1.
</event>
<event>
 5   0  0.1036691E-05  0.2490802E+04  0.7818609E-02  0.8406270E-01
        1   -1    0    0  501    0  0.00000000000E+00  0.00000000000E+00  0.11744783823E+04  0.11744783824E+04  0.50400001928E-02 0. -1.
       -1   -1    0    0    0  501  0.00000000000E+00  0.00000000000E+00 -0.13206058786E+04  0.13206058786E+04  0.50400001928E-02 0.  1.
    10030    2    1    2    0    0  0.00000000000E+00  0.00000000000E+00 -0.14612749621E+03  0.24950842609E+04  0.24908015224E+04 0.  0.
        4    1    3    3  502    0 -0.56130429879E+03  0.13030380582E+03  0.10329088241E+04  0.11827695673E+04  0.12699999809E+01 0. -1.
       -4    1    3    3    0  502  0.56130429879E+03 -0.13030380582E+03 -0.11790363203E+04  0.13123146936E+04  0.12699999809E+01 0.  1.
</event>
<event>
 5   0  0.1041909E-05  0.2691653E+04  0.7818609E-02  0.8337718E-01
        1   -1    0    0  501    0  0.00000000000E+00  0.00000000000E+00  0.15246957642E+04  0.15246957642E+04  0.50400001928E-02 0. -1.
       -1   -1    0    0    0  501  0.00000000000E+00  0.00000000000E+00 -0.11879415228E+04  0.11879415229E+04  0.50400001928E-02 0.  1.
    10030    2    1    2    0    0  0.00000000000E+00  0.00000000000E+00  0.33675424133E+03  0.27126372871E+04  0.26916533269E+04 0.  0.
        5    1    3    3  502    0 -0.12242073574E+03 -0.13389310710E+04  0.10872046516E+03  0.13489127025E+04  0.46999998093E+01 0.  1.
       -5    1    3    3    0  502  0.12242073574E+03  0.13389310710E+04  0.22803377618E+03  0.13637245846E+04  0.46999998093E+01 0. -1.
</event>
<event>
 5   0  0.2615843E-05  0.2207880E+04  0.7818609E-02  0.8515156E-01
       -2   -1    0    0    0  501  0.00000000000E+00  0.00000000000E+00  0.12712460894E+04  0.12712460894E+04  0.25500000920E-02 0. -1.
        2   -1    0    0  501    0  0.00000000000E+00  0.00000000000E+00 -0.95865245142E+03  0.95865245143E+03  0.25500000920E-02 0.  1.
    10030    2    1    2    0    0  0.00000000000E+00  0.00000000000E+00  0.31259363802E+03  0.22298985409E+04  0.22078796888E+04 0.  0.
        3    1    3    3  502    0 -0.93017539986E+03 -0.35418980116E+03 -0.32596545999E+03  0.10473443469E+04  0.10100000352E+00 0.  1.
       -3    1    3    3    0  502  0.93017539986E+03  0.35418980116E+03  0.63855909801E+03  0.11825541939E+04  0.10100000352E+00 0. -1.
</event>
<event>
 5   0  0.2615843E-05  0.2689886E+04  0.7818609E-02  0.8338294E-01
       -2   -1    0    0    0  501  0.00000000000E+00  0.00000000000E+00  0.10050647893E+04  0.10050647893E+04  0.25500000920E-02 0. -1.
        2   -1    0    0  501    0  0.00000000000E+00  0.00000000000E+00 -0.17997569073E+04  0.17997569073E+04  0.25500000920E-02 0.  1.
    10030    2    1    2    0    0  0.00000000000E+00  0.00000000000E+00 -0.79469211808E+03  0.28048216966E+04  0.26898864636E+04 0.  0.
        3    1    3    3  502    0  0.87050126234E+03 -0.10250990872E+04 -0.38015841738E+03  0.13975410616E+04  0.10100000352E+00 0. -1.
       -3    1    3    3    0  502 -0.87050126234E+03  0.10250990872E+04 -0.41453370071E+03  0.14072806350E+04  0.10100000352E+00 0.  1.
</event>
<event>
 5   0  0.1005265E-05  0.1897926E+04  0.7818609E-02  0.8655889E-01
        1   -1    0    0  501    0  0.00000000000E+00  0.00000000000E+00  0.14835127742E+04  0.14835127742E+04  0.50400001928E-02 0. -1.
       -1   -1    0    0    0  501  0.00000000000E+00  0.00000000000E+00 -0.60702596507E+03  0.60702596509E+03  0.50400001928E-02 0.  1.
    10030    2    1    2    0    0  0.00000000000E+00  0.00000000000E+00  0.87648680915E+03  0.20905387393E+04  0.18979259980E+04 0.  0.
        3    1    3    3  502    0 -0.17474950267E+02 -0.65231563401E+03 -0.32067135519E+03  0.72708403125E+03  0.10100000352E+00 0.  1.
       -3    1    3    3    0  502  0.17474950267E+02  0.65231563401E+03  0.11971581643E+04  0.13634547081E+04  0.10100000352E+00 0. -1.
</event>
<event>
 5   0  0.1036691E-05  0.2677793E+04  0.7818609E-02  0.8342246E-01
        1   -1    0    0  501    0  0.00000000000E+00  0.00000000000E+00  0.57923330561E+03  0.57923330563E+03  0.50400001928E-02 0.  1.
       -1   -1    0    0    0  501  0.00000000000E+00  0.00000000000E+00 -0.30948565613E+04  0.30948565613E+04  0.50400001928E-02 0. -1.
    10030    2    1    2    0    0  0.00000000000E+00  0.00000000000E+00 -0.25156232556E+04  0.36740898669E+04  0.26777931185E+04 0.  0.
        4    1    3    3  502    0 -0.74590645398E+03 -0.32478162130E+03 -0.27168353698E+04  0.28360281344E+04  0.12699999809E+01 0. -1.
       -4    1    3    3    0  502  0.74590645398E+03  0.32478162130E+03  0.20121211419E+03  0.83806173246E+03  0.12699999809E+01 0.  1.
</event>
<event>
 5   0  0.1041909E-05  0.2680240E+04  0.7818609E-02  0.8341445E-01
        1   -1    0    0  501    0  0.00000000000E+00  0.00000000000E+00  0.11463236548E+04  0.11463236548E+04  0.50400001928E-02 0. -1.
       -1   -1    0    0    0  501  0.00000000000E+00  0.00000000000E+00 -0.15666790469E+04  0.15666790469E+04  0.50400001928E-02 0.  1.
    10030    2    1    2    0    0  0.00000000000E+00  0.00000000000E+00 -0.42035539210E+03  0.27130027018E+04  0.26802397289E+04 0.  0.
        5    1    3    3  502    0 -0.80975403858E+03  0.10659708368E+04 -0.14693408673E+03  0.13467023219E+04  0.46999998093E+01 0. -1.
       -5    1    3    3    0  502  0.80975403858E+03 -0.10659708368E+04 -0.27342130537E+03  0.13663003799E+04  0.46999998093E+01 0.  1.
</event>
<event>
 5   0  0.2516518E-05  0.2742834E+04  0.7818609E-02  0.8321239E-01
        2   -1    0    0  501    0  0.00000000000E+00  0.00000000000E+00  0.21556685327E+04  0.21556685327E+04  0.25500000920E-02 0. -1.
       -2   -1    0    0    0  501  0.00000000000E+00  0.00000000000E+00 -0.87248341820E+03  0.87248341821E+03  0.25500000920E-02 0.  1.
    10030    2    1    2    0    0  0.00000000000E+00  0.00000000000E+00  0.12831851145E+04  0.30281519510E+04  0.27428343369E+04 0.  0.
        4    1    3    3  502    0 -0.11815560072E+04 -0.27791198156E+03  0.13463309228E+04  0.18127101903E+04  0.12699999809E+01 0. -1.
       -4    1    3    3    0  502  0.11815560072E+04  0.27791198156E+03 -0.63145808207E+02  0.12154417607E+04  0.12699999809E+01 0.  1.
</event>
<event>
 5   0  0.2516518E-05  0.2646730E+04  0.7818609E-02  0.8352499E-01
       -2   -1    0    0    0  501  0.00000000000E+00  0.00000000000E+00  0.10720434823E+04  0.10720434823E+04  0.25500000920E-02 0. -1.
        2   -1    0    0  501    0  0.00000000000E+00  0.00000000000E+00 -0.16336049236E+04  0.16336049236E+04  0.25500000920E-02 0.  1.
    10030    2    1    2    0    0  0.00000000000E+00  0.00000000000E+00 -0.56156144134E+03  0.27056484059E+04  0.26467304441E+04 0.  0.
        4    1    3    3  502    0  0.13038327976E+04 -0.22581129243E+03 -0.26240292481E+03  0.13490098635E+04  0.12699999809E+01 0. -1.
       -4    1    3    3    0  502 -0.13038327976E+04  0.22581129243E+03 -0.29915851653E+03  0.13566385424E+04  0.12699999809E+01 0.  1.
</event>
<event>
 5   0  0.2615843E-05  0.2722369E+04  0.7818609E-02  0.8327783E-01
       -2   -1    0    0    0  501  0.00000000000E+00  0.00000000000E+00  0.13420996020E+04  0.13420996020E+04  0.25500000920E-02 0. -1.
        2   -1    0    0  501    0  0.00000000000E+00  0.00000000000E+00 -0.13805408148E+04  0.13805408148E+04  0.25500000920E-02 0.  1.
    10030    2    1    2    0    0  0.00000000000E+00  0.00000000000E+00 -0.38441212731E+02  0.27226404168E+04  0.27223690258E+04 0.  0.
        3    1    3    3  502    0 -0.90874433726E+03  0.56657858525E+02 -0.10311499605E+04  0.13756077329E+04  0.10100000352E+00 0.  1.
       -3    1    3    3    0  502  0.90874433726E+03 -0.56657858525E+02  0.99270874781E+03  0.13470326839E+04  0.10100000352E+00 0. -1.
</event>
<event>
 5   0  0.1096672E-05  0.2713931E+04  0.7818609E-02  0.8330499E-01
       -1   -1    0    0    0  501  0.00000000000E+00  0.00000000000E+00  0.77593549765E+03  0.77593549767E+03  0.50400001928E-02 0. -1.
        1   -1    0    0  501    0  0.00000000000E+00  0.00000000000E+00 -0.23730775904E+04  0.23730775904E+04  0.50400001928E-02 0.  1.
    10030    2    1    2    0    0  0.00000000000E+00  0.00000000000E+00 -0.15971420927E+04  0.31490130881E+04  0.27139308326E+04 0.  0.
        1    1    3    3  502    0  0.28888639312E+02 -0.10547671613E+04  0.19143409471E+03  0.10723876774E+04  0.50400001928E-02 0. -1.
       -1    1    3    3    0  502 -0.28888639312E+02  0.10547671613E+04 -0.17885761874E+04  0.20766254107E+04  0.50400001928E-02 0.  1.
</event>
<event>
 5   0  0.2516518E-05  0.2701230E+04  0.7818609E-02  0.8334606E-01
       -2   -1    0    0    0  501  0.00000000000E+00  0.00000000000E+00  0.30745341230E+04  0.30745341230E+04  0.25500000920E-02 0. -1.
        2   -1    0    0  501    0  0.00000000000E+00  0.00000000000E+00 -0.59331311585E+03  0.59331311586E+03  0.25500000920E-02 0.  1.
    10030    2    1    2    0    0  0.00000000000E+00  0.00000000000E+00  0.24812210072E+04  0.36678472389E+04  0.27012304014E+04 0.  0.
        4    1    3    3  502    0  0.70928344102E+02  0.71360591023E+03 -0.31345009446E+03  0.78263452501E+03  0.12699999809E+01 0.  1.
       -4    1    3    3    0  502 -0.70928344102E+02 -0.71360591023E+03  0.27946711016E+04  0.28852127139E+04  0.12699999809E+01 0. -1.
</event>
<event>
 5   0  0.1036691E-05  0.1665186E+04  0.7818609E-02  0.8781473E-01
        1   -1    0    0  501    0  0.00000000000E+00  0.00000000000E+00  0.64966086617E+03  0.64966086619E+03  0.50400001928E-02 0.  1.
       -1   -1    0    0    0  501  0.00000000000E+00  0.00000000000E+00 -0.10670351549E+04  0.10670351549E+04  0.50400001928E-02 0. -1.
    10030    2    1    2    0    0  0.00000000000E+00  0.00000000000E+00 -0.41737428873E+03  0.17166960211E+04  0.16651858551E+04 0.  0.
        4    1    3    3  502    0 -0.20097483741E+02 -0.49877399997E+03 -0.89565564456E+03  0.10253682550E+04  0.12699999809E+01 0. -1.
       -4    1    3    3    0  502  0.20097483741E+02  0.49877399997E+03  0.47828135583E+03  0.69132776606E+03  0.12699999809E+01 0.  1.
</event>
<event>
 5   0  0.2540232E-05  0.2500047E+04  0.7818609E-02  0.8402969E-01
       -2   -1    0    0    0  501  0.00000000000E+00  0.00000000000E+00  0.58566903478E+03  0.58566903479E+03  0.25500000920E-02 0. -1.
        2   -1    0    0  501    0  0.00000000000E+00  0.00000000000E+00 -0.26679889770E+04  0.26679889770E+04  0.25500000920E-02 0.  1.
    10030    2    1    2    0    0  0.00000000000E+00  0.00000000000E+00 -0.20823199422E+04  0.32536580118E+04  0.25000468228E+04 0.  0.
        1    1    3    3  502    0 -0.60751843938E+03 -0.76562650226E+03 -0.26959175469E+02  0.97774710039E+03  0.50400001928E-02 0. -1.
       -1    1    3    3    0  502  0.60751843938E+03  0.76562650226E+03 -0.20553607668E+04  0.22759109114E+04  0.50400001928E-02 0.  1.
</event>
<event>
 5   0  0.2641216E-05  0.2364898E+04  0.7818609E-02  0.8452763E-01
       -2   -1    0    0    0  501  0.00000000000E+00  0.00000000000E+00  0.97522140288E+03  0.97522140289E+03  0.25500000920E-02 0. -1.
        2   -1    0    0  501    0  0.00000000000E+00  0.00000000000E+00 -0.14337115483E+04  0.14337115483E+04  0.25500000920E-02 0.  1.
    10030    2    1    2    0    0  0.00000000000E+00  0.00000000000E+00 -0.45849014544E+03  0.24089329512E+04  0.23648984650E+04 0.  0.
        5    1    3    3  502    0 -0.31176160691E+02  0.10422820460E+04  0.33866668389E+03  0.10963763174E+04  0.46999998093E+01 0. -1.
       -5    1    3    3    0  502  0.31176160691E+02 -0.10422820460E+04 -0.79715682933E+03  0.13125566338E+04  0.46999998093E+01 0.  1.
</event>
<event>
 5   0  0.1096672E-05  0.2679832E+04  0.7818609E-02  0.8341578E-01
       -1   -1    0    0    0  501  0.00000000000E+00  0.00000000000E+00  0.11022687911E+04  0.11022687911E+04  0.50400001928E-02 0.  1.
        1   -1    0    0  501    0  0.00000000000E+00  0.00000000000E+00 -0.16287997779E+04  0.16287997779E+04  0.50400001928E-02 0. -1.
    10030    2    1    2    0    0  0.00000000000E+00  0.00000000000E+00 -0.52653098678E+03  0.27310685691E+04  0.26798322054E+04 0.  0.
        1    1    3    3  502    0  0.12347071883E+03 -0.26605359100E+03  0.10691508318E+04  0.11086537029E+04  0.50400001928E-02 0.  1.
       -1    1    3    3    0  502 -0.12347071883E+03  0.26605359100E+03 -0.15956818186E+04  0.16224148662E+04  0.50400001928E-02 0. -1.
</event>
<event>
 5   0  0.1096672E-05  0.1704140E+04  0.7818609E-02  0.8759007E-01
        1   -1    0    0  501    0  0.00000000000E+00  0.00000000000E+00  0.12084115157E+04  0.12084115158E+04  0.50400001928E-02 0. -1.
       -1   -1    0    0    0  501  0.00000000000E+00  0.00000000000E+00 -0.60080808331E+03  0.60080808333E+03  0.50400001928E-02 0.  1.
    10030    2    1    2    0    0  0.00000000000E+00  0.00000000000E+00  0.60760343244E+03  0.18092195991E+04  0.17041401429E+04 0.  0.
        1    1    3    3  502    0 -0.20034501648E+03 -0.37358910863E+02  0.11821553485E+04  0.11995937153E+04  0.50400001928E-02 0. -1.
       -1    1    3    3    0  502  0.20034501648E+03  0.37358910863E+02 -0.57455191607E+03  0.60962588375E+03  0.50400001928E-02 0.  1.
</event>
<event>
 5   0  0.1036691E-05  0.2694432E+04  0.7818609E-02  0.8336814E-01
       -1   -1    0    0    0  501  0.00000000000E+00  0.00000000000E+00  0.14926343417E+04  0.14926343417E+04  0.50400001928E-02 0.  1.
        1   -1    0    0  501    0  0.00000000000E+00  0.00000000000E+00 -0.12159644849E+04  0.12159644849E+04  0.50400001928E-02 0. -1.
    10030    2    1    2    0    0  0.00000000000E+00  0.00000000000E+00  0.27666985674E+03  0.27085988266E+04  0.26944315530E+04 0.  0.
        4    1    3    3  502    0  0.31784799944E+03  0.12836904684E+03  0.14480602320E+04  0.14880813188E+04  0.12699999809E+01 0.  1.
       -4    1    3    3    0  502 -0.31784799944E+03 -0.12836904684E+03 -0.11713903752E+04  0.12205175079E+04  0.12699999809E+01 0. -1.
</event>
<event>
 5   0  0.2516518E-05  0.2667232E+04  0.7818609E-02  0.8345716E-01
       -2   -1    0    0    0  501  0.00000000000E+00  0.00000000000E+00  0.17022501376E+04  0.17022501376E+04  0.25500000920E-02 0. -1.
        2   -1    0    0  501    0  0.00000000000E+00  0.00000000000E+00 -0.10448123320E+04  0.10448123320E+04  0.25500000920E-02 0.  1.
    10030    2    1    2    0    0  0.00000000000E+00  0.00000000000E+00  0.65743780562E+03  0.27470624697E+04  0.26672322254E+04 0.  0.
        4    1    3    3  502    0 -0.37266428173E+03 -0.57791934084E+03  0.15055737595E+04  0.16551807725E+04  0.12699999809E+01 0. -1.
       -4    1    3    3    0  502  0.37266428173E+03  0.57791934084E+03 -0.84813595391E+03  0.10918816972E+04  0.12699999809E+01 0.  1.
</event>
<event>
 5   0  0.1096672E-05  0.2735212E+04  0.7818609E-02  0.8323670E-01
       -1   -1    0    0    0  501  0.00000000000E+00  0.00000000000E+00  0.10461539464E+04  0.10461539464E+04  0.50400001928E-02 0. -1.
        1   -1    0    0  501    0  0.00000000000E+00  0.00000000000E+00 -0.17878305048E+04  0.17878305048E+04  0.50400001928E-02 0.  1.
    10030    2    1    2    0    0  0.00000000000E+00  0.00000000000E+00 -0.74167655840E+03  0.28339844512E+04  0.27352118295E+04 0.  0.
        1    1    3    3  502    0 -0.13059849846E+04 -0.20073275518E+03 -0.73636032618E+03  0.15126522895E+04  0.50400001928E-02 0. -1.
       -1    1    3    3    0  502  0.13059849846E+04  0.20073275518E+03 -0.53162322215E+01  0.13213321616E+04  0.50400001928E-02 0.  1.
</event>
<event>
 5   0  0.2540232E-05  0.2363458E+04  0.7818609E-02  0.8453312E-01
        2   -1    0    0  501    0  0.00000000000E+00  0.00000000000E+00  0.12278897046E+04  0.12278897046E+04  0.25500000920E-02 0. -1.
       -2   -1    0    0    0  501  0.00000000000E+00  0.00000000000E+00 -0.11373035342E+04  0.11373035342E+04  0.25500000920E-02 0.  1.
    10030    2    1    2    0    0  0.00000000000E+00  0.00000000000E+00  0.90586170405E+02  0.23651932387E+04  0.23634578910E+04 0.  0.
        1    1    3    3  502    0  0.50086247171E+03 -0.77119055303E+03 -0.69746830177E+03  0.11541490877E+04  0.50400001928E-02 0.  1.
       -1    1    3    3    0  502 -0.50086247171E+03  0.77119055303E+03  0.78805447218E+03  0.12110441510E+04  0.50400001928E-02 0. -1.
</event>
<event>
 5   0  0.8740500E-06  0.2757501E+04  0.7818609E-02  0.8316585E-01
       -3   -1    0    0    0  501  0.00000000000E+00  0.00000000000E+00  0.96492976021E+03  0.96492976549E+03  0.10100000352E+00 0.  1.
        3   -1    0    0  501    0  0.00000000000E+00  0.00000000000E+00 -0.19700428635E+04  0.19700428661E+04  0.10100000352E+00 0. -1.
    10030    2    1    2    0    0  0.00000000000E+00  0.00000000000E+00 -0.10051131033E+04  0.29349726316E+04  0.27575010422E+04 0.  0.
        3    1    3    3  502    0 -0.78066697920E+03  0.39141312323E+03 -0.16381378484E+04  0.18563784059E+04  0.10100000352E+00 0. -1.
       -3    1    3    3    0  502  0.78066697920E+03 -0.39141312323E+03  0.63302474512E+03  0.10785942256E+04  0.10100000352E+00 0.  1.
</event>
<event>
 5   0  0.1041909E-05  0.2783287E+04  0.7818609E-02  0.8308476E-01
       -1   -1    0    0    0  501  0.00000000000E+00  0.00000000000E+00  0.13015060568E+04  0.13015060568E+04  0.50400001928E-02 0.  1.
        1   -1    0    0  501    0  0.00000000000E+00  0.00000000000E+00 -0.14880239809E+04  0.14880239809E+04  0.50400001928E-02 0. -1.
    10030    2    1    2    0    0  0.00000000000E+00  0.00000000000E+00 -0.18651792412E+03  0.27895300377E+04  0.27832874259E+04 0.  0.
        5    1    3    3  502    0  0.84590002669E+03 -0.78907432001E+03 -0.86859926854E+03  0.14466070361E+04  0.46999998093E+01 0. -1.
       -5    1    3    3    0  502 -0.84590002669E+03  0.78907432001E+03  0.68208134442E+03  0.13429230015E+04  0.46999998093E+01 0.  1.
</event>
<event>
 5   0  0.2615843E-05  0.2702815E+04  0.7818609E-02  0.8334092E-01
       -2   -1    0    0    0  501  0.00000000000E+00  0.00000000000E+00  0.84583436626E+03  0.84583436626E+03  0.25500000920E-02 0. -1.
        2   -1    0    0  501    0  0.00000000000E+00  0.00000000000E+00 -0.21591730833E+04  0.21591730833E+04  0.25500000920E-02 0.  1.
    10030    2    1    2    0    0  0.00000000000E+00  0.00000000000E+00 -0.13133387170E+04  0.30050074496E+04  0.27028154185E+04 0.  0.
        3    1    3    3  502    0 -0.10674043036E+04 -0.22234209409E+03  0.23104718188E+03  0.11145271484E+04  0.10100000352E+00 0. -1.
       -3    1    3    3    0  502  0.10674043036E+04  0.22234209409E+03 -0.15443858989E+04  0.18904803012E+04  0.10100000352E+00 0.  1.
</event>
<event>
 5   0  0.1096672E-05  0.2700734E+04  0.7818609E-02  0.8334767E-01
        1   -1    0    0  501    0  0.00000000000E+00  0.00000000000E+00  0.21239982517E+04  0.21239982517E+04  0.50400001928E-02 0. -1.
       -1   -1    0    0    0  501  0.00000000000E+00  0.00000000000E+00 -0.85851819362E+03  0.85851819363E+03  0.50400001928E-02 0.  1.
    10030    2    1    2    0    0  0.00000000000E+00  0.00000000000E+00  0.12654800581E+04  0.29825164453E+04  0.27007340797E+04 0.  0.
        1    1    3    3  502    0  0.67964370887E+03  0.11382135286E+04  0.91654679971E+03  0.16116772766E+04  0.50400001928E-02 0. -1.
       -1    1    3    3    0  502 -0.67964370887E+03 -0.11382135286E+04  0.34893325838E+03  0.13708391688E+04  0.50400001928E-02 0.  1.
</event>
<event>
 5   0  0.1041909E-05  0.2662110E+04  0.7818609E-02  0.8347405E-01
       -1   -1    0    0    0  501  0.00000000000E+00  0.00000000000E+00  0.93951929154E+03  0.93951929155E+03  0.50400001928E-02 0. -1.
        1   -1    0    0  501    0  0.00000000000E+00  0.00000000000E+00 -0.18857600004E+04  0.18857600004E+04  0.50400001928E-02 0.  1.
    10030    2    1    2    0    0  0.00000000000E+00  0.00000000000E+00 -0.94624070884E+03  0.28252792919E+04  0.26621103656E+04 0.  0.
        5    1    3    3  502    0  0.16192293125E+03 -0.11972506612E+04  0.11974043992E+03  0.12140790931E+04  0.46999998093E+01 0. -1.
       -5    1    3    3    0  502 -0.16192293125E+03  0.11972506612E+04 -0.10659811488E+04  0.16112001989E+04  0.46999998093E+01 0.  1.
</event>
<event>
 5   0  0.2641216E-05  0.2696374E+04  0.7818609E-02  0.8336182E-01
       -2   -1    0    0    0  501  0.00000000000E+00  0.00000000000E+00  0.95737011964E+03  0.95737011964E+03  0.25500000920E-02 0. -1.
        2   -1    0    0  501    0  0.00000000000E+00  0.00000000000E+00 -0.18985431009E+04  0.18985431009E+04  0.25500000920E-02 0.  1.
    10030    2    1    2    0    0  0.00000000000E+00  0.00000000000E+00 -0.94117298130E+03  0.28559132206E+04  0.26963741845E+04 0.  0.
        5    1    3    3  502    0  0.10035640051E+04 -0.51162991741E+03 -0.12551436572E+04  0.16865092869E+04  0.46999998093E+01 0.  1.
       -5    1    3    3    0  502 -0.10035640051E+04  0.51162991741E+03  0.31397067587E+03  0.11694039337E+04  0.46999998093E+01 0. -1.
</event>
<event>
 5   0  0.1096672E-05  0.2723464E+04  0.7818609E-02  0.8327432E-01
        1   -1    0    0  501    0  0.00000000000E+00  0.00000000000E+00  0.15453950845E+04  0.15453950846E+04  0.50400001928E-02 0. -1.
       -1   -1    0    0    0  501  0.00000000000E+00  0.00000000000E+00 -0.11998965389E+04  0.11998965389E+04  0.50400001928E-02 0.  1.
    10030    2    1    2    0    0  0.00000000000E+00  0.00000000000E+00  0.34549854562E+03  0.27452916235E+04  0.27234641274E+04 0.  0.
        1    1    3    3  502    0  0.11753093805E+04 -0.38538523361E+03  0.74691097333E+03  0.14449048136E+04  0.50400001928E-02 0. -1.
       -1    1    3    3    0  502 -0.11753093805E+04  0.38538523361E+03 -0.40141242771E+03  0.13003868099E+04  0.50400001928E-02 0.  1.
</event>
<event>
 5   0  0.1041909E-05  0.2698444E+04  0.7818609E-02  0.8335510E-01
       -1   -1    0    0    0  501  0.00000000000E+00  0.00000000000E+00  0.14795726470E+04  0.14795726470E+04  0.50400001928E-02 0. -1.
        1   -1    0    0  501    0  0.00000000000E+00  0.00000000000E+00 -0.12303553876E+04  0.12303553876E+04  0.50400001928E-02 0.  1.
    10030    2    1    2    0    0  0.00000000000E+00  0.00000000000E+00  0.24921725941E+03  0.27099280346E+04  0.26984441277E+04 0.  0.
        5    1    3    3  502    0 -0.11396671717E+04 -0.31551826069E+03 -0.52775968815E+03  0.12949692712E+04  0.46999998093E+01 0. -1.
       -5    1    3    3    0  502  0.11396671717E+04  0.31551826069E+03  0.77697694756E+03  0.14149587634E+04  0.46999998093E+01 0.  1.
</event>
<event>
 5   0  0.1005265E-05  0.2447501E+04  0.7818609E-02  0.8421931E-01
       -1   -1    0    0    0  501  0.00000000000E+00  0.00000000000E+00  0.89529812644E+03  0.89529812645E+03  0.50400001928E-02 0.  1.
        1   -1    0    0  501    0  0.00000000000E+00  0.00000000000E+00 -0.16727006964E+04  0.16727006964E+04  0.50400001928E-02 0. -1.
    10030    2    1    2    0    0  0.00000000000E+00  0.00000000000E+00 -0.77740256992E+03  0.25679988228E+04  0.24475014195E+04 0.  0.
        3    1    3    3  502    0 -0.19656013210E+03  0.68934588339E+03  0.65196216603E+03  0.96896249082E+03  0.10100000352E+00 0.  1.
       -3    1    3    3    0  502  0.19656013210E+03 -0.68934588339E+03 -0.14293647360E+04  0.15990363320E+04  0.10100000352E+00 0. -1.
</event>
<event>
 5   0  0.2516518E-05  0.2705621E+04  0.7818609E-02  0.8333183E-01
       -2   -1    0    0    0  501  0.00000000000E+00  0.00000000000E+00  0.31221344649E+04  0.31221344649E+04  0.25500000920E-02 0. -1.
        2   -1    0    0  501    0  0.00000000000E+00  0.00000000000E+00 -0.58616829823E+03  0.58616829824E+03  0.25500000920E-02 0.  1.
    10030    2    1    2    0    0  0.00000000000E+00  0.00000000000E+00  0.25359661666E+04  0.37083027631E+04  0.27056209979E+04 0.  0.
        4    1    3    3  502    0  0.65216520749E+03  0.11755831444E+04  0.10611215196E+04  0.17126866845E+04  0.12699999809E+01 0.  1.
       -4    1    3    3    0  502 -0.65216520749E+03 -0.11755831444E+04  0.14748446471E+04  0.19956160786E+04  0.12699999809E+01 0. -1.
</event>
<event>
 5   0  0.9971923E-06  0.2761364E+04  0.7818609E-02  0.8315365E-01
        1   -1    0    0  501    0  0.00000000000E+00  0.00000000000E+00  0.14950412551E+04  0.14950412551E+04  0.50400001928E-02 0. -1.
       -1   -1    0    0    0  501  0.00000000000E+00  0.00000000000E+00 -0.12750700185E+04  0.12750700185E+04  0.50400001928E-02 0.  1.
    10030    2    1    2    0    0  0.00000000000E+00  0.00000000000E+00  0.21997123654E+03  0.27701112736E+04  0.27613636348E+04 0.  0.
        2    1    3    3  502    0 -0.81865693812E+03 -0.67252599641E+03 -0.77813917515E+03  0.13145307049E+04  0.25500000920E-02 0.  1.
       -2    1    3    3    0  502  0.81865693812E+03  0.67252599641E+03  0.99811041169E+03  0.14555805687E+04  0.25500000920E-02 0. -1.
</event>
<event>
 5   0  0.8740500E-06  0.2645474E+04  0.7818609E-02  0.8352917E-01
       -3   -1    0    0    0  501  0.00000000000E+00  0.00000000000E+00  0.19188977658E+04  0.19188977685E+04  0.10100000352E+00 0.  1.
        3   -1    0    0  501    0  0.00000000000E+00  0.00000000000E+00 -0.91179062496E+03  0.91179063055E+03  0.10100000352E+00 0. -1.
    10030    2    1    2    0    0  0.00000000000E+00  0.00000000000E+00  0.10071071409E+04  0.28306883991E+04  0.26454738742E+04 0.  0.
        1    1    3    3  502    0  0.88041273001E+03 -0.66258741100E+02 -0.55034901167E+03  0.10403849435E+04  0.50400001928E-02 0. -1.
       -1    1    3    3    0  502 -0.88041273001E+03  0.66258741100E+02  0.15574561526E+04  0.17903034556E+04  0.50400001928E-02 0.  1.
</event>
<event>
 5   0  0.2540232E-05  0.2686761E+04  0.7818609E-02  0.8339313E-01
       -2   -1    0    0    0  501  0.00000000000E+00  0.00000000000E+00  0.13105709477E+04  0.13105709477E+04  0.25500000920E-02 0.  1.
        2   -1    0    0  501    0  0.00000000000E+00  0.00000000000E+00 -0.13770115831E+04  0.13770115831E+04  0.25500000920E-02 0. -1.
    10030    2    1    2    0    0  0.00000000000E+00  0.00000000000E+00 -0.66440635443E+02  0.26875825309E+04  0.26867611546E+04 0.  0.
        1    1    3    3  502    0  0.17092507811E+03 -0.23567041089E+03 -0.13450767162E+04  0.13762221105E+04  0.50400001928E-02 0. -1.
       -1    1    3    3    0  502 -0.17092507811E+03  0.23567041089E+03  0.12786360808E+04  0.13113604203E+04  0.50400001928E-02 0.  1.
</event>
<event>
 5   0  0.2516518E-05  0.1712845E+04  0.7818609E-02  0.8754072E-01
       -2   -1    0    0    0  501  0.00000000000E+00  0.00000000000E+00  0.49919228576E+03  0.49919228577E+03  0.25500000920E-02 0. -1.
        2   -1    0    0  501    0  0.00000000000E+00  0.00000000000E+00 -0.14692925421E+04  0.14692925421E+04  0.25500000920E-02 0.  1.
    10030    2    1    2    0    0  0.00000000000E+00  0.00000000000E+00 -0.97010025632E+03  0.19684848278E+04  0.17128450047E+04 0.  0.
        4    1    3    3  502    0  0.48700058092E+03  0.14228138661E+03 -0.12779853421E+04  0.13750133477E+04  0.12699999809E+01 0.  1.
       -4    1    3    3    0  502 -0.48700058092E+03 -0.14228138661E+03  0.30788508580E+03  0.59347148015E+03  0.12699999809E+01 0. -1.
</event>
<event>
 5   0  0.2516518E-05  0.2712058E+04  0.7818609E-02  0.8331103E-01
       -2   -1    0    0    0  501  0.00000000000E+00  0.00000000000E+00  0.12760965495E+04  0.12760965495E+04  0.25500000920E-02 0. -1.
        2   -1    0    0  501    0  0.00000000000E+00  0.00000000000E+00 -0.14409680759E+04  0.14409680759E+04  0.25500000920E-02 0.  1.
    10030    2    1    2    0    0  0.00000000000E+00  0.00000000000E+00 -0.16487152640E+03  0.27170646253E+04  0.27120578087E+04 0.  0.
        4    1    3    3  502    0  0.67943338552E+03 -0.87357105606E+03  0.70262857386E+03  0.13108945957E+04  0.12699999809E+01 0. -1.
       -4    1    3    3    0  502 -0.67943338552E+03  0.87357105606E+03 -0.86750010026E+03  0.14061700296E+04  0.12699999809E+01 0.  1.
</event>
<event>
 5   0  0.2540684E-05  0.2994389E+04  0.7818609E-02  0.8245335E-01
       -2   -1    0    0    0  501  0.00000000000E+00  0.00000000000E+00  0.18166159491E+04  0.18166159491E+04  0.25500000920E-02 0. -1.
        2   -1    0    0  501    0  0.00000000000E+00  0.00000000000E+00 -0.12339380607E+04  0.12339380607E+04  0.25500000920E-02 0.  1.
    10030    2    1    2    0    0  0.00000000000E+00  0.00000000000E+00  0.58267788842E+03  0.30505540099E+04  0.29943891273E+04 0.  0.
        2    1    3    3  502    0 -0.87144544542E+03  0.11782257133E+04  0.60361498917E+03  0.15849239890E+04  0.25500000920E-02 0. -1.
       -2    1    3    3    0  502  0.87144544542E+03 -0.11782257133E+04 -0.20937100746E+02  0.14656300208E+04  0.25500000920E-02 0.  1.
</event>
<event>
 5   0  0.2615843E-05  0.2707594E+04  0.7818609E-02  0.8332545E-01
       -2   -1    0    0    0  501  0.00000000000E+00  0.00000000000E+00  0.66369181367E+03  0.66369181368E+03  0.25500000920E-02 0. -1.
        2   -1    0    0  501    0  0.00000000000E+00  0.00000000000E+00 -0.27614709937E+04  0.27614709937E+04  0.25500000920E-02 0.  1.
    10030    2    1    2    0    0  0.00000000000E+00  0.00000000000E+00 -0.20977791800E+04  0.34251628073E+04  0.27075935383E+04 0.  0.
        3    1    3    3  502    0 -0.60378363538E+03 -0.11618422483E+04 -0.14840524049E+04  0.19791017253E+04  0.10100000352E+00 0.  1.
       -3    1    3    3    0  502  0.60378363538E+03  0.11618422483E+04 -0.61372677510E+03  0.14460610821E+04  0.10100000352E+00 0. -1.
</event>
<event>
 5   0  0.1005265E-05  0.2742368E+04  0.7818609E-02  0.8321387E-01
        1   -1    0    0  501    0  0.00000000000E+00  0.00000000000E+00  0.13948839298E+04  0.13948839298E+04  0.50400001928E-02 0.  1.
       -1   -1    0    0    0  501  0.00000000000E+00  0.00000000000E+00 -0.13478869429E+04  0.13478869429E+04  0.50400001928E-02 0. -1.
    10030    2    1    2    0    0  0.00000000000E+00  0.00000000000E+00  0.46996986833E+02  0.27427708727E+04  0.27423681998E+04 0.  0.
        3    1    3    3  502    0 -0.69124913688E+03 -0.56475979780E+03  0.10645004150E+04  0.13892228555E+04  0.10100000352E+00 0.  1.
       -3    1    3    3    0  502  0.69124913688E+03  0.56475979780E+03 -0.10175034282E+04  0.13535480172E+04  0.10100000352E+00 0. -1.
</event>
<event>
 5   0  0.1036691E-05  0.2702284E+04  0.7818609E-02  0.8334264E-01
        1   -1    0    0  501    0  0.00000000000E+00  0.00000000000E+00  0.15974988374E+04  0.15974988374E+04  0.50400001928E-02 0. -1.
       -1   -1    0    0    0  501  0.00000000000E+00  0.00000000000E+00 -0.11427765441E+04  0.11427765441E+04  0.50400001928E-02 0.  1.
    10030    2    1    2    0    0  0.00000000000E+00  0.00000000000E+00  0.45472229325E+03  0.27402753815E+04  0.27022836273E+04 0.  0.
        4    1    3    3  502    0  0.50692923206E+03  0.14208516114E+03  0.14892097905E+04  0.15795293136E+04  0.12699999809E+01 0. -1.
       -4    1    3    3    0  502 -0.50692923206E+03 -0.14208516114E+03 -0.10344874973E+04  0.11607460679E+04  0.12699999809E+01 0.  1.
</event>
<event>
 5   0  0.2615843E-05  0.2713816E+04  0.7818609E-02  0.8330536E-01
       -2   -1    0    0    0  501  0.00000000000E+00  0.00000000000E+00  0.14882694472E+04  0.14882694472E+04  0.25500000920E-02 0.  1.
        2   -1    0    0  501    0  0.00000000000E+00  0.00000000000E+00 -0.12371414139E+04  0.12371414139E+04  0.25500000920E-02 0. -1.
    10030    2    1    2    0    0  0.00000000000E+00  0.00000000000E+00  0.25112803327E+03  0.27254108610E+04  0.27138163299E+04 0.  0.
        3    1    3    3  502    0 -0.68965573882E+03  0.87766531633E+03 -0.64927514223E+03  0.12913092837E+04  0.10100000352E+00 0. -1.
       -3    1    3    3    0  502  0.68965573882E+03 -0.87766531633E+03  0.90040317550E+03  0.14341015774E+04  0.10100000352E+00 0.  1.
</event>
<event>
 5   0  0.2540684E-05  0.2715460E+04  0.7818609E-02  0.8330006E-01
        2   -1    0    0  501    0  0.00000000000E+00  0.00000000000E+00  0.24665554044E+04  0.24665554044E+04  0.25500000920E-02 0. -1.
       -2   -1    0    0    0  501  0.00000000000E+00  0.00000000000E+00 -0.74737077561E+03  0.74737077562E+03  0.25500000920E-02 0.  1.
    10030    2    1    2    0    0  0.00000000000E+00  0.00000000000E+00  0.17191846288E+04  0.32139261800E+04  0.27154604955E+04 0.  0.
        2    1    3    3  502    0 -0.80275558619E+03  0.66967721775E+03 -0.16577966954E+03  0.10584739042E+04  0.25500000920E-02 0.  1.
       -2    1    3    3    0  502  0.80275558619E+03 -0.66967721775E+03  0.18849642983E+04  0.21554522758E+04  0.25500000920E-02 0. -1.
</event>
<event>
 5   0  0.1096672E-05  0.2666335E+04  0.7818609E-02  0.8346012E-01
       -1   -1    0    0    0  501  0.00000000000E+00  0.00000000000E+00  0.10000729841E+04  0.10000729841E+04  0.50400001928E-02 0. -1.
        1   -1    0    0  501    0  0.00000000000E+00  0.00000000000E+00 -0.17772054456E+04  0.17772054456E+04  0.50400001928E-02 0.  1.
    10030    2    1    2    0    0  0.00000000000E+00  0.00000000000E+00 -0.77713246155E+03  0.27772784297E+04  0.26663346776E+04 0.  0.
        1    1    3    3  502    0 -0.71908548502E+03  0.17476810785E+03 -0.15436291459E+04  0.17118465954E+04  0.50400001928E-02 0.  1.
       -1    1    3    3    0  502  0.71908548502E+03 -0.17476810785E+03  0.76649668433E+03  0.10654318342E+04  0.50400001928E-02 0. -1.
</event>
<event>
 5   0  0.2540232E-05  0.2748256E+04  0.7818609E-02  0.8319515E-01
       -2   -1    0    0    0  501  0.00000000000E+00  0.00000000000E+00  0.95977834659E+03  0.95977834659E+03  0.25500000920E-02 0.  1.
        2   -1    0    0  501    0  0.00000000000E+00  0.00000000000E+00 -0.19673587609E+04  0.19673587609E+04  0.25500000920E-02 0. -1.
    10030    2    1    2    0    0  0.00000000000E+00  0.00000000000E+00 -0.10075804143E+04  0.29271371075E+04  0.27482564208E+04 0.  0.
        1    1    3    3  502    0  0.12293271093E+04 -0.11771110787E+03 -0.11456131826E+04  0.16844971388E+04  0.50400001928E-02 0. -1.
       -1    1    3    3    0  502 -0.12293271093E+04  0.11771110787E+03  0.13803276828E+03  0.12426399687E+04  0.50400001928E-02 0.  1.
</event>
<event>
 5   0  0.9971923E-06  0.2621893E+04  0.7818609E-02  0.8360802E-01
        1   -1    0    0  501    0  0.00000000000E+00  0.00000000000E+00  0.11013013717E+04  0.11013013717E+04  0.50400001928E-02 0. -1.
       -1   -1    0    0    0  501  0.00000000000E+00  0.00000000000E+00 -0.15605002044E+04  0.15605002044E+04  0.50400001928E-02 0.  1.
    10030    2    1    2    0    0  0.00000000000E+00  0.00000000000E+00 -0.45919883268E+03  0.26618015762E+04  0.26218932211E+04 0.  0.
        2    1    3    3  502    0 -0.84882515267E+03  0.62422784091E+03 -0.10214826744E+04  0.14675119732E+04  0.25500000920E-02 0.  1.
       -2    1    3    3    0  502  0.84882515267E+03 -0.62422784091E+03  0.56228384175E+03  0.11942896030E+04  0.25500000920E-02 0. -1.
</event>
<event>
 5   0  0.2641216E-05  0.2688970E+04  0.7818609E-02  0.8338593E-01
        2   -1    0    0  501    0  0.00000000000E+00  0.00000000000E+00  0.28598994439E+04  0.28598994439E+04  0.25500000920E-02 0.  1.
       -2   -1    0    0    0  501  0.00000000000E+00  0.00000000000E+00 -0.63206401666E+03  0.63206401667E+03  0.25500000920E-02 0. -1.
    10030    2    1    2    0    0  0.00000000000E+00  0.00000000000E+00  0.22278354272E+04  0.34919634606E+04  0.26889697133E+04 0.  0.
        5    1    3    3  502    0  0.74416180127E+00  0.13017777000E+04  0.15504406448E+04  0.20244787025E+04  0.46999998093E+01 0.  1.
       -5    1    3    3    0  502 -0.74416180127E+00 -0.13017777000E+04  0.67739478245E+03  0.14674847581E+04  0.46999998093E+01 0. -1.
</event>
<event>
 5   0  0.9971923E-06  0.2698477E+04  0.7818609E-02  0.8335499E-01
       -1   -1    0    0    0  501  0.00000000000E+00  0.00000000000E+00  0.14818798234E+04  0.14818798234E+04  0.50400001928E-02 0. -1.
        1   -1    0    0  501    0  0.00000000000E+00  0.00000000000E+00 -0.12284693941E+04  0.12284693941E+04  0.50400001928E-02 0.  1.
    10030    2    1    2    0    0  0.00000000000E+00  0.00000000000E+00  0.25341042936E+03  0.27103492175E+04  0.26984766138E+04 0.  0.
        2    1    3    3  502    0  0.35324483799E+03  0.89493041568E+03 -0.82337499639E+03  0.12663446408E+04  0.25500000920E-02 0.  1.
       -2    1    3    3    0  502 -0.35324483799E+03 -0.89493041568E+03  0.10767854258E+04  0.14440045767E+04  0.25500000920E-02 0. -1.
</event>
<event>
 5   0  0.1005265E-05  0.2680771E+04  0.7818609E-02  0.8341271E-01
        1   -1    0    0  501    0  0.00000000000E+00  0.00000000000E+00  0.12120541163E+04  0.12120541163E+04  0.50400001928E-02 0. -1.
       -1   -1    0    0    0  501  0.00000000000E+00  0.00000000000E+00 -0.14823040981E+04  0.14823040981E+04  0.50400001928E-02 0.  1.
    10030    2    1    2    0    0  0.00000000000E+00  0.00000000000E+00 -0.27024998182E+03  0.26943582144E+04  0.26807706233E+04 0.  0.
        3    1    3    3  502    0  0.54748614121E+03  0.93539607643E+03 -0.92774492989E+03  0.14266806089E+04  0.10100000352E+00 0.  1.
       -3    1    3    3    0  502 -0.54748614121E+03 -0.93539607643E+03  0.65749494807E+03  0.12676776055E+04  0.10100000352E+00 0. -1.
</event>
<event>
 5   0  0.1041909E-05  0.2680042E+04  0.7818609E-02  0.8341510E-01
        1   -1    0    0  501    0  0.00000000000E+00  0.00000000000E+00  0.11802809295E+04  0.11802809296E+04  0.50400001928E-02 0.  1.
       -1   -1    0    0    0  501  0.00000000000E+00  0.00000000000E+00 -0.15213802080E+04  0.15213802080E+04  0.50400001928E-02 0. -1.
    10030    2    1    2    0    0  0.00000000000E+00  0.00000000000E+00 -0.34109927845E+03  0.27016611376E+04  0.26800418251E+04 0.  0.
        5    1    3    3  502    0  0.15253048047E+03  0.24396444158E+03  0.11487666952E+04  0.11842597715E+04  0.46999998093E+01 0.  1.
       -5    1    3    3    0  502 -0.15253048047E+03 -0.24396444158E+03 -0.14898659737E+04  0.15174013661E+04  0.46999998093E+01 0. -1.
</event>
<event>
 5   0  0.2540232E-05  0.2688800E+04  0.7818609E-02  0.8338648E-01
       -2   -1    0    0    0  501  0.00000000000E+00  0.00000000000E+00  0.11847573217E+04  0.11847573217E+04  0.25500000920E-02 0.  1.
        2   -1    0    0  501    0  0.00000000000E+00  0.00000000000E+00 -0.15255541849E+04  0.15255541849E+04  0.25500000920E-02 0. -1.
    10030    2    1    2    0    0  0.00000000000E+00  0.00000000000E+00 -0.34079686322E+03  0.27103115066E+04  0.26888000969E+04 0.  0.
        1    1    3    3  502    0 -0.61487738560E+03  0.19241790122E+03 -0.13598015616E+04  0.15047123097E+04  0.50400001928E-02 0. -1.
       -1    1    3    3    0  502  0.61487738560E+03 -0.19241790122E+03  0.10190046984E+04  0.12055991969E+04  0.50400001928E-02 0.  1.
</event>
<event>
 5   0  0.1005265E-05  0.2667792E+04  0.7818609E-02  0.8345532E-01
        1   -1    0    0  501    0  0.00000000000E+00  0.00000000000E+00  0.97080770584E+03  0.97080770585E+03  0.50400001928E-02 0. -1.
       -1   -1    0    0    0  501  0.00000000000E+00  0.00000000000E+00 -0.18327815564E+04  0.18327815564E+04  0.50400001928E-02 0.  1.
    10030    2    1    2    0    0  0.00000000000E+00  0.00000000000E+00 -0.86197385054E+03  0.28035892622E+04  0.26677919395E+04 0.  0.
        3    1    3    3  502    0  0.59242511334E+03  0.38531896241E+02 -0.16862882109E+04  0.17877416374E+04  0.10100000352E+00 0.  1.
       -3    1    3    3    0  502 -0.59242511334E+03 -0.38531896241E+02  0.82431436033E+03  0.10158476248E+04  0.10100000352E+00 0. -1.
</event>
<event>
 5   0  0.2540684E-05  0.2718093E+04  0.7818609E-02  0.8329158E-01
       -2   -1    0    0    0  501  0.00000000000E+00  0.00000000000E+00  0.94741722763E+03  0.94741722764E+03  0.25500000920E-02 0.  1.
        2   -1    0    0  501    0  0.00000000000E+00  0.00000000000E+00 -0.19495184346E+04  0.19495184346E+04  0.25500000920E-02 0. -1.
    10030    2    1    2    0    0  0.00000000000E+00  0.00000000000E+00 -0.10021012070E+04  0.28969356623E+04  0.27180929716E+04 0.  0.
        2    1    3    3  502    0  0.36123235369E+03  0.55274756872E+03 -0.17670581796E+04  0.18864022101E+04  0.25500000920E-02 0. -1.
       -2    1    3    3    0  502 -0.36123235369E+03 -0.55274756872E+03  0.76495697260E+03  0.10105334522E+04  0.25500000920E-02 0.  1.
</event>
<event>
 5   0  0.1036691E-05  0.2345120E+04  0.7818609E-02  0.8460340E-01
        1   -1    0    0  501    0  0.00000000000E+00  0.00000000000E+00  0.14182213654E+04  0.14182213654E+04  0.50400001928E-02 0. -1.
       -1   -1    0    0    0  501  0.00000000000E+00  0.00000000000E+00 -0.96945195572E+03  0.96945195573E+03  0.50400001928E-02 0.  1.
    10030    2    1    2    0    0  0.00000000000E+00  0.00000000000E+00  0.44876940970E+03  0.23876733212E+04  0.23451204458E+04 0.  0.
        4    1    3    3  502    0 -0.52299945356E+03 -0.37969869417E+03  0.12205015116E+04  0.13810594047E+04  0.12699999809E+01 0. -1.
       -4    1    3    3    0  502  0.52299945356E+03  0.37969869417E+03 -0.77173210187E+03  0.10066139164E+04  0.12699999809E+01 0.  1.
</event>
<event>
 5   0  0.1041909E-05  0.2696613E+04  0.7818609E-02  0.8336105E-01
        1   -1    0    0  501    0  0.00000000000E+00  0.00000000000E+00  0.20368915143E+04  0.20368915143E+04  0.50400001928E-02 0.  1.
       -1   -1    0    0    0  501  0.00000000000E+00  0.00000000000E+00 -0.89250250178E+03  0.89250250179E+03  0.50400001928E-02 0. -1.
    10030    2    1    2    0    0  0.00000000000E+00  0.00000000000E+00  0.11443890125E+04  0.29293940161E+04  0.26966132629E+04 0.  0.
        5    1    3    3  502    0 -0.11481799428E+04 -0.16241996255E+02 -0.19543551798E+03  0.11648167732E+04  0.46999998093E+01 0. -1.
       -5    1    3    3    0  502  0.11481799428E+04  0.16241996255E+02  0.13398245305E+04  0.17645772429E+04  0.46999998093E+01 0.  1.
</event>
<event>
 5   0  0.2641216E-05  0.2688834E+04  0.7818609E-02  0.8338637E-01
        2   -1    0    0  501    0  0.00000000000E+00  0.00000000000E+00  0.16016141134E+04  0.16016141134E+04  0.25500000920E-02 0. -1.
       -2   -1    0    0    0  501  0.00000000000E+00  0.00000000000E+00 -0.11285224815E+04  0.11285224815E+04  0.25500000920E-02 0.  1.
    10030    2    1    2    0    0  0.00000000000E+00  0.00000000000E+00  0.47309163186E+03  0.27301365949E+04  0.26888343449E+04 0.  0.
        5    1    3    3  502    0  0.97821311062E+03  0.33393446383E+03 -0.63632326364E+03  0.12138132071E+04  0.46999998093E+01 0.  1.
       -5    1    3    3    0  502 -0.97821311062E+03 -0.33393446383E+03  0.11094148955E+04  0.15163233878E+04  0.46999998093E+01 0. -1.
</event>
<event>
 5   0  0.1041909E-05  0.2706069E+04  0.7818609E-02  0.8333039E-01
        1   -1    0    0  501    0  0.00000000000E+00  0.00000000000E+00  0.12902941020E+04  0.12902941020E+04  0.50400001928E-02 0.  1.
       -1   -1    0    0    0  501  0.00000000000E+00  0.00000000000E+00 -0.14188253170E+04  0.14188253170E+04  0.50400001928E-02 0. -1.
    10030    2    1    2    0    0  0.00000000000E+00  0.00000000000E+00 -0.12853121505E+03  0.27091194190E+04  0.27060686896E+04 0.  0.
        5    1    3    3  502    0 -0.13741251070E+03  0.18441910473E+03  0.12705744341E+04  0.12912296801E+04  0.46999998093E+01 0.  1.
       -5    1    3    3    0  502  0.13741251070E+03 -0.18441910473E+03 -0.13991056491E+04  0.14178897389E+04  0.46999998093E+01 0. -1.
</event>
<event>
 5   0  0.9971923E-06  0.2637230E+04  0.7818609E-02  0.8355664E-01
        1   -1    0    0  501    0  0.00000000000E+00  0.00000000000E+00  0.17961322555E+04  0.17961322555E+04  0.50400001928E-02 0.  1.
       -1   -1    0    0    0  501  0.00000000000E+00  0.00000000000E+00 -0.96804967722E+03  0.96804967723E+03  0.50400001928E-02 0. -1.
    10030    2    1    2    0    0  0.00000000000E+00  0.00000000000E+00  0.82808257828E+03  0.27641819327E+04  0.26372297967E+04 0.  0.
        2    1    3    3  502    0  0.70127570446E+03 -0.98241146838E+02 -0.75184787119E+03  0.10328185504E+04  0.25500000920E-02 0. -1.
       -2    1    3    3    0  502 -0.70127570446E+03  0.98241146838E+02  0.15799304495E+04  0.17313633824E+04  0.25500000920E-02 0.  1.
</event>
<event>
 5   0  0.2540232E-05  0.2664906E+04  0.7818609E-02  0.8346482E-01
       -2   -1    0    0    0  501  0.00000000000E+00  0.00000000000E+00  0.53796349313E+03  0.53796349314E+03  0.25500000920E-02 0. -1.
        2   -1    0    0  501    0  0.00000000000E+00  0.00000000000E+00 -0.33002817998E+04  0.33002817998E+04  0.25500000920E-02 0.  1.
    10030    2    1    2    0    0  0.00000000000E+00  0.00000000000E+00 -0.27623183067E+04  0.38382452930E+04  0.26649060962E+04 0.  0.
        1    1    3    3  502    0 -0.66984895492E+03 -0.11385452677E+04 -0.16324817036E+04  0.20999951099E+04  0.50400001928E-02 0. -1.
       -1    1    3    3    0  502  0.66984895492E+03  0.11385452677E+04 -0.11298366031E+04  0.17382501830E+04  0.50400001928E-02 0.  1.
</event>
<event>
 5   0  0.1036691E-05  0.2690570E+04  0.7818609E-02  0.8338071E-01
       -1   -1    0    0    0  501  0.00000000000E+00  0.00000000000E+00  0.14033212701E+04  0.14033212701E+04  0.50400001928E-02 0. -1.
        1   -1    0    0  501    0  0.00000000000E+00  0.00000000000E+00 -0.12896488165E+04  0.12896488165E+04  0.50400001928E-02 0.  1.
    10030    2    1    2    0    0  0.00000000000E+00  0.00000000000E+00  0.11367245366E+03  0.26929700866E+04  0.26905699137E+04 0.  0.
        4    1    3    3  502    0  0.70419641480E+03  0.11071188606E+04  0.35406113308E+03  0.13590311479E+04  0.12699999809E+01 0. -1.
       -4    1    3    3    0  502 -0.70419641480E+03 -0.11071188606E+04 -0.24038867942E+03  0.13339389387E+04  0.12699999809E+01 0.  1.
</event>
<event>
 5   0  0.2540232E-05  0.2616306E+04  0.7818609E-02  0.8362683E-01
        2   -1    0    0  501    0  0.00000000000E+00  0.00000000000E+00  0.15833846507E+04  0.15833846507E+04  0.25500000920E-02 0.  1.
       -2   -1    0    0    0  501  0.00000000000E+00  0.00000000000E+00 -0.10807637732E+04  0.10807637732E+04  0.25500000920E-02 0. -1.
    10030    2    1    2    0    0  0.00000000000E+00  0.00000000000E+00  0.50262087752E+03  0.26641484239E+04  0.26163063808E+04 0.  0.
        1    1    3    3  502    0  0.55657981010E+03 -0.93959078794E+03  0.98465520084E+03  0.14704277603E+04  0.50400001928E-02 0.  1.
       -1    1    3    3    0  502 -0.55657981010E+03  0.93959078794E+03 -0.48203432332E+03  0.11937206636E+04  0.50400001928E-02 0. -1.
</event>
<event>
 5   0  0.2540232E-05  0.2946213E+04  0.7818609E-02  0.8259259E-01
        2   -1    0    0  501    0  0.00000000000E+00  0.00000000000E+00  0.28020839874E+04  0.28020839874E+04  0.25500000920E-02 0. -1.
       -2   -1    0    0    0  501  0.00000000000E+00  0.00000000000E+00 -0.77443865298E+03  0.77443865298E+03  0.25500000920E-02 0.  1.
    10030    2    1    2    0    0  0.00000000000E+00  0.00000000000E+00  0.20276453344E+04  0.35765226404E+04  0.29462125848E+04 0.  0.
        1    1    3    3  502    0  0.51755926821E+03 -0.89300402554E+03 -0.26209509939E+03  0.10649026373E+04  0.50400001928E-02 0.  1.
       -1    1    3    3    0  502 -0.51755926821E+03  0.89300402554E+03  0.22897404338E+04  0.25116200031E+04  0.50400001928E-02 0. -1.
</event>
<event>
 5   0  0.1036691E-05  0.2689818E+04  0.7818609E-02  0.8338316E-01
        1   -1    0    0  501    0  0.00000000000E+00  0.00000000000E+00  0.17047709168E+04  0.17047709168E+04  0.50400001928E-02 0.  1.
       -1   -1    0    0    0  501  0.00000000000E+00  0.00000000000E+00 -0.10610111069E+04  0.10610111069E+04  0.50400001928E-02 0. -1.
    10030    2    1    2    0    0  0.00000000000E+00  0.00000000000E+00  0.64375980988E+03  0.27657820236E+04  0.26898184901E+04 0.  0.
        4    1    3    3  502    0  0.12589722065E+04  0.46994504523E+03  0.37744206513E+03  0.13958235876E+04  0.12699999809E+01 0.  1.
       -4    1    3    3    0  502 -0.12589722065E+04 -0.46994504523E+03  0.26631774474E+03  0.13699584360E+04  0.12699999809E+01 0. -1.
</event>
<event>
 5   0  0.1005265E-05  0.2700872E+04  0.7818609E-02  0.8334722E-01
       -1   -1    0    0    0  501  0.00000000000E+00  0.00000000000E+00  0.13481426519E+04  0.13481426519E+04  0.50400001928E-02 0. -1.
        1   -1    0    0  501    0  0.00000000000E+00  0.00000000000E+00 -0.13527329065E+04  0.13527329065E+04  0.50400001928E-02 0.  1.
    10030    2    1    2    0    0  0.00000000000E+00  0.00000000000E+00 -0.45902545719E+01  0.27008755585E+04  0.27008716578E+04 0.  0.
        3    1    3    3  502    0 -0.12667584014E+04  0.36262545536E+03 -0.29810436006E+03  0.13509405198E+04  0.10100000352E+00 0.  1.
       -3    1    3    3    0  502  0.12667584014E+04 -0.36262545536E+03  0.29351410549E+03  0.13499350387E+04  0.10100000352E+00 0. -1.
</event>
<event>
 5   0  0.2516518E-05  0.2680797E+04  0.7818609E-02  0.8341263E-01
        2   -1    0    0  501    0  0.00000000000E+00  0.00000000000E+00  0.11469229322E+04  0.11469229322E+04  0.25500000920E-02 0.  1.
       -2   -1    0    0    0  501  0.00000000000E+00  0.00000000000E+00 -0.15665115637E+04  0.15665115637E+04  0.25500000920E-02 0. -1.
    10030    2    1    2    0    0  0.00000000000E+00  0.00000000000E+00 -0.41958863148E+03  0.27134344958E+04  0.26807969232E+04 0.  0.
        4    1    3    3  502    0  0.65394385988E+03  0.45592385201E+03  0.88089473283E+03  0.11880598781E+04  0.12699999809E+01 0.  1.
       -4    1    3    3    0  502 -0.65394385988E+03 -0.45592385201E+03 -0.13004833643E+04  0.15253746177E+04  0.12699999809E+01 0. -1.
</event>
<event>
 5   0  0.1036691E-05  0.2701937E+04  0.7818609E-02  0.8334377E-01
       -1   -1    0    0    0  501  0.00000000000E+00  0.00000000000E+00  0.10043727916E+04  0.10043727916E+04  0.50400001928E-02 0.  1.
        1   -1    0    0  501    0  0.00000000000E+00  0.00000000000E+00 -0.18171695539E+04  0.18171695539E+04  0.50400001928E-02 0. -1.
    10030    2    1    2    0    0  0.00000000000E+00  0.00000000000E+00 -0.81279676233E+03  0.28215423455E+04  0.27019368295E+04 0.  0.
        4    1    3    3  502    0 -0.10039362697E+04 -0.76950704650E+03  0.89034216049E+02  0.12680527721E+04  0.12699999809E+01 0.  1.
       -4    1    3    3    0  502  0.10039362697E+04  0.76950704650E+03 -0.90183097838E+03  0.15534895734E+04  0.12699999809E+01 0. -1.
</event>
<event>
 5   0  0.1096672E-05  0.2640222E+04  0.7818609E-02  0.8354666E-01
       -1   -1    0    0    0  501  0.00000000000E+00  0.00000000000E+00  0.15079222381E+04  0.15079222381E+04  0.50400001928E-02 0.  1.
        1   -1    0    0  501    0  0.00000000000E+00  0.00000000000E+00 -0.11556914259E+04  0.11556914259E+04  0.50400001928E-02 0. -1.
    10030    2    1    2    0    0  0.00000000000E+00  0.00000000000E+00  0.35223081217E+03  0.26636136640E+04  0.26402218100E+04 0.  0.
        1    1    3    3  502    0  0.67106125001E+03  0.84987957839E+03 -0.58560668688E+03  0.12310782635E+04  0.50400001928E-02 0. -1.
       -1    1    3    3    0  502 -0.67106125001E+03 -0.84987957839E+03  0.93783749906E+03  0.14325354005E+04  0.50400001928E-02 0.  1.
</event>
<event>
 5   0  0.1041909E-05  0.2692924E+04  0.7818609E-02  0.8337305E-01
       -1   -1    0    0    0  501  0.00000000000E+00  0.00000000000E+00  0.85984572313E+03  0.85984572314E+03  0.50400001928E-02 0.  1.
        1   -1    0    0  501    0  0.00000000000E+00  0.00000000000E+00 -0.21084707139E+04  0.21084707139E+04  0.50400001928E-02 0. -1.
    10030    2    1    2    0    0  0.00000000000E+00  0.00000000000E+00 -0.12486249907E+04  0.29683164370E+04  0.26929237090E+04 0.  0.
        5    1    3    3  502    0 -0.44928113385E+03  0.49901264576E+03 -0.19107417421E+04  0.20252958433E+04  0.46999998093E+01 0. -1.
       -5    1    3    3    0  502  0.44928113385E+03 -0.49901264576E+03  0.66211675132E+03  0.94302059375E+03  0.46999998093E+01 0.  1.
</event>
<event>
 5   0  0.2516518E-05  0.2711027E+04  0.7818609E-02  0.8331436E-01
        2   -1    0    0  501    0  0.00000000000E+00  0.00000000000E+00  0.15764317743E+04  0.15764317743E+04  0.25500000920E-02 0. -1.
       -2   -1    0    0    0  501  0.00000000000E+00  0.00000000000E+00 -0.11655544043E+04  0.11655544043E+04  0.25500000920E-02 0.  1.
    10030    2    1    2    0    0  0.00000000000E+00  0.00000000000E+00  0.41087737002E+03  0.27419861786E+04  0.27110271099E+04 0.  0.
        4    1    3    3  502    0 -0.60115980932E+03  0.53817304998E+03  0.13070934375E+04  0.15360723340E+04  0.12699999809E+01 0. -1.
       -4    1    3    3    0  502  0.60115980932E+03 -0.53817304998E+03 -0.89621606748E+03  0.12059138446E+04  0.12699999809E+01 0.  1.
</event>
<event>
 5   0  0.2540684E-05  0.2642140E+04  0.7818609E-02  0.8354027E-01
        2   -1    0    0  501    0  0.00000000000E+00  0.00000000000E+00  0.17226775552E+04  0.17226775552E+04  0.25500000920E-02 0. -1.
       -2   -1    0    0    0  501  0.00000000000E+00  0.00000000000E+00 -0.10130890276E+04  0.10130890276E+04  0.25500000920E-02 0.  1.
    10030    2    1    2    0    0  0.00000000000E+00  0.00000000000E+00  0.70958852759E+03  0.27357665829E+04  0.26421398369E+04 0.  0.
        2    1    3    3  502    0  0.43450872849E+03 -0.10114278154E+04  0.11110465655E+04  0.15640359751E+04  0.25500000920E-02 0. -1.
       -2    1    3    3    0  502 -0.43450872849E+03  0.10114278154E+04 -0.40145803787E+03  0.11717306077E+04  0.25500000920E-02 0.  1.
</event>
<event>
 5   0  0.1041909E-05  0.2754737E+04  0.7818609E-02  0.8317460E-01
       -1   -1    0    0    0  501  0.00000000000E+00  0.00000000000E+00  0.12258796785E+04  0.12258796785E+04  0.50400001928E-02 0.  1.
        1   -1    0    0  501    0  0.00000000000E+00  0.00000000000E+00 -0.15475775904E+04  0.15475775904E+04  0.50400001928E-02 0. -1.
    10030    2    1    2    0    0  0.00000000000E+00  0.00000000000E+00 -0.32169791191E+03  0.27734572689E+04  0.27547369522E+04 0.  0.
        5    1    3    3  502    0 -0.11167723181E+04 -0.53284415418E+02 -0.97074220514E+03  0.14806694966E+04  0.46999998093E+01 0. -1.
       -5    1    3    3    0  502  0.11167723181E+04  0.53284415418E+02  0.64904429324E+03  0.12927877722E+04  0.46999998093E+01 0.  1.
</event>
<event>
 5   0  0.1096672E-05  0.2743012E+04  0.7818609E-02  0.8321183E-01
       -1   -1    0    0    0  501  0.00000000000E+00  0.00000000000E+00  0.15239752521E+04  0.15239752521E+04  0.50400001928E-02 0. -1.
        1   -1    0    0  501    0  0.00000000000E+00  0.00000000000E+00 -0.12342907267E+04  0.12342907267E+04  0.50400001928E-02 0.  1.
    10030    2    1    2    0    0  0.00000000000E+00  0.00000000000E+00  0.28968452546E+03  0.27582659788E+04  0.27430118639E+04 0.  0.
        1    1    3    3  502    0  0.25309229274E+03 -0.13185275829E+04 -0.13681865596E+03  0.13495517923E+04  0.50400001928E-02 0.  1.
       -1    1    3    3    0  502 -0.25309229274E+03  0.13185275829E+04  0.42650318141E+03  0.14087141865E+04  0.50400001928E-02 0. -1.
</event>
<event>
 5   0  0.2615843E-05  0.2682120E+04  0.7818609E-02  0.8340830E-01
       -2   -1    0    0    0  501  0.00000000000E+00  0.00000000000E+00  0.58416098951E+03  0.58416098952E+03  0.25500000920E-02 0. -1.
        2   -1    0    0  501    0  0.00000000000E+00  0.00000000000E+00 -0.30786740401E+04  0.30786740401E+04  0.25500000920E-02 0.  1.
    10030    2    1    2    0    0  0.00000000000E+00  0.00000000000E+00 -0.24945130506E+04  0.36628350296E+04  0.26821195154E+04 0.  0.
        3    1    3    3  502    0 -0.12983950389E+04  0.31187425720E+03 -0.10780810862E+04  0.17162033877E+04  0.10100000352E+00 0.  1.
       -3    1    3    3    0  502  0.12983950389E+04 -0.31187425720E+03 -0.14164319644E+04  0.19466316419E+04  0.10100000352E+00 0. -1.
</event>
<event>
 5   0  0.2516518E-05  0.2949771E+04  0.7818609E-02  0.8258221E-01
        2   -1    0    0  501    0  0.00000000000E+00  0.00000000000E+00  0.19168175379E+04  0.19168175379E+04  0.25500000920E-02 0. -1.
       -2   -1    0    0    0  501  0.00000000000E+00  0.00000000000E+00 -0.11348429722E+04  0.11348429722E+04  0.25500000920E-02 0.  1.
    10030    2    1    2    0    0  0.00000000000E+00  0.00000000000E+00  0.78197456564E+03  0.30516605101E+04  0.29497707788E+04 0.  0.
        4    1    3    3  502    0  0.11667509043E+04  0.28227438462E+03 -0.49552418377E+03  0.12986655961E+04  0.12699999809E+01 0.  1.
       -4    1    3    3    0  502 -0.11667509043E+04 -0.28227438462E+03  0.12774987494E+04  0.17529949140E+04  0.12699999809E+01 0. -1.
</event>
<event>
 5   0  0.2516518E-05  0.2669420E+04  0.7818609E-02  0.8344996E-01
        2   -1    0    0  501    0  0.00000000000E+00  0.00000000000E+00  0.14146325302E+04  0.14146325302E+04  0.25500000920E-02 0.  1.
       -2   -1    0    0    0  501  0.00000000000E+00  0.00000000000E+00 -0.12593027828E+04  0.12593027828E+04  0.25500000920E-02 0. -1.
    10030    2    1    2    0    0  0.00000000000E+00  0.00000000000E+00  0.15532974747E+03  0.26739353130E+04  0.26694199235E+04 0.  0.
        4    1    3    3  502    0 -0.10485907266E+04  0.65008574309E+03  0.58773647033E+03  0.13665978768E+04  0.12699999809E+01 0. -1.
       -4    1    3    3    0  502  0.10485907266E+04 -0.65008574309E+03 -0.43240672287E+03  0.13073374362E+04  0.12699999809E+01 0.  1.
</event>
<event>
 5   0  0.1005265E-05  0.2724717E+04  0.7818609E-02  0.8327029E-01
       -1   -1    0    0    0  501  0.00000000000E+00  0.00000000000E+00  0.10123116307E+04  0.10123116307E+04  0.50400001928E-02 0. -1.
        1   -1    0    0  501    0  0.00000000000E+00  0.00000000000E+00 -0.18334483180E+04  0.18334483180E+04  0.50400001928E-02 0.  1.
    10030    2    1    2    0    0  0.00000000000E+00  0.00000000000E+00 -0.82113668727E+03  0.28457599487E+04  0.27247172746E+04 0.  0.
        3    1    3    3  502    0 -0.21480787563E+03  0.63202143515E+03 -0.16509410622E+04  0.17807863205E+04  0.10100000352E+00 0.  1.
       -3    1    3    3    0  502  0.21480787563E+03 -0.63202143515E+03  0.82980437497E+03  0.10649736282E+04  0.10100000352E+00 0. -1.
</event>
<event>
 5   0  0.1005265E-05  0.1691371E+04  0.7818609E-02  0.8766301E-01
       -1   -1    0    0    0  501  0.00000000000E+00  0.00000000000E+00  0.44075181172E+03  0.44075181174E+03  0.50400001928E-02 0. -1.
        1   -1    0    0  501    0  0.00000000000E+00  0.00000000000E+00 -0.16226456242E+04  0.16226456243E+04  0.50400001928E-02 0.  1.
    10030    2    1    2    0    0  0.00000000000E+00  0.00000000000E+00 -0.11818938125E+04  0.20633974360E+04  0.16913710400E+04 0.  0.
        3    1    3    3  502    0 -0.41376498605E+03  0.67675369684E+03 -0.94868096539E+03  0.12366052782E+04  0.10100000352E+00 0. -1.
       -3    1    3    3    0  502  0.41376498605E+03 -0.67675369684E+03 -0.23321284714E+03  0.82679215777E+03  0.10100000352E+00 0.  1.
</event>
<event>
 5   0  0.1096672E-05  0.1794706E+04  0.7818609E-02  0.8709120E-01
        1   -1    0    0  501    0  0.00000000000E+00  0.00000000000E+00  0.13982253259E+04  0.13982253259E+04  0.50400001928E-02 0. -1.
       -1   -1    0    0    0  501  0.00000000000E+00  0.00000000000E+00 -0.57590313566E+03  0.57590313568E+03  0.50400001928E-02 0.  1.
    10030    2    1    2    0    0  0.00000000000E+00  0.00000000000E+00  0.82232219025E+03  0.19741284616E+04  0.17947059364E+04 0.  0.
        1    1    3    3  502    0 -0.81954798717E+02  0.39056467225E+03  0.12952446791E+04  0.13553287907E+04  0.50400001928E-02 0. -1.
       -1    1    3    3    0  502  0.81954798717E+02 -0.39056467225E+03 -0.47292248881E+03  0.61879967089E+03  0.50400001928E-02 0.  1.
</event>
<event>
 5   0  0.9971923E-06  0.2608642E+04  0.7818609E-02  0.8365272E-01
        1   -1    0    0  501    0  0.00000000000E+00  0.00000000000E+00  0.11287711878E+04  0.11287711879E+04  0.50400001928E-02 0. -1.
       -1   -1    0    0    0  501  0.00000000000E+00  0.00000000000E+00 -0.15071729828E+04  0.15071729828E+04  0.50400001928E-02 0.  1.
    10030    2    1    2    0    0  0.00000000000E+00  0.00000000000E+00 -0.37840179498E+03  0.26359441707E+04  0.26086421281E+04 0.  0.
        2    1    3    3  502    0 -0.87138113660E+03 -0.61411026381E+03 -0.94860958242E+03  0.14269886619E+04  0.25500000920E-02 0.  1.
       -2    1    3    3    0  502  0.87138113660E+03  0.61411026381E+03  0.57020778744E+03  0.12089555088E+04  0.25500000920E-02 0. -1.
</event>
<event>
 5   0  0.2615843E-05  0.2638462E+04  0.7818609E-02  0.8355253E-01
        2   -1    0    0  501    0  0.00000000000E+00  0.00000000000E+00  0.12377179942E+04  0.12377179942E+04  0.25500000920E-02 0. -1.
       -2   -1    0    0    0  501  0.00000000000E+00  0.00000000000E+00 -0.14061117925E+04  0.14061117925E+04  0.25500000920E-02 0.  1.
    10030    2    1    2    0    0  0.00000000000E+00  0.00000000000E+00 -0.16839379834E+03  0.26438297868E+04  0.26384615726E+04 0.  0.
        3    1    3    3  502    0 -0.12846840786E+04  0.16421257282E+03 -0.33568743545E+03  0.13379331132E+04  0.10100000352E+00 0.  1.
       -3    1    3    3    0  502  0.12846840786E+04 -0.16421257282E+03  0.16729363711E+03  0.13058966736E+04  0.10100000352E+00 0. -1.
</event>
<event>
 5   0  0.2615843E-05  0.2734600E+04  0.7818609E-02  0.8323865E-01
       -2   -1    0    0    0  501  0.00000000000E+00  0.00000000000E+00  0.13345950579E+04  0.13345950579E+04  0.25500000920E-02 0.  1.
        2   -1    0    0  501    0  0.00000000000E+00  0.00000000000E+00 -0.14008068990E+04  0.14008068990E+04  0.25500000920E-02 0. -1.
    10030    2    1    2    0    0  0.00000000000E+00  0.00000000000E+00 -0.66211841117E+02  0.27354019569E+04  0.27346004932E+04 0.  0.
        3    1    3    3  502    0 -0.25273926687E+03  0.11024341380E+04  0.73541072588E+03  0.13490986293E+04  0.10100000352E+00 0.  1.
       -3    1    3    3    0  502  0.25273926687E+03 -0.11024341380E+04 -0.80162256700E+03  0.13863033275E+04  0.10100000352E+00 0. -1.
</event>
<event>
 5   0  0.1005265E-05  0.2751731E+04  0.7818609E-02  0.8318413E-01
        1   -1    0    0  501    0  0.00000000000E+00  0.00000000000E+00  0.21487479688E+04  0.21487479688E+04  0.50400001928E-02 0.  1.
       -1   -1    0    0    0  501  0.00000000000E+00  0.00000000000E+00 -0.88098082733E+03  0.88098082735E+03  0.50400001928E-02 0. -1.
    10030    2    1    2    0    0  0.00000000000E+00  0.00000000000E+00  0.12677671414E+04  0.30297287961E+04  0.27517309195E+04 0.  0.
        3    1    3    3  502    0  0.99613681110E+02 -0.13104501296E+04  0.10822100700E+04  0.17024632370E+04  0.10100000352E+00 0. -1.
       -3    1    3    3    0  502 -0.99613681110E+02  0.13104501296E+04  0.18555707144E+03  0.13272655591E+04  0.10100000352E+00 0.  1.
</event>
<event>
 5   0  0.2540684E-05  0.2542174E+04  0.7818609E-02  0.8388113E-01
       -2   -1    0    0    0  501  0.00000000000E+00  0.00000000000E+00  0.76322855261E+03  0.76322855261E+03  0.25500000920E-02 0.  1.
        2   -1    0    0  501    0  0.00000000000E+00  0.00000000000E+00 -0.21168793210E+04  0.21168793210E+04  0.25500000920E-02 0. -1.
    10030    2    1    2    0    0  0.00000000000E+00  0.00000000000E+00 -0.13536507684E+04  0.28801078736E+04  0.25421744552E+04 0.  0.
        2    1    3    3  502    0 -0.73916279187E+03 -0.84838617496E+03 -0.70131267290E+01  0.11252421600E+04  0.25500000920E-02 0.  1.
       -2    1    3    3    0  502  0.73916279187E+03  0.84838617496E+03 -0.13466376416E+04  0.17548657136E+04  0.25500000920E-02 0. -1.
</event>
<event>
 5   0  0.2540232E-05  0.2111516E+04  0.7818609E-02  0.8556187E-01
       -2   -1    0    0    0  501  0.00000000000E+00  0.00000000000E+00  0.61328573205E+03  0.61328573206E+03  0.25500000920E-02 0.  1.
        2   -1    0    0  501    0  0.00000000000E+00  0.00000000000E+00 -0.18174645558E+04  0.18174645558E+04  0.25500000920E-02 0. -1.
    10030    2    1    2    0    0  0.00000000000E+00  0.00000000000E+00 -0.12041788237E+04  0.24307502878E+04  0.21115161193E+04 0.  0.
        1    1    3    3  502    0 -0.27140149873E+03  0.89308386670E+03 -0.11699964456E+04  0.14967128145E+04  0.50400001928E-02 0. -1.
       -1    1    3    3    0  502  0.27140149873E+03 -0.89308386670E+03 -0.34182378106E+02  0.93403747327E+03  0.50400001928E-02 0.  1.
</event>
<event>
 5   0  0.2516518E-05  0.2683428E+04  0.7818609E-02  0.8340402E-01
       -2   -1    0    0    0  501  0.00000000000E+00  0.00000000000E+00  0.64446913005E+03  0.64446913006E+03  0.25500000920E-02 0.  1.
        2   -1    0    0  501    0  0.00000000000E+00  0.00000000000E+00 -0.27933006625E+04  0.27933006625E+04  0.25500000920E-02 0. -1.
    10030    2    1    2    0    0  0.00000000000E+00  0.00000000000E+00 -0.21488315324E+04  0.34377697925E+04  0.26834276945E+04 0.  0.
        4    1    3    3  502    0 -0.27623059201E+03 -0.65793438619E+03 -0.25300500475E+04  0.26287517670E+04  0.12699999809E+01 0. -1.
       -4    1    3    3    0  502  0.27623059201E+03  0.65793438619E+03  0.38121851512E+03  0.80901802555E+03  0.12699999809E+01 0.  1.
</event>
<event>
 5   0  0.1041909E-05  0.2678340E+04  0.7818609E-02  0.8342067E-01
        1   -1    0    0  501    0  0.00000000000E+00  0.00000000000E+00  0.22938043552E+04  0.22938043552E+04  0.50400001928E-02 0.  1.
       -1   -1    0    0    0  501  0.00000000000E+00  0.00000000000E+00 -0.78183488782E+03  0.78183488784E+03  0.50400001928E-02 0. -1.
    10030    2    1    2    0    0  0.00000000000E+00  0.00000000000E+00  0.15119694674E+04  0.30756392431E+04  0.26783399865E+04 0.  0.
        5    1    3    3  502    0  0.82101576530E+03  0.79883278869E+03 -0.40562436895E+02  0.11462408614E+04  0.46999998093E+01 0. -1.
       -5    1    3    3    0  502 -0.82101576530E+03 -0.79883278869E+03  0.15525319043E+04  0.19293983816E+04  0.46999998093E+01 0.  1.
</event>
<event>
 5   0  0.2540232E-05  0.2773763E+04  0.7818609E-02  0.8311460E-01
        2   -1    0    0  501    0  0.00000000000E+00  0.00000000000E+00  0.93511356110E+03  0.93511356111E+03  0.25500000920E-02 0.  1.
       -2   -1    0    0    0  501  0.00000000000E+00  0.00000000000E+00 -0.20569063015E+04  0.20569063015E+04  0.25500000920E-02 0. -1.
    10030    2    1    2    0    0  0.00000000000E+00  0.00000000000E+00 -0.11217927403E+04  0.29920198626E+04  0.27737634913E+04 0.  0.
        1    1    3    3  502    0 -0.42195662992E+03  0.46221359362E+03  0.77412831843E+03  0.99547147477E+03  0.50400001928E-02 0.  1.
       -1    1    3    3    0  502  0.42195662992E+03 -0.46221359362E+03 -0.18959210588E+04  0.19965483878E+04  0.50400001928E-02 0. -1.
</event>
<event>
 5   0  0.2615843E-05  0.2710875E+04  0.7818609E-02  0.8331485E-01
       -2   -1    0    0    0  501  0.00000000000E+00  0.00000000000E+00  0.18343728058E+04  0.18343728058E+04  0.25500000920E-02 0.  1.
        2   -1    0    0  501    0  0.00000000000E+00  0.00000000000E+00 -0.10015472357E+04  0.10015472357E+04  0.25500000920E-02 0. -1.
    10030    2    1    2    0    0  0.00000000000E+00  0.00000000000E+00  0.83282557004E+03  0.28359200415E+04  0.27108751450E+04 0.  0.
        3    1    3    3  502    0 -0.85307811573E+03  0.93194733881E+03  0.92991405579E+03  0.15687601076E+04  0.10100000352E+00 0.  1.
       -3    1    3    3    0  502  0.85307811573E+03 -0.93194733881E+03 -0.97088485755E+02  0.12671599339E+04  0.10100000352E+00 0. -1.
</event>
<event>
 5   0  0.1036691E-05  0.2691525E+04  0.7818609E-02  0.8337760E-01
        1   -1    0    0  501    0  0.00000000000E+00  0.00000000000E+00  0.19435471458E+04  0.19435471458E+04  0.50400001928E-02 0.  1.
       -1   -1    0    0    0  501  0.00000000000E+00  0.00000000000E+00 -0.93184080422E+03  0.93184080424E+03  0.50400001928E-02 0. -1.
    10030    2    1    2    0    0  0.00000000000E+00  0.00000000000E+00  0.10117063416E+04  0.28753879500E+04  0.26915248729E+04 0.  0.
        4    1    3    3  502    0 -0.11682468127E+04 -0.65033361851E+03  0.66906553325E+03  0.14951203067E+04  0.12699999809E+01 0. -1.
       -4    1    3    3    0  502  0.11682468127E+04  0.65033361851E+03  0.34264080830E+03  0.13802676433E+04  0.12699999809E+01 0.  1.
</event>
<event>
 5   0  0.2641216E-05  0.1820721E+04  0.7818609E-02  0.8695357E-01
       -2   -1    0    0    0  501  0.00000000000E+00  0.00000000000E+00  0.62382961622E+03  0.62382961622E+03  0.25500000920E-02 0. -1.
        2   -1    0    0  501    0  0.00000000000E+00  0.00000000000E+00 -0.13284981765E+04  0.13284981765E+04  0.25500000920E-02 0.  1.
    10030    2    1    2    0    0  0.00000000000E+00  0.00000000000E+00 -0.70466856030E+03  0.19523277927E+04  0.18207212940E+04 0.  0.
        5    1    3    3  502    0  0.33876054815E+03  0.71983117855E+03 -0.82683452287E+03  0.11474288879E+04  0.46999998093E+01 0.  1.
       -5    1    3    3    0  502 -0.33876054815E+03 -0.71983117855E+03  0.12216596257E+03  0.80489890483E+03  0.46999998093E+01 0. -1.
</event>
<event>
 5   0  0.2540684E-05  0.2171128E+04  0.7818609E-02  0.8530542E-01
        2   -1    0    0  501    0  0.00000000000E+00  0.00000000000E+00  0.11402409651E+04  0.11402409651E+04  0.25500000920E-02 0.  1.
       -2   -1    0    0    0  501  0.00000000000E+00  0.00000000000E+00 -0.10335086907E+04  0.10335086907E+04  0.25500000920E-02 0. -1.
    10030    2    1    2    0    0  0.00000000000E+00  0.00000000000E+00  0.10673227439E+03  0.21737496558E+04  0.21711277686E+04 0.  0.
        2    1    3    3  502    0 -0.31950957198E+03 -0.49533274010E+03 -0.85933115379E+03  0.10420609012E+04  0.25500000920E-02 0. -1.
       -2    1    3    3    0  502  0.31950957198E+03  0.49533274010E+03  0.96606342817E+03  0.11316887546E+04  0.25500000920E-02 0.  1.
</event>
<event>
 5   0  0.2540684E-05  0.2769717E+04  0.7818609E-02  0.8312732E-01
       -2   -1    0    0    0  501  0.00000000000E+00  0.00000000000E+00  0.15422008269E+04  0.15422008269E+04  0.25500000920E-02 0. -1.
        2   -1    0    0  501    0  0.00000000000E+00  0.00000000000E+00 -0.12435689687E+04  0.12435689687E+04  0.25500000920E-02 0.  1.
    10030    2    1    2    0    0  0.00000000000E+00  0.00000000000E+00  0.29863185816E+03  0.27857697956E+04  0.27697170194E+04 0.  0.
        2    1    3    3  502    0 -0.12315365070E+04  0.77844841616E+02  0.78152169347E+03  0.14606567512E+04  0.25500000920E-02 0. -1.
       -2    1    3    3    0  502  0.12315365070E+04 -0.77844841616E+02 -0.48288983531E+03  0.13251130444E+04  0.25500000920E-02 0.  1.
</event>
<event>
 5   0  0.1005265E-05  0.2626866E+04  0.7818609E-02  0.8359132E-01
       -1   -1    0    0    0  501  0.00000000000E+00  0.00000000000E+00  0.15210020436E+04  0.15210020437E+04  0.50400001928E-02 0.  1.
        1   -1    0    0  501    0  0.00000000000E+00  0.00000000000E+00 -0.11341908421E+04  0.11341908422E+04  0.50400001928E-02 0. -1.
    10030    2    1    2    0    0  0.00000000000E+00  0.00000000000E+00  0.38681120150E+03  0.26551928858E+04  0.26268662614E+04 0.  0.
        3    1    3    3  502    0 -0.86175043245E+03  0.85973552172E+03 -0.30521664450E+03  0.12549566468E+04  0.10100000352E+00 0. -1.
       -3    1    3    3    0  502  0.86175043245E+03 -0.85973552172E+03  0.69202784600E+03  0.14002362390E+04  0.10100000352E+00 0.  1.
</event>
<event>
 5   0  0.9971923E-06  0.2660302E+04  0.7818609E-02  0.8348002E-01
        1   -1    0    0  501    0  0.00000000000E+00  0.00000000000E+00  0.14072334796E+04  0.14072334796E+04  0.50400001928E-02 0.  1.
       -1   -1    0    0    0  501  0.00000000000E+00  0.00000000000E+00 -0.12572903865E+04  0.12572903865E+04  0.50400001928E-02 0. -1.
    10030    2    1    2    0    0  0.00000000000E+00  0.00000000000E+00  0.14994309313E+03  0.26645238662E+04  0.26603015811E+04 0.  0.
        2    1    3    3  502    0  0.59503758156E+03 -0.10367637293E+04 -0.50935165716E+03  0.12993797999E+04  0.25500000920E-02 0. -1.
       -2    1    3    3    0  502 -0.59503758156E+03  0.10367637293E+04  0.65929475029E+03  0.13651440662E+04  0.25500000920E-02 0.  1.
</event>
<event>
 5   0  0.2540232E-05  0.2690683E+04  0.7818609E-02  0.8338034E-01
       -2   -1    0    0    0  501  0.00000000000E+00  0.00000000000E+00  0.87082692036E+03  0.87082692036E+03  0.25500000920E-02 0. -1.
        2   -1    0    0  501    0  0.00000000000E+00  0.00000000000E+00 -0.20784199269E+04  0.20784199269E+04  0.25500000920E-02 0.  1.
    10030    2    1    2    0    0  0.00000000000E+00  0.00000000000E+00 -0.12075930066E+04  0.29492468473E+04  0.26906832026E+04 0.  0.
        1    1    3    3  502    0  0.73943389845E+03 -0.55118214501E+03 -0.16773997993E+04  0.19142189880E+04  0.50400001928E-02 0.  1.
       -1    1    3    3    0  502 -0.73943389845E+03  0.55118214501E+03  0.46980679270E+03  0.10350278594E+04  0.50400001928E-02 0. -1.
</event>
<event>
 5   0  0.9971923E-06  0.2370601E+04  0.7818609E-02  0.8450593E-01
        1   -1    0    0  501    0  0.00000000000E+00  0.00000000000E+00  0.11409755263E+04  0.11409755264E+04  0.50400001928E-02 0. -1.
       -1   -1    0    0    0  501  0.00000000000E+00  0.00000000000E+00 -0.12313469723E+04  0.12313469723E+04  0.50400001928E-02 0.  1.
    10030    2    1    2    0    0  0.00000000000E+00  0.00000000000E+00 -0.90371445956E+02  0.23723224987E+04  0.23706005651E+04 0.  0.
        2    1    3    3  502    0  0.52054959882E+03 -0.13129125089E+03 -0.11027065912E+04  0.12264465352E+04  0.25500000920E-02 0.  1.
       -2    1    3    3    0  502 -0.52054959882E+03  0.13129125089E+03  0.10123351452E+04  0.11458759635E+04  0.25500000920E-02 0. -1.
</event>
<event>
 5   0  0.1041909E-05  0.2729388E+04  0.7818609E-02  0.8325532E-01
       -1   -1    0    0    0  501  0.00000000000E+00  0.00000000000E+00  0.87434661284E+03  0.87434661286E+03  0.50400001928E-02 0. -1.
        1   -1    0    0  501    0  0.00000000000E+00  0.00000000000E+00 -0.21300360300E+04  0.21300360300E+04  0.50400001928E-02 0.  1.
    10030    2    1    2    0    0  0.00000000000E+00  0.00000000000E+00 -0.12556894172E+04  0.30043826429E+04  0.27293880546E+04 0.  0.
        5    1    3    3  502    0  0.46507715461E+03  0.21553241337E+03 -0.20200328331E+04  0.20840599122E+04  0.46999998093E+01 0.  1.
       -5    1    3    3    0  502 -0.46507715461E+03 -0.21553241337E+03  0.76434341597E+03  0.92032273061E+03  0.46999998093E+01 0. -1.
</event>
<event>
 5   0  0.2641216E-05  0.2760395E+04  0.7818609E-02  0.8315671E-01
       -2   -1    0    0    0  501  0.00000000000E+00  0.00000000000E+00  0.10075595647E+04  0.10075595647E+04  0.25500000920E-02 0. -1.
        2   -1    0    0  501    0  0.00000000000E+00  0.00000000000E+00 -0.18906523216E+04  0.18906523216E+04  0.25500000920E-02 0.  1.
    10030    2    1    2    0    0  0.00000000000E+00  0.00000000000E+00 -0.88309275694E+03  0.28982118863E+04  0.27603947762E+04 0.  0.
        5    1    3    3  502    0  0.49695924539E+03  0.61687541312E+03  0.74511174761E+03  0.10875281023E+04  0.46999998093E+01 0. -1.
       -5    1    3    3    0  502 -0.49695924539E+03 -0.61687541312E+03 -0.16282045046E+04  0.18106837840E+04  0.46999998093E+01 0.  1.
</event>
<event>
 5   0  0.9971923E-06  0.2661563E+04  0.7818609E-02  0.8347585E-01
       -1   -1    0    0    0  501  0.00000000000E+00  0.00000000000E+00  0.10079323957E+04  0.10079323957E+04  0.50400001928E-02 0.  1.
        1   -1    0    0  501    0  0.00000000000E+00  0.00000000000E+00 -0.17570412718E+04  0.17570412718E+04  0.50400001928E-02 0. -1.
    10030    2    1    2    0    0  0.00000000000E+00  0.00000000000E+00 -0.74910887603E+03  0.27649736675E+04  0.26615625624E+04 0.  0.
        2    1    3    3  502    0  0.84241011153E+03  0.99992583160E+03 -0.11698505265E+03  0.13127040669E+04  0.25500000920E-02 0.  1.
       -2    1    3    3    0  502 -0.84241011153E+03 -0.99992583160E+03 -0.63212382338E+03  0.14522696006E+04  0.25500000920E-02 0. -1.
</event>
<event>
 5   0  0.1005265E-05  0.2663074E+04  0.7818609E-02  0.8347086E-01
        1   -1    0    0  501    0  0.00000000000E+00  0.00000000000E+00  0.14600430783E+04  0.14600430783E+04  0.50400001928E-02 0. -1.
       -1   -1    0    0    0  501  0.00000000000E+00  0.00000000000E+00 -0.12143417013E+04  0.12143417013E+04  0.50400001928E-02 0.  1.
    10030    2    1    2    0    0  0.00000000000E+00  0.00000000000E+00  0.24570137701E+03  0.26743847796E+04  0.26630743104E+04 0.  0.
        3    1    3    3  502    0  0.33377972174E+03  0.82210457548E+02  0.14147137363E+04  0.14558785759E+04  0.10100000352E+00 0. -1.
       -3    1    3    3    0  502 -0.33377972174E+03 -0.82210457548E+02 -0.11690123593E+04  0.12185062037E+04  0.10100000352E+00 0.  1.
</event>
<event>
 5   0  0.1041909E-05  0.2524387E+04  0.7818609E-02  0.8394349E-01
       -1   -1    0    0    0  501  0.00000000000E+00  0.00000000000E+00  0.82872016076E+03  0.82872016077E+03  0.50400001928E-02 0.  1.
        1   -1    0    0  501    0  0.00000000000E+00  0.00000000000E+00 -0.19224006677E+04  0.19224006677E+04  0.50400001928E-02 0. -1.
    10030    2    1    2    0    0  0.00000000000E+00  0.00000000000E+00 -0.10936805069E+04  0.27511208285E+04  0.25243868090E+04 0.  0.
        5    1    3    3  502    0 -0.44714359904E+03  0.78621573316E+03  0.41259379654E+03  0.99414702544E+03  0.46999998093E+01 0.  1.
       -5    1    3    3    0  502  0.44714359904E+03 -0.78621573316E+03 -0.15062743035E+04  0.17569738030E+04  0.46999998093E+01 0. -1.
</event>
<event>
 5   0  0.2540684E-05  0.2717452E+04  0.7818609E-02  0.8329364E-01
        2   -1    0    0  501    0  0.00000000000E+00  0.00000000000E+00  0.19261263721E+04  0.19261263721E+04  0.25500000920E-02 0. -1.
       -2   -1    0    0    0  501  0.00000000000E+00  0.00000000000E+00 -0.95847117589E+03  0.95847117589E+03  0.25500000920E-02 0.  1.
    10030    2    1    2    0    0  0.00000000000E+00  0.00000000000E+00  0.96765519621E+03  0.28845975480E+04  0.27174521956E+04 0.  0.
        2    1    3    3  502    0  0.12152649732E+04  0.48948795911E+03  0.86607251481E+03  0.15705250772E+04  0.25500000920E-02 0. -1.
       -2    1    3    3    0  502 -0.12152649732E+04 -0.48948795911E+03  0.10158268140E+03  0.13140724708E+04  0.25500000920E-02 0.  1.
</event>
<event>
 5   0  0.2540232E-05  0.2667437E+04  0.7818609E-02  0.8345649E-01
       -2   -1    0    0    0  501  0.00000000000E+00  0.00000000000E+00  0.14369538612E+04  0.14369538612E+04  0.25500000920E-02 0.  1.
        2   -1    0    0  501    0  0.00000000000E+00  0.00000000000E+00 -0.12378998041E+04  0.12378998041E+04  0.25500000920E-02 0. -1.
    10030    2    1    2    0    0  0.00000000000E+00  0.00000000000E+00  0.19905405714E+03  0.26748536653E+04  0.26674368996E+04 0.  0.
        1    1    3    3  502    0 -0.23732394883E+03 -0.67568046331E+03 -0.10287405757E+04  0.12534647651E+04  0.50400001928E-02 0. -1.
       -1    1    3    3    0  502  0.23732394883E+03  0.67568046331E+03  0.12277946329E+04  0.14213889002E+04  0.50400001928E-02 0.  1.
</event>
<event>
 5   0  0.1005265E-05  0.2686468E+04  0.7818609E-02  0.8339409E-01
        1   -1    0    0  501    0  0.00000000000E+00  0.00000000000E+00  0.16880384816E+04  0.16880384816E+04  0.50400001928E-02 0. -1.
       -1   -1    0    0    0  501  0.00000000000E+00  0.00000000000E+00 -0.10688601128E+04  0.10688601129E+04  0.50400001928E-02 0.  1.
    10030    2    1    2    0    0  0.00000000000E+00  0.00000000000E+00  0.61917836878E+03  0.27568985945E+04  0.26864675706E+04 0.  0.
        3    1    3    3  502    0 -0.40226840006E+03 -0.12388336800E+04 -0.27266810703E+02  0.13027940135E+04  0.10100000352E+00 0.  1.
       -3    1    3    3    0  502  0.40226840006E+03  0.12388336800E+04  0.64644517949E+03  0.14541045810E+04  0.10100000352E+00 0. -1.
</event>
<event>
 5   0  0.2540232E-05  0.2730722E+04  0.7818609E-02  0.8325105E-01
       -2   -1    0    0    0  501  0.00000000000E+00  0.00000000000E+00  0.80755114792E+03  0.80755114792E+03  0.25500000920E-02 0.  1.
        2   -1    0    0  501    0  0.00000000000E+00  0.00000000000E+00 -0.23084739782E+04  0.23084739782E+04  0.25500000920E-02 0. -1.
    10030    2    1    2    0    0  0.00000000000E+00  0.00000000000E+00 -0.15009228303E+04  0.31160251262E+04  0.27307221104E+04 0.  0.
        1    1    3    3  502    0 -0.47310427397E+03 -0.74539109641E+03  0.43802256511E+03  0.98554518325E+03  0.50400001928E-02 0.  1.
       -1    1    3    3    0  502  0.47310427397E+03  0.74539109641E+03 -0.19389453954E+04  0.21304799429E+04  0.50400001928E-02 0. -1.
</event>
<event>
 5   0  0.2540232E-05  0.2357401E+04  0.7818609E-02  0.8455626E-01
        2   -1    0    0  501    0  0.00000000000E+00  0.00000000000E+00  0.88928787171E+03  0.88928787172E+03  0.25500000920E-02 0.  1.
       -2   -1    0    0    0  501  0.00000000000E+00  0.00000000000E+00 -0.15623000699E+04  0.15623000699E+04  0.25500000920E-02 0. -1.
    10030    2    1    2    0    0  0.00000000000E+00  0.00000000000E+00 -0.67301219823E+03  0.24515879417E+04  0.23574006907E+04 0.  0.
        1    1    3    3  502    0 -0.10197432978E+04 -0.39169781105E+03 -0.79694963076E+03  0.13521953567E+04  0.50400001928E-02 0.  1.
       -1    1    3    3    0  502  0.10197432978E+04  0.39169781105E+03  0.12393743254E+03  0.10993925850E+04  0.50400001928E-02 0. -1.
</event>
<event>
 5   0  0.2641216E-05  0.2885185E+04  0.7818609E-02  0.8277299E-01
        2   -1    0    0  501    0  0.00000000000E+00  0.00000000000E+00  0.12578112060E+04  0.12578112060E+04  0.25500000920E-02 0. -1.
       -2   -1    0    0    0  501  0.00000000000E+00  0.00000000000E+00 -0.16545191234E+04  0.16545191234E+04  0.25500000920E-02 0.  1.
    10030    2    1    2    0    0  0.00000000000E+00  0.00000000000E+00 -0.39670791741E+03  0.29123303294E+04  0.28851847040E+04 0.  0.
        5    1    3    3  502    0 -0.11209362554E+03  0.55990145822E+03  0.11388728508E+04  0.12740125918E+04  0.46999998093E+01 0. -1.
       -5    1    3    3    0  502  0.11209362554E+03 -0.55990145822E+03 -0.15355807682E+04  0.16383177376E+04  0.46999998093E+01 0.  1.
</event>
<event>
 5   0  0.2540232E-05  0.2558245E+04  0.7818609E-02  0.8382524E-01
       -2   -1    0    0    0  501  0.00000000000E+00  0.00000000000E+00  0.62670780451E+03  0.62670780451E+03  0.25500000920E-02 0. -1.
        2   -1    0    0  501    0  0.00000000000E+00  0.00000000000E+00 -0.26107134444E+04  0.26107134444E+04  0.25500000920E-02 0.  1.
    10030    2    1    2    0    0  0.00000000000E+00  0.00000000000E+00 -0.19840056399E+04  0.32374212489E+04  0.25582450946E+04 0.  0.
        1    1    3    3  502    0 -0.44606286783E+03 -0.88509403305E+02  0.52095258480E+03  0.69151832381E+03  0.50400001928E-02 0. -1.
       -1    1    3    3    0  502  0.44606286783E+03  0.88509403305E+02 -0.25049582247E+04  0.25459029251E+04  0.50400001928E-02 0.  1.
</event>
<event>
 5   0  0.1096672E-05  0.2676787E+04  0.7818609E-02  0.8342576E-01
       -1   -1    0    0    0  501  0.00000000000E+00  0.00000000000E+00  0.10292698563E+04  0.10292698563E+04  0.50400001928E-02 0. -1.
        1   -1    0    0  501    0  0.00000000000E+00  0.00000000000E+00 -0.17403568782E+04  0.17403568782E+04  0.50400001928E-02 0.  1.
    10030    2    1    2    0    0  0.00000000000E+00  0.00000000000E+00 -0.71108702188E+03  0.27696267345E+04  0.26767867856E+04 0.  0.
        1    1    3    3  502    0 -0.64718336105E+03  0.31241083069E+03  0.81270978421E+03  0.10848705099E+04  0.50400001928E-02 0. -1.
       -1    1    3    3    0  502  0.64718336105E+03 -0.31241083069E+03 -0.15237968061E+04  0.16847562246E+04  0.50400001928E-02 0.  1.
</event>
<event>
 5   0  0.1096672E-05  0.2044506E+04  0.7818609E-02  0.8586091E-01
       -1   -1    0    0    0  501  0.00000000000E+00  0.00000000000E+00  0.89295249874E+03  0.89295249875E+03  0.50400001928E-02 0. -1.
        1   -1    0    0  501    0  0.00000000000E+00  0.00000000000E+00 -0.11702767160E+04  0.11702767160E+04  0.50400001928E-02 0.  1.
    10030    2    1    2    0    0  0.00000000000E+00  0.00000000000E+00 -0.27732421729E+03  0.20632292148E+04  0.20445063148E+04 0.  0.
        1    1    3    3  502    0  0.75252677694E+03 -0.84136305354E+02  0.55437727459E+03  0.93846131007E+03  0.50400001928E-02 0. -1.
       -1    1    3    3    0  502 -0.75252677694E+03  0.84136305354E+02 -0.83170149188E+03  0.11247679047E+04  0.50400001928E-02 0.  1.
</event>
<event>
 5   0  0.1096672E-05  0.2699832E+04  0.7818609E-02  0.8335059E-01
        1   -1    0    0  501    0  0.00000000000E+00  0.00000000000E+00  0.11013888093E+04  0.11013888093E+04  0.50400001928E-02 0. -1.
       -1   -1    0    0    0  501  0.00000000000E+00  0.00000000000E+00 -0.16545234926E+04  0.16545234926E+04  0.50400001928E-02 0.  1.
    10030    2    1    2    0    0  0.00000000000E+00  0.00000000000E+00 -0.55313468332E+03  0.27559123019E+04  0.26998323351E+04 0.  0.
        1    1    3    3  502    0 -0.10848343490E+03 -0.81093924548E+02  0.10944353030E+04  0.11027844362E+04  0.50400001928E-02 0. -1.
       -1    1    3    3    0  502  0.10848343490E+03  0.81093924548E+02 -0.16475699864E+04  0.16531278657E+04  0.50400001928E-02 0.  1.
</event>
<event>
 5   0  0.2641216E-05  0.2714981E+04  0.7818609E-02  0.8330161E-01
        2   -1    0    0  501    0  0.00000000000E+00  0.00000000000E+00  0.18057855274E+04  0.18057855274E+04  0.25500000920E-02 0.  1.
       -2   -1    0    0    0  501  0.00000000000E+00  0.00000000000E+00 -0.10204866334E+04  0.10204866334E+04  0.25500000920E-02 0. -1.
    10030    2    1    2    0    0  0.00000000000E+00  0.00000000000E+00  0.78529889404E+03  0.28262721608E+04  0.27149806581E+04 0.  0.
        5    1    3    3  502    0  0.13511703971E+04  0.71230437716E+02  0.50679210832E+03  0.14448513932E+04  0.46999998093E+01 0. -1.
       -5    1    3    3    0  502 -0.13511703971E+04 -0.71230437716E+02  0.27850678573E+03  0.13814207676E+04  0.46999998093E+01 0.  1.
</event>
<event>
 5   0  0.2540232E-05  0.2698328E+04  0.7818609E-02  0.8335548E-01
       -2   -1    0    0    0  501  0.00000000000E+00  0.00000000000E+00  0.10787940522E+04  0.10787940522E+04  0.25500000920E-02 0. -1.
        2   -1    0    0  501    0  0.00000000000E+00  0.00000000000E+00 -0.16872948842E+04  0.16872948842E+04  0.25500000920E-02 0.  1.
    10030    2    1    2    0    0  0.00000000000E+00  0.00000000000E+00 -0.60850083199E+03  0.27660889363E+04  0.26983281381E+04 0.  0.
        1    1    3    3  502    0 -0.94285574411E+02  0.59162154524E+03  0.93496468150E+03  0.11104344996E+04  0.50400001928E-02 0. -1.
       -1    1    3    3    0  502  0.94285574411E+02 -0.59162154524E+03 -0.15434655135E+04  0.16556544367E+04  0.50400001928E-02 0.  1.
</event>
<event>
 5   0  0.1041909E-05  0.2644573E+04  0.7818609E-02  0.8353217E-01
       -1   -1    0    0    0  501  0.00000000000E+00  0.00000000000E+00  0.98336395228E+03  0.98336395229E+03  0.50400001928E-02 0.  1.
        1   -1    0    0  501    0  0.00000000000E+00  0.00000000000E+00 -0.17780204749E+04  0.17780204749E+04  0.50400001928E-02 0. -1.
    10030    2    1    2    0    0  0.00000000000E+00  0.00000000000E+00 -0.79465652257E+03  0.27613844272E+04  0.26445727378E+04 0.  0.
        5    1    3    3  502    0  0.11589388485E+03  0.43226580037E+03  0.90187060884E+03  0.10068156732E+04  0.46999998093E+01 0.  1.
       -5    1    3    3    0  502 -0.11589388485E+03 -0.43226580037E+03 -0.16965271314E+04  0.17545687540E+04  0.46999998093E+01 0. -1.
</event>
<event>
 5   0  0.1005265E-05  0.2719116E+04  0.7818609E-02  0.8328829E-01
       -1   -1    0    0    0  501  0.00000000000E+00  0.00000000000E+00  0.21107946603E+04  0.21107946603E+04  0.50400001928E-02 0.  1.
        1   -1    0    0  501    0  0.00000000000E+00  0.00000000000E+00 -0.87568790629E+03  0.87568790630E+03  0.50400001928E-02 0. -1.
    10030    2    1    2    0    0  0.00000000000E+00  0.00000000000E+00  0.12351067540E+04  0.29864825666E+04  0.27191155597E+04 0.  0.
        3    1    3    3  502    0  0.31880754981E+03 -0.11572719939E+04 -0.83556040374E+02  0.12032864761E+04  0.10100000352E+00 0. -1.
       -3    1    3    3    0  502 -0.31880754981E+03  0.11572719939E+04  0.13186627944E+04  0.17831960904E+04  0.10100000352E+00 0.  1.
</event>
<event>
 5   0  0.2540232E-05  0.2653256E+04  0.7818609E-02  0.8350333E-01
        2   -1    0    0  501    0  0.00000000000E+00  0.00000000000E+00  0.12490282177E+04  0.12490282177E+04  0.25500000920E-02 0. -1.
       -2   -1    0    0    0  501  0.00000000000E+00  0.00000000000E+00 -0.14090488652E+04  0.14090488652E+04  0.25500000920E-02 0.  1.
    10030    2    1    2    0    0  0.00000000000E+00  0.00000000000E+00 -0.16002064753E+03  0.26580770829E+04  0.26532559566E+04 0.  0.
        1    1    3    3  502    0  0.63119686195E+03  0.86280549491E+03  0.70697356546E+03  0.12816608065E+04  0.50400001928E-02 0. -1.
       -1    1    3    3    0  502 -0.63119686195E+03 -0.86280549491E+03 -0.86699421300E+03  0.13764162764E+04  0.50400001928E-02 0.  1.
</event>
<event>
 5   0  0.1096672E-05  0.2649946E+04  0.7818609E-02  0.8351431E-01
        1   -1    0    0  501    0  0.00000000000E+00  0.00000000000E+00  0.16435857409E+04  0.16435857409E+04  0.50400001928E-02 0.  1.
       -1   -1    0    0    0  501  0.00000000000E+00  0.00000000000E+00 -0.10681238575E+04  0.10681238575E+04  0.50400001928E-02 0. -1.
    10030    2    1    2    0    0  0.00000000000E+00  0.00000000000E+00  0.57546188339E+03  0.27117095984E+04  0.26499457668E+04 0.  0.
        1    1    3    3  502    0  0.96522572988E+03  0.14479688592E+03 -0.62921563325E+03  0.11612661887E+04  0.50400001928E-02 0. -1.
       -1    1    3    3    0  502 -0.96522572988E+03 -0.14479688592E+03  0.12046775166E+04  0.15504434098E+04  0.50400001928E-02 0.  1.
</event>
<event>
 5   0  0.9971923E-06  0.2636766E+04  0.7818609E-02  0.8355819E-01
       -1   -1    0    0    0  501  0.00000000000E+00  0.00000000000E+00  0.77163922180E+03  0.77163922182E+03  0.50400001928E-02 0.  1.
        1   -1    0    0  501    0  0.00000000000E+00  0.00000000000E+00 -0.22525207625E+04  0.22525207625E+04  0.50400001928E-02 0. -1.
    10030    2    1    2    0    0  0.00000000000E+00  0.00000000000E+00 -0.14808815407E+04  0.30241599843E+04  0.26367657221E+04 0.  0.
        2    1    3    3  502    0 -0.10449352150E+04  0.10272827193E+03  0.17400116877E+03  0.10642927737E+04  0.25500000920E-02 0.  1.
       -2    1    3    3    0  502  0.10449352150E+04 -0.10272827193E+03 -0.16548827095E+04  0.19598672107E+04  0.25500000920E-02 0. -1.
</event>
<event>
 5   0  0.1036691E-05  0.2675029E+04  0.7818609E-02  0.8343153E-01
       -1   -1    0    0    0  501  0.00000000000E+00  0.00000000000E+00  0.10659430480E+04  0.10659430480E+04  0.50400001928E-02 0. -1.
        1   -1    0    0  501    0  0.00000000000E+00  0.00000000000E+00 -0.16782744231E+04  0.16782744231E+04  0.50400001928E-02 0.  1.
    10030    2    1    2    0    0  0.00000000000E+00  0.00000000000E+00 -0.61233137508E+03  0.27442174712E+04  0.26750289374E+04 0.  0.
        4    1    3    3  502    0  0.26461711698E+03  0.57892051213E+03 -0.15129296585E+04  0.16413801944E+04  0.12699999809E+01 0.  1.
       -4    1    3    3    0  502 -0.26461711698E+03 -0.57892051213E+03  0.90059828346E+03  0.11028372768E+04  0.12699999809E+01 0. -1.
</event>
<event>
 5   0  0.1036691E-05  0.2730064E+04  0.7818609E-02  0.8325316E-01
        1   -1    0    0  501    0  0.00000000000E+00  0.00000000000E+00  0.14104519699E+04  0.14104519699E+04  0.50400001928E-02 0. -1.
       -1   -1    0    0    0  501  0.00000000000E+00  0.00000000000E+00 -0.13210744443E+04  0.13210744443E+04  0.50400001928E-02 0.  1.
    10030    2    1    2    0    0  0.00000000000E+00  0.00000000000E+00  0.89377525666E+02  0.27315264142E+04  0.27300637739E+04 0.  0.
        4    1    3    3  502    0  0.41823289513E+03  0.74636620675E+03 -0.10195206721E+04  0.13309415024E+04  0.12699999809E+01 0.  1.
       -4    1    3    3    0  502 -0.41823289513E+03 -0.74636620675E+03  0.11088981978E+04  0.14005849118E+04  0.12699999809E+01 0. -1.
</event>
<event>
 5   0  0.1096672E-05  0.1818472E+04  0.7818609E-02  0.8696538E-01
        1   -1    0    0  501    0  0.00000000000E+00  0.00000000000E+00  0.56399179988E+03  0.56399179990E+03  0.50400001928E-02 0.  1.
       -1   -1    0    0    0  501  0.00000000000E+00  0.00000000000E+00 -0.14658192809E+04  0.14658192809E+04  0.50400001928E-02 0. -1.
    10030    2    1    2    0    0  0.00000000000E+00  0.00000000000E+00 -0.90182748100E+03  0.20298110808E+04  0.18184719460E+04 0.  0.
        1    1    3    3  502    0  0.18193250026E+02  0.53893635872E+03 -0.12680635711E+04  0.13779581320E+04  0.50400001928E-02 0. -1.
       -1    1    3    3    0  502 -0.18193250026E+02 -0.53893635872E+03  0.36623609013E+03  0.65185294879E+03  0.50400001928E-02 0.  1.
</event>
<event>
 5   0  0.1005265E-05  0.2727563E+04  0.7818609E-02  0.8326117E-01
       -1   -1    0    0    0  501  0.00000000000E+00  0.00000000000E+00  0.11846159052E+04  0.11846159052E+04  0.50400001928E-02 0.  1.
        1   -1    0    0  501    0  0.00000000000E+00  0.00000000000E+00 -0.15700447694E+04  0.15700447694E+04  0.50400001928E-02 0. -1.
    10030    2    1    2    0    0  0.00000000000E+00  0.00000000000E+00 -0.38542886421E+03  0.27546606746E+04  0.27275630190E+04 0.  0.
        3    1    3    3  502    0  0.21032412770E+03 -0.77366749330E+02  0.11658930002E+04  0.11872355919E+04  0.10100000352E+00 0.  1.
       -3    1    3    3    0  502 -0.21032412770E+03  0.77366749330E+02 -0.15513218644E+04  0.15674250827E+04  0.10100000352E+00 0. -1.
</event>
<event>
 5   0  0.1036691E-05  0.2664736E+04  0.7818609E-02  0.8346539E-01
        1   -1    0    0  501    0  0.00000000000E+00  0.00000000000E+00  0.14893332567E+04  0.14893332567E+04  0.50400001928E-02 0.  1.
       -1   -1    0    0    0  501  0.00000000000E+00  0.00000000000E+00 -0.11919453923E+04  0.11919453924E+04  0.50400001928E-02 0. -1.
    10030    2    1    2    0    0  0.00000000000E+00  0.00000000000E+00  0.29738786434E+03  0.26812786490E+04  0.26647355689E+04 0.  0.
        4    1    3    3  502    0 -0.40533436394E+03 -0.12475453899E+04 -0.86287134505E+02  0.13145769391E+04  0.12699999809E+01 0. -1.
       -4    1    3    3    0  502  0.40533436394E+03  0.12475453899E+04  0.38367499885E+03  0.13667017099E+04  0.12699999809E+01 0.  1.
</event>
<event>
 5   0  0.2615843E-05  0.2688092E+04  0.7818609E-02  0.8338879E-01
       -2   -1    0    0    0  501  0.00000000000E+00  0.00000000000E+00  0.91456958917E+03  0.91456958917E+03  0.25500000920E-02 0. -1.
        2   -1    0    0  501    0  0.00000000000E+00  0.00000000000E+00 -0.19752015197E+04  0.19752015197E+04  0.25500000920E-02 0.  1.
    10030    2    1    2    0    0  0.00000000000E+00  0.00000000000E+00 -0.10606319306E+04  0.28897711089E+04  0.26880916967E+04 0.  0.
        3    1    3    3  502    0  0.44719472027E+03 -0.11927258074E+04 -0.69329574645E+02  0.12756898407E+04  0.10100000352E+00 0.  1.
       -3    1    3    3    0  502 -0.44719472027E+03  0.11927258074E+04 -0.99130235591E+03  0.16140812682E+04  0.10100000352E+00 0. -1.
</event>
<event>
 5   0  0.9971923E-06  0.2740595E+04  0.7818609E-02  0.8321952E-01
       -1   -1    0    0    0  501  0.00000000000E+00  0.00000000000E+00  0.13871683398E+04  0.13871683398E+04  0.50400001928E-02 0.  1.
        1   -1    0    0  501    0  0.00000000000E+00  0.00000000000E+00 -0.13536314057E+04  0.13536314057E+04  0.50400001928E-02 0. -1.
    10030    2    1    2    0    0  0.00000000000E+00  0.00000000000E+00  0.33536934083E+02  0.27407997454E+04  0.27405945557E+04 0.  0.
        2    1    3    3  502    0  0.90688278875E+03 -0.79361795011E+03 -0.63554472148E+03  0.13624180475E+04  0.25500000920E-02 0.  1.
       -2    1    3    3    0  502 -0.90688278875E+03  0.79361795011E+03  0.66908165557E+03  0.13783816979E+04  0.25500000920E-02 0. -1.
</event>
<event>
 5   0  0.1005265E-05  0.2698924E+04  0.7818609E-02  0.8335354E-01
        1   -1    0    0  501    0  0.00000000000E+00  0.00000000000E+00  0.12436644384E+04  0.12436644384E+04  0.50400001928E-02 0.  1.
       -1   -1    0    0    0  501  0.00000000000E+00  0.00000000000E+00 -0.14642598293E+04  0.14642598293E+04  0.50400001928E-02 0. -1.
    10030    2    1    2    0    0  0.00000000000E+00  0.00000000000E+00 -0.22059539096E+03  0.27079242677E+04  0.26989241399E+04 0.  0.
        3    1    3    3  502    0 -0.74373547811E+03 -0.61793416783E+03  0.83415036975E+03  0.12770246461E+04  0.10100000352E+00 0.  1.
       -3    1    3    3    0  502  0.74373547811E+03  0.61793416783E+03 -0.10547457607E+04  0.14308996216E+04  0.10100000352E+00 0. -1.
</event>
<event>
 5   0  0.9971923E-06  0.2707033E+04  0.7818609E-02  0.8332727E-01
       -1   -1    0    0    0  501  0.00000000000E+00  0.00000000000E+00  0.85902361332E+03  0.85902361334E+03  0.50400001928E-02 0.  1.
        1   -1    0    0  501    0  0.00000000000E+00  0.00000000000E+00 -0.21326621741E+04  0.21326621742E+04  0.50400001928E-02 0. -1.
    10030    2    1    2    0    0  0.00000000000E+00  0.00000000000E+00 -0.12736385608E+04  0.29916857875E+04  0.27070331855E+04 0.  0.
        2    1    3    3  502    0  0.20439496042E+03  0.50064284513E+03 -0.20080939727E+04  0.20796302463E+04  0.25500000920E-02 0. -1.
       -2    1    3    3    0  502 -0.20439496042E+03 -0.50064284513E+03  0.73445541184E+03  0.91205554119E+03  0.25500000920E-02 0.  1.
</event>
<event>
 5   0  0.2540232E-05  0.2661004E+04  0.7818609E-02  0.8347770E-01
       -2   -1    0    0    0  501  0.00000000000E+00  0.00000000000E+00  0.11515041974E+04  0.11515041974E+04  0.25500000920E-02 0.  1.
        2   -1    0    0  501    0  0.00000000000E+00  0.00000000000E+00 -0.15373240612E+04  0.15373240612E+04  0.25500000920E-02 0. -1.
    10030    2    1    2    0    0  0.00000000000E+00  0.00000000000E+00 -0.38581986387E+03  0.26888282586E+04  0.26610036522E+04 0.  0.
        1    1    3    3  502    0 -0.65528426668E+03  0.75808549190E+03 -0.10773589476E+04  0.14713236847E+04  0.50400001928E-02 0. -1.
       -1    1    3    3    0  502  0.65528426668E+03 -0.75808549190E+03  0.69153908373E+03  0.12175045739E+04  0.50400001928E-02 0.  1.
</event>
<event>
 5   0  0.1096672E-05  0.2745451E+04  0.7818609E-02  0.8320407E-01
        1   -1    0    0  501    0  0.00000000000E+00  0.00000000000E+00  0.13596254953E+04  0.13596254953E+04  0.50400001928E-02 0. -1.
       -1   -1    0    0    0  501  0.00000000000E+00  0.00000000000E+00 -0.13859512975E+04  0.13859512975E+04  0.50400001928E-02 0.  1.
    10030    2    1    2    0    0  0.00000000000E+00  0.00000000000E+00 -0.26325802196E+02  0.27455767928E+04  0.27454505781E+04 0.  0.
        1    1    3    3  502    0 -0.13335169847E+04 -0.29650396104E+03  0.12172314156E+03  0.13714950495E+04  0.50400001928E-02 0. -1.
       -1    1    3    3    0  502  0.13335169847E+04  0.29650396104E+03 -0.14804894375E+03  0.13740817433E+04  0.50400001928E-02 0.  1.
</event>
<event>
 5   0  0.2540684E-05  0.1686715E+04  0.7818609E-02  0.8768978E-01
       -2   -1    0    0    0  501  0.00000000000E+00  0.00000000000E+00  0.11111214877E+04  0.11111214877E+04  0.25500000920E-02 0.  1.
        2   -1    0    0  501    0  0.00000000000E+00  0.00000000000E+00 -0.64012083945E+03  0.64012083945E+03  0.25500000920E-02 0. -1.
    10030    2    1    2    0    0  0.00000000000E+00  0.00000000000E+00  0.47100064823E+03  0.17512423271E+04  0.16867151739E+04 0.  0.
        2    1    3    3  502    0  0.23326184740E+03  0.17248133496E+02  0.10767719164E+04  0.11018830915E+04  0.25500000920E-02 0.  1.
       -2    1    3    3    0  502 -0.23326184740E+03 -0.17248133496E+02 -0.60577126812E+03  0.64935923559E+03  0.25500000920E-02 0. -1.
</event>
<event>
 5   0  0.1041909E-05  0.2718099E+04  0.7818609E-02  0.8329156E-01
       -1   -1    0    0    0  501  0.00000000000E+00  0.00000000000E+00  0.86601590401E+03  0.86601590402E+03  0.50400001928E-02 0. -1.
        1   -1    0    0  501    0  0.00000000000E+00  0.00000000000E+00 -0.21327731220E+04  0.21327731220E+04  0.50400001928E-02 0.  1.
    10030    2    1    2    0    0  0.00000000000E+00  0.00000000000E+00 -0.12667572180E+04  0.29987890260E+04  0.27180989263E+04 0.  0.
        5    1    3    3  502    0  0.20846146086E+03 -0.11483924611E+03  0.84283606312E+03  0.87580760010E+03  0.46999998093E+01 0. -1.
       -5    1    3    3    0  502 -0.20846146086E+03  0.11483924611E+03 -0.21095932811E+04  0.21229814259E+04  0.46999998093E+01 0.  1.
</event>
<event>
 5   0  0.1036691E-05  0.2570496E+04  0.7818609E-02  0.8378293E-01
       -1   -1    0    0    0  501  0.00000000000E+00  0.00000000000E+00  0.13049299735E+04  0.13049299735E+04  0.50400001928E-02 0. -1.
        1   -1    0    0  501    0  0.00000000000E+00  0.00000000000E+00 -0.12658632547E+04  0.12658632547E+04  0.50400001928E-02 0.  1.
    10030    2    1    2    0    0  0.00000000000E+00  0.00000000000E+00  0.39066718758E+02  0.25707932282E+04  0.25704963750E+04 0.  0.
        4    1    3    3  502    0 -0.25855263167E+03 -0.10160259978E+04 -0.72399247337E+03  0.12740977223E+04  0.12699999809E+01 0.  1.
       -4    1    3    3    0  502  0.25855263167E+03  0.10160259978E+04  0.76305919213E+03  0.12966955059E+04  0.12699999809E+01 0. -1.
</event>
<event>
 5   0  0.1005265E-05  0.2702812E+04  0.7818609E-02  0.8334093E-01
        1   -1    0    0  501    0  0.00000000000E+00  0.00000000000E+00  0.16948575070E+04  0.16948575070E+04  0.50400001928E-02 0. -1.
       -1   -1    0    0    0  501  0.00000000000E+00  0.00000000000E+00 -0.10775529623E+04  0.10775529623E+04  0.50400001928E-02 0.  1.
    10030    2    1    2    0    0  0.00000000000E+00  0.00000000000E+00  0.61730454467E+03  0.27724104693E+04  0.27028124074E+04 0.  0.
        3    1    3    3  502    0 -0.41381240494E+03 -0.11223474390E+04  0.95364793440E+03  0.15298198826E+04  0.10100000352E+00 0. -1.
       -3    1    3    3    0  502  0.41381240494E+03  0.11223474390E+04 -0.33634338972E+03  0.12425905867E+04  0.10100000352E+00 0.  1.
</event>
<event>
 5   0  0.2615843E-05  0.2690668E+04  0.7818609E-02  0.8338039E-01
        2   -1    0    0  501    0  0.00000000000E+00  0.00000000000E+00  0.83804538394E+03  0.83804538394E+03  0.25500000920E-02 0.  1.
       -2   -1    0    0    0  501  0.00000000000E+00  0.00000000000E+00 -0.21596968638E+04  0.21596968638E+04  0.25500000920E-02 0. -1.
    10030    2    1    2    0    0  0.00000000000E+00  0.00000000000E+00 -0.13216514799E+04  0.29977422477E+04  0.26906683091E+04 0.  0.
        3    1    3    3  502    0 -0.12422688275E+04  0.10071296232E+03 -0.12251377835E+04  0.17476663123E+04  0.10100000352E+00 0. -1.
       -3    1    3    3    0  502  0.12422688275E+04 -0.10071296232E+03 -0.96513696384E+02  0.12500759354E+04  0.10100000352E+00 0.  1.
</event>
<event>
 5   0  0.2516518E-05  0.2580770E+04  0.7818609E-02  0.8374763E-01
        2   -1    0    0  501    0  0.00000000000E+00  0.00000000000E+00  0.19722941733E+04  0.19722941733E+04  0.25500000920E-02 0. -1.
       -2   -1    0    0    0  501  0.00000000000E+00  0.00000000000E+00 -0.84424194624E+03  0.84424194624E+03  0.25500000920E-02 0.  1.
    10030    2    1    2    0    0  0.00000000000E+00  0.00000000000E+00  0.11280522271E+04  0.28165361195E+04  0.25807700180E+04 0.  0.
        4    1    3    3  502    0 -0.21921358602E+03  0.13429194586E+03  0.19440628610E+04  0.19609872369E+04  0.12699999809E+01 0. -1.
       -4    1    3    3    0  502  0.21921358602E+03 -0.13429194586E+03 -0.81601063391E+03  0.85554888263E+03  0.12699999809E+01 0.  1.
</event>
<event>
 5   0  0.1096672E-05  0.2725298E+04  0.7818609E-02  0.8326843E-01
        1   -1    0    0  501    0  0.00000000000E+00  0.00000000000E+00  0.18358566320E+04  0.18358566320E+04  0.50400001928E-02 0.  1.
       -1   -1    0    0    0  501  0.00000000000E+00  0.00000000000E+00 -0.10114149493E+04  0.10114149493E+04  0.50400001928E-02 0. -1.
    10030    2    1    2    0    0  0.00000000000E+00  0.00000000000E+00  0.82444168272E+03  0.28472715813E+04  0.27252984000E+04 0.  0.
        1    1    3    3  502    0 -0.77523666767E+02  0.13563634764E+04  0.52219867363E+03  0.14554804203E+04  0.50400001928E-02 0. -1.
       -1    1    3    3    0  502  0.77523666767E+02 -0.13563634764E+04  0.30224300909E+03  0.13917911610E+04  0.50400001928E-02 0.  1.
</event>
<event>
 5   0  0.1041909E-05  0.2678752E+04  0.7818609E-02  0.8341932E-01
        1   -1    0    0  501    0  0.00000000000E+00  0.00000000000E+00  0.15009045897E+04  0.15009045897E+04  0.50400001928E-02 0. -1.
       -1   -1    0    0    0  501  0.00000000000E+00  0.00000000000E+00 -0.11952308158E+04  0.11952308159E+04  0.50400001928E-02 0.  1.
    10030    2    1    2    0    0  0.00000000000E+00  0.00000000000E+00  0.30567377382E+03  0.26961354055E+04  0.26787515131E+04 0.  0.
        5    1    3    3  502    0 -0.78733317423E+03  0.10149805902E+04  0.53454226212E+03  0.13913434679E+04  0.46999998093E+01 0. -1.
       -5    1    3    3    0  502  0.78733317423E+03 -0.10149805902E+04 -0.22886848830E+03  0.13047919377E+04  0.46999998093E+01 0.  1.
</event>
<event>
 5   0  0.2615843E-05  0.2498285E+04  0.7818609E-02  0.8403597E-01
        2   -1    0    0  501    0  0.00000000000E+00  0.00000000000E+00  0.18959764487E+04  0.18959764487E+04  0.25500000920E-02 0. -1.
       -2   -1    0    0    0  501  0.00000000000E+00  0.00000000000E+00 -0.82298350115E+03  0.82298350115E+03  0.25500000920E-02 0.  1.
    10030    2    1    2    0    0  0.00000000000E+00  0.00000000000E+00  0.10729929475E+04  0.27189599498E+04  0.24982852806E+04 0.  0.
        3    1    3    3  502    0  0.21697331526E+03  0.31728085968E+03  0.18300140792E+04  0.18699454815E+04  0.10100000352E+00 0. -1.
       -3    1    3    3    0  502 -0.21697331526E+03 -0.31728085968E+03 -0.75702113168E+03  0.84901446834E+03  0.10100000352E+00 0.  1.
</event>
<event>
 5   0  0.1036691E-05  0.2661551E+04  0.7818609E-02  0.8347589E-01
        1   -1    0    0  501    0  0.00000000000E+00  0.00000000000E+00  0.14208589204E+04  0.14208589204E+04  0.50400001928E-02 0.  1.
       -1   -1    0    0    0  501  0.00000000000E+00  0.00000000000E+00 -0.12464034624E+04  0.12464034624E+04  0.50400001928E-02 0. -1.
    10030    2    1    2    0    0  0.00000000000E+00  0.00000000000E+00  0.17445545794E+03  0.26672623828E+04  0.26615510350E+04 0.  0.
        4    1    3    3  502    0 -0.11063361423E+03 -0.12374695522E+04  0.56510650812E+03  0.13648874194E+04  0.12699999809E+01 0.  1.
       -4    1    3    3    0  502  0.11063361423E+03  0.12374695522E+04 -0.39065105018E+03  0.13023749634E+04  0.12699999809E+01 0. -1.
</event>
<event>
 5   0  0.2615843E-05  0.2692968E+04  0.7818609E-02  0.8337290E-01
       -2   -1    0    0    0  501  0.00000000000E+00  0.00000000000E+00  0.12102632776E+04  0.12102632776E+04  0.25500000920E-02 0. -1.
        2   -1    0    0  501    0  0.00000000000E+00  0.00000000000E+00 -0.14980374089E+04  0.14980374089E+04  0.25500000920E-02 0.  1.
    10030    2    1    2    0    0  0.00000000000E+00  0.00000000000E+00 -0.28777413137E+03  0.27083006865E+04  0.26929683730E+04 0.  0.
        3    1    3    3  502    0  0.17498179635E+03  0.13225518441E+04 -0.32729215098E+03  0.13736382972E+04  0.10100000352E+00 0.  1.
       -3    1    3    3    0  502 -0.17498179635E+03 -0.13225518441E+04  0.39518019604E+02  0.13346623893E+04  0.10100000352E+00 0. -1.
</event>
<event>
 5   0  0.1041909E-05  0.2645452E+04  0.7818609E-02  0.8352924E-01
       -1   -1    0    0    0  501  0.00000000000E+00  0.00000000000E+00  0.10576182800E+04  0.10576182800E+04  0.50400001928E-02 0.  1.
        1   -1    0    0  501    0  0.00000000000E+00  0.00000000000E+00 -0.16542874750E+04  0.16542874750E+04  0.50400001928E-02 0. -1.
    10030    2    1    2    0    0  0.00000000000E+00  0.00000000000E+00 -0.59666919500E+03  0.27119057550E+04  0.26454524558E+04 0.  0.
        5    1    3    3  502    0  0.11869008446E+04  0.14816921002E+03 -0.87722771693E+03  0.14833200218E+04  0.46999998093E+01 0.  1.
       -5    1    3    3    0  502 -0.11869008446E+04 -0.14816921002E+03  0.28055852193E+03  0.12285857332E+04  0.46999998093E+01 0. -1.
</event>
<event>
 5   0  0.9971923E-06  0.2753614E+04  0.7818609E-02  0.8317816E-01
       -1   -1    0    0    0  501  0.00000000000E+00  0.00000000000E+00  0.16312379170E+04  0.16312379171E+04  0.50400001928E-02 0.  1.
        1   -1    0    0  501    0  0.00000000000E+00  0.00000000000E+00 -0.11620608491E+04  0.11620608491E+04  0.50400001928E-02 0. -1.
    10030    2    1    2    0    0  0.00000000000E+00  0.00000000000E+00  0.46917706792E+03  0.27932987662E+04  0.27536141480E+04 0.  0.
        2    1    3    3  502    0 -0.10582898173E+03  0.86205236915E+03  0.13182841069E+04  0.15786725586E+04  0.25500000920E-02 0.  1.
       -2    1    3    3    0  502  0.10582898173E+03 -0.86205236915E+03 -0.84910703903E+03  0.12146262076E+04  0.25500000920E-02 0. -1.
</event>
<event>
 5   0  0.2641216E-05  0.2766976E+04  0.7818609E-02  0.8313595E-01
       -2   -1    0    0    0  501  0.00000000000E+00  0.00000000000E+00  0.81511461757E+03  0.81511461758E+03  0.25500000920E-02 0. -1.
        2   -1    0    0  501    0  0.00000000000E+00  0.00000000000E+00 -0.23481841908E+04  0.23481841908E+04  0.25500000920E-02 0.  1.
    10030    2    1    2    0    0  0.00000000000E+00  0.00000000000E+00 -0.15330695732E+04  0.31632988084E+04  0.27669761536E+04 0.  0.
        5    1    3    3  502    0 -0.81901884900E+03 -0.11002662719E+04 -0.55999389483E+03  0.14815508754E+04  0.46999998093E+01 0.  1.
       -5    1    3    3    0  502  0.81901884900E+03  0.11002662719E+04 -0.97307567840E+03  0.16817479330E+04  0.46999998093E+01 0. -1.
</event>
<event>
 5   0  0.1096672E-05  0.2710756E+04  0.7818609E-02  0.8331523E-01
       -1   -1    0    0    0  501  0.00000000000E+00  0.00000000000E+00  0.16329577970E+04  0.16329577970E+04  0.50400001928E-02 0.  1.
        1   -1    0    0  501    0  0.00000000000E+00  0.00000000000E+00 -0.11249829663E+04  0.11249829663E+04  0.50400001928E-02 0. -1.
    10030    2    1    2    0    0  0.00000000000E+00  0.00000000000E+00  0.50797483071E+03  0.27579407634E+04  0.27107561354E+04 0.  0.
        1    1    3    3  502    0 -0.46039798414E+03  0.59306606936E+03  0.14020601705E+04  0.15904296237E+04  0.50400001928E-02 0.  1.
       -1    1    3    3    0  502  0.46039798414E+03 -0.59306606936E+03 -0.89408533975E+03  0.11675111397E+04  0.50400001928E-02 0. -1.
</event>
<event>
 5   0  0.1096672E-05  0.2711761E+04  0.7818609E-02  0.8331199E-01
        1   -1    0    0  501    0  0.00000000000E+00  0.00000000000E+00  0.20200059342E+04  0.20200059343E+04  0.50400001928E-02 0.  1.
       -1   -1    0    0    0  501  0.00000000000E+00  0.00000000000E+00 -0.91010245084E+03  0.91010245085E+03  0.50400001928E-02 0. -1.
    10030    2    1    2    0    0  0.00000000000E+00  0.00000000000E+00  0.11099034834E+04  0.29301083851E+04  0.27117613107E+04 0.  0.
        1    1    3    3  502    0 -0.76969482699E+03 -0.75325666307E+03 -0.33514020666E+03  0.11278939158E+04  0.50400001928E-02 0. -1.
       -1    1    3    3    0  502  0.76969482699E+03  0.75325666307E+03  0.14450436901E+04  0.18022144693E+04  0.50400001928E-02 0.  1.
</event>
<event>
 5   0  0.2615843E-05  0.2710097E+04  0.7818609E-02  0.8331736E-01
       -2   -1    0    0    0  501  0.00000000000E+00  0.00000000000E+00  0.13307324433E+04  0.13307324433E+04  0.25500000920E-02 0.  1.
        2   -1    0    0  501    0  0.00000000000E+00  0.00000000000E+00 -0.13798083940E+04  0.13798083940E+04  0.25500000920E-02 0. -1.
    10030    2    1    2    0    0  0.00000000000E+00  0.00000000000E+00 -0.49075950678E+02  0.27105408373E+04  0.27100965263E+04 0.  0.
        3    1    3    3  502    0 -0.11902122740E+04  0.26896694173E+02 -0.67181259849E+03  0.13669897099E+04  0.10100000352E+00 0. -1.
       -3    1    3    3    0  502  0.11902122740E+04 -0.26896694173E+02  0.62273664781E+03  0.13435511274E+04  0.10100000352E+00 0.  1.
</event>
<event>
 5   0  0.1036691E-05  0.2731533E+04  0.7818609E-02  0.8324845E-01
       -1   -1    0    0    0  501  0.00000000000E+00  0.00000000000E+00  0.85565326390E+03  0.85565326392E+03  0.50400001928E-02 0.  1.
        1   -1    0    0  501    0  0.00000000000E+00  0.00000000000E+00 -0.21799935255E+04  0.21799935255E+04  0.50400001928E-02 0. -1.
    10030    2    1    2    0    0  0.00000000000E+00  0.00000000000E+00 -0.13243402616E+04  0.30356467894E+04  0.27315333243E+04 0.  0.
        4    1    3    3  502    0 -0.12158898843E+04 -0.62194738487E+03 -0.65050364923E+03  0.15127337409E+04  0.12699999809E+01 0. -1.
       -4    1    3    3    0  502  0.12158898843E+04  0.62194738487E+03 -0.67383661235E+03  0.15229130485E+04  0.12699999809E+01 0.  1.
</event>
<event>
 5   0  0.1096672E-05  0.1837189E+04  0.7818609E-02  0.8686769E-01
       -1   -1    0    0    0  501  0.00000000000E+00  0.00000000000E+00  0.69144506144E+03  0.69144506146E+03  0.50400001928E-02 0. -1.
        1   -1    0    0  501    0  0.00000000000E+00  0.00000000000E+00 -0.12203653669E+04  0.12203653669E+04  0.50400001928E-02 0.  1.
    10030    2    1    2    0    0  0.00000000000E+00  0.00000000000E+00 -0.52892030547E+03  0.19118104284E+04  0.18371887286E+04 0.  0.
        1    1    3    3  502    0  0.70439152890E+03  0.58578474579E+03 -0.33430109567E+03  0.97522736681E+03  0.50400001928E-02 0.  1.
       -1    1    3    3    0  502 -0.70439152890E+03 -0.58578474579E+03 -0.19461920980E+03  0.93658306157E+03  0.50400001928E-02 0. -1.
</event>
<event>
 5   0  0.2641216E-05  0.2662394E+04  0.7818609E-02  0.8347311E-01
        2   -1    0    0  501    0  0.00000000000E+00  0.00000000000E+00  0.64952722714E+03  0.64952722715E+03  0.25500000920E-02 0. -1.
       -2   -1    0    0    0  501  0.00000000000E+00  0.00000000000E+00 -0.27282694226E+04  0.27282694226E+04  0.25500000920E-02 0.  1.
    10030    2    1    2    0    0  0.00000000000E+00  0.00000000000E+00 -0.20787421955E+04  0.33777966498E+04  0.26623938649E+04 0.  0.
        5    1    3    3  502    0  0.78427680529E+03 -0.10149945307E+04 -0.14910719442E+04  0.19668811956E+04  0.46999998093E+01 0.  1.
       -5    1    3    3    0  502 -0.78427680529E+03  0.10149945307E+04 -0.58767025123E+03  0.14109154542E+04  0.46999998093E+01 0. -1.
</event>
<event>
 5   0  0.1041909E-05  0.2704034E+04  0.7818609E-02  0.8333697E-01
        1   -1    0    0  501    0  0.00000000000E+00  0.00000000000E+00  0.13713445823E+04  0.13713445824E+04  0.50400001928E-02 0. -1.
       -1   -1    0    0    0  501  0.00000000000E+00  0.00000000000E+00 -0.13329618775E+04  0.13329618775E+04  0.50400001928E-02 0.  1.
    10030    2    1    2    0    0  0.00000000000E+00  0.00000000000E+00  0.38382704870E+02  0.27043064598E+04  0.27040340598E+04 0.  0.
        5    1    3    3  502    0 -0.54446424643E+03 -0.11216307000E+04 -0.50376783253E+03  0.13447307767E+04  0.46999998093E+01 0.  1.
       -5    1    3    3    0  502  0.54446424643E+03  0.11216307000E+04  0.54215053740E+03  0.13595756831E+04  0.46999998093E+01 0. -1.
</event>
<event>
 5   0  0.2615843E-05  0.1802326E+04  0.7818609E-02  0.8705063E-01
       -2   -1    0    0    0  501  0.00000000000E+00  0.00000000000E+00  0.74554639861E+03  0.74554639862E+03  0.25500000920E-02 0. -1.
        2   -1    0    0  501    0  0.00000000000E+00  0.00000000000E+00 -0.10892615469E+04  0.10892615469E+04  0.25500000920E-02 0.  1.
    10030    2    1    2    0    0  0.00000000000E+00  0.00000000000E+00 -0.34371514832E+03  0.18348079456E+04  0.18023263006E+04 0.  0.
        3    1    3    3  502    0 -0.79239178790E+03  0.25346794877E+03 -0.52445825271E+03  0.98345676856E+03  0.10100000352E+00 0.  1.
       -3    1    3    3    0  502  0.79239178790E+03 -0.25346794877E+03  0.18074310439E+03  0.85135117699E+03  0.10100000352E+00 0. -1.
</event>
<event>
 5   0  0.9971923E-06  0.2773876E+04  0.7818609E-02  0.8311425E-01
       -1   -1    0    0    0  501  0.00000000000E+00  0.00000000000E+00  0.12944758764E+04  0.12944758764E+04  0.50400001928E-02 0. -1.
        1   -1    0    0  501    0  0.00000000000E+00  0.00000000000E+00 -0.14860045880E+04  0.14860045880E+04  0.50400001928E-02 0.  1.
    10030    2    1    2    0    0  0.00000000000E+00  0.00000000000E+00 -0.19152871163E+03  0.27804804644E+04  0.27738760545E+04 0.  0.
        2    1    3    3  502    0 -0.88532063936E+03  0.58961209783E+03 -0.98791831637E+03  0.14516947545E+04  0.25500000920E-02 0.  1.
       -2    1    3    3    0  502  0.88532063936E+03 -0.58961209783E+03  0.79638960474E+03  0.13287857099E+04  0.25500000920E-02 0. -1.
</event>
<event>
 5   0  0.1036691E-05  0.2092696E+04  0.7818609E-02  0.8564468E-01
        1   -1    0    0  501    0  0.00000000000E+00  0.00000000000E+00  0.19103654305E+04  0.19103654305E+04  0.50400001928E-02 0. -1.
       -1   -1    0    0    0  501  0.00000000000E+00  0.00000000000E+00 -0.57310708393E+03  0.57310708395E+03  0.50400001928E-02 0.  1.
    10030    2    1    2    0    0  0.00000000000E+00  0.00000000000E+00  0.13372583466E+04  0.24834725145E+04  0.20926958319E+04 0.  0.
        4    1    3    3  502    0 -0.15677174811E+03 -0.16816451527E+03  0.18800195527E+04  0.18940252946E+04  0.12699999809E+01 0. -1.
       -4    1    3    3    0  502  0.15677174811E+03  0.16816451527E+03 -0.54276120613E+03  0.58944721985E+03  0.12699999809E+01 0.  1.
</event>
<event>
 5   0  0.1096672E-05  0.2693374E+04  0.7818609E-02  0.8337158E-01
        1   -1    0    0  501    0  0.00000000000E+00  0.00000000000E+00  0.16755856219E+04  0.16755856219E+04  0.50400001928E-02 0. -1.
       -1   -1    0    0    0  501  0.00000000000E+00  0.00000000000E+00 -0.10823474768E+04  0.10823474768E+04  0.50400001928E-02 0.  1.
    10030    2    1    2    0    0  0.00000000000E+00  0.00000000000E+00  0.59323814512E+03  0.27579330987E+04  0.26933739956E+04 0.  0.
        1    1    3    3  502    0  0.38894271887E+03  0.53548436362E+03 -0.90433005781E+03  0.11206394584E+04  0.50400001928E-02 0.  1.
       -1    1    3    3    0  502 -0.38894271887E+03 -0.53548436362E+03  0.14975682029E+04  0.16372936403E+04  0.50400001928E-02 0. -1.
</event>
<event>
 5   0  0.1036691E-05  0.2769588E+04  0.7818609E-02  0.8312773E-01
       -1   -1    0    0    0  501  0.00000000000E+00  0.00000000000E+00  0.58164782912E+03  0.58164782914E+03  0.50400001928E-02 0. -1.
        1   -1    0    0  501    0  0.00000000000E+00  0.00000000000E+00 -0.32969341962E+04  0.32969341963E+04  0.50400001928E-02 0.  1.
    10030    2    1    2    0    0  0.00000000000E+00  0.00000000000E+00 -0.27152863671E+04  0.38785820254E+04  0.27695881413E+04 0.  0.
        4    1    3    3  502    0 -0.44920998126E+03  0.86971621982E+03  0.14092918609E+02  0.97897708530E+03  0.12699999809E+01 0. -1.
       -4    1    3    3    0  502  0.44920998126E+03 -0.86971621982E+03 -0.27293792857E+04  0.28996049401E+04  0.12699999809E+01 0.  1.
</event>
<event>
 5   0  0.2540684E-05  0.2741005E+04  0.7818609E-02  0.8321822E-01
       -2   -1    0    0    0  501  0.00000000000E+00  0.00000000000E+00  0.23378748961E+04  0.23378748961E+04  0.25500000920E-02 0.  1.
        2   -1    0    0  501    0  0.00000000000E+00  0.00000000000E+00 -0.80341191710E+03  0.80341191710E+03  0.25500000920E-02 0. -1.
    10030    2    1    2    0    0  0.00000000000E+00  0.00000000000E+00  0.15344629790E+04  0.31412868132E+04  0.27410045985E+04 0.  0.
        2    1    3    3  502    0  0.25161718620E+03  0.98555693465E+03 -0.28540191498E+03  0.10564506297E+04  0.25500000920E-02 0. -1.
       -2    1    3    3    0  502 -0.25161718620E+03 -0.98555693465E+03  0.18198648939E+04  0.20848361835E+04  0.25500000920E-02 0.  1.
</event>
<event>
 5   0  0.2540232E-05  0.2747275E+04  0.7818609E-02  0.8319827E-01
        2   -1    0    0  501    0  0.00000000000E+00  0.00000000000E+00  0.18359534996E+04  0.18359534996E+04  0.25500000920E-02 0. -1.
       -2   -1    0    0    0  501  0.00000000000E+00  0.00000000000E+00 -0.10277384838E+04  0.10277384838E+04  0.25500000920E-02 0.  1.
    10030    2    1    2    0    0  0.00000000000E+00  0.00000000000E+00  0.80821501574E+03  0.28636919834E+04  0.27472750616E+04 0.  0.
        1    1    3    3  502    0  0.62074683776E+02 -0.42181236084E+03  0.17652363328E+04  0.18159951115E+04  0.50400001928E-02 0. -1.
       -1    1    3    3    0  502 -0.62074683776E+02  0.42181236084E+03 -0.95702131707E+03  0.10476968719E+04  0.50400001928E-02 0.  1.
</event>
<event>
 5   0  0.2615843E-05  0.2812187E+04  0.7818609E-02  0.8299495E-01
       -2   -1    0    0    0  501  0.00000000000E+00  0.00000000000E+00  0.75302255725E+03  0.75302255726E+03  0.25500000920E-02 0.  1.
        2   -1    0    0  501    0  0.00000000000E+00  0.00000000000E+00 -0.26255503412E+04  0.26255503412E+04  0.25500000920E-02 0. -1.
    10030    2    1    2    0    0  0.00000000000E+00  0.00000000000E+00 -0.18725277840E+04  0.33785728985E+04  0.28121867876E+04 0.  0.
        3    1    3    3  502    0 -0.45484963308E+03 -0.12262537885E+04 -0.15564864808E+04  0.20330363297E+04  0.10100000352E+00 0. -1.
       -3    1    3    3    0  502  0.45484963308E+03  0.12262537885E+04 -0.31604130311E+03  0.13455365688E+04  0.10100000352E+00 0.  1.
</event>
<event>
 5   0  0.2540232E-05  0.2726584E+04  0.7818609E-02  0.8326431E-01
        2   -1    0    0  501    0  0.00000000000E+00  0.00000000000E+00  0.17114607681E+04  0.17114607681E+04  0.25500000920E-02 0. -1.
       -2   -1    0    0    0  501  0.00000000000E+00  0.00000000000E+00 -0.10859524509E+04  0.10859524509E+04  0.25500000920E-02 0.  1.
    10030    2    1    2    0    0  0.00000000000E+00  0.00000000000E+00  0.62550831728E+03  0.27974132190E+04  0.27265839549E+04 0.  0.
        1    1    3    3  502    0 -0.93323323301E+03  0.91252250996E+03 -0.91099771105E+02  0.13084039004E+04  0.50400001928E-02 0.  1.
       -1    1    3    3    0  502  0.93323323301E+03 -0.91252250996E+03  0.71660808838E+03  0.14890093186E+04  0.50400001928E-02 0. -1.
</event>
<event>
 5   0  0.2516518E-05  0.2594445E+04  0.7818609E-02  0.8370091E-01
        2   -1    0    0  501    0  0.00000000000E+00  0.00000000000E+00  0.20940116346E+04  0.20940116346E+04  0.25500000920E-02 0. -1.
       -2   -1    0    0    0  501  0.00000000000E+00  0.00000000000E+00 -0.80361811999E+03  0.80361812000E+03  0.25500000920E-02 0.  1.
    10030    2    1    2    0    0  0.00000000000E+00  0.00000000000E+00  0.12903935146E+04  0.28976297546E+04  0.25944445980E+04 0.  0.
        4    1    3    3  502    0  0.37854803354E+03 -0.76244327760E+03  0.17384450426E+04  0.19356681390E+04  0.12699999809E+01 0. -1.
       -4    1    3    3    0  502 -0.37854803354E+03  0.76244327760E+03 -0.44805152800E+03  0.96196161560E+03  0.12699999809E+01 0.  1.
</event>
<event>
 5   0  0.1005265E-05  0.1720570E+04  0.7818609E-02  0.8749719E-01
        1   -1    0    0  501    0  0.00000000000E+00  0.00000000000E+00  0.10159810649E+04  0.10159810649E+04  0.50400001928E-02 0.  1.
       -1   -1    0    0    0  501  0.00000000000E+00  0.00000000000E+00 -0.72844912902E+03  0.72844912903E+03  0.50400001928E-02 0. -1.
    10030    2    1    2    0    0  0.00000000000E+00  0.00000000000E+00  0.28753193590E+03  0.17444301940E+04  0.17205702797E+04 0.  0.
        3    1    3    3  502    0 -0.13933184986E+03 -0.21317243388E+02  0.10041940730E+04  0.10140382319E+04  0.10100000352E+00 0.  1.
       -3    1    3    3    0  502  0.13933184986E+03  0.21317243388E+02 -0.71666213713E+03  0.73039196206E+03  0.10100000352E+00 0. -1.
</event>
<event>
 5   0  0.1096672E-05  0.2719570E+04  0.7818609E-02  0.8328683E-01
        1   -1    0    0  501    0  0.00000000000E+00  0.00000000000E+00  0.13875941077E+04  0.13875941077E+04  0.50400001928E-02 0.  1.
       -1   -1    0    0    0  501  0.00000000000E+00  0.00000000000E+00 -0.13325334174E+04  0.13325334174E+04  0.50400001928E-02 0. -1.
    10030    2    1    2    0    0  0.00000000000E+00  0.00000000000E+00  0.55060690332E+02  0.27201275251E+04  0.27195702001E+04 0.  0.
        1    1    3    3  502    0  0.97552080694E+03 -0.92402880889E+03 -0.18118784615E+03  0.13558388990E+04  0.50400001928E-02 0. -1.
       -1    1    3    3    0  502 -0.97552080694E+03  0.92402880889E+03  0.23624853648E+03  0.13642886261E+04  0.50400001928E-02 0.  1.
</event>
<event>
 5   0  0.1041909E-05  0.2679101E+04  0.7818609E-02  0.8341818E-01
       -1   -1    0    0    0  501  0.00000000000E+00  0.00000000000E+00  0.13417699973E+04  0.13417699973E+04  0.50400001928E-02 0.  1.
        1   -1    0    0  501    0  0.00000000000E+00  0.00000000000E+00 -0.13373347655E+04  0.13373347655E+04  0.50400001928E-02 0. -1.
    10030    2    1    2    0    0  0.00000000000E+00  0.00000000000E+00  0.44352318046E+01  0.26791047628E+04  0.26791010916E+04 0.  0.
        5    1    3    3  502    0 -0.21185222470E+03 -0.80542236960E+03 -0.10469677981E+04  0.13378154652E+04  0.46999998093E+01 0. -1.
       -5    1    3    3    0  502  0.21185222470E+03  0.80542236960E+03  0.10514030299E+04  0.13412892976E+04  0.46999998093E+01 0.  1.
</event>
<event>
 5   0  0.1096672E-05  0.2686692E+04  0.7818609E-02  0.8339336E-01
       -1   -1    0    0    0  501  0.00000000000E+00  0.00000000000E+00  0.96059803065E+03  0.96059803067E+03  0.50400001928E-02 0.  1.
        1   -1    0    0  501    0  0.00000000000E+00  0.00000000000E+00 -0.18785995256E+04  0.18785995256E+04  0.50400001928E-02 0. -1.
    10030    2    1    2    0    0  0.00000000000E+00  0.00000000000E+00 -0.91800149497E+03  0.28391975563E+04  0.26866923938E+04 0.  0.
        1    1    3    3  502    0 -0.18154477690E+02 -0.18469515705E+03 -0.18649871522E+04  0.18741982189E+04  0.50400001928E-02 0. -1.
       -1    1    3    3    0  502  0.18154477690E+02  0.18469515705E+03  0.94698565721E+03  0.96499933735E+03  0.50400001928E-02 0.  1.
</event>
<event>
 5   0  0.1036691E-05  0.2773693E+04  0.7818609E-02  0.8311483E-01
        1   -1    0    0  501    0  0.00000000000E+00  0.00000000000E+00  0.26740666947E+04  0.26740666947E+04  0.50400001928E-02 0. -1.
       -1   -1    0    0    0  501  0.00000000000E+00  0.00000000000E+00 -0.71925758448E+03  0.71925758450E+03  0.50400001928E-02 0.  1.
    10030    2    1    2    0    0  0.00000000000E+00  0.00000000000E+00  0.19548091102E+04  0.33933242792E+04  0.27736926662E+04 0.  0.
        4    1    3    3  502    0 -0.12010497979E+04 -0.55514054391E+03  0.14857244514E+04  0.19894924978E+04  0.12699999809E+01 0. -1.
       -4    1    3    3    0  502  0.12010497979E+04  0.55514054391E+03  0.46908465880E+03  0.14038317814E+04  0.12699999809E+01 0.  1.
</event>
<event>
 5   0  0.1005265E-05  0.2641171E+04  0.7818609E-02  0.8354349E-01
        1   -1    0    0  501    0  0.00000000000E+00  0.00000000000E+00  0.23629979643E+04  0.23629979643E+04  0.50400001928E-02 0. -1.
       -1   -1    0    0    0  501  0.00000000000E+00  0.00000000000E+00 -0.73802240958E+03  0.73802240960E+03  0.50400001928E-02 0.  1.
    10030    2    1    2    0    0  0.00000000000E+00  0.00000000000E+00  0.16249755547E+04  0.31010203739E+04  0.26411705371E+04 0.  0.
        3    1    3    3  502    0  0.38980182975E-01 -0.98322068742E+03  0.18475843329E+04  0.20929144271E+04  0.10100000352E+00 0. -1.
       -3    1    3    3    0  502 -0.38980182975E-01  0.98322068742E+03 -0.22260877819E+03  0.10081059468E+04  0.10100000352E+00 0.  1.
</event>
<event>
 5   0  0.2516518E-05  0.2725392E+04  0.7818609E-02  0.8326813E-01
       -2   -1    0    0    0  501  0.00000000000E+00  0.00000000000E+00  0.19626535418E+04  0.19626535418E+04  0.25500000920E-02 0. -1.
        2   -1    0    0  501    0  0.00000000000E+00  0.00000000000E+00 -0.94613791204E+03  0.94613791204E+03  0.25500000920E-02 0.  1.
    10030    2    1    2    0    0  0.00000000000E+00  0.00000000000E+00  0.10165156298E+04  0.29087914538E+04  0.27253923931E+04 0.  0.
        4    1    3    3  502    0 -0.28927479947E+03 -0.10098018210E+04 -0.41823567875E+03  0.11306203267E+04  0.12699999809E+01 0.  1.
       -4    1    3    3    0  502  0.28927479947E+03  0.10098018210E+04  0.14347513085E+04  0.17781711272E+04  0.12699999809E+01 0. -1.
</event>
<event>
 5   0  0.9971923E-06  0.2608530E+04  0.7818609E-02  0.8365309E-01
       -1   -1    0    0    0  501  0.00000000000E+00  0.00000000000E+00  0.83147190486E+03  0.83147190487E+03  0.50400001928E-02 0.  1.
        1   -1    0    0  501    0  0.00000000000E+00  0.00000000000E+00 -0.20458988985E+04  0.20458988985E+04  0.50400001928E-02 0. -1.
    10030    2    1    2    0    0  0.00000000000E+00  0.00000000000E+00 -0.12144269937E+04  0.28773708034E+04  0.26085302025E+04 0.  0.
        2    1    3    3  502    0 -0.73202982502E+03 -0.23740521296E+02 -0.17976399230E+04  0.19411183812E+04  0.25500000920E-02 0. -1.
       -2    1    3    3    0  502  0.73202982502E+03  0.23740521296E+02  0.58321292935E+03  0.93625242218E+03  0.25500000920E-02 0.  1.
</event>
<event>
 5   0  0.1005265E-05  0.2618450E+04  0.7818609E-02  0.8361961E-01
        1   -1    0    0  501    0  0.00000000000E+00  0.00000000000E+00  0.97650570448E+03  0.97650570450E+03  0.50400001928E-02 0. -1.
       -1   -1    0    0    0  501  0.00000000000E+00  0.00000000000E+00 -0.17553102487E+04  0.17553102487E+04  0.50400001928E-02 0.  1.
    10030    2    1    2    0    0  0.00000000000E+00  0.00000000000E+00 -0.77880454419E+03  0.27318159532E+04  0.26184502829E+04 0.  0.
        3    1    3    3  502    0  0.45600030559E+03 -0.55041046434E+03 -0.15337891212E+04  0.16921575094E+04  0.10100000352E+00 0.  1.
       -3    1    3    3    0  502 -0.45600030559E+03  0.55041046434E+03  0.75498457705E+03  0.10396584438E+04  0.10100000352E+00 0. -1.
</event>
<event>
 5   0  0.2641216E-05  0.2632826E+04  0.7818609E-02  0.8357136E-01
       -2   -1    0    0    0  501  0.00000000000E+00  0.00000000000E+00  0.16693922745E+04  0.16693922745E+04  0.25500000920E-02 0. -1.
        2   -1    0    0  501    0  0.00000000000E+00  0.00000000000E+00 -0.10380679504E+04  0.10380679504E+04  0.25500000920E-02 0.  1.
    10030    2    1    2    0    0  0.00000000000E+00  0.00000000000E+00  0.63132432409E+03  0.27074602250E+04  0.26328255673E+04 0.  0.
        5    1    3    3  502    0  0.12482377284E+04  0.37318130076E+03  0.12174615929E+03  0.13085128686E+04  0.46999998093E+01 0.  1.
       -5    1    3    3    0  502 -0.12482377284E+04 -0.37318130076E+03  0.50957816480E+03  0.13989473564E+04  0.46999998093E+01 0. -1.
</event>
<event>
 5   0  0.9971923E-06  0.2581104E+04  0.7818609E-02  0.8374648E-01
        1   -1    0    0  501    0  0.00000000000E+00  0.00000000000E+00  0.14409308346E+04  0.14409308346E+04  0.50400001928E-02 0. -1.
       -1   -1    0    0    0  501  0.00000000000E+00  0.00000000000E+00 -0.11558666461E+04  0.11558666461E+04  0.50400001928E-02 0.  1.
    10030    2    1    2    0    0  0.00000000000E+00  0.00000000000E+00  0.28506418851E+03  0.25967974807E+04  0.25811035555E+04 0.  0.
        2    1    3    3  502    0 -0.73815722136E+01  0.51679023921E+03 -0.10471965914E+04  0.11677959325E+04  0.25500000920E-02 0.  1.
       -2    1    3    3    0  502  0.73815722136E+01 -0.51679023921E+03  0.13322607799E+04  0.14290015482E+04  0.25500000920E-02 0. -1.
</event>
<event>
 5   0  0.1041909E-05  0.2535928E+04  0.7818609E-02  0.8390297E-01
       -1   -1    0    0    0  501  0.00000000000E+00  0.00000000000E+00  0.12194730416E+04  0.12194730416E+04  0.50400001928E-02 0. -1.
        1   -1    0    0  501    0  0.00000000000E+00  0.00000000000E+00 -0.13183835219E+04  0.13183835219E+04  0.50400001928E-02 0.  1.
    10030    2    1    2    0    0  0.00000000000E+00  0.00000000000E+00 -0.98910480350E+02  0.25378565635E+04  0.25359283613E+04 0.  0.
        5    1    3    3  502    0 -0.58970255202E+03 -0.95420876899E+03  0.54213516561E+03  0.12458716236E+04  0.46999998093E+01 0. -1.
       -5    1    3    3    0  502  0.58970255202E+03  0.95420876899E+03 -0.64104564596E+03  0.12919849399E+04  0.46999998093E+01 0.  1.
</event>
<event>
 5   0  0.1041909E-05  0.2492423E+04  0.7818609E-02  0.8405690E-01
        1   -1    0    0  501    0  0.00000000000E+00  0.00000000000E+00  0.15779062761E+04  0.15779062761E+04  0.50400001928E-02 0. -1.
       -1   -1    0    0    0  501  0.00000000000E+00  0.00000000000E+00 -0.98424268266E+03  0.98424268268E+03  0.50400001928E-02 0.  1.
    10030    2    1    2    0    0  0.00000000000E+00  0.00000000000E+00  0.59366359344E+03  0.25621489588E+04  0.24924226818E+04 0.  0.
        5    1    3    3  502    0  0.15065652478E+03  0.11737888240E+04  0.69832560936E+03  0.13741027394E+04  0.46999998093E+01 0. -1.
       -5    1    3    3    0  502 -0.15065652478E+03 -0.11737888240E+04 -0.10466201592E+03  0.11880462194E+04  0.46999998093E+01 0.  1.
</event>
<event>
 5   0  0.2540684E-05  0.2682397E+04  0.7818609E-02  0.8340739E-01
        2   -1    0    0  501    0  0.00000000000E+00  0.00000000000E+00  0.82418116195E+03  0.82418116196E+03  0.25500000920E-02 0. -1.
       -2   -1    0    0    0  501  0.00000000000E+00  0.00000000000E+00 -0.21825464473E+04  0.21825464473E+04  0.25500000920E-02 0.  1.
    10030    2    1    2    0    0  0.00000000000E+00  0.00000000000E+00 -0.13583652854E+04  0.30067276093E+04  0.26823971868E+04 0.  0.
        2    1    3    3  502    0  0.58663437796E+03 -0.89029670992E+03  0.23285955683E+03  0.10913256610E+04  0.25500000920E-02 0. -1.
       -2    1    3    3    0  502 -0.58663437796E+03  0.89029670992E+03 -0.15912248422E+04  0.19154019483E+04  0.25500000920E-02 0.  1.
</event>
<event>
 5   0  0.2540684E-05  0.2690172E+04  0.7818609E-02  0.8338201E-01
       -2   -1    0    0    0  501  0.00000000000E+00  0.00000000000E+00  0.11894163729E+04  0.11894163729E+04  0.25500000920E-02 0. -1.
        2   -1    0    0  501    0  0.00000000000E+00  0.00000000000E+00 -0.15211293896E+04  0.15211293896E+04  0.25500000920E-02 0.  1.
    10030    2    1    2    0    0  0.00000000000E+00  0.00000000000E+00 -0.33171301666E+03  0.27105457625E+04  0.26901718914E+04 0.  0.
        2    1    3    3  502    0  0.32722165117E+03 -0.32469867935E+03  0.11073404085E+04  0.11994607212E+04  0.25500000920E-02 0. -1.
       -2    1    3    3    0  502 -0.32722165117E+03  0.32469867935E+03 -0.14390534252E+04  0.15110850413E+04  0.25500000920E-02 0.  1.
</event>
<event>
 5   0  0.2615843E-05  0.2582725E+04  0.7818609E-02  0.8374093E-01
       -2   -1    0    0    0  501  0.00000000000E+00  0.00000000000E+00  0.12553652950E+04  0.12553652950E+04  0.25500000920E-02 0.  1.
        2   -1    0    0  501    0  0.00000000000E+00  0.00000000000E+00 -0.13283921019E+04  0.13283921019E+04  0.25500000920E-02 0. -1.
    10030    2    1    2    0    0  0.00000000000E+00  0.00000000000E+00 -0.73026806984E+02  0.25837573969E+04  0.25827251831E+04 0.  0.
        3    1    3    3  502    0 -0.42182723633E+03 -0.47579152107E+03  0.10879026804E+04  0.12600984251E+04  0.10100000352E+00 0.  1.
       -3    1    3    3    0  502  0.42182723633E+03  0.47579152107E+03 -0.11609294873E+04  0.13236589718E+04  0.10100000352E+00 0. -1.
</event>
<event>
 5   0  0.2516518E-05  0.2725929E+04  0.7818609E-02  0.8326641E-01
       -2   -1    0    0    0  501  0.00000000000E+00  0.00000000000E+00  0.88916061791E+03  0.88916061791E+03  0.25500000920E-02 0. -1.
        2   -1    0    0  501    0  0.00000000000E+00  0.00000000000E+00 -0.20892428326E+04  0.20892428326E+04  0.25500000920E-02 0.  1.
    10030    2    1    2    0    0  0.00000000000E+00  0.00000000000E+00 -0.12000822147E+04  0.29784034505E+04  0.27259291612E+04 0.  0.
        4    1    3    3  502    0 -0.10750557576E+04  0.11334846672E+02  0.31528291665E+03  0.11203920257E+04  0.12699999809E+01 0. -1.
       -4    1    3    3    0  502  0.10750557576E+04 -0.11334846672E+02 -0.15153651314E+04  0.18580114249E+04  0.12699999809E+01 0.  1.
</event>
<event>
 5   0  0.1096672E-05  0.2683197E+04  0.7818609E-02  0.8340478E-01
       -1   -1    0    0    0  501  0.00000000000E+00  0.00000000000E+00  0.72455292802E+03  0.72455292804E+03  0.50400001928E-02 0.  1.
        1   -1    0    0  501    0  0.00000000000E+00  0.00000000000E+00 -0.24841340267E+04  0.24841340267E+04  0.50400001928E-02 0. -1.
    10030    2    1    2    0    0  0.00000000000E+00  0.00000000000E+00 -0.17595810987E+04  0.32086869548E+04  0.26831970354E+04 0.  0.
        1    1    3    3  502    0  0.42948953056E+03  0.33436520815E+03  0.58658289090E+03  0.80021299490E+03  0.50400001928E-02 0.  1.
       -1    1    3    3    0  502 -0.42948953056E+03 -0.33436520815E+03 -0.23461639896E+04  0.24084739599E+04  0.50400001928E-02 0. -1.
</event>
<event>
 5   0  0.2516518E-05  0.2681928E+04  0.7818609E-02  0.8340893E-01
        2   -1    0    0  501    0  0.00000000000E+00  0.00000000000E+00  0.15001718973E+04  0.15001718974E+04  0.25500000920E-02 0.  1.
       -2   -1    0    0    0  501  0.00000000000E+00  0.00000000000E+00 -0.11986522791E+04  0.11986522791E+04  0.25500000920E-02 0. -1.
    10030    2    1    2    0    0  0.00000000000E+00  0.00000000000E+00  0.30151961829E+03  0.26988241764E+04  0.26819280108E+04 0.  0.
        4    1    3    3  502    0 -0.16955779949E+03  0.10860897275E+04  0.92361007741E+03  0.14357569194E+04  0.12699999809E+01 0.  1.
       -4    1    3    3    0  502  0.16955779949E+03 -0.10860897275E+04 -0.62209045912E+03  0.12630672570E+04  0.12699999809E+01 0. -1.
</event>
<event>
 5   0  0.1036691E-05  0.2663205E+04  0.7818609E-02  0.8347043E-01
       -1   -1    0    0    0  501  0.00000000000E+00  0.00000000000E+00  0.14013260208E+04  0.14013260208E+04  0.50400001928E-02 0. -1.
        1   -1    0    0  501    0  0.00000000000E+00  0.00000000000E+00 -0.12653483802E+04  0.12653483802E+04  0.50400001928E-02 0.  1.
    10030    2    1    2    0    0  0.00000000000E+00  0.00000000000E+00  0.13597764059E+03  0.26666744010E+04  0.26632052948E+04 0.  0.
        4    1    3    3  502    0  0.14342307306E+03  0.35121945358E+03  0.13460678440E+04  0.13985083253E+04  0.12699999809E+01 0. -1.
       -4    1    3    3    0  502 -0.14342307306E+03 -0.35121945358E+03 -0.12100902034E+04  0.12681660757E+04  0.12699999809E+01 0.  1.
</event>
<event>
 5   0  0.2540232E-05  0.2714829E+04  0.7818609E-02  0.8330209E-01
       -2   -1    0    0    0  501  0.00000000000E+00  0.00000000000E+00  0.13343370503E+04  0.13343370503E+04  0.25500000920E-02 0.  1.
        2   -1    0    0  501    0  0.00000000000E+00  0.00000000000E+00 -0.13808913385E+04  0.13808913385E+04  0.25500000920E-02 0. -1.
    10030    2    1    2    0    0  0.00000000000E+00  0.00000000000E+00 -0.46554288205E+02  0.27152283888E+04  0.27148292583E+04 0.  0.
        1    1    3    3  502    0 -0.17044530704E+01 -0.27475327366E+03  0.13062347344E+04  0.13348188821E+04  0.50400001928E-02 0.  1.
       -1    1    3    3    0  502  0.17044530704E+01  0.27475327366E+03 -0.13527890226E+04  0.13804095067E+04  0.50400001928E-02 0. -1.
</event>
<event>
 5   0  0.1005265E-05  0.2251122E+04  0.7818609E-02  0.8497446E-01
       -1   -1    0    0    0  501  0.00000000000E+00  0.00000000000E+00  0.13743507680E+04  0.13743507680E+04  0.50400001928E-02 0. -1.
        1   -1    0    0  501    0  0.00000000000E+00  0.00000000000E+00 -0.92180780675E+03  0.92180780676E+03  0.50400001928E-02 0.  1.
    10030    2    1    2    0    0  0.00000000000E+00  0.00000000000E+00  0.45254296121E+03  0.22961585747E+04  0.22511217356E+04 0.  0.
        3    1    3    3  502    0  0.18036845041E+03 -0.63435397108E+03 -0.70408927675E+03  0.96471729453E+03  0.10100000352E+00 0.  1.
       -3    1    3    3    0  502 -0.18036845041E+03  0.63435397108E+03  0.11566322380E+04  0.13314412802E+04  0.10100000352E+00 0. -1.
</event>
<event>
 5   0  0.2615843E-05  0.2726372E+04  0.7818609E-02  0.8326498E-01
        2   -1    0    0  501    0  0.00000000000E+00  0.00000000000E+00  0.23086926870E+04  0.23086926870E+04  0.25500000920E-02 0. -1.
       -2   -1    0    0    0  501  0.00000000000E+00  0.00000000000E+00 -0.80490420160E+03  0.80490420160E+03  0.25500000920E-02 0.  1.
    10030    2    1    2    0    0  0.00000000000E+00  0.00000000000E+00  0.15037884854E+04  0.31135968886E+04  0.27263722739E+04 0.  0.
        3    1    3    3  502    0  0.99111347923E+03  0.84675145971E+03  0.12072510662E+04  0.17767242640E+04  0.10100000352E+00 0.  1.
       -3    1    3    3    0  502 -0.99111347923E+03 -0.84675145971E+03  0.29653741922E+03  0.13368726246E+04  0.10100000352E+00 0. -1.
</event>
<event>
 5   0  0.1041909E-05  0.2612332E+04  0.7818609E-02  0.8364024E-01
        1   -1    0    0  501    0  0.00000000000E+00  0.00000000000E+00  0.14159708040E+04  0.14159708040E+04  0.50400001928E-02 0. -1.
       -1   -1    0    0    0  501  0.00000000000E+00  0.00000000000E+00 -0.12048767043E+04  0.12048767043E+04  0.50400001928E-02 0.  1.
    10030    2    1    2    0    0  0.00000000000E+00  0.00000000000E+00  0.21109409968E+03  0.26208475083E+04  0.26123324718E+04 0.  0.
        5    1    3    3  502    0  0.43422321336E+03 -0.35398074908E+03 -0.10782124871E+04  0.12150787740E+04  0.46999998093E+01 0.  1.
       -5    1    3    3    0  502 -0.43422321336E+03  0.35398074908E+03  0.12893065868E+04  0.14057687343E+04  0.46999998093E+01 0. -1.
</event>
<event>
 5   0  0.2540232E-05  0.1664266E+04  0.7818609E-02  0.8782012E-01
       -2   -1    0    0    0  501  0.00000000000E+00  0.00000000000E+00  0.16816421442E+04  0.16816421442E+04  0.25500000920E-02 0. -1.
        2   -1    0    0  501    0  0.00000000000E+00  0.00000000000E+00 -0.41176715125E+03  0.41176715125E+03  0.25500000920E-02 0.  1.
    10030    2    1    2    0    0  0.00000000000E+00  0.00000000000E+00  0.12698749929E+04  0.20934092954E+04  0.16642655979E+04 0.  0.
        1    1    3    3  502    0  0.49236760008E+03  0.38905154403E+03 -0.52476888212E+02  0.62971484128E+03  0.50400001928E-02 0.  1.
       -1    1    3    3    0  502 -0.49236760008E+03 -0.38905154403E+03  0.13223518811E+04  0.14636944541E+04  0.50400001928E-02 0. -1.
</event>
<event>
 5   0  0.2615843E-05  0.2735812E+04  0.7818609E-02  0.8323478E-01
       -2   -1    0    0    0  501  0.00000000000E+00  0.00000000000E+00  0.10006607547E+04  0.10006607547E+04  0.25500000920E-02 0. -1.
        2   -1    0    0  501    0  0.00000000000E+00  0.00000000000E+00 -0.18699318172E+04  0.18699318172E+04  0.25500000920E-02 0.  1.
    10030    2    1    2    0    0  0.00000000000E+00  0.00000000000E+00 -0.86927106248E+03  0.28705925719E+04  0.27358124083E+04 0.  0.
        3    1    3    3  502    0  0.43280682347E+03  0.87844992832E+03  0.56749306602E+03  0.11318323256E+04  0.10100000352E+00 0. -1.
       -3    1    3    3    0  502 -0.43280682347E+03 -0.87844992832E+03 -0.14367641285E+04  0.17387602463E+04  0.10100000352E+00 0.  1.
</event>
<event>
 5   0  0.8740500E-06  0.2668463E+04  0.7818609E-02  0.8345311E-01
       -3   -1    0    0    0  501  0.00000000000E+00  0.00000000000E+00  0.12786949438E+04  0.12786949478E+04  0.10100000352E+00 0. -1.
        3   -1    0    0  501    0  0.00000000000E+00  0.00000000000E+00 -0.13921801255E+04  0.13921801292E+04  0.10100000352E+00 0.  1.
    10030    2    1    2    0    0  0.00000000000E+00  0.00000000000E+00 -0.11348518170E+03  0.26708750769E+04  0.26684630014E+04 0.  0.
        2    1    3    3  502    0 -0.69822531575E+03  0.11365593181E+04 -0.86569232264E+02  0.13367048691E+04  0.25500000920E-02 0.  1.
       -2    1    3    3    0  502  0.69822531575E+03 -0.11365593181E+04 -0.26915949441E+02  0.13341702078E+04  0.25500000920E-02 0. -1.
</event>
<event>
 5   0  0.1036691E-05  0.2769257E+04  0.7818609E-02  0.8312877E-01
       -1   -1    0    0    0  501  0.00000000000E+00  0.00000000000E+00  0.15779701829E+04  0.15779701829E+04  0.50400001928E-02 0. -1.
        1   -1    0    0  501    0  0.00000000000E+00  0.00000000000E+00 -0.12149757644E+04  0.12149757644E+04  0.50400001928E-02 0.  1.
    10030    2    1    2    0    0  0.00000000000E+00  0.00000000000E+00  0.36299441850E+03  0.27929459474E+04  0.27692566001E+04 0.  0.
        4    1    3    3  502    0  0.17538786548E+03 -0.13733385408E+04  0.16198577450E+03  0.13939371058E+04  0.12699999809E+01 0. -1.
       -4    1    3    3    0  502 -0.17538786548E+03  0.13733385408E+04  0.20100864400E+03  0.13990088416E+04  0.12699999809E+01 0.  1.
</event>
<event>
 5   0  0.9971923E-06  0.2822856E+04  0.7818609E-02  0.8296208E-01
       -1   -1    0    0    0  501  0.00000000000E+00  0.00000000000E+00  0.11543249275E+04  0.11543249276E+04  0.50400001928E-02 0.  1.
        1   -1    0    0  501    0  0.00000000000E+00  0.00000000000E+00 -0.17257953578E+04  0.17257953578E+04  0.50400001928E-02 0. -1.
    10030    2    1    2    0    0  0.00000000000E+00  0.00000000000E+00 -0.57147043022E+03  0.28801202853E+04  0.28228557181E+04 0.  0.
        2    1    3    3  502    0  0.88672750838E+03 -0.55830470901E+03 -0.12505065923E+04  0.16314890621E+04  0.25500000920E-02 0. -1.
       -2    1    3    3    0  502 -0.88672750838E+03  0.55830470901E+03  0.67903616211E+03  0.12486312233E+04  0.25500000920E-02 0.  1.
</event>
<event>
 5   0  0.2516518E-05  0.2683632E+04  0.7818609E-02  0.8340336E-01
       -2   -1    0    0    0  501  0.00000000000E+00  0.00000000000E+00  0.18203970350E+04  0.18203970350E+04  0.25500000920E-02 0. -1.
        2   -1    0    0  501    0  0.00000000000E+00  0.00000000000E+00 -0.98905328331E+03  0.98905328331E+03  0.25500000920E-02 0.  1.
    10030    2    1    2    0    0  0.00000000000E+00  0.00000000000E+00  0.83134375173E+03  0.28094503184E+04  0.26836316174E+04 0.  0.
        4    1    3    3  502    0 -0.57942799889E+03 -0.33934775463E+03 -0.80050534256E+03  0.10448464580E+04  0.12699999809E+01 0.  1.
       -4    1    3    3    0  502  0.57942799889E+03  0.33934775463E+03  0.16318490943E+04  0.17646038603E+04  0.12699999809E+01 0. -1.
</event>
<event>
 5   0  0.2540232E-05  0.1898044E+04  0.7818609E-02  0.8655830E-01
       -2   -1    0    0    0  501  0.00000000000E+00  0.00000000000E+00  0.36300087633E+03  0.36300087634E+03  0.25500000920E-02 0.  1.
        2   -1    0    0  501    0  0.00000000000E+00  0.00000000000E+00 -0.24811042609E+04  0.24811042609E+04  0.25500000920E-02 0. -1.
    10030    2    1    2    0    0  0.00000000000E+00  0.00000000000E+00 -0.21181033846E+04  0.28441051372E+04  0.18980442787E+04 0.  0.
        1    1    3    3  502    0 -0.21591692227E+03  0.32922233244E+03  0.23485396826E+03  0.45843630739E+03  0.50400001928E-02 0.  1.
       -1    1    3    3    0  502  0.21591692227E+03 -0.32922233244E+03 -0.23529573528E+04  0.23856688298E+04  0.50400001928E-02 0. -1.
</event>
<event>
 5   0  0.1096672E-05  0.2604336E+04  0.7818609E-02  0.8366730E-01
        1   -1    0    0  501    0  0.00000000000E+00  0.00000000000E+00  0.18173017407E+04  0.18173017407E+04  0.50400001928E-02 0.  1.
       -1   -1    0    0    0  501  0.00000000000E+00  0.00000000000E+00 -0.93305417385E+03  0.93305417387E+03  0.50400001928E-02 0. -1.
    10030    2    1    2    0    0  0.00000000000E+00  0.00000000000E+00  0.88424756682E+03  0.27503559145E+04  0.26043355961E+04 0.  0.
        1    1    3    3  502    0 -0.31185250034E+03  0.51210840906E+03 -0.77859872929E+03  0.98271205644E+03  0.50400001928E-02 0. -1.
       -1    1    3    3    0  502  0.31185250034E+03 -0.51210840906E+03  0.16628462961E+04  0.17676438581E+04  0.50400001928E-02 0.  1.
</event>
<event>
 5   0  0.2641216E-05  0.2643158E+04  0.7818609E-02  0.8353687E-01
        2   -1    0    0  501    0  0.00000000000E+00  0.00000000000E+00  0.11215731912E+04  0.11215731912E+04  0.25500000920E-02 0.  1.
       -2   -1    0    0    0  501  0.00000000000E+00  0.00000000000E+00 -0.15572512817E+04  0.15572512817E+04  0.25500000920E-02 0. -1.
    10030    2    1    2    0    0  0.00000000000E+00  0.00000000000E+00 -0.43567809042E+03  0.26788244729E+04  0.26431581788E+04 0.  0.
        5    1    3    3  502    0 -0.59153971099E+03  0.92963164450E+03 -0.95735276395E+03  0.14596851129E+04  0.46999998093E+01 0.  1.
       -5    1    3    3    0  502  0.59153971099E+03 -0.92963164450E+03  0.52167467354E+03  0.12191393600E+04  0.46999998093E+01 0. -1.
</event>
<event>
 5   0  0.1036691E-05  0.2646231E+04  0.7818609E-02  0.8352665E-01
        1   -1    0    0  501    0  0.00000000000E+00  0.00000000000E+00  0.17969872870E+04  0.17969872870E+04  0.50400001928E-02 0.  1.
       -1   -1    0    0    0  501  0.00000000000E+00  0.00000000000E+00 -0.97420527407E+03  0.97420527408E+03  0.50400001928E-02 0. -1.
    10030    2    1    2    0    0  0.00000000000E+00  0.00000000000E+00  0.82278201293E+03  0.27711925611E+04  0.26462308988E+04 0.  0.
        4    1    3    3  502    0  0.10407437761E+04  0.53849806023E+03  0.10548196440E+04  0.15766337122E+04  0.12699999809E+01 0.  1.
       -4    1    3    3    0  502 -0.10407437761E+04 -0.53849806023E+03 -0.23203763103E+03  0.11945588489E+04  0.12699999809E+01 0. -1.
</event>
<event>
 5   0  0.1005265E-05  0.2713638E+04  0.7818609E-02  0.8330594E-01
       -1   -1    0    0    0  501  0.00000000000E+00  0.00000000000E+00  0.93357193029E+03  0.93357193030E+03  0.50400001928E-02 0.  1.
        1   -1    0    0  501    0  0.00000000000E+00  0.00000000000E+00 -0.19719503085E+04  0.19719503085E+04  0.50400001928E-02 0. -1.
    10030    2    1    2    0    0  0.00000000000E+00  0.00000000000E+00 -0.10383783782E+04  0.29055222388E+04  0.27136377474E+04 0.  0.
        3    1    3    3  502    0  0.12405317781E+02 -0.67090948395E+03  0.74347122194E+03  0.10015103073E+04  0.10100000352E+00 0.  1.
       -3    1    3    3    0  502 -0.12405317781E+02  0.67090948395E+03 -0.17818496002E+04  0.19040119315E+04  0.10100000352E+00 0. -1.
</event>
<event>
 5   0  0.9971923E-06  0.2703689E+04  0.7818609E-02  0.8333809E-01
        1   -1    0    0  501    0  0.00000000000E+00  0.00000000000E+00  0.23206024661E+04  0.23206024662E+04  0.50400001928E-02 0. -1.
       -1   -1    0    0    0  501  0.00000000000E+00  0.00000000000E+00 -0.78750408296E+03  0.78750408297E+03  0.50400001928E-02 0.  1.
    10030    2    1    2    0    0  0.00000000000E+00  0.00000000000E+00  0.15330983832E+04  0.31081065491E+04  0.27036892699E+04 0.  0.
        2    1    3    3  502    0  0.11289665063E+04 -0.29448854090E+03  0.15514647672E+04  0.19412191522E+04  0.25500000920E-02 0. -1.
       -2    1    3    3    0  502 -0.11289665063E+04  0.29448854090E+03 -0.18366383966E+02  0.11668873969E+04  0.25500000920E-02 0.  1.
</event>
<event>
 5   0  0.2516518E-05  0.2705807E+04  0.7818609E-02  0.8333123E-01
       -2   -1    0    0    0  501  0.00000000000E+00  0.00000000000E+00  0.13884533153E+04  0.13884533153E+04  0.25500000920E-02 0. -1.
        2   -1    0    0  501    0  0.00000000000E+00  0.00000000000E+00 -0.13182643336E+04  0.13182643336E+04  0.25500000920E-02 0.  1.
    10030    2    1    2    0    0  0.00000000000E+00  0.00000000000E+00  0.70188981693E+02  0.27067176488E+04  0.27058074465E+04 0.  0.
        4    1    3    3  502    0  0.11940807098E+04  0.65355395352E+02 -0.59776894183E+03  0.13369477887E+04  0.12699999809E+01 0.  1.
       -4    1    3    3    0  502 -0.11940807098E+04 -0.65355395352E+02  0.66795792352E+03  0.13697698601E+04  0.12699999809E+01 0. -1.
</event>
<event>
 5   0  0.1096672E-05  0.1907891E+04  0.7818609E-02  0.8650938E-01
        1   -1    0    0  501    0  0.00000000000E+00  0.00000000000E+00  0.18406255259E+04  0.18406255259E+04  0.50400001928E-02 0.  1.
       -1   -1    0    0    0  501  0.00000000000E+00  0.00000000000E+00 -0.49440391009E+03  0.49440391012E+03  0.50400001928E-02 0. -1.
    10030    2    1    2    0    0  0.00000000000E+00  0.00000000000E+00  0.13462216158E+04  0.23350294360E+04  0.19078914613E+04 0.  0.
        1    1    3    3  502    0  0.36138468771E+03 -0.74950937644E+03  0.12440860693E+04  0.14967008204E+04  0.50400001928E-02 0.  1.
       -1    1    3    3    0  502 -0.36138468771E+03  0.74950937644E+03  0.10213554649E+03  0.83832861562E+03  0.50400001928E-02 0. -1.
</event>
<event>
 5   0  0.1005265E-05  0.2715073E+04  0.7818609E-02  0.8330131E-01
       -1   -1    0    0    0  501  0.00000000000E+00  0.00000000000E+00  0.16959464043E+04  0.16959464044E+04  0.50400001928E-02 0.  1.
        1   -1    0    0  501    0  0.00000000000E+00  0.00000000000E+00 -0.10866527710E+04  0.10866527710E+04  0.50400001928E-02 0. -1.
    10030    2    1    2    0    0  0.00000000000E+00  0.00000000000E+00  0.60929363332E+03  0.27825991754E+04  0.27150726398E+04 0.  0.
        3    1    3    3  502    0 -0.17205939750E+03  0.11985536054E+04  0.93372868110E+03  0.15290469062E+04  0.10100000352E+00 0.  1.
       -3    1    3    3    0  502  0.17205939750E+03 -0.11985536054E+04 -0.32443504778E+03  0.12535522692E+04  0.10100000352E+00 0. -1.
</event>
<event>
 5   0  0.2540684E-05  0.2693927E+04  0.7818609E-02  0.8336978E-01
        2   -1    0    0  501    0  0.00000000000E+00  0.00000000000E+00  0.19630020806E+04  0.19630020806E+04  0.25500000920E-02 0. -1.
       -2   -1    0    0    0  501  0.00000000000E+00  0.00000000000E+00 -0.92425298120E+03  0.92425298120E+03  0.25500000920E-02 0.  1.
    10030    2    1    2    0    0  0.00000000000E+00  0.00000000000E+00  0.10387490994E+04  0.28872550618E+04  0.26939268922E+04 0.  0.
        2    1    3    3  502    0  0.61912802984E+03  0.89600434232E+03  0.13688229108E+04  0.17492339637E+04  0.25500000920E-02 0. -1.
       -2    1    3    3    0  502 -0.61912802984E+03 -0.89600434232E+03 -0.33007381135E+03  0.11380210981E+04  0.25500000920E-02 0.  1.
</event>
<event>
 5   0  0.2516518E-05  0.2684874E+04  0.7818609E-02  0.8339930E-01
       -2   -1    0    0    0  501  0.00000000000E+00  0.00000000000E+00  0.12356350524E+04  0.12356350524E+04  0.25500000920E-02 0. -1.
        2   -1    0    0  501    0  0.00000000000E+00  0.00000000000E+00 -0.14584703103E+04  0.14584703103E+04  0.25500000920E-02 0.  1.
    10030    2    1    2    0    0  0.00000000000E+00  0.00000000000E+00 -0.22283525785E+03  0.26941053627E+04  0.26848739548E+04 0.  0.
        4    1    3    3  502    0  0.45932547918E+03 -0.78005025872E+03 -0.11061267433E+04  0.14293272149E+04  0.12699999809E+01 0.  1.
       -4    1    3    3    0  502 -0.45932547918E+03  0.78005025872E+03  0.88329148546E+03  0.12647781478E+04  0.12699999809E+01 0. -1.
</event>
<event>
 5   0  0.1041909E-05  0.1669138E+04  0.7818609E-02  0.8779165E-01
        1   -1    0    0  501    0  0.00000000000E+00  0.00000000000E+00  0.26288606012E+04  0.26288606012E+04  0.50400001928E-02 0.  1.
       -1   -1    0    0    0  501  0.00000000000E+00  0.00000000000E+00 -0.26494571315E+03  0.26494571320E+03  0.50400001928E-02 0. -1.
    10030    2    1    2    0    0  0.00000000000E+00  0.00000000000E+00  0.23639148881E+04  0.28938063144E+04  0.16691379174E+04 0.  0.
        5    1    3    3  502    0 -0.35825892349E+03 -0.11304025922E+03 -0.11004356826E+03  0.39148337561E+03  0.46999998093E+01 0. -1.
       -5    1    3    3    0  502  0.35825892349E+03  0.11304025922E+03  0.24739584563E+04  0.25023229388E+04  0.46999998093E+01 0.  1.
</event>
<event>
 5   0  0.2516518E-05  0.2705393E+04  0.7818609E-02  0.8333257E-01
        2   -1    0    0  501    0  0.00000000000E+00  0.00000000000E+00  0.19052729893E+04  0.19052729893E+04  0.25500000920E-02 0. -1.
       -2   -1    0    0    0  501  0.00000000000E+00  0.00000000000E+00 -0.96038088681E+03  0.96038088681E+03  0.25500000920E-02 0.  1.
    10030    2    1    2    0    0  0.00000000000E+00  0.00000000000E+00  0.94489210248E+03  0.28656538761E+04  0.27053929571E+04 0.  0.
        4    1    3    3  502    0 -0.11088217367E+04 -0.66420328641E+03  0.49898536734E+02  0.12935003387E+04  0.12699999809E+01 0.  1.
       -4    1    3    3    0  502  0.11088217367E+04  0.66420328641E+03  0.89499356575E+03  0.15721535374E+04  0.12699999809E+01 0. -1.
</event>
<event>
 5   0  0.9971923E-06  0.2701777E+04  0.7818609E-02  0.8334429E-01
       -1   -1    0    0    0  501  0.00000000000E+00  0.00000000000E+00  0.12652975654E+04  0.12652975654E+04  0.50400001928E-02 0.  1.
        1   -1    0    0  501    0  0.00000000000E+00  0.00000000000E+00 -0.14422691127E+04  0.14422691127E+04  0.50400001928E-02 0. -1.
    10030    2    1    2    0    0  0.00000000000E+00  0.00000000000E+00 -0.17697154727E+03  0.27075666781E+04  0.27017768945E+04 0.  0.
        2    1    3    3  502    0  0.12565615178E+04  0.92797696102E+01  0.40842621616E+03  0.13213042557E+04  0.25500000920E-02 0.  1.
       -2    1    3    3    0  502 -0.12565615178E+04 -0.92797696102E+01 -0.58539776344E+03  0.13862624223E+04  0.25500000920E-02 0. -1.
</event>
<event>
 5   0  0.2641216E-05  0.2692428E+04  0.7818609E-02  0.8337466E-01
       -2   -1    0    0    0  501  0.00000000000E+00  0.00000000000E+00  0.90778184007E+03  0.90778184008E+03  0.25500000920E-02 0. -1.
        2   -1    0    0  501    0  0.00000000000E+00  0.00000000000E+00 -0.19963965538E+04  0.19963965538E+04  0.25500000920E-02 0.  1.
    10030    2    1    2    0    0  0.00000000000E+00  0.00000000000E+00 -0.10886147137E+04  0.29041783939E+04  0.26924282996E+04 0.  0.
        5    1    3    3  502    0 -0.62669435126E+03  0.26805189858E+03  0.70788594880E+03  0.98271167528E+03  0.46999998093E+01 0. -1.
       -5    1    3    3    0  502  0.62669435126E+03 -0.26805189858E+03 -0.17965006625E+04  0.19214667186E+04  0.46999998093E+01 0.  1.
</event>
<event>
 5   0  0.1036691E-05  0.2645746E+04  0.7818609E-02  0.8352826E-01
       -1   -1    0    0    0  501  0.00000000000E+00  0.00000000000E+00  0.10497353020E+04  0.10497353020E+04  0.50400001928E-02 0.  1.
        1   -1    0    0  501    0  0.00000000000E+00  0.00000000000E+00 -0.16670804482E+04  0.16670804482E+04  0.50400001928E-02 0. -1.
    10030    2    1    2    0    0  0.00000000000E+00  0.00000000000E+00 -0.61734514620E+03  0.27168157502E+04  0.26457461691E+04 0.  0.
        4    1    3    3  502    0  0.57584642840E+03  0.11680584135E+04 -0.69980714494E+02  0.13041696514E+04  0.12699999809E+01 0.  1.
       -4    1    3    3    0  502 -0.57584642840E+03 -0.11680584135E+04 -0.54736443171E+03  0.14126460988E+04  0.12699999809E+01 0. -1.
</event>
<event>
 5   0  0.2615843E-05  0.2641738E+04  0.7818609E-02  0.8354161E-01
        2   -1    0    0  501    0  0.00000000000E+00  0.00000000000E+00  0.96561811517E+03  0.96561811517E+03  0.25500000920E-02 0.  1.
       -2   -1    0    0    0  501  0.00000000000E+00  0.00000000000E+00 -0.18068160545E+04  0.18068160545E+04  0.25500000920E-02 0. -1.
    10030    2    1    2    0    0  0.00000000000E+00  0.00000000000E+00 -0.84119793934E+03  0.27724341697E+04  0.26417375441E+04 0.  0.
        3    1    3    3  502    0 -0.93197136559E+03 -0.62750173112E+03 -0.11494849264E+04  0.16073719716E+04  0.10100000352E+00 0. -1.
       -3    1    3    3    0  502  0.93197136559E+03  0.62750173112E+03  0.30828698705E+03  0.11650621981E+04  0.10100000352E+00 0.  1.
</event>
<event>
 5   0  0.8740500E-06  0.1999364E+04  0.7818609E-02  0.8606918E-01
       -4   -1    0    0    0  501  0.00000000000E+00  0.00000000000E+00  0.80178886499E+03  0.80178987080E+03  0.12699999809E+01 0. -1.
        4   -1    0    0  501    0  0.00000000000E+00  0.00000000000E+00 -0.12464160111E+04  0.12464166581E+04  0.12699999809E+01 0.  1.
    10030    2    1    2    0    0  0.00000000000E+00  0.00000000000E+00 -0.44462714613E+03  0.20482065289E+04  0.19993640704E+04 0.  0.
        5    1    3    3  502    0 -0.96244695807E+03  0.15164063103E+03 -0.45148146155E+03  0.10738513064E+04  0.46999998093E+01 0.  1.
       -5    1    3    3    0  502  0.96244695807E+03 -0.15164063103E+03  0.68543154195E+01  0.97435522256E+03  0.46999998093E+01 0. -1.
</event>
<event>
 5   0  0.2540684E-05  0.3367732E+04  0.7818609E-02  0.8145872E-01
        2   -1    0    0  501    0  0.00000000000E+00  0.00000000000E+00  0.23632259519E+04  0.23632259519E+04  0.25500000920E-02 0.  1.
       -2   -1    0    0    0  501  0.00000000000E+00  0.00000000000E+00 -0.11998026022E+04  0.11998026022E+04  0.25500000920E-02 0. -1.
    10030    2    1    2    0    0  0.00000000000E+00  0.00000000000E+00  0.11634233497E+04  0.35630285541E+04  0.33677319648E+04 0.  0.
        2    1    3    3  502    0  0.45608169282E+03 -0.93398918027E+03  0.19833228883E+04  0.22391775228E+04  0.25500000920E-02 0.  1.
       -2    1    3    3    0  502 -0.45608169282E+03  0.93398918027E+03 -0.81989953866E+03  0.13238510312E+04  0.25500000920E-02 0. -1.
</event>
<event>
 5   0  0.8740500E-06  0.2627547E+04  0.7818609E-02  0.8358904E-01
        3   -1    0    0  501    0  0.00000000000E+00  0.00000000000E+00  0.80006728502E+03  0.80006729139E+03  0.10100000352E+00 0. -1.
       -3   -1    0    0    0  501  0.00000000000E+00  0.00000000000E+00 -0.21573198601E+04  0.21573198625E+04  0.10100000352E+00 0.  1.
    10030    2    1    2    0    0  0.00000000000E+00  0.00000000000E+00 -0.13572525751E+04  0.29573871539E+04  0.26275471880E+04 0.  0.
        1    1    3    3  502    0 -0.11416912216E+04 -0.33837536464E+02  0.52013800694E+02  0.11433762547E+04  0.50400001928E-02 0. -1.
       -1    1    3    3    0  502  0.11416912216E+04  0.33837536464E+02 -0.14092663758E+04  0.18140108992E+04  0.50400001928E-02 0.  1.
</event>
<event>
 5   0  0.2516518E-05  0.2699023E+04  0.7818609E-02  0.8335322E-01
        2   -1    0    0  501    0  0.00000000000E+00  0.00000000000E+00  0.11525727323E+04  0.11525727323E+04  0.25500000920E-02 0. -1.
       -2   -1    0    0    0  501  0.00000000000E+00  0.00000000000E+00 -0.15801010380E+04  0.15801010380E+04  0.25500000920E-02 0.  1.
    10030    2    1    2    0    0  0.00000000000E+00  0.00000000000E+00 -0.42752830576E+03  0.27326737703E+04  0.26990230608E+04 0.  0.
        4    1    3    3  502    0 -0.61503449117E+03 -0.79985546570E+02  0.99972590329E+03  0.11764857022E+04  0.12699999809E+01 0. -1.
       -4    1    3    3    0  502  0.61503449117E+03  0.79985546570E+02 -0.14272542090E+04  0.15561880680E+04  0.12699999809E+01 0.  1.
</event>
<event>
 5   0  0.2641216E-05  0.2509978E+04  0.7818609E-02  0.8399440E-01
       -2   -1    0    0    0  501  0.00000000000E+00  0.00000000000E+00  0.13486020318E+04  0.13486020318E+04  0.25500000920E-02 0. -1.
        2   -1    0    0  501    0  0.00000000000E+00  0.00000000000E+00 -0.11678738494E+04  0.11678738494E+04  0.25500000920E-02 0.  1.
    10030    2    1    2    0    0  0.00000000000E+00  0.00000000000E+00  0.18072818235E+03  0.25164758812E+04  0.25099777260E+04 0.  0.
        5    1    3    3  502    0 -0.10723069484E+04 -0.17060884771E+02  0.74385036399E+03  0.13051699963E+04  0.46999998093E+01 0. -1.
       -5    1    3    3    0  502  0.10723069484E+04  0.17060884771E+02 -0.56312218164E+03  0.12113058849E+04  0.46999998093E+01 0.  1.
</event>
<event>
 5   0  0.1036691E-05  0.2772530E+04  0.7818609E-02  0.8311848E-01
        1   -1    0    0  501    0  0.00000000000E+00  0.00000000000E+00  0.14134350623E+04  0.14134350623E+04  0.50400001928E-02 0.  1.
       -1   -1    0    0    0  501  0.00000000000E+00  0.00000000000E+00 -0.13596168395E+04  0.13596168395E+04  0.50400001928E-02 0. -1.
    10030    2    1    2    0    0  0.00000000000E+00  0.00000000000E+00  0.53818222723E+02  0.27730519018E+04  0.27725296119E+04 0.  0.
        4    1    3    3  502    0  0.40500618835E+03 -0.92279260183E+03  0.97900875708E+03  0.14050038996E+04  0.12699999809E+01 0.  1.
       -4    1    3    3    0  502 -0.40500618835E+03  0.92279260183E+03 -0.92519053435E+03  0.13680480022E+04  0.12699999809E+01 0. -1.
</event>
<event>
 5   0  0.9971923E-06  0.2706669E+04  0.7818609E-02  0.8332844E-01
        1   -1    0    0  501    0  0.00000000000E+00  0.00000000000E+00  0.20340754971E+04  0.20340754971E+04  0.50400001928E-02 0.  1.
       -1   -1    0    0    0  501  0.00000000000E+00  0.00000000000E+00 -0.90041633478E+03  0.90041633479E+03  0.50400001928E-02 0. -1.
    10030    2    1    2    0    0  0.00000000000E+00  0.00000000000E+00  0.11336591624E+04  0.29344918319E+04  0.27066693953E+04 0.  0.
        2    1    3    3  502    0  0.84602607415E+02  0.13226170338E+04  0.26983528305E+03  0.13525104433E+04  0.25500000920E-02 0.  1.
       -2    1    3    3    0  502 -0.84602607415E+02 -0.13226170338E+04  0.86382387931E+03  0.15819813886E+04  0.25500000920E-02 0. -1.
</event>
<event>
 5   0  0.2641216E-05  0.2200984E+04  0.7818609E-02  0.8518018E-01
       -2   -1    0    0    0  501  0.00000000000E+00  0.00000000000E+00  0.60121443345E+03  0.60121443346E+03  0.25500000920E-02 0. -1.
        2   -1    0    0  501    0  0.00000000000E+00  0.00000000000E+00 -0.20143946165E+04  0.20143946165E+04  0.25500000920E-02 0.  1.
    10030    2    1    2    0    0  0.00000000000E+00  0.00000000000E+00 -0.14131801831E+04  0.26156090500E+04  0.22009844326E+04 0.  0.
        5    1    3    3  502    0  0.18214602244E+03 -0.69046749724E+03 -0.17016695588E+04  0.18454332596E+04  0.46999998093E+01 0.  1.
       -5    1    3    3    0  502 -0.18214602244E+03  0.69046749724E+03  0.28848937572E+03  0.77017579041E+03  0.46999998093E+01 0. -1.
</event>
<event>
 5   0  0.1005265E-05  0.2621486E+04  0.7818609E-02  0.8360939E-01
       -1   -1    0    0    0  501  0.00000000000E+00  0.00000000000E+00  0.99619174899E+03  0.99619174900E+03  0.50400001928E-02 0. -1.
        1   -1    0    0  501    0  0.00000000000E+00  0.00000000000E+00 -0.17246153638E+04  0.17246153638E+04  0.50400001928E-02 0.  1.
    10030    2    1    2    0    0  0.00000000000E+00  0.00000000000E+00 -0.72842361483E+03  0.27208071128E+04  0.26214862927E+04 0.  0.
        3    1    3    3  502    0 -0.31825165320E+03 -0.89519666924E+03 -0.13014109729E+04  0.16113136635E+04  0.10100000352E+00 0.  1.
       -3    1    3    3    0  502  0.31825165320E+03  0.89519666924E+03  0.57298735812E+03  0.11094934494E+04  0.10100000352E+00 0. -1.
</event>
<event>
 5   0  0.2540232E-05  0.1722567E+04  0.7818609E-02  0.8748597E-01
        2   -1    0    0  501    0  0.00000000000E+00  0.00000000000E+00  0.16758008250E+04  0.16758008250E+04  0.25500000920E-02 0. -1.
       -2   -1    0    0    0  501  0.00000000000E+00  0.00000000000E+00 -0.44265954755E+03  0.44265954756E+03  0.25500000920E-02 0.  1.
    10030    2    1    2    0    0  0.00000000000E+00  0.00000000000E+00  0.12331412775E+04  0.21184603726E+04  0.17225669624E+04 0.  0.
        1    1    3    3  502    0 -0.83830693526E+02  0.62748548842E+03 -0.10163562840E+03  0.64116723586E+03  0.50400001928E-02 0.  1.
       -1    1    3    3    0  502  0.83830693526E+02 -0.62748548842E+03  0.13347769059E+04  0.14772931367E+04  0.50400001928E-02 0. -1.
</event>
<event>
 5   0  0.1096672E-05  0.2654201E+04  0.7818609E-02  0.8350020E-01
       -1   -1    0    0    0  501  0.00000000000E+00  0.00000000000E+00  0.12909677953E+04  0.12909677953E+04  0.50400001928E-02 0.  1.
        1   -1    0    0  501    0  0.00000000000E+00  0.00000000000E+00 -0.13642444581E+04  0.13642444581E+04  0.50400001928E-02 0. -1.
    10030    2    1    2    0    0  0.00000000000E+00  0.00000000000E+00 -0.73276662795E+02  0.26552122533E+04  0.26542009421E+04 0.  0.
        1    1    3    3  502    0  0.91388582649E+03 -0.91196186200E+03 -0.34389363092E+03  0.13360855403E+04  0.50400001928E-02 0. -1.
       -1    1    3    3    0  502 -0.91388582649E+03  0.91196186200E+03  0.27061696812E+03  0.13191267130E+04  0.50400001928E-02 0.  1.
</event>
<event>
 5   0  0.2540232E-05  0.2561021E+04  0.7818609E-02  0.8381563E-01
        2   -1    0    0  501    0  0.00000000000E+00  0.00000000000E+00  0.19075983796E+04  0.19075983796E+04  0.25500000920E-02 0.  1.
       -2   -1    0    0    0  501  0.00000000000E+00  0.00000000000E+00 -0.85956591212E+03  0.85956591212E+03  0.25500000920E-02 0. -1.
    10030    2    1    2    0    0  0.00000000000E+00  0.00000000000E+00  0.10480324675E+04  0.27671642917E+04  0.25610205318E+04 0.  0.
        1    1    3    3  502    0  0.97173858067E+03 -0.29236355818E+03 -0.31984396845E+03  0.10639795503E+04  0.50400001928E-02 0. -1.
       -1    1    3    3    0  502 -0.97173858067E+03  0.29236355818E+03  0.13678764359E+04  0.17031847414E+04  0.50400001928E-02 0.  1.
</event>
<event>
 5   0  0.2540232E-05  0.2726280E+04  0.7818609E-02  0.8326528E-01
        2   -1    0    0  501    0  0.00000000000E+00  0.00000000000E+00  0.28091270084E+04  0.28091270084E+04  0.25500000920E-02 0.  1.
       -2   -1    0    0    0  501  0.00000000000E+00  0.00000000000E+00 -0.66146920993E+03  0.66146920993E+03  0.25500000920E-02 0. -1.
    10030    2    1    2    0    0  0.00000000000E+00  0.00000000000E+00  0.21476577984E+04  0.34705962183E+04  0.27262802665E+04 0.  0.
        1    1    3    3  502    0  0.12793793369E+04  0.47032623973E+03  0.10591608368E+04  0.17262212887E+04  0.50400001928E-02 0.  1.
       -1    1    3    3    0  502 -0.12793793369E+04 -0.47032623973E+03  0.10884969616E+04  0.17443749296E+04  0.50400001928E-02 0. -1.
</event>
<event>
 5   0  0.2641216E-05  0.2677938E+04  0.7818609E-02  0.8342199E-01
        2   -1    0    0  501    0  0.00000000000E+00  0.00000000000E+00  0.14127293475E+04  0.14127293475E+04  0.25500000920E-02 0.  1.
       -2   -1    0    0    0  501  0.00000000000E+00  0.00000000000E+00 -0.12690593975E+04  0.12690593975E+04  0.25500000920E-02 0. -1.
    10030    2    1    2    0    0  0.00000000000E+00  0.00000000000E+00  0.14366994994E+03  0.26817887450E+04  0.26779376054E+04 0.  0.
        5    1    3    3  502    0  0.15369630562E+03 -0.81322142715E+03  0.11258997014E+04  0.13973631853E+04  0.46999998093E+01 0.  1.
       -5    1    3    3    0  502 -0.15369630562E+03  0.81322142715E+03 -0.98222975144E+03  0.12844255598E+04  0.46999998093E+01 0. -1.
</event>
<event>
 5   0  0.2615843E-05  0.2718667E+04  0.7818609E-02  0.8328974E-01
       -2   -1    0    0    0  501  0.00000000000E+00  0.00000000000E+00  0.87330439737E+03  0.87330439738E+03  0.25500000920E-02 0.  1.
        2   -1    0    0  501    0  0.00000000000E+00  0.00000000000E+00 -0.21158568095E+04  0.21158568095E+04  0.25500000920E-02 0. -1.
    10030    2    1    2    0    0  0.00000000000E+00  0.00000000000E+00 -0.12425524121E+04  0.29891612068E+04  0.27186666261E+04 0.  0.
        3    1    3    3  502    0 -0.63773981739E+03 -0.92309485973E+03  0.22252527282E+03  0.11438241569E+04  0.10100000352E+00 0.  1.
       -3    1    3    3    0  502  0.63773981739E+03  0.92309485973E+03 -0.14650776849E+04  0.18453370499E+04  0.10100000352E+00 0. -1.
</event>
<event>
 5   0  0.9971923E-06  0.2676822E+04  0.7818609E-02  0.8342565E-01
       -1   -1    0    0    0  501  0.00000000000E+00  0.00000000000E+00  0.20132495969E+04  0.20132495969E+04  0.50400001928E-02 0. -1.
        1   -1    0    0  501    0  0.00000000000E+00  0.00000000000E+00 -0.88977733547E+03  0.88977733549E+03  0.50400001928E-02 0.  1.
    10030    2    1    2    0    0  0.00000000000E+00  0.00000000000E+00  0.11234722614E+04  0.29030269324E+04  0.26768218932E+04 0.  0.
        2    1    3    3  502    0  0.98790585186E+03 -0.44004757087E+03  0.14168764814E+04  0.17824530289E+04  0.25500000920E-02 0. -1.
       -2    1    3    3    0  502 -0.98790585186E+03  0.44004757087E+03 -0.29340421999E+03  0.11205739034E+04  0.25500000920E-02 0.  1.
</event>
<event>
 5   0  0.1005265E-05  0.2736327E+04  0.7818609E-02  0.8323313E-01
       -1   -1    0    0    0  501  0.00000000000E+00  0.00000000000E+00  0.14912778435E+04  0.14912778435E+04  0.50400001928E-02 0. -1.
        1   -1    0    0  501    0  0.00000000000E+00  0.00000000000E+00 -0.12552133178E+04  0.12552133178E+04  0.50400001928E-02 0.  1.
    10030    2    1    2    0    0  0.00000000000E+00  0.00000000000E+00  0.23606452565E+03  0.27464911613E+04  0.27363273267E+04 0.  0.
        3    1    3    3  502    0  0.24712798144E+03  0.89042854965E+03  0.11307082549E+04  0.14602864134E+04  0.10100000352E+00 0. -1.
       -3    1    3    3    0  502 -0.24712798144E+03 -0.89042854965E+03 -0.89464372923E+03  0.12862047480E+04  0.10100000352E+00 0.  1.
</event>
<event>
 5   0  0.8740500E-06  0.2675515E+04  0.7818609E-02  0.8342993E-01
        3   -1    0    0  501    0  0.00000000000E+00  0.00000000000E+00  0.76880469379E+03  0.76880470043E+03  0.10100000352E+00 0. -1.
       -3   -1    0    0    0  501  0.00000000000E+00  0.00000000000E+00 -0.23277628156E+04  0.23277628178E+04  0.10100000352E+00 0.  1.
    10030    2    1    2    0    0  0.00000000000E+00  0.00000000000E+00 -0.15589581218E+04  0.30965675182E+04  0.26755148980E+04 0.  0.
        5    1    3    3  502    0 -0.13645162050E+02  0.12771902698E+04 -0.31918262924E+03  0.13165488280E+04  0.46999998093E+01 0. -1.
       -5    1    3    3    0  502  0.13645162050E+02 -0.12771902698E+04 -0.12397754926E+04  0.17800186902E+04  0.46999998093E+01 0.  1.
</event>
<event>
 5   0  0.9971923E-06  0.2017076E+04  0.7818609E-02  0.8598678E-01
       -1   -1    0    0    0  501  0.00000000000E+00  0.00000000000E+00  0.10374680656E+04  0.10374680656E+04  0.50400001928E-02 0.  1.
        1   -1    0    0  501    0  0.00000000000E+00  0.00000000000E+00 -0.98041487447E+03  0.98041487449E+03  0.50400001928E-02 0. -1.
    10030    2    1    2    0    0  0.00000000000E+00  0.00000000000E+00  0.57053191159E+02  0.20178829401E+04  0.20170762240E+04 0.  0.
        2    1    3    3  502    0 -0.38687053282E+03  0.34803937160E+03  0.89278698683E+03  0.10333773837E+04  0.25500000920E-02 0.  1.
       -2    1    3    3    0  502  0.38687053282E+03 -0.34803937160E+03 -0.83573379567E+03  0.98450555640E+03  0.25500000920E-02 0. -1.
</event>
<event>
 5   0  0.1096672E-05  0.2695765E+04  0.7818609E-02  0.8336381E-01
        1   -1    0    0  501    0  0.00000000000E+00  0.00000000000E+00  0.20490450495E+04  0.20490450495E+04  0.50400001928E-02 0. -1.
       -1   -1    0    0    0  501  0.00000000000E+00  0.00000000000E+00 -0.88665040476E+03  0.88665040478E+03  0.50400001928E-02 0.  1.
    10030    2    1    2    0    0  0.00000000000E+00  0.00000000000E+00  0.11623946448E+04  0.29356954543E+04  0.26957645465E+04 0.  0.
        1    1    3    3  502    0 -0.48525120123E+03 -0.78909659292E+03 -0.48504968857E+03  0.10456650332E+04  0.50400001928E-02 0.  1.
       -1    1    3    3    0  502  0.48525120123E+03  0.78909659292E+03  0.16474443333E+04  0.18900304211E+04  0.50400001928E-02 0. -1.
</event>
<event>
 5   0  0.2516518E-05  0.2786137E+04  0.7818609E-02  0.8307585E-01
        2   -1    0    0  501    0  0.00000000000E+00  0.00000000000E+00  0.29624746287E+04  0.29624746287E+04  0.25500000920E-02 0. -1.
       -2   -1    0    0    0  501  0.00000000000E+00  0.00000000000E+00 -0.65507367741E+03  0.65507367742E+03  0.25500000920E-02 0.  1.
    10030    2    1    2    0    0  0.00000000000E+00  0.00000000000E+00  0.23074009513E+04  0.36175483061E+04  0.27861365001E+04 0.  0.
        4    1    3    3  502    0 -0.70268765169E+03  0.63384025113E+03  0.24810760153E+04  0.26554214743E+04  0.12699999809E+01 0. -1.
       -4    1    3    3    0  502  0.70268765169E+03 -0.63384025113E+03 -0.17367506396E+03  0.96212683183E+03  0.12699999809E+01 0.  1.
</event>
<event>
 5   0  0.1005265E-05  0.2804511E+04  0.7818609E-02  0.8301869E-01
        1   -1    0    0  501    0  0.00000000000E+00  0.00000000000E+00  0.90948226816E+03  0.90948226817E+03  0.50400001928E-02 0.  1.
       -1   -1    0    0    0  501  0.00000000000E+00  0.00000000000E+00 -0.21620225181E+04  0.21620225181E+04  0.50400001928E-02 0. -1.
    10030    2    1    2    0    0  0.00000000000E+00  0.00000000000E+00 -0.12525402500E+04  0.30715047863E+04  0.28045114681E+04 0.  0.
        3    1    3    3  502    0  0.16413352410E+03 -0.13719378795E+04 -0.88813039956E+03  0.16425373590E+04  0.10100000352E+00 0. -1.
       -3    1    3    3    0  502 -0.16413352410E+03  0.13719378795E+04 -0.36440985042E+03  0.14289674273E+04  0.10100000352E+00 0.  1.
</event>
<event>
 5   0  0.2540684E-05  0.2683175E+04  0.7818609E-02  0.8340485E-01
       -2   -1    0    0    0  501  0.00000000000E+00  0.00000000000E+00  0.99498202621E+03  0.99498202621E+03  0.25500000920E-02 0. -1.
        2   -1    0    0  501    0  0.00000000000E+00  0.00000000000E+00 -0.18089341629E+04  0.18089341629E+04  0.25500000920E-02 0.  1.
    10030    2    1    2    0    0  0.00000000000E+00  0.00000000000E+00 -0.81395213671E+03  0.28039161891E+04  0.26831749691E+04 0.  0.
        2    1    3    3  502    0 -0.99796794450E+03  0.83319895961E+03 -0.75308461933E+03  0.15024303539E+04  0.25500000920E-02 0. -1.
       -2    1    3    3    0  502  0.99796794450E+03 -0.83319895961E+03 -0.60867517383E+02  0.13014858352E+04  0.25500000920E-02 0.  1.
</event>
<event>
 5   0  0.1041909E-05  0.2660236E+04  0.7818609E-02  0.8348024E-01
       -1   -1    0    0    0  501  0.00000000000E+00  0.00000000000E+00  0.85230693083E+03  0.85230693085E+03  0.50400001928E-02 0. -1.
        1   -1    0    0  501    0  0.00000000000E+00  0.00000000000E+00 -0.20757937471E+04  0.20757937471E+04  0.50400001928E-02 0.  1.
    10030    2    1    2    0    0  0.00000000000E+00  0.00000000000E+00 -0.12234868163E+04  0.29281006780E+04  0.26602356269E+04 0.  0.
        5    1    3    3  502    0  0.13241794451E+04  0.42597796590E+02 -0.48185457822E+03  0.14097771809E+04  0.46999998093E+01 0. -1.
       -5    1    3    3    0  502 -0.13241794451E+04 -0.42597796590E+02 -0.74163223806E+03  0.15183234971E+04  0.46999998093E+01 0.  1.
</event>
<event>
 5   0  0.2516518E-05  0.2589583E+04  0.7818609E-02  0.8371748E-01
       -2   -1    0    0    0  501  0.00000000000E+00  0.00000000000E+00  0.27807344476E+04  0.27807344476E+04  0.25500000920E-02 0. -1.
        2   -1    0    0  501    0  0.00000000000E+00  0.00000000000E+00 -0.60289295502E+03  0.60289295502E+03  0.25500000920E-02 0.  1.
    10030    2    1    2    0    0  0.00000000000E+00  0.00000000000E+00  0.21778414925E+04  0.33836274026E+04  0.25895831388E+04 0.  0.
        4    1    3    3  502    0  0.36959319055E+03  0.10960153710E+04  0.32856216394E+03  0.12024157054E+04  0.12699999809E+01 0.  1.
       -4    1    3    3    0  502 -0.36959319055E+03 -0.10960153710E+04  0.18492793286E+04  0.21812116972E+04  0.12699999809E+01 0. -1.
</event>
<event>
 5   0  0.2540232E-05  0.2787713E+04  0.7818609E-02  0.8307093E-01
        2   -1    0    0  501    0  0.00000000000E+00  0.00000000000E+00  0.20437499999E+04  0.20437499999E+04  0.25500000920E-02 0.  1.
       -2   -1    0    0    0  501  0.00000000000E+00  0.00000000000E+00 -0.95062338408E+03  0.95062338408E+03  0.25500000920E-02 0. -1.
    10030    2    1    2    0    0  0.00000000000E+00  0.00000000000E+00  0.10931266158E+04  0.29943733839E+04  0.27877134294E+04 0.  0.
        1    1    3    3  502    0 -0.73698670715E+02 -0.12513970495E+04 -0.10805010330E+03  0.12582133740E+04  0.50400001928E-02 0. -1.
       -1    1    3    3    0  502  0.73698670715E+02  0.12513970495E+04  0.12011767191E+04  0.17361600100E+04  0.50400001928E-02 0.  1.
</event>
<event>
 5   0  0.2540232E-05  0.2656857E+04  0.7818609E-02  0.8349140E-01
        2   -1    0    0  501    0  0.00000000000E+00  0.00000000000E+00  0.21996032619E+04  0.21996032619E+04  0.25500000920E-02 0. -1.
       -2   -1    0    0    0  501  0.00000000000E+00  0.00000000000E+00 -0.80229144670E+03  0.80229144671E+03  0.25500000920E-02 0.  1.
    10030    2    1    2    0    0  0.00000000000E+00  0.00000000000E+00  0.13973118152E+04  0.30018947086E+04  0.26568574543E+04 0.  0.
        1    1    3    3  502    0 -0.97041682720E+03  0.80639310393E+03  0.11682568629E+04  0.17195356217E+04  0.50400001928E-02 0. -1.
       -1    1    3    3    0  502  0.97041682720E+03 -0.80639310393E+03  0.22905495230E+03  0.12823590869E+04  0.50400001928E-02 0.  1.
</event>
<event>
 5   0  0.1036691E-05  0.2710659E+04  0.7818609E-02  0.8331555E-01
       -1   -1    0    0    0  501  0.00000000000E+00  0.00000000000E+00  0.69109353870E+03  0.69109353872E+03  0.50400001928E-02 0.  1.
        1   -1    0    0  501    0  0.00000000000E+00  0.00000000000E+00 -0.26579882249E+04  0.26579882249E+04  0.50400001928E-02 0. -1.
    10030    2    1    2    0    0  0.00000000000E+00  0.00000000000E+00 -0.19668946862E+04  0.33490817636E+04  0.27106593207E+04 0.  0.
        4    1    3    3  502    0  0.28811506578E+03 -0.13212765658E+04 -0.87201152437E+03  0.16090953253E+04  0.12699999809E+01 0. -1.
       -4    1    3    3    0  502 -0.28811506578E+03  0.13212765658E+04 -0.10948831618E+04  0.17399864383E+04  0.12699999809E+01 0.  1.
</event>
<event>
 5   0  0.2516518E-05  0.2693074E+04  0.7818609E-02  0.8337256E-01
       -2   -1    0    0    0  501  0.00000000000E+00  0.00000000000E+00  0.97162252612E+03  0.97162252612E+03  0.25500000920E-02 0.  1.
        2   -1    0    0  501    0  0.00000000000E+00  0.00000000000E+00 -0.18661172504E+04  0.18661172504E+04  0.25500000920E-02 0. -1.
    10030    2    1    2    0    0  0.00000000000E+00  0.00000000000E+00 -0.89449472424E+03  0.28377397765E+04  0.26930737508E+04 0.  0.
        4    1    3    3  502    0 -0.76900772979E+03 -0.69688348974E+03 -0.13513227869E+04  0.17038469339E+04  0.12699999809E+01 0.  1.
       -4    1    3    3    0  502  0.76900772979E+03  0.69688348974E+03  0.45682806268E+03  0.11338928426E+04  0.12699999809E+01 0. -1.
</event>
<event>
 5   0  0.2516518E-05  0.2695423E+04  0.7818609E-02  0.8336492E-01
       -2   -1    0    0    0  501  0.00000000000E+00  0.00000000000E+00  0.17647182721E+04  0.17647182721E+04  0.25500000920E-02 0. -1.
        2   -1    0    0  501    0  0.00000000000E+00  0.00000000000E+00 -0.10292443468E+04  0.10292443468E+04  0.25500000920E-02 0.  1.
    10030    2    1    2    0    0  0.00000000000E+00  0.00000000000E+00  0.73547392530E+03  0.27939626190E+04  0.26954230134E+04 0.  0.
        4    1    3    3  502    0 -0.76966037536E+03  0.70897712482E+03 -0.51260486101E+03  0.11652428989E+04  0.12699999809E+01 0.  1.
       -4    1    3    3    0  502  0.76966037536E+03 -0.70897712482E+03  0.12480787863E+04  0.16287197201E+04  0.12699999809E+01 0. -1.
</event>
<event>
 5   0  0.9971923E-06  0.2605538E+04  0.7818609E-02  0.8366322E-01
        1   -1    0    0  501    0  0.00000000000E+00  0.00000000000E+00  0.89066443456E+03  0.89066443457E+03  0.50400001928E-02 0. -1.
       -1   -1    0    0    0  501  0.00000000000E+00  0.00000000000E+00 -0.19055521533E+04  0.19055521533E+04  0.50400001928E-02 0.  1.
    10030    2    1    2    0    0  0.00000000000E+00  0.00000000000E+00 -0.10148877188E+04  0.27962165879E+04  0.26055383560E+04 0.  0.
        2    1    3    3  502    0  0.90964770516E+03 -0.69276098312E+03 -0.11775003427E+04  0.16413055122E+04  0.25500000920E-02 0.  1.
       -2    1    3    3    0  502 -0.90964770516E+03  0.69276098312E+03  0.16261262399E+03  0.11549110757E+04  0.25500000920E-02 0. -1.
</event>
<event>
 5   0  0.2516518E-05  0.2682235E+04  0.7818609E-02  0.8340792E-01
        2   -1    0    0  501    0  0.00000000000E+00  0.00000000000E+00  0.13656524043E+04  0.13656524043E+04  0.25500000920E-02 0.  1.
       -2   -1    0    0    0  501  0.00000000000E+00  0.00000000000E+00 -0.13170230971E+04  0.13170230971E+04  0.25500000920E-02 0. -1.
    10030    2    1    2    0    0  0.00000000000E+00  0.00000000000E+00  0.48629307147E+02  0.26826755014E+04  0.26822347094E+04 0.  0.
        4    1    3    3  502    0  0.85939008975E+03 -0.31322515575E+03  0.10052575729E+04  0.13591194669E+04  0.12699999809E+01 0.  1.
       -4    1    3    3    0  502 -0.85939008975E+03  0.31322515575E+03 -0.95662826580E+03  0.13235560345E+04  0.12699999809E+01 0. -1.
</event>
<event>
 5   0  0.1041909E-05  0.2655041E+04  0.7818609E-02  0.8349742E-01
       -1   -1    0    0    0  501  0.00000000000E+00  0.00000000000E+00  0.95890857386E+03  0.95890857388E+03  0.50400001928E-02 0.  1.
        1   -1    0    0  501    0  0.00000000000E+00  0.00000000000E+00 -0.18378297961E+04  0.18378297961E+04  0.50400001928E-02 0. -1.
    10030    2    1    2    0    0  0.00000000000E+00  0.00000000000E+00 -0.87892122219E+03  0.27967383699E+04  0.26550410534E+04 0.  0.
        5    1    3    3  502    0 -0.12981165524E+04 -0.25320522257E+03 -0.55988236314E+03  0.14362137094E+04  0.46999998093E+01 0. -1.
       -5    1    3    3    0  502  0.12981165524E+04  0.25320522257E+03 -0.31903885905E+03  0.13605246606E+04  0.46999998093E+01 0.  1.
</event>
<event>
 5   0  0.1041909E-05  0.2695812E+04  0.7818609E-02  0.8336365E-01
       -1   -1    0    0    0  501  0.00000000000E+00  0.00000000000E+00  0.11245756280E+04  0.11245756280E+04  0.50400001928E-02 0.  1.
        1   -1    0    0  501    0  0.00000000000E+00  0.00000000000E+00 -0.16155878424E+04  0.16155878424E+04  0.50400001928E-02 0. -1.
    10030    2    1    2    0    0  0.00000000000E+00  0.00000000000E+00 -0.49101221442E+03  0.27401634704E+04  0.26958120947E+04 0.  0.
        5    1    3    3  502    0 -0.13439076639E+04  0.10363655127E+03 -0.24604258265E+03  0.13701778667E+04  0.46999998093E+01 0. -1.
       -5    1    3    3    0  502  0.13439076639E+04 -0.10363655127E+03 -0.24496963178E+03  0.13699856037E+04  0.46999998093E+01 0.  1.
</event>
<event>
 5   0  0.1041909E-05  0.2725339E+04  0.7818609E-02  0.8326830E-01
        1   -1    0    0  501    0  0.00000000000E+00  0.00000000000E+00  0.10581703387E+04  0.10581703387E+04  0.50400001928E-02 0.  1.
       -1   -1    0    0    0  501  0.00000000000E+00  0.00000000000E+00 -0.17547913681E+04  0.17547913681E+04  0.50400001928E-02 0. -1.
    10030    2    1    2    0    0  0.00000000000E+00  0.00000000000E+00 -0.69662102944E+03  0.28129617068E+04  0.27253390074E+04 0.  0.
        5    1    3    3  502    0  0.93488765468E+02  0.29914742348E+03 -0.17170755137E+04  0.17454511566E+04  0.46999998093E+01 0. -1.
       -5    1    3    3    0  502 -0.93488765468E+02 -0.29914742348E+03  0.10204544843E+04  0.10675105502E+04  0.46999998093E+01 0.  1.
</event>
<event>
 5   0  0.9971923E-06  0.2577671E+04  0.7818609E-02  0.8375826E-01
       -1   -1    0    0    0  501  0.00000000000E+00  0.00000000000E+00  0.11873853710E+04  0.11873853710E+04  0.50400001928E-02 0.  1.
        1   -1    0    0  501    0  0.00000000000E+00  0.00000000000E+00 -0.13989529961E+04  0.13989529961E+04  0.50400001928E-02 0. -1.
    10030    2    1    2    0    0  0.00000000000E+00  0.00000000000E+00 -0.21156762516E+03  0.25863383671E+04  0.25776705160E+04 0.  0.
        2    1    3    3  502    0 -0.10810148255E+04  0.20283103028E+03  0.56831077532E+03  0.12380269048E+04  0.25500000920E-02 0. -1.
       -2    1    3    3    0  502  0.10810148255E+04 -0.20283103028E+03 -0.77987840049E+03  0.13483114623E+04  0.25500000920E-02 0.  1.
</event>
<event>
 5   0  0.2615843E-05  0.2713985E+04  0.7818609E-02  0.8330482E-01
        2   -1    0    0  501    0  0.00000000000E+00  0.00000000000E+00  0.17847002698E+04  0.17847002698E+04  0.25500000920E-02 0. -1.
       -2   -1    0    0    0  501  0.00000000000E+00  0.00000000000E+00 -0.10317858902E+04  0.10317858902E+04  0.25500000920E-02 0.  1.
    10030    2    1    2    0    0  0.00000000000E+00  0.00000000000E+00  0.75291437968E+03  0.28164861600E+04  0.27139849348E+04 0.  0.
        3    1    3    3  502    0 -0.46395425570E+03 -0.10148448812E+04  0.11778026805E+04  0.16224619715E+04  0.10100000352E+00 0. -1.
       -3    1    3    3    0  502  0.46395425570E+03  0.10148448812E+04 -0.42488830086E+03  0.11940241885E+04  0.10100000352E+00 0.  1.
</event>
<event>
 5   0  0.2641216E-05  0.2741783E+04  0.7818609E-02  0.8321574E-01
       -2   -1    0    0    0  501  0.00000000000E+00  0.00000000000E+00  0.11643565433E+04  0.11643565433E+04  0.25500000920E-02 0.  1.
        2   -1    0    0  501    0  0.00000000000E+00  0.00000000000E+00 -0.16140621820E+04  0.16140621821E+04  0.25500000920E-02 0. -1.
    10030    2    1    2    0    0  0.00000000000E+00  0.00000000000E+00 -0.44970563872E+03  0.27784187254E+04  0.27417832613E+04 0.  0.
        5    1    3    3  502    0  0.97832737251E+03 -0.17591649931E+03  0.73182239221E+03  0.12343650863E+04  0.46999998093E+01 0.  1.
       -5    1    3    3    0  502 -0.97832737251E+03  0.17591649931E+03 -0.11815280309E+04  0.15440536391E+04  0.46999998093E+01 0. -1.
</event>
<event>
 5   0  0.2540684E-05  0.2696326E+04  0.7818609E-02  0.8336198E-01
        2   -1    0    0  501    0  0.00000000000E+00  0.00000000000E+00  0.23224013453E+04  0.23224013453E+04  0.25500000920E-02 0. -1.
       -2   -1    0    0    0  501  0.00000000000E+00  0.00000000000E+00 -0.78261369821E+03  0.78261369822E+03  0.25500000920E-02 0.  1.
    10030    2    1    2    0    0  0.00000000000E+00  0.00000000000E+00  0.15397876471E+04  0.31050150435E+04  0.26963257263E+04 0.  0.
        2    1    3    3  502    0 -0.11111809642E+04 -0.43139526973E+03  0.14952183386E+04  0.19121984453E+04  0.25500000920E-02 0. -1.
       -2    1    3    3    0  502  0.11111809642E+04  0.43139526973E+03  0.44569308480E+02  0.11928165983E+04  0.25500000920E-02 0.  1.
</event>
<event>
 5   0  0.9971923E-06  0.2682168E+04  0.7818609E-02  0.8340814E-01
       -1   -1    0    0    0  501  0.00000000000E+00  0.00000000000E+00  0.59413648708E+03  0.59413648710E+03  0.50400001928E-02 0.  1.
        1   -1    0    0  501    0  0.00000000000E+00  0.00000000000E+00 -0.30270925598E+04  0.30270925598E+04  0.50400001928E-02 0. -1.
    10030    2    1    2    0    0  0.00000000000E+00  0.00000000000E+00 -0.24329560727E+04  0.36212290469E+04  0.26821678841E+04 0.  0.
        2    1    3    3  502    0  0.46866913353E+02  0.21536363498E+03  0.56951657559E+03  0.61067760129E+03  0.25500000920E-02 0.  1.
       -2    1    3    3    0  502 -0.46866913353E+02 -0.21536363498E+03 -0.30024726483E+04  0.30105514456E+04  0.25500000920E-02 0. -1.
</event>
<event>
 5   0  0.2540232E-05  0.2616776E+04  0.7818609E-02  0.8362525E-01
       -2   -1    0    0    0  501  0.00000000000E+00  0.00000000000E+00  0.63390800332E+03  0.63390800332E+03  0.25500000920E-02 0.  1.
        2   -1    0    0  501    0  0.00000000000E+00  0.00000000000E+00 -0.27005164966E+04  0.27005164966E+04  0.25500000920E-02 0. -1.
    10030    2    1    2    0    0  0.00000000000E+00  0.00000000000E+00 -0.20666084933E+04  0.33344244999E+04  0.26167758943E+04 0.  0.
        1    1    3    3  502    0 -0.53693151392E+03  0.25680945276E+02 -0.25533099556E+04  0.26092808762E+04  0.50400001928E-02 0. -1.
       -1    1    3    3    0  502  0.53693151392E+03 -0.25680945276E+02  0.48670146231E+03  0.72514362372E+03  0.50400001928E-02 0.  1.
</event>
<event>
 5   0  0.9971923E-06  0.2814540E+04  0.7818609E-02  0.8298768E-01
        1   -1    0    0  501    0  0.00000000000E+00  0.00000000000E+00  0.23676762519E+04  0.23676762519E+04  0.50400001928E-02 0.  1.
       -1   -1    0    0    0  501  0.00000000000E+00  0.00000000000E+00 -0.83643559474E+03  0.83643559475E+03  0.50400001928E-02 0. -1.
    10030    2    1    2    0    0  0.00000000000E+00  0.00000000000E+00  0.15312406571E+04  0.32041118466E+04  0.28145398870E+04 0.  0.
        2    1    3    3  502    0 -0.82468345969E+03 -0.89589142537E+03 -0.37493845860E+02  0.12182487608E+04  0.25500000920E-02 0. -1.
       -2    1    3    3    0  502  0.82468345969E+03  0.89589142537E+03  0.15687345030E+04  0.19858630858E+04  0.25500000920E-02 0.  1.
</event>
<event>
 5   0  0.1096672E-05  0.2678243E+04  0.7818609E-02  0.8342099E-01
       -1   -1    0    0    0  501  0.00000000000E+00  0.00000000000E+00  0.11872606128E+04  0.11872606128E+04  0.50400001928E-02 0. -1.
        1   -1    0    0  501    0  0.00000000000E+00  0.00000000000E+00 -0.15104061957E+04  0.15104061957E+04  0.50400001928E-02 0.  1.
    10030    2    1    2    0    0  0.00000000000E+00  0.00000000000E+00 -0.32314558284E+03  0.26976668085E+04  0.26782425473E+04 0.  0.
        1    1    3    3  502    0  0.47530211975E+03  0.10638734281E+04  0.50314297210E+03  0.12692090555E+04  0.50400001928E-02 0. -1.
       -1    1    3    3    0  502 -0.47530211975E+03 -0.10638734281E+04 -0.82628855494E+03  0.14284577530E+04  0.50400001928E-02 0.  1.
</event>
<event>
 5   0  0.1005265E-05  0.1876898E+04  0.7818609E-02  0.8666442E-01
       -1   -1    0    0    0  501  0.00000000000E+00  0.00000000000E+00  0.68042155204E+03  0.68042155206E+03  0.50400001928E-02 0. -1.
        1   -1    0    0  501    0  0.00000000000E+00  0.00000000000E+00 -0.12943245360E+04  0.12943245360E+04  0.50400001928E-02 0.  1.
    10030    2    1    2    0    0  0.00000000000E+00  0.00000000000E+00 -0.61390298397E+03  0.19747460881E+04  0.18768977699E+04 0.  0.
        3    1    3    3  502    0  0.87110331355E+03 -0.24380563512E+02 -0.67334599778E+03  0.11012766399E+04  0.10100000352E+00 0.  1.
       -3    1    3    3    0  502 -0.87110331355E+03  0.24380563512E+02  0.59443013809E+02  0.87346944814E+03  0.10100000352E+00 0. -1.
</event>
<event>
 5   0  0.9971923E-06  0.2686089E+04  0.7818609E-02  0.8339533E-01
        1   -1    0    0  501    0  0.00000000000E+00  0.00000000000E+00  0.18862769914E+04  0.18862769914E+04  0.50400001928E-02 0.  1.
       -1   -1    0    0    0  501  0.00000000000E+00  0.00000000000E+00 -0.95625862416E+03  0.95625862417E+03  0.50400001928E-02 0. -1.
    10030    2    1    2    0    0  0.00000000000E+00  0.00000000000E+00  0.93001836726E+03  0.28425356156E+04  0.26860890831E+04 0.  0.
        2    1    3    3  502    0  0.65815342634E+03 -0.98593993823E+03  0.11330659514E+04  0.16398420487E+04  0.25500000920E-02 0.  1.
       -2    1    3    3    0  502 -0.65815342634E+03  0.98593993823E+03 -0.20304758418E+03  0.12026935669E+04  0.25500000920E-02 0. -1.
</event>
<event>
 5   0  0.1005265E-05  0.2701386E+04  0.7818609E-02  0.8334556E-01
        1   -1    0    0  501    0  0.00000000000E+00  0.00000000000E+00  0.15305040030E+04  0.15305040030E+04  0.50400001928E-02 0. -1.
       -1   -1    0    0    0  501  0.00000000000E+00  0.00000000000E+00 -0.11920066963E+04  0.11920066963E+04  0.50400001928E-02 0.  1.
    10030    2    1    2    0    0  0.00000000000E+00  0.00000000000E+00  0.33849730665E+03  0.27225106993E+04  0.27013855855E+04 0.  0.
        3    1    3    3  502    0  0.98413100110E+03  0.19909201475E+03  0.10797624148E+04  0.14744620511E+04  0.10100000352E+00 0. -1.
       -3    1    3    3    0  502 -0.98413100110E+03 -0.19909201475E+03 -0.74126510810E+03  0.12480486482E+04  0.10100000352E+00 0.  1.
</event>
<event>
 5   0  0.1036691E-05  0.1691023E+04  0.7818609E-02  0.8766501E-01
        1   -1    0    0  501    0  0.00000000000E+00  0.00000000000E+00  0.90958230015E+03  0.90958230017E+03  0.50400001928E-02 0.  1.
       -1   -1    0    0    0  501  0.00000000000E+00  0.00000000000E+00 -0.78595396453E+03  0.78595396454E+03  0.50400001928E-02 0. -1.
    10030    2    1    2    0    0  0.00000000000E+00  0.00000000000E+00  0.12362833563E+03  0.16955362647E+04  0.16910231399E+04 0.  0.
        4    1    3    3  502    0 -0.71077793351E+03  0.74824415866E+02  0.51477668418E+03  0.88079544245E+03  0.12699999809E+01 0.  1.
       -4    1    3    3    0  502  0.71077793351E+03 -0.74824415866E+02 -0.39114834855E+03  0.81474082226E+03  0.12699999809E+01 0. -1.
</event>
<event>
 5   0  0.9971923E-06  0.2752192E+04  0.7818609E-02  0.8318267E-01
       -1   -1    0    0    0  501  0.00000000000E+00  0.00000000000E+00  0.10909570779E+04  0.10909570779E+04  0.50400001928E-02 0. -1.
        1   -1    0    0  501    0  0.00000000000E+00  0.00000000000E+00 -0.17357599971E+04  0.17357599971E+04  0.50400001928E-02 0.  1.
    10030    2    1    2    0    0  0.00000000000E+00  0.00000000000E+00 -0.64480291918E+03  0.28267170750E+04  0.27521916027E+04 0.  0.
        2    1    3    3  502    0  0.13641554778E+04  0.14813168322E+03 -0.21578055346E+03  0.13890372242E+04  0.25500000920E-02 0. -1.
       -2    1    3    3    0  502 -0.13641554778E+04 -0.14813168322E+03 -0.42902236571E+03  0.14376798508E+04  0.25500000920E-02 0.  1.
</event>
<event>
 5   0  0.2540684E-05  0.2604532E+04  0.7818609E-02  0.8366663E-01
       -2   -1    0    0    0  501  0.00000000000E+00  0.00000000000E+00  0.12364386157E+04  0.12364386157E+04  0.25500000920E-02 0. -1.
        2   -1    0    0  501    0  0.00000000000E+00  0.00000000000E+00 -0.13715984387E+04  0.13715984387E+04  0.25500000920E-02 0.  1.
    10030    2    1    2    0    0  0.00000000000E+00  0.00000000000E+00 -0.13515982303E+03  0.26080370543E+04  0.26045324147E+04 0.  0.
        2    1    3    3  502    0  0.21686228224E+02 -0.11599472222E+04 -0.65994114958E+03  0.13347172628E+04  0.25500000920E-02 0.  1.
       -2    1    3    3    0  502 -0.21686228224E+02  0.11599472222E+04  0.52478132655E+03  0.12733197915E+04  0.25500000920E-02 0. -1.
</event>
<event>
 5   0  0.9971923E-06  0.2687386E+04  0.7818609E-02  0.8339110E-01
       -1   -1    0    0    0  501  0.00000000000E+00  0.00000000000E+00  0.10198701409E+04  0.10198701409E+04  0.50400001928E-02 0.  1.
        1   -1    0    0  501    0  0.00000000000E+00  0.00000000000E+00 -0.17703335069E+04  0.17703335069E+04  0.50400001928E-02 0. -1.
    10030    2    1    2    0    0  0.00000000000E+00  0.00000000000E+00 -0.75046336602E+03  0.27902036478E+04  0.26873855571E+04 0.  0.
        2    1    3    3  502    0 -0.73170920374E+03  0.10690475250E+04 -0.48635199323E+01  0.12954862498E+04  0.25500000920E-02 0.  1.
       -2    1    3    3    0  502  0.73170920374E+03 -0.10690475250E+04 -0.74559984609E+03  0.14947173981E+04  0.25500000920E-02 0. -1.
</event>
<event>
 5   0  0.1041909E-05  0.2675641E+04  0.7818609E-02  0.8342952E-01
       -1   -1    0    0    0  501  0.00000000000E+00  0.00000000000E+00  0.86573175880E+03  0.86573175882E+03  0.50400001928E-02 0.  1.
        1   -1    0    0  501    0  0.00000000000E+00  0.00000000000E+00 -0.20673424315E+04  0.20673424315E+04  0.50400001928E-02 0. -1.
    10030    2    1    2    0    0  0.00000000000E+00  0.00000000000E+00 -0.12016106727E+04  0.29330741904E+04  0.26756412311E+04 0.  0.
        5    1    3    3  502    0  0.36659832689E+02  0.12029743458E+04 -0.12411767509E+04  0.17288820194E+04  0.46999998093E+01 0. -1.
       -5    1    3    3    0  502 -0.36659832689E+02 -0.12029743458E+04  0.39566078141E+02  0.12041921710E+04  0.46999998093E+01 0.  1.
</event>
<event>
 5   0  0.8740500E-06  0.2734380E+04  0.7818609E-02  0.8323935E-01
        3   -1    0    0  501    0  0.00000000000E+00  0.00000000000E+00  0.20467660965E+04  0.20467660990E+04  0.10100000352E+00 0.  1.
       -3   -1    0    0    0  501  0.00000000000E+00  0.00000000000E+00 -0.91324979694E+03  0.91324980252E+03  0.10100000352E+00 0. -1.
    10030    2    1    2    0    0  0.00000000000E+00  0.00000000000E+00  0.11335162995E+04  0.29600159015E+04  0.27343801740E+04 0.  0.
        3    1    3    3  502    0 -0.54992730103E+03 -0.11741174725E+04  0.97093937689E+02  0.13001534981E+04  0.10100000352E+00 0. -1.
       -3    1    3    3    0  502  0.54992730103E+03  0.11741174725E+04  0.10364223618E+04  0.16598624034E+04  0.10100000352E+00 0.  1.
</event>
<event>
 5   0  0.2615843E-05  0.2703030E+04  0.7818609E-02  0.8334022E-01
       -2   -1    0    0    0  501  0.00000000000E+00  0.00000000000E+00  0.91475013849E+03  0.91475013850E+03  0.25500000920E-02 0.  1.
        2   -1    0    0  501    0  0.00000000000E+00  0.00000000000E+00 -0.19968216859E+04  0.19968216859E+04  0.25500000920E-02 0. -1.
    10030    2    1    2    0    0  0.00000000000E+00  0.00000000000E+00 -0.10820715474E+04  0.29115718244E+04  0.27030300877E+04 0.  0.
        3    1    3    3  502    0 -0.13426018190E+04 -0.83128398300E+01 -0.70771304909E+03  0.15177307132E+04  0.10100000352E+00 0. -1.
       -3    1    3    3    0  502  0.13426018190E+04  0.83128398300E+01 -0.37435849832E+03  0.13938411112E+04  0.10100000352E+00 0.  1.
</event>
<event>
 5   0  0.2615843E-05  0.2703386E+04  0.7818609E-02  0.8333907E-01
       -2   -1    0    0    0  501  0.00000000000E+00  0.00000000000E+00  0.16412662451E+04  0.16412662451E+04  0.25500000920E-02 0. -1.
        2   -1    0    0  501    0  0.00000000000E+00  0.00000000000E+00 -0.11132098655E+04  0.11132098655E+04  0.25500000920E-02 0.  1.
    10030    2    1    2    0    0  0.00000000000E+00  0.00000000000E+00  0.52805637954E+03  0.27544761106E+04  0.27033858592E+04 0.  0.
        3    1    3    3  502    0 -0.84921079820E+03 -0.14068422499E+03  0.13258959240E+04  0.15808070858E+04  0.10100000352E+00 0. -1.
       -3    1    3    3    0  502  0.84921079820E+03  0.14068422499E+03 -0.79783954447E+03  0.11736690248E+04  0.10100000352E+00 0.  1.
</event>
<event>
 5   0  0.2516518E-05  0.2534028E+04  0.7818609E-02  0.8390962E-01
       -2   -1    0    0    0  501  0.00000000000E+00  0.00000000000E+00  0.73865898993E+03  0.73865898993E+03  0.25500000920E-02 0. -1.
        2   -1    0    0  501    0  0.00000000000E+00  0.00000000000E+00 -0.21732960457E+04  0.21732960457E+04  0.25500000920E-02 0.  1.
    10030    2    1    2    0    0  0.00000000000E+00  0.00000000000E+00 -0.14346370557E+04  0.29119550356E+04  0.25340281466E+04 0.  0.
        4    1    3    3  502    0  0.13333284200E+03  0.49866967848E+03 -0.20469860979E+04  0.21110667429E+04  0.12699999809E+01 0.  1.
       -4    1    3    3    0  502 -0.13333284200E+03 -0.49866967848E+03  0.61234904220E+03  0.80088829269E+03  0.12699999809E+01 0. -1.
</event>
<event>
 5   0  0.2615843E-05  0.2731374E+04  0.7818609E-02  0.8324896E-01
        2   -1    0    0  501    0  0.00000000000E+00  0.00000000000E+00  0.20839132944E+04  0.20839132944E+04  0.25500000920E-02 0. -1.
       -2   -1    0    0    0  501  0.00000000000E+00  0.00000000000E+00 -0.89499932294E+03  0.89499932295E+03  0.25500000920E-02 0.  1.
    10030    2    1    2    0    0  0.00000000000E+00  0.00000000000E+00  0.11889139714E+04  0.29789126173E+04  0.27313740041E+04 0.  0.
        3    1    3    3  502    0 -0.34892461433E+03 -0.28279927309E+03 -0.81214737483E+03  0.92806636831E+03  0.10100000352E+00 0.  1.
       -3    1    3    3    0  502  0.34892461433E+03  0.28279927309E+03  0.20010613463E+04  0.20508462490E+04  0.10100000352E+00 0. -1.
</event>
<event>
 5   0  0.2540232E-05  0.2726292E+04  0.7818609E-02  0.8326524E-01
        2   -1    0    0  501    0  0.00000000000E+00  0.00000000000E+00  0.23594265534E+04  0.23594265534E+04  0.25500000920E-02 0.  1.
       -2   -1    0    0    0  501  0.00000000000E+00  0.00000000000E+00 -0.78755024533E+03  0.78755024533E+03  0.25500000920E-02 0. -1.
    10030    2    1    2    0    0  0.00000000000E+00  0.00000000000E+00  0.15718763081E+04  0.31469767987E+04  0.27262919587E+04 0.  0.
        1    1    3    3  502    0  0.36962219428E+03 -0.89675443155E+03  0.18915312333E+04  0.21257185805E+04  0.50400001928E-02 0.  1.
       -1    1    3    3    0  502 -0.36962219428E+03  0.89675443155E+03 -0.31965492523E+03  0.10212582182E+04  0.50400001928E-02 0. -1.
</event>
<event>
 5   0  0.2615843E-05  0.2694332E+04  0.7818609E-02  0.8336846E-01
        2   -1    0    0  501    0  0.00000000000E+00  0.00000000000E+00  0.94438106750E+03  0.94438106750E+03  0.25500000920E-02 0.  1.
       -2   -1    0    0    0  501  0.00000000000E+00  0.00000000000E+00 -0.19217412996E+04  0.19217412996E+04  0.25500000920E-02 0. -1.
    10030    2    1    2    0    0  0.00000000000E+00  0.00000000000E+00 -0.97736023208E+03  0.28661223671E+04  0.26943319023E+04 0.  0.
        3    1    3    3  502    0 -0.91696343557E+03 -0.96704579857E+03 -0.27899100844E+03  0.13615562830E+04  0.10100000352E+00 0.  1.
       -3    1    3    3    0  502  0.91696343557E+03  0.96704579857E+03 -0.69836922364E+03  0.15045660841E+04  0.10100000352E+00 0. -1.
</event>
<event>
 5   0  0.2641216E-05  0.2641674E+04  0.7818609E-02  0.8354182E-01
       -2   -1    0    0    0  501  0.00000000000E+00  0.00000000000E+00  0.78890232887E+03  0.78890232887E+03  0.25500000920E-02 0. -1.
        2   -1    0    0  501    0  0.00000000000E+00  0.00000000000E+00 -0.22114397390E+04  0.22114397390E+04  0.25500000920E-02 0.  1.
    10030    2    1    2    0    0  0.00000000000E+00  0.00000000000E+00 -0.14225374101E+04  0.30003420679E+04  0.26416736818E+04 0.  0.
        5    1    3    3  502    0 -0.60032139366E+03  0.97520953847E+03 -0.14587838752E+04  0.18545867206E+04  0.46999998093E+01 0.  1.
       -5    1    3    3    0  502  0.60032139366E+03 -0.97520953847E+03  0.36246465067E+02  0.11457553473E+04  0.46999998093E+01 0. -1.
</event>
<event>
 5   0  0.1005265E-05  0.2480480E+04  0.7818609E-02  0.8409973E-01
        1   -1    0    0  501    0  0.00000000000E+00  0.00000000000E+00  0.18996767329E+04  0.18996767329E+04  0.50400001928E-02 0. -1.
       -1   -1    0    0    0  501  0.00000000000E+00  0.00000000000E+00 -0.80971446676E+03  0.80971446677E+03  0.50400001928E-02 0.  1.
    10030    2    1    2    0    0  0.00000000000E+00  0.00000000000E+00  0.10899622662E+04  0.27093911997E+04  0.24804803832E+04 0.  0.
        3    1    3    3  502    0  0.11615952617E+02  0.11991480989E+04  0.19938967487E+03  0.12156674488E+04  0.10100000352E+00 0.  1.
       -3    1    3    3    0  502 -0.11615952617E+02 -0.11991480989E+04  0.89057259130E+03  0.14937237509E+04  0.10100000352E+00 0. -1.
</event>
<event>
 5   0  0.1096672E-05  0.2615564E+04  0.7818609E-02  0.8362934E-01
        1   -1    0    0  501    0  0.00000000000E+00  0.00000000000E+00  0.22532173398E+04  0.22532173398E+04  0.50400001928E-02 0.  1.
       -1   -1    0    0    0  501  0.00000000000E+00  0.00000000000E+00 -0.75904499319E+03  0.75904499320E+03  0.50400001928E-02 0. -1.
    10030    2    1    2    0    0  0.00000000000E+00  0.00000000000E+00  0.14941723466E+04  0.30122623330E+04  0.26155636795E+04 0.  0.
        1    1    3    3  502    0  0.12360823216E+03 -0.69630059482E+03 -0.51984332416E+03  0.87769618610E+03  0.50400001928E-02 0. -1.
       -1    1    3    3    0  502 -0.12360823216E+03  0.69630059482E+03  0.20140156708E+04  0.21345661469E+04  0.50400001928E-02 0.  1.
</event>
<event>
 5   0  0.1005265E-05  0.2741748E+04  0.7818609E-02  0.8321585E-01
        1   -1    0    0  501    0  0.00000000000E+00  0.00000000000E+00  0.30847261263E+04  0.30847261263E+04  0.50400001928E-02 0. -1.
       -1   -1    0    0    0  501  0.00000000000E+00  0.00000000000E+00 -0.60922590616E+03  0.60922590618E+03  0.50400001928E-02 0.  1.
    10030    2    1    2    0    0  0.00000000000E+00  0.00000000000E+00  0.24755002202E+04  0.36939520325E+04  0.27417476686E+04 0.  0.
        3    1    3    3  502    0  0.24736248784E+03  0.79254134730E+03 -0.23196962367E+03  0.86204402677E+03  0.10100000352E+00 0.  1.
       -3    1    3    3    0  502 -0.24736248784E+03 -0.79254134730E+03  0.27074698438E+04  0.28319080058E+04  0.10100000352E+00 0. -1.
</event>
<event>
 5   0  0.1096672E-05  0.2686461E+04  0.7818609E-02  0.8339411E-01
       -1   -1    0    0    0  501  0.00000000000E+00  0.00000000000E+00  0.90433132055E+03  0.90433132057E+03  0.50400001928E-02 0. -1.
        1   -1    0    0  501    0  0.00000000000E+00  0.00000000000E+00 -0.19951402951E+04  0.19951402951E+04  0.50400001928E-02 0.  1.
    10030    2    1    2    0    0  0.00000000000E+00  0.00000000000E+00 -0.10908089746E+04  0.28994716157E+04  0.26864607630E+04 0.  0.
        1    1    3    3  502    0 -0.40032701122E+03 -0.12812255924E+04 -0.59901300403E+03  0.14699038450E+04  0.50400001928E-02 0.  1.
       -1    1    3    3    0  502  0.40032701122E+03  0.12812255924E+04 -0.49179597054E+03  0.14295677707E+04  0.50400001928E-02 0. -1.
</event>
<event>
 5   0  0.1036691E-05  0.2161829E+04  0.7818609E-02  0.8534486E-01
       -1   -1    0    0    0  501  0.00000000000E+00  0.00000000000E+00  0.12221946110E+04  0.12221946110E+04  0.50400001928E-02 0.  1.
        1   -1    0    0  501    0  0.00000000000E+00  0.00000000000E+00 -0.95596528549E+03  0.95596528551E+03  0.50400001928E-02 0. -1.
    10030    2    1    2    0    0  0.00000000000E+00  0.00000000000E+00  0.26622932554E+03  0.21781598965E+04  0.21618285041E+04 0.  0.
        4    1    3    3  502    0 -0.85013596917E+03 -0.13165454300E+03  0.79251260393E+03  0.11696759915E+04  0.12699999809E+01 0.  1.
       -4    1    3    3    0  502  0.85013596917E+03  0.13165454300E+03 -0.52628327839E+03  0.10084839051E+04  0.12699999809E+01 0. -1.
</event>
<event>
 5   0  0.2516518E-05  0.2716521E+04  0.7818609E-02  0.8329664E-01
       -2   -1    0    0    0  501  0.00000000000E+00  0.00000000000E+00  0.12575948203E+04  0.12575948203E+04  0.25500000920E-02 0. -1.
        2   -1    0    0  501    0  0.00000000000E+00  0.00000000000E+00 -0.14669842137E+04  0.14669842137E+04  0.25500000920E-02 0.  1.
    10030    2    1    2    0    0  0.00000000000E+00  0.00000000000E+00 -0.20938939336E+03  0.27245790340E+04  0.27165211198E+04 0.  0.
        4    1    3    3  502    0 -0.83690028828E+03  0.53992157286E+03 -0.10309886059E+04  0.14334770720E+04  0.12699999809E+01 0.  1.
       -4    1    3    3    0  502  0.83690028828E+03 -0.53992157286E+03  0.82159921257E+03  0.12911019620E+04  0.12699999809E+01 0. -1.
</event>
<event>
 5   0  0.2641216E-05  0.2846874E+04  0.7818609E-02  0.8288862E-01
       -2   -1    0    0    0  501  0.00000000000E+00  0.00000000000E+00  0.75383862488E+03  0.75383862488E+03  0.25500000920E-02 0. -1.
        2   -1    0    0  501    0  0.00000000000E+00  0.00000000000E+00 -0.26878072011E+04  0.26878072011E+04  0.25500000920E-02 0.  1.
    10030    2    1    2    0    0  0.00000000000E+00  0.00000000000E+00 -0.19339685762E+04  0.34416458260E+04  0.28468739940E+04 0.  0.
        5    1    3    3  502    0 -0.67661685893E+03 -0.73599983422E+03 -0.21919050839E+04  0.24091442706E+04  0.46999998093E+01 0.  1.
       -5    1    3    3    0  502  0.67661685893E+03  0.73599983422E+03  0.25793650772E+03  0.10325015553E+04  0.46999998093E+01 0. -1.
</event>
<event>
 5   0  0.1096672E-05  0.2695045E+04  0.7818609E-02  0.8336615E-01
        1   -1    0    0  501    0  0.00000000000E+00  0.00000000000E+00  0.13525228285E+04  0.13525228285E+04  0.50400001928E-02 0.  1.
       -1   -1    0    0    0  501  0.00000000000E+00  0.00000000000E+00 -0.13425405241E+04  0.13425405242E+04  0.50400001928E-02 0. -1.
    10030    2    1    2    0    0  0.00000000000E+00  0.00000000000E+00  0.99823043610E+01  0.26950633527E+04  0.26950448658E+04 0.  0.
        1    1    3    3  502    0 -0.68422425320E+03 -0.53950500849E+03  0.10329029771E+04  0.13513389815E+04  0.50400001928E-02 0.  1.
       -1    1    3    3    0  502  0.68422425320E+03  0.53950500849E+03 -0.10229206727E+04  0.13437243711E+04  0.50400001928E-02 0. -1.
</event>
<event>
 5   0  0.2615843E-05  0.2680143E+04  0.7818609E-02  0.8341477E-01
       -2   -1    0    0    0  501  0.00000000000E+00  0.00000000000E+00  0.11702547477E+04  0.11702547477E+04  0.25500000920E-02 0.  1.
        2   -1    0    0  501    0  0.00000000000E+00  0.00000000000E+00 -0.15345300647E+04  0.15345300647E+04  0.25500000920E-02 0. -1.
    10030    2    1    2    0    0  0.00000000000E+00  0.00000000000E+00 -0.36427531705E+03  0.27047848124E+04  0.26801426034E+04 0.  0.
        3    1    3    3  502    0 -0.52145529993E+03  0.58283244638E+03 -0.12803441502E+04  0.15002967852E+04  0.10100000352E+00 0. -1.
       -3    1    3    3    0  502  0.52145529993E+03 -0.58283244638E+03  0.91606883316E+03  0.12044880272E+04  0.10100000352E+00 0.  1.
</event>
<event>
 5   0  0.2540232E-05  0.1900538E+04  0.7818609E-02  0.8654589E-01
       -2   -1    0    0    0  501  0.00000000000E+00  0.00000000000E+00  0.11023006796E+04  0.11023006796E+04  0.25500000920E-02 0.  1.
        2   -1    0    0  501    0  0.00000000000E+00  0.00000000000E+00 -0.81920593644E+03  0.81920593645E+03  0.25500000920E-02 0. -1.
    10030    2    1    2    0    0  0.00000000000E+00  0.00000000000E+00  0.28309474311E+03  0.19215066160E+04  0.19005380927E+04 0.  0.
        1    1    3    3  502    0  0.20026689939E+03 -0.85499319957E+03  0.50872226856E+03  0.10148490276E+04  0.50400001928E-02 0.  1.
       -1    1    3    3    0  502 -0.20026689939E+03  0.85499319957E+03 -0.22562752545E+03  0.90665758838E+03  0.50400001928E-02 0. -1.
</event>
<event>
 5   0  0.2540684E-05  0.2719631E+04  0.7818609E-02  0.8328663E-01
       -2   -1    0    0    0  501  0.00000000000E+00  0.00000000000E+00  0.10031055569E+04  0.10031055569E+04  0.25500000920E-02 0.  1.
        2   -1    0    0  501    0  0.00000000000E+00  0.00000000000E+00 -0.18433734472E+04  0.18433734472E+04  0.25500000920E-02 0. -1.
    10030    2    1    2    0    0  0.00000000000E+00  0.00000000000E+00 -0.84026789022E+03  0.28464790041E+04  0.27196309664E+04 0.  0.
        2    1    3    3  502    0  0.19027283814E+03 -0.12611147170E+04 -0.91381613929E+03  0.15689722811E+04  0.25500000920E-02 0. -1.
       -2    1    3    3    0  502 -0.19027283814E+03  0.12611147170E+04  0.73548249074E+02  0.12775067230E+04  0.25500000920E-02 0.  1.
</event>
<event>
 5   0  0.9971923E-06  0.2709494E+04  0.7818609E-02  0.8331931E-01
        1   -1    0    0  501    0  0.00000000000E+00  0.00000000000E+00  0.14611350862E+04  0.14611350863E+04  0.50400001928E-02 0. -1.
       -1   -1    0    0    0  501  0.00000000000E+00  0.00000000000E+00 -0.12561050680E+04  0.12561050680E+04  0.50400001928E-02 0.  1.
    10030    2    1    2    0    0  0.00000000000E+00  0.00000000000E+00  0.20503001825E+03  0.27172401543E+04  0.27094938176E+04 0.  0.
        2    1    3    3  502    0 -0.11374181106E+04 -0.73567424306E+03  0.12263818769E+03  0.13601384765E+04  0.25500000920E-02 0. -1.
       -2    1    3    3    0  502  0.11374181106E+04  0.73567424306E+03  0.82391830563E+02  0.13571016778E+04  0.25500000920E-02 0.  1.
</event>
<event>
 5   0  0.1036691E-05  0.2628344E+04  0.7818609E-02  0.8358637E-01
       -1   -1    0    0    0  501  0.00000000000E+00  0.00000000000E+00  0.10155766970E+04  0.10155766971E+04  0.50400001928E-02 0.  1.
        1   -1    0    0  501    0  0.00000000000E+00  0.00000000000E+00 -0.17005592686E+04  0.17005592686E+04  0.50400001928E-02 0. -1.
    10030    2    1    2    0    0  0.00000000000E+00  0.00000000000E+00 -0.68498257159E+03  0.27161359657E+04  0.26283442432E+04 0.  0.
        4    1    3    3  502    0  0.91735129156E+03  0.92775846052E+03 -0.50515806642E+03  0.13990909328E+04  0.12699999809E+01 0. -1.
       -4    1    3    3    0  502 -0.91735129156E+03 -0.92775846052E+03 -0.17982450517E+03  0.13170450329E+04  0.12699999809E+01 0.  1.
</event>
<event>
 5   0  0.2641216E-05  0.2596937E+04  0.7818609E-02  0.8369242E-01
        2   -1    0    0  501    0  0.00000000000E+00  0.00000000000E+00  0.14089929152E+04  0.14089929152E+04  0.25500000920E-02 0.  1.
       -2   -1    0    0    0  501  0.00000000000E+00  0.00000000000E+00 -0.11966140218E+04  0.11966140218E+04  0.25500000920E-02 0. -1.
    10030    2    1    2    0    0  0.00000000000E+00  0.00000000000E+00  0.21237889336E+03  0.26056069371E+04  0.25969371798E+04 0.  0.
        5    1    3    3  502    0 -0.38011158584E+03 -0.51166702043E+03  0.12412090087E+04  0.13953171148E+04  0.46999998093E+01 0.  1.
       -5    1    3    3    0  502  0.38011158584E+03  0.51166702043E+03 -0.10288301154E+04  0.12102898222E+04  0.46999998093E+01 0. -1.
</event>
<event>
 5   0  0.8740500E-06  0.2743733E+04  0.7818609E-02  0.8320953E-01
       -4   -1    0    0    0  501  0.00000000000E+00  0.00000000000E+00  0.12770348781E+04  0.12770355096E+04  0.12699999809E+01 0. -1.
        4   -1    0    0  501    0  0.00000000000E+00  0.00000000000E+00 -0.14737393873E+04  0.14737399345E+04  0.12699999809E+01 0.  1.
    10030    2    1    2    0    0  0.00000000000E+00  0.00000000000E+00 -0.19670450922E+03  0.27507754441E+04  0.27437333836E+04 0.  0.
        3    1    3    3  502    0 -0.52032671729E+03 -0.17914717864E+03 -0.13582337063E+04  0.14654802679E+04  0.10100000352E+00 0.  1.
       -3    1    3    3    0  502  0.52032671729E+03  0.17914717864E+03  0.11615291971E+04  0.12852951763E+04  0.10100000352E+00 0. -1.
</event>
<event>
 5   0  0.1041909E-05  0.2705669E+04  0.7818609E-02  0.8333168E-01
        1   -1    0    0  501    0  0.00000000000E+00  0.00000000000E+00  0.17198982300E+04  0.17198982300E+04  0.50400001928E-02 0. -1.
       -1   -1    0    0    0  501  0.00000000000E+00  0.00000000000E+00 -0.10641102618E+04  0.10641102618E+04  0.50400001928E-02 0.  1.
    10030    2    1    2    0    0  0.00000000000E+00  0.00000000000E+00  0.65578796819E+03  0.27840084917E+04  0.27056691266E+04 0.  0.
        5    1    3    3  502    0 -0.61286965742E+03 -0.67294433036E+03  0.13577096606E+04  0.16345827912E+04  0.46999998093E+01 0. -1.
       -5    1    3    3    0  502  0.61286965742E+03  0.67294433036E+03 -0.70192169244E+03  0.11494257005E+04  0.46999998093E+01 0.  1.
</event>
<event>
 5   0  0.1036691E-05  0.2647393E+04  0.7818609E-02  0.8352279E-01
        1   -1    0    0  501    0  0.00000000000E+00  0.00000000000E+00  0.11121781133E+04  0.11121781133E+04  0.50400001928E-02 0. -1.
       -1   -1    0    0    0  501  0.00000000000E+00  0.00000000000E+00 -0.15754426672E+04  0.15754426672E+04  0.50400001928E-02 0.  1.
    10030    2    1    2    0    0  0.00000000000E+00  0.00000000000E+00 -0.46326455388E+03  0.26876207804E+04  0.26473933241E+04 0.  0.
        4    1    3    3  502    0 -0.58750396843E+03 -0.37860638619E+03  0.90957868459E+03  0.11471001286E+04  0.12699999809E+01 0. -1.
       -4    1    3    3    0  502  0.58750396843E+03  0.37860638619E+03 -0.13728432385E+04  0.15405206519E+04  0.12699999809E+01 0.  1.
</event>
<event>
 5   0  0.1005265E-05  0.2655090E+04  0.7818609E-02  0.8349726E-01
       -1   -1    0    0    0  501  0.00000000000E+00  0.00000000000E+00  0.70716485324E+03  0.70716485326E+03  0.50400001928E-02 0. -1.
        1   -1    0    0  501    0  0.00000000000E+00  0.00000000000E+00 -0.24921709629E+04  0.24921709629E+04  0.50400001928E-02 0.  1.
    10030    2    1    2    0    0  0.00000000000E+00  0.00000000000E+00 -0.17850061096E+04  0.31993358162E+04  0.26550899896E+04 0.  0.
        3    1    3    3  502    0 -0.56919141318E+03 -0.92274106062E+03  0.30662458838E+02  0.10846059775E+04  0.10100000352E+00 0. -1.
       -3    1    3    3    0  502  0.56919141318E+03  0.92274106062E+03 -0.18156685685E+04  0.21147298387E+04  0.10100000352E+00 0.  1.
</event>
<event>
 5   0  0.1041909E-05  0.2431968E+04  0.7818609E-02  0.8427631E-01
       -1   -1    0    0    0  501  0.00000000000E+00  0.00000000000E+00  0.12012734895E+04  0.12012734895E+04  0.50400001928E-02 0.  1.
        1   -1    0    0  501    0  0.00000000000E+00  0.00000000000E+00 -0.12308749553E+04  0.12308749553E+04  0.50400001928E-02 0. -1.
    10030    2    1    2    0    0  0.00000000000E+00  0.00000000000E+00 -0.29601465862E+02  0.24321484448E+04  0.24319682997E+04 0.  0.
        5    1    3    3  502    0  0.63074312994E+03 -0.93910810052E+03 -0.46074232127E+03  0.12215017385E+04  0.46999998093E+01 0. -1.
       -5    1    3    3    0  502 -0.63074312994E+03  0.93910810052E+03  0.43114085541E+03  0.12106467064E+04  0.46999998093E+01 0.  1.
</event>
<event>
 5   0  0.1096672E-05  0.2515290E+04  0.7818609E-02  0.8397559E-01
       -1   -1    0    0    0  501  0.00000000000E+00  0.00000000000E+00  0.75181844648E+03  0.75181844650E+03  0.50400001928E-02 0. -1.
        1   -1    0    0  501    0  0.00000000000E+00  0.00000000000E+00 -0.21037936694E+04  0.21037936694E+04  0.50400001928E-02 0.  1.
    10030    2    1    2    0    0  0.00000000000E+00  0.00000000000E+00 -0.13519752230E+04  0.28556121159E+04  0.25152899541E+04 0.  0.
        1    1    3    3  502    0  0.78447643623E+03  0.11363929246E+03 -0.17844939800E+04  0.19526228342E+04  0.50400001928E-02 0.  1.
       -1    1    3    3    0  502 -0.78447643623E+03 -0.11363929246E+03  0.43251875705E+03  0.90298928178E+03  0.50400001928E-02 0. -1.
</event>
<event>
 5   0  0.8740500E-06  0.2669595E+04  0.7818609E-02  0.8344938E-01
       -3   -1    0    0    0  501  0.00000000000E+00  0.00000000000E+00  0.10918232898E+04  0.10918232945E+04  0.10100000352E+00 0. -1.
        3   -1    0    0  501    0  0.00000000000E+00  0.00000000000E+00 -0.16318436456E+04  0.16318436487E+04  0.10100000352E+00 0.  1.
    10030    2    1    2    0    0  0.00000000000E+00  0.00000000000E+00 -0.54002035582E+03  0.27236669432E+04  0.26695954062E+04 0.  0.
        3    1    3    3  502    0  0.62395134244E+03 -0.43410683125E+03 -0.13894674625E+04  0.15837878198E+04  0.10100000352E+00 0.  1.
       -3    1    3    3    0  502 -0.62395134244E+03  0.43410683125E+03  0.84944710670E+03  0.11398791234E+04  0.10100000352E+00 0. -1.
</event>
<event>
 5   0  0.2540232E-05  0.2790347E+04  0.7818609E-02  0.8306271E-01
        2   -1    0    0  501    0  0.00000000000E+00  0.00000000000E+00  0.24132962560E+04  0.24132962560E+04  0.25500000920E-02 0. -1.
       -2   -1    0    0    0  501  0.00000000000E+00  0.00000000000E+00 -0.80657710063E+03  0.80657710063E+03  0.25500000920E-02 0.  1.
    10030    2    1    2    0    0  0.00000000000E+00  0.00000000000E+00  0.16067191554E+04  0.32198733567E+04  0.27903472882E+04 0.  0.
        1    1    3    3  502    0  0.84998461199E+01 -0.99640113736E+03 -0.32349706046E+03  0.10476343933E+04  0.50400001928E-02 0.  1.
       -1    1    3    3    0  502 -0.84998461199E+01  0.99640113736E+03  0.19302162158E+04  0.21722389633E+04  0.50400001928E-02 0. -1.
</event>
<event>
 5   0  0.1096672E-05  0.2572012E+04  0.7818609E-02  0.8377771E-01
       -1   -1    0    0    0  501  0.00000000000E+00  0.00000000000E+00  0.19000602791E+04  0.19000602791E+04  0.50400001928E-02 0. -1.
        1   -1    0    0  501    0  0.00000000000E+00  0.00000000000E+00 -0.87039928797E+03  0.87039928798E+03  0.50400001928E-02 0.  1.
    10030    2    1    2    0    0  0.00000000000E+00  0.00000000000E+00  0.10296609911E+04  0.27704595671E+04  0.25720117527E+04 0.  0.
        1    1    3    3  502    0 -0.55487287051E+03  0.54914208049E+03 -0.58596362290E+03  0.97611182473E+03  0.50400001928E-02 0.  1.
       -1    1    3    3    0  502  0.55487287051E+03 -0.54914208049E+03  0.16156246140E+04  0.17943477423E+04  0.50400001928E-02 0. -1.
</event>
<event>
 5   0  0.2516518E-05  0.2722893E+04  0.7818609E-02  0.8327615E-01
       -2   -1    0    0    0  501  0.00000000000E+00  0.00000000000E+00  0.12945165128E+04  0.12945165128E+04  0.25500000920E-02 0.  1.
        2   -1    0    0  501    0  0.00000000000E+00  0.00000000000E+00 -0.14318368238E+04  0.14318368238E+04  0.25500000920E-02 0. -1.
    10030    2    1    2    0    0  0.00000000000E+00  0.00000000000E+00 -0.13732031092E+03  0.27263533366E+04  0.27228928823E+04 0.  0.
        4    1    3    3  502    0  0.35043066723E+03  0.15234449825E+03 -0.13770435685E+04  0.14290770102E+04  0.12699999809E+01 0. -1.
       -4    1    3    3    0  502 -0.35043066723E+03 -0.15234449825E+03  0.12397232576E+04  0.12972763264E+04  0.12699999809E+01 0.  1.
</event>
<event>
 5   0  0.2641216E-05  0.2598117E+04  0.7818609E-02  0.8368841E-01
       -2   -1    0    0    0  501  0.00000000000E+00  0.00000000000E+00  0.59611056649E+03  0.59611056649E+03  0.25500000920E-02 0.  1.
        2   -1    0    0  501    0  0.00000000000E+00  0.00000000000E+00 -0.28309402851E+04  0.28309402851E+04  0.25500000920E-02 0. -1.
    10030    2    1    2    0    0  0.00000000000E+00  0.00000000000E+00 -0.22348297186E+04  0.34270508516E+04  0.25981173315E+04 0.  0.
        5    1    3    3  502    0  0.57319312976E+03 -0.98832523459E+03 -0.19328770530E+04  0.22453001860E+04  0.46999998093E+01 0. -1.
       -5    1    3    3    0  502 -0.57319312976E+03  0.98832523459E+03 -0.30195266563E+03  0.11817506656E+04  0.46999998093E+01 0.  1.
</event>
<event>
 5   0  0.9971923E-06  0.2629193E+04  0.7818609E-02  0.8358352E-01
       -1   -1    0    0    0  501  0.00000000000E+00  0.00000000000E+00  0.10408341806E+04  0.10408341806E+04  0.50400001928E-02 0.  1.
        1   -1    0    0  501    0  0.00000000000E+00  0.00000000000E+00 -0.16603648055E+04  0.16603648055E+04  0.50400001928E-02 0. -1.
    10030    2    1    2    0    0  0.00000000000E+00  0.00000000000E+00 -0.61953062494E+03  0.27011989861E+04  0.26291933682E+04 0.  0.
        2    1    3    3  502    0  0.36355338332E+01 -0.11524681115E+04  0.33998565058E+03  0.12015765509E+04  0.25500000920E-02 0.  1.
       -2    1    3    3    0  502 -0.36355338332E+01  0.11524681115E+04 -0.95951627553E+03  0.14996224352E+04  0.25500000920E-02 0. -1.
</event>
<event>
 5   0  0.1096672E-05  0.2792826E+04  0.7818609E-02  0.8305499E-01
        1   -1    0    0  501    0  0.00000000000E+00  0.00000000000E+00  0.17397640052E+04  0.17397640052E+04  0.50400001928E-02 0.  1.
       -1   -1    0    0    0  501  0.00000000000E+00  0.00000000000E+00 -0.11208238235E+04  0.11208238235E+04  0.50400001928E-02 0. -1.
    10030    2    1    2    0    0  0.00000000000E+00  0.00000000000E+00  0.61894018176E+03  0.28605878287E+04  0.27928257692E+04 0.  0.
        1    1    3    3  502    0 -0.68593734392E+03  0.95994033066E+03 -0.45562993543E+03  0.12647506143E+04  0.50400001928E-02 0. -1.
       -1    1    3    3    0  502  0.68593734392E+03 -0.95994033066E+03  0.10745701172E+04  0.15958372144E+04  0.50400001928E-02 0.  1.
</event>
<event>
 5   0  0.2540684E-05  0.2665725E+04  0.7818609E-02  0.8346212E-01
        2   -1    0    0  501    0  0.00000000000E+00  0.00000000000E+00  0.22721191502E+04  0.22721191502E+04  0.25500000920E-02 0.  1.
       -2   -1    0    0    0  501  0.00000000000E+00  0.00000000000E+00 -0.78187897850E+03  0.78187897850E+03  0.25500000920E-02 0. -1.
    10030    2    1    2    0    0  0.00000000000E+00  0.00000000000E+00  0.14902401717E+04  0.30539981287E+04  0.26657248171E+04 0.  0.
        2    1    3    3  502    0  0.75673001269E+03 -0.30015389877E+02  0.20016789237E+04  0.21401541415E+04  0.25500000920E-02 0.  1.
       -2    1    3    3    0  502 -0.75673001269E+03  0.30015389877E+02 -0.51143875206E+03  0.91384398715E+03  0.25500000920E-02 0. -1.
</event>
<event>
 5   0  0.1005265E-05  0.2736174E+04  0.7818609E-02  0.8323362E-01
        1   -1    0    0  501    0  0.00000000000E+00  0.00000000000E+00  0.15087056049E+04  0.15087056049E+04  0.50400001928E-02 0.  1.
       -1   -1    0    0    0  501  0.00000000000E+00  0.00000000000E+00 -0.12405747518E+04  0.12405747518E+04  0.50400001928E-02 0. -1.
    10030    2    1    2    0    0  0.00000000000E+00  0.00000000000E+00  0.26813085308E+03  0.27492803568E+04  0.27361740306E+04 0.  0.
        3    1    3    3  502    0  0.54035135552E+03 -0.12463662904E+04  0.29687103598E+03  0.13905182269E+04  0.10100000352E+00 0.  1.
       -3    1    3    3    0  502 -0.54035135552E+03  0.12463662904E+04 -0.28740182891E+02  0.13587621299E+04  0.10100000352E+00 0. -1.
</event>
<event>
 5   0  0.1005265E-05  0.2689566E+04  0.7818609E-02  0.8338398E-01
       -1   -1    0    0    0  501  0.00000000000E+00  0.00000000000E+00  0.10462929038E+04  0.10462929038E+04  0.50400001928E-02 0. -1.
        1   -1    0    0  501    0  0.00000000000E+00  0.00000000000E+00 -0.17284274571E+04  0.17284274571E+04  0.50400001928E-02 0.  1.
    10030    2    1    2    0    0  0.00000000000E+00  0.00000000000E+00 -0.68213455325E+03  0.27747203609E+04  0.26895660491E+04 0.  0.
        3    1    3    3  502    0 -0.28496336357E+03 -0.29139975969E+03 -0.16631735076E+04  0.17123854896E+04  0.10100000352E+00 0.  1.
       -3    1    3    3    0  502  0.28496336357E+03  0.29139975969E+03  0.98103895434E+03  0.10623348712E+04  0.10100000352E+00 0. -1.
</event>
<event>
 5   0  0.2540684E-05  0.2381036E+04  0.7818609E-02  0.8446638E-01
        2   -1    0    0  501    0  0.00000000000E+00  0.00000000000E+00  0.18773996437E+04  0.18773996437E+04  0.25500000920E-02 0.  1.
       -2   -1    0    0    0  501  0.00000000000E+00  0.00000000000E+00 -0.75494487816E+03  0.75494487817E+03  0.25500000920E-02 0. -1.
    10030    2    1    2    0    0  0.00000000000E+00  0.00000000000E+00  0.11224547655E+04  0.26323445219E+04  0.23810361150E+04 0.  0.
        2    1    3    3  502    0 -0.74919417041E+03  0.92482432570E+03  0.59132802532E+03  0.13290074386E+04  0.25500000920E-02 0. -1.
       -2    1    3    3    0  502  0.74919417041E+03 -0.92482432570E+03  0.53112674023E+03  0.13033370833E+04  0.25500000920E-02 0.  1.
</event>
<event>
 5   0  0.1041909E-05  0.2434260E+04  0.7818609E-02  0.8426787E-01
       -1   -1    0    0    0  501  0.00000000000E+00  0.00000000000E+00  0.10928691885E+04  0.10928691885E+04  0.50400001928E-02 0. -1.
        1   -1    0    0  501    0  0.00000000000E+00  0.00000000000E+00 -0.13555193333E+04  0.13555193333E+04  0.50400001928E-02 0.  1.
    10030    2    1    2    0    0  0.00000000000E+00  0.00000000000E+00 -0.26265014482E+03  0.24483885218E+04  0.24342598988E+04 0.  0.
        5    1    3    3  502    0 -0.14449468578E+03 -0.79618288321E+03  0.78312582009E+03  0.11260968155E+04  0.46999998093E+01 0. -1.
       -5    1    3    3    0  502  0.14449468578E+03  0.79618288321E+03 -0.10457759649E+04  0.13222917063E+04  0.46999998093E+01 0.  1.
</event>
<event>
 5   0  0.2615843E-05  0.2466719E+04  0.7818609E-02  0.8414939E-01
        2   -1    0    0  501    0  0.00000000000E+00  0.00000000000E+00  0.17884839728E+04  0.17884839728E+04  0.25500000920E-02 0.  1.
       -2   -1    0    0    0  501  0.00000000000E+00  0.00000000000E+00 -0.85053948621E+03  0.85053948621E+03  0.25500000920E-02 0. -1.
    10030    2    1    2    0    0  0.00000000000E+00  0.00000000000E+00  0.93794448660E+03  0.26390234590E+04  0.24667194728E+04 0.  0.
        3    1    3    3  502    0  0.62036631985E+03  0.87127844840E+03  0.11260350263E+04  0.15530406936E+04  0.10100000352E+00 0.  1.
       -3    1    3    3    0  502 -0.62036631985E+03 -0.87127844840E+03 -0.18809053966E+03  0.10859827654E+04  0.10100000352E+00 0. -1.
</event>
<event>
 5   0  0.2615843E-05  0.2353307E+04  0.7818609E-02  0.8457195E-01
       -2   -1    0    0    0  501  0.00000000000E+00  0.00000000000E+00  0.14470929115E+04  0.14470929115E+04  0.25500000920E-02 0.  1.
        2   -1    0    0  501    0  0.00000000000E+00  0.00000000000E+00 -0.95675499882E+03  0.95675499882E+03  0.25500000920E-02 0. -1.
    10030    2    1    2    0    0  0.00000000000E+00  0.00000000000E+00  0.49033791271E+03  0.24038479103E+04  0.23533069301E+04 0.  0.
        3    1    3    3  502    0  0.13240930167E+03 -0.83712929671E+03  0.10789064269E+04  0.13719900768E+04  0.10100000352E+00 0.  1.
       -3    1    3    3    0  502 -0.13240930167E+03  0.83712929671E+03 -0.58856851420E+03  0.10318578336E+04  0.10100000352E+00 0. -1.
</event>
<event>
 5   0  0.2540684E-05  0.2695938E+04  0.7818609E-02  0.8336324E-01
       -2   -1    0    0    0  501  0.00000000000E+00  0.00000000000E+00  0.11517858372E+04  0.11517858372E+04  0.25500000920E-02 0. -1.
        2   -1    0    0  501    0  0.00000000000E+00  0.00000000000E+00 -0.15775680538E+04  0.15775680538E+04  0.25500000920E-02 0.  1.
    10030    2    1    2    0    0  0.00000000000E+00  0.00000000000E+00 -0.42578221660E+03  0.27293538910E+04  0.26959380865E+04 0.  0.
        2    1    3    3  502    0 -0.10481983461E+03  0.52983347142E+03 -0.14632335458E+04  0.15597317445E+04  0.25500000920E-02 0.  1.
       -2    1    3    3    0  502  0.10481983461E+03 -0.52983347142E+03  0.10374513292E+04  0.11696221465E+04  0.25500000920E-02 0. -1.
</event>
<event>
 5   0  0.1036691E-05  0.2753214E+04  0.7818609E-02  0.8317943E-01
       -1   -1    0    0    0  501  0.00000000000E+00  0.00000000000E+00  0.13362352470E+04  0.13362352470E+04  0.50400001928E-02 0. -1.
        1   -1    0    0  501    0  0.00000000000E+00  0.00000000000E+00 -0.14181980188E+04  0.14181980188E+04  0.50400001928E-02 0.  1.
    10030    2    1    2    0    0  0.00000000000E+00  0.00000000000E+00 -0.81962771839E+02  0.27544332658E+04  0.27532135260E+04 0.  0.
        4    1    3    3  502    0  0.13001387397E+04  0.39203260906E+03  0.18493773996E+03  0.13704940312E+04  0.12699999809E+01 0. -1.
       -4    1    3    3    0  502 -0.13001387397E+04 -0.39203260906E+03 -0.26690051180E+03  0.13839392346E+04  0.12699999809E+01 0.  1.
</event>
<event>
 5   0  0.2540232E-05  0.2675327E+04  0.7818609E-02  0.8343055E-01
        2   -1    0    0  501    0  0.00000000000E+00  0.00000000000E+00  0.18438777556E+04  0.18438777556E+04  0.25500000920E-02 0. -1.
       -2   -1    0    0    0  501  0.00000000000E+00  0.00000000000E+00 -0.97042456738E+03  0.97042456739E+03  0.25500000920E-02 0.  1.
    10030    2    1    2    0    0  0.00000000000E+00  0.00000000000E+00  0.87345318821E+03  0.28143023230E+04  0.26753274740E+04 0.  0.
        1    1    3    3  502    0 -0.28338284919E+03 -0.69330091109E+03  0.16026198858E+04  0.17690004214E+04  0.50400001928E-02 0. -1.
       -1    1    3    3    0  502  0.28338284919E+03  0.69330091109E+03 -0.72916669759E+03  0.10453019016E+04  0.50400001928E-02 0.  1.
</event>
<event>
 5   0  0.2540684E-05  0.2653417E+04  0.7818609E-02  0.8350280E-01
        2   -1    0    0  501    0  0.00000000000E+00  0.00000000000E+00  0.25450664658E+04  0.25450664658E+04  0.25500000920E-02 0.  1.
       -2   -1    0    0    0  501  0.00000000000E+00  0.00000000000E+00 -0.69159521056E+03  0.69159521057E+03  0.25500000920E-02 0. -1.
    10030    2    1    2    0    0  0.00000000000E+00  0.00000000000E+00  0.18534712553E+04  0.32366616764E+04  0.26534172520E+04 0.  0.
        2    1    3    3  502    0 -0.20094270526E+03  0.85993420896E+03  0.21344639659E+04  0.23099353317E+04  0.25500000920E-02 0.  1.
       -2    1    3    3    0  502  0.20094270526E+03 -0.85993420896E+03 -0.28099271069E+03  0.92672634472E+03  0.25500000920E-02 0. -1.
</event>
<event>
 5   0  0.2516518E-05  0.2658611E+04  0.7818609E-02  0.8348561E-01
        2   -1    0    0  501    0  0.00000000000E+00  0.00000000000E+00  0.15649033499E+04  0.15649033499E+04  0.25500000920E-02 0. -1.
       -2   -1    0    0    0  501  0.00000000000E+00  0.00000000000E+00 -0.11291770426E+04  0.11291770426E+04  0.25500000920E-02 0.  1.
    10030    2    1    2    0    0  0.00000000000E+00  0.00000000000E+00  0.43572630729E+03  0.26940803925E+04  0.26586108678E+04 0.  0.
        4    1    3    3  502    0  0.23221400541E+03 -0.77943531374E+03 -0.84764425509E+03  0.11747106660E+04  0.12699999809E+01 0.  1.
       -4    1    3    3    0  502 -0.23221400541E+03  0.77943531374E+03  0.12833705624E+04  0.15193697265E+04  0.12699999809E+01 0. -1.
</event>
<event>
 5   0  0.2615843E-05  0.2662204E+04  0.7818609E-02  0.8347374E-01
        2   -1    0    0  501    0  0.00000000000E+00  0.00000000000E+00  0.26368489195E+04  0.26368489195E+04  0.25500000920E-02 0. -1.
       -2   -1    0    0    0  501  0.00000000000E+00  0.00000000000E+00 -0.67195061282E+03  0.67195061283E+03  0.25500000920E-02 0.  1.
    10030    2    1    2    0    0  0.00000000000E+00  0.00000000000E+00  0.19648983066E+04  0.33087995323E+04  0.26622037844E+04 0.  0.
        3    1    3    3  502    0 -0.11842085606E+04 -0.43087854441E+03  0.44956521486E+03  0.13379518405E+04  0.10100000352E+00 0.  1.
       -3    1    3    3    0  502  0.11842085606E+04  0.43087854441E+03  0.15153330918E+04  0.19708476918E+04  0.10100000352E+00 0. -1.
</event>
<event>
 5   0  0.9971923E-06  0.2744260E+04  0.7818609E-02  0.8320785E-01
       -1   -1    0    0    0  501  0.00000000000E+00  0.00000000000E+00  0.19777855655E+04  0.19777855655E+04  0.50400001928E-02 0.  1.
        1   -1    0    0  501    0  0.00000000000E+00  0.00000000000E+00 -0.95194384022E+03  0.95194384023E+03  0.50400001928E-02 0. -1.
    10030    2    1    2    0    0  0.00000000000E+00  0.00000000000E+00  0.10258417252E+04  0.29297294057E+04  0.27442600360E+04 0.  0.
        2    1    3    3  502    0  0.96821813704E+03  0.90860707414E+03  0.88232300181E+03  0.15942104803E+04  0.25500000920E-02 0.  1.
       -2    1    3    3    0  502 -0.96821813704E+03 -0.90860707414E+03  0.14351872344E+03  0.13355189254E+04  0.25500000920E-02 0. -1.
</event>
<event>
 5   0  0.2540232E-05  0.2034858E+04  0.7818609E-02  0.8590495E-01
        2   -1    0    0  501    0  0.00000000000E+00  0.00000000000E+00  0.10505459410E+04  0.10505459410E+04  0.25500000920E-02 0. -1.
       -2   -1    0    0    0  501  0.00000000000E+00  0.00000000000E+00 -0.98535553896E+03  0.98535553897E+03  0.25500000920E-02 0.  1.
    10030    2    1    2    0    0  0.00000000000E+00  0.00000000000E+00  0.65190402012E+02  0.20359014799E+04  0.20348575005E+04 0.  0.
        1    1    3    3  502    0  0.70477239861E+03  0.73295877509E+03 -0.24736310852E+01  0.10168278216E+04  0.50400001928E-02 0. -1.
       -1    1    3    3    0  502 -0.70477239861E+03 -0.73295877509E+03  0.67664033097E+02  0.10190736584E+04  0.50400001928E-02 0.  1.
</event>
<event>
 5   0  0.2516518E-05  0.2692735E+04  0.7818609E-02  0.8337366E-01
       -2   -1    0    0    0  501  0.00000000000E+00  0.00000000000E+00  0.11638818566E+04  0.11638818566E+04  0.25500000920E-02 0. -1.
        2   -1    0    0  501    0  0.00000000000E+00  0.00000000000E+00 -0.15574649942E+04  0.15574649942E+04  0.25500000920E-02 0.  1.
    10030    2    1    2    0    0  0.00000000000E+00  0.00000000000E+00 -0.39358313763E+03  0.27213468508E+04  0.26927348544E+04 0.  0.
        4    1    3    3  502    0 -0.45096074884E+03  0.10132332930E+04 -0.96824808069E+03  0.14722476903E+04  0.12699999809E+01 0.  1.
       -4    1    3    3    0  502  0.45096074884E+03 -0.10132332930E+04  0.57466494306E+03  0.12490991605E+04  0.12699999809E+01 0. -1.
</event>
<event>
 5   0  0.1096672E-05  0.2592150E+04  0.7818609E-02  0.8370873E-01
       -1   -1    0    0    0  501  0.00000000000E+00  0.00000000000E+00  0.13865635428E+04  0.13865635428E+04  0.50400001928E-02 0. -1.
        1   -1    0    0  501    0  0.00000000000E+00  0.00000000000E+00 -0.12114918697E+04  0.12114918698E+04  0.50400001928E-02 0.  1.
    10030    2    1    2    0    0  0.00000000000E+00  0.00000000000E+00  0.17507167303E+03  0.25980554126E+04  0.25921500412E+04 0.  0.
        1    1    3    3  502    0  0.24539087603E+02  0.71286019773E+03 -0.99707486334E+03  0.12259405008E+04  0.50400001928E-02 0.  1.
       -1    1    3    3    0  502 -0.24539087603E+02 -0.71286019773E+03  0.11721465364E+04  0.13721149118E+04  0.50400001928E-02 0. -1.
</event>
<event>
 5   0  0.9971923E-06  0.2749087E+04  0.7818609E-02  0.8319251E-01
       -1   -1    0    0    0  501  0.00000000000E+00  0.00000000000E+00  0.95417240347E+03  0.95417240348E+03  0.50400001928E-02 0.  1.
        1   -1    0    0  501    0  0.00000000000E+00  0.00000000000E+00 -0.19801137277E+04  0.19801137277E+04  0.50400001928E-02 0. -1.
    10030    2    1    2    0    0  0.00000000000E+00  0.00000000000E+00 -0.10259413242E+04  0.29342861312E+04  0.27490870301E+04 0.  0.
        2    1    3    3  502    0  0.41371947999E+02  0.41474014453E+03 -0.19110382705E+04  0.19559622432E+04  0.25500000920E-02 0. -1.
       -2    1    3    3    0  502 -0.41371947999E+02 -0.41474014453E+03  0.88509694624E+03  0.97832388799E+03  0.25500000920E-02 0.  1.
</event>
<event>
 5   0  0.1041909E-05  0.2660218E+04  0.7818609E-02  0.8348030E-01
        1   -1    0    0  501    0  0.00000000000E+00  0.00000000000E+00  0.24476224966E+04  0.24476224966E+04  0.50400001928E-02 0.  1.
       -1   -1    0    0    0  501  0.00000000000E+00  0.00000000000E+00 -0.72281953096E+03  0.72281953098E+03  0.50400001928E-02 0. -1.
    10030    2    1    2    0    0  0.00000000000E+00  0.00000000000E+00  0.17248029656E+04  0.31704420276E+04  0.26602175437E+04 0.  0.
        5    1    3    3  502    0 -0.48765766649E+02 -0.10509741316E+04  0.18322662821E+04  0.21128527029E+04  0.46999998093E+01 0.  1.
       -5    1    3    3    0  502  0.48765766649E+02  0.10509741316E+04 -0.10746331651E+03  0.10575893247E+04  0.46999998093E+01 0. -1.
</event>
<event>
 5   0  0.8740500E-06  0.2606136E+04  0.7818609E-02  0.8366120E-01
        3   -1    0    0  501    0  0.00000000000E+00  0.00000000000E+00  0.12018162640E+04  0.12018162682E+04  0.10100000352E+00 0.  1.
       -3   -1    0    0    0  501  0.00000000000E+00  0.00000000000E+00 -0.14128495542E+04  0.14128495578E+04  0.10100000352E+00 0. -1.
    10030    2    1    2    0    0  0.00000000000E+00  0.00000000000E+00 -0.21103329027E+03  0.26146658261E+04  0.26061355169E+04 0.  0.
        1    1    3    3  502    0 -0.18668248779E+03 -0.12840120739E+04 -0.22611085488E+03  0.13170662383E+04  0.50400001928E-02 0. -1.
       -1    1    3    3    0  502  0.18668248779E+03  0.12840120739E+04  0.15077564613E+02  0.12975995878E+04  0.50400001928E-02 0.  1.
</event>
<event>
 5   0  0.1005265E-05  0.2707211E+04  0.7818609E-02  0.8332669E-01
        1   -1    0    0  501    0  0.00000000000E+00  0.00000000000E+00  0.29390468461E+04  0.29390468461E+04  0.50400001928E-02 0. -1.
       -1   -1    0    0    0  501  0.00000000000E+00  0.00000000000E+00 -0.62341587670E+03  0.62341587672E+03  0.50400001928E-02 0.  1.
    10030    2    1    2    0    0  0.00000000000E+00  0.00000000000E+00  0.23156309694E+04  0.35624627228E+04  0.27072114556E+04 0.  0.
        3    1    3    3  502    0  0.12327047367E+04  0.25681660487E+02  0.42275192769E+03  0.13034338181E+04  0.10100000352E+00 0.  1.
       -3    1    3    3    0  502 -0.12327047367E+04 -0.25681660487E+02  0.18928790417E+04  0.22590289047E+04  0.10100000352E+00 0. -1.
</event>
<event>
 5   0  0.2516518E-05  0.2562222E+04  0.7818609E-02  0.8381148E-01
        2   -1    0    0  501    0  0.00000000000E+00  0.00000000000E+00  0.27729150095E+04  0.27729150095E+04  0.25500000920E-02 0. -1.
       -2   -1    0    0    0  501  0.00000000000E+00  0.00000000000E+00 -0.59188444617E+03  0.59188444617E+03  0.25500000920E-02 0.  1.
    10030    2    1    2    0    0  0.00000000000E+00  0.00000000000E+00  0.21810305633E+04  0.33647994557E+04  0.25622218988E+04 0.  0.
        4    1    3    3  502    0  0.77720466806E+03 -0.91060195033E+03  0.49158704854E+03  0.12941802221E+04  0.12699999809E+01 0.  1.
       -4    1    3    3    0  502 -0.77720466806E+03  0.91060195033E+03  0.16894435148E+04  0.20706192336E+04  0.12699999809E+01 0. -1.
</event>
<event>
 5   0  0.1096672E-05  0.2750838E+04  0.7818609E-02  0.8318696E-01
        1   -1    0    0  501    0  0.00000000000E+00  0.00000000000E+00  0.30847962319E+04  0.30847962319E+04  0.50400001928E-02 0. -1.
       -1   -1    0    0    0  501  0.00000000000E+00  0.00000000000E+00 -0.61325854482E+03  0.61325854484E+03  0.50400001928E-02 0.  1.
    10030    2    1    2    0    0  0.00000000000E+00  0.00000000000E+00  0.24715376871E+04  0.36980547768E+04  0.27508381619E+04 0.  0.
        1    1    3    3  502    0  0.98752527466E+03  0.54267377559E+03  0.17546520813E+03  0.11403898606E+04  0.50400001928E-02 0.  1.
       -1    1    3    3    0  502 -0.98752527466E+03 -0.54267377559E+03  0.22960724790E+04  0.25576649162E+04  0.50400001928E-02 0. -1.
</event>
<event>
 5   0  0.2641216E-05  0.2700657E+04  0.7818609E-02  0.8334792E-01
        2   -1    0    0  501    0  0.00000000000E+00  0.00000000000E+00  0.12238342916E+04  0.12238342916E+04  0.25500000920E-02 0. -1.
       -2   -1    0    0    0  501  0.00000000000E+00  0.00000000000E+00 -0.14898965309E+04  0.14898965309E+04  0.25500000920E-02 0.  1.
    10030    2    1    2    0    0  0.00000000000E+00  0.00000000000E+00 -0.26606223933E+03  0.27137308225E+04  0.27006565612E+04 0.  0.
        5    1    3    3  502    0  0.13488969408E+04  0.31840610629E+02 -0.79598565139E+02  0.13516267247E+04  0.46999998093E+01 0. -1.
       -5    1    3    3    0  502 -0.13488969408E+04 -0.31840610629E+02 -0.18646367419E+03  0.13621040978E+04  0.46999998093E+01 0.  1.
</event>
<event>
 5   0  0.2641216E-05  0.2665540E+04  0.7818609E-02  0.8346273E-01
        2   -1    0    0  501    0  0.00000000000E+00  0.00000000000E+00  0.23389208246E+04  0.23389208246E+04  0.25500000920E-02 0. -1.
       -2   -1    0    0    0  501  0.00000000000E+00  0.00000000000E+00 -0.75944245697E+03  0.75944245697E+03  0.25500000920E-02 0.  1.
    10030    2    1    2    0    0  0.00000000000E+00  0.00000000000E+00  0.15794783677E+04  0.30983632816E+04  0.26655399286E+04 0.  0.
        5    1    3    3  502    0 -0.82760652943E+03 -0.25334394862E+02 -0.42419650033E+03  0.93034357096E+03  0.46999998093E+01 0.  1.
       -5    1    3    3    0  502  0.82760652943E+03  0.25334394862E+02  0.20036748680E+04  0.21680197107E+04  0.46999998093E+01 0. -1.
</event>
<event>
 5   0  0.2641216E-05  0.2888200E+04  0.7818609E-02  0.8276397E-01
        2   -1    0    0  501    0  0.00000000000E+00  0.00000000000E+00  0.26739021662E+04  0.26739021662E+04  0.25500000920E-02 0. -1.
       -2   -1    0    0    0  501  0.00000000000E+00  0.00000000000E+00 -0.77991798866E+03  0.77991798866E+03  0.25500000920E-02 0.  1.
    10030    2    1    2    0    0  0.00000000000E+00  0.00000000000E+00  0.18939841776E+04  0.34538201549E+04  0.28881997156E+04 0.  0.
        5    1    3    3  502    0 -0.11861428568E+04  0.82367633134E+03  0.94104482774E+03  0.17236487558E+04  0.46999998093E+01 0. -1.
       -5    1    3    3    0  502  0.11861428568E+04 -0.82367633134E+03  0.95293934983E+03  0.17301713991E+04  0.46999998093E+01 0.  1.
</event>
<event>
 5   0  0.2540684E-05  0.2836133E+04  0.7818609E-02  0.8292138E-01
       -2   -1    0    0    0  501  0.00000000000E+00  0.00000000000E+00  0.16599740506E+04  0.16599740506E+04  0.25500000920E-02 0. -1.
        2   -1    0    0  501    0  0.00000000000E+00  0.00000000000E+00 -0.12114117795E+04  0.12114117795E+04  0.25500000920E-02 0.  1.
    10030    2    1    2    0    0  0.00000000000E+00  0.00000000000E+00  0.44856227111E+03  0.28713858301E+04  0.28361326616E+04 0.  0.
        2    1    3    3  502    0 -0.13453686260E+04  0.41227168014E+03  0.46233175383E+02  0.14078786114E+04  0.25500000920E-02 0.  1.
       -2    1    3    3    0  502  0.13453686260E+04 -0.41227168014E+03  0.40232909573E+03  0.14635072187E+04  0.25500000920E-02 0. -1.
</event>
<event>
 5   0  0.1036691E-05  0.1711947E+04  0.7818609E-02  0.8754580E-01
        1   -1    0    0  501    0  0.00000000000E+00  0.00000000000E+00  0.20111891849E+04  0.20111891849E+04  0.50400001928E-02 0.  1.
       -1   -1    0    0    0  501  0.00000000000E+00  0.00000000000E+00 -0.36430723828E+03  0.36430723832E+03  0.50400001928E-02 0. -1.
    10030    2    1    2    0    0  0.00000000000E+00  0.00000000000E+00  0.16468819466E+04  0.23754964232E+04  0.17119471693E+04 0.  0.
        4    1    3    3  502    0  0.42504034362E+03 -0.71685556764E+03  0.10944599600E+04  0.13756400021E+04  0.12699999809E+01 0.  1.
       -4    1    3    3    0  502 -0.42504034362E+03  0.71685556764E+03  0.55242198661E+03  0.99985642107E+03  0.12699999809E+01 0. -1.
</event>
<event>
 5   0  0.2540232E-05  0.2744795E+04  0.7818609E-02  0.8320615E-01
       -2   -1    0    0    0  501  0.00000000000E+00  0.00000000000E+00  0.11074003066E+04  0.11074003066E+04  0.25500000920E-02 0. -1.
        2   -1    0    0  501    0  0.00000000000E+00  0.00000000000E+00 -0.17008077537E+04  0.17008077537E+04  0.25500000920E-02 0.  1.
    10030    2    1    2    0    0  0.00000000000E+00  0.00000000000E+00 -0.59340744713E+03  0.28082080602E+04  0.27447950946E+04 0.  0.
        1    1    3    3  502    0  0.11741341061E+04 -0.40443555069E+03  0.30101613526E+03  0.12777987821E+04  0.50400001928E-02 0. -1.
       -1    1    3    3    0  502 -0.11741341061E+04  0.40443555069E+03 -0.89442358239E+03  0.15304092781E+04  0.50400001928E-02 0.  1.
</event>
<event>
 5   0  0.2641216E-05  0.2778598E+04  0.7818609E-02  0.8309944E-01
        2   -1    0    0  501    0  0.00000000000E+00  0.00000000000E+00  0.16420774977E+04  0.16420774977E+04  0.25500000920E-02 0.  1.
       -2   -1    0    0    0  501  0.00000000000E+00  0.00000000000E+00 -0.11754324239E+04  0.11754324239E+04  0.25500000920E-02 0. -1.
    10030    2    1    2    0    0  0.00000000000E+00  0.00000000000E+00  0.46664507379E+03  0.28175099216E+04  0.27785975839E+04 0.  0.
        5    1    3    3  502    0  0.71143093709E+02 -0.92234188502E+03  0.12843482261E+04  0.15828292228E+04  0.46999998093E+01 0.  1.
       -5    1    3    3    0  502 -0.71143093709E+02  0.92234188502E+03 -0.81770315233E+03  0.12346806988E+04  0.46999998093E+01 0. -1.
</event>
<event>
 5   0  0.2516518E-05  0.2721779E+04  0.7818609E-02  0.8327973E-01
       -2   -1    0    0    0  501  0.00000000000E+00  0.00000000000E+00  0.89691041119E+03  0.89691041119E+03  0.25500000920E-02 0. -1.
        2   -1    0    0  501    0  0.00000000000E+00  0.00000000000E+00 -0.20648880528E+04  0.20648880528E+04  0.25500000920E-02 0.  1.
    10030    2    1    2    0    0  0.00000000000E+00  0.00000000000E+00 -0.11679776416E+04  0.29617984640E+04  0.27217785306E+04 0.  0.
        4    1    3    3  502    0  0.10126817374E+04  0.54231900881E+03 -0.13779789869E+04  0.17940072213E+04  0.12699999809E+01 0.  1.
       -4    1    3    3    0  502 -0.10126817374E+04 -0.54231900881E+03  0.21000134534E+03  0.11677912427E+04  0.12699999809E+01 0. -1.
</event>
<event>
 5   0  0.2615843E-05  0.2660448E+04  0.7818609E-02  0.8347953E-01
       -2   -1    0    0    0  501  0.00000000000E+00  0.00000000000E+00  0.14807581777E+04  0.14807581777E+04  0.25500000920E-02 0. -1.
        2   -1    0    0  501    0  0.00000000000E+00  0.00000000000E+00 -0.11949934532E+04  0.11949934532E+04  0.25500000920E-02 0.  1.
    10030    2    1    2    0    0  0.00000000000E+00  0.00000000000E+00  0.28576472444E+03  0.26757516309E+04  0.26604483292E+04 0.  0.
        3    1    3    3  502    0 -0.98143573377E+03  0.14943100934E+03  0.10333852177E+04  0.14329796734E+04  0.10100000352E+00 0.  1.
       -3    1    3    3    0  502  0.98143573377E+03 -0.14943100934E+03 -0.74762049328E+03  0.12427719575E+04  0.10100000352E+00 0. -1.
</event>
<event>
 5   0  0.2641216E-05  0.2693956E+04  0.7818609E-02  0.8336969E-01
        2   -1    0    0  501    0  0.00000000000E+00  0.00000000000E+00  0.13438794169E+04  0.13438794169E+04  0.25500000920E-02 0. -1.
       -2   -1    0    0    0  501  0.00000000000E+00  0.00000000000E+00 -0.13500838920E+04  0.13500838920E+04  0.25500000920E-02 0.  1.
    10030    2    1    2    0    0  0.00000000000E+00  0.00000000000E+00 -0.62044750688E+01  0.26939633089E+04  0.26939561641E+04 0.  0.
        5    1    3    3  502    0 -0.83950004871E+03 -0.25802720016E+03 -0.10243735179E+04  0.13493337474E+04  0.46999998093E+01 0.  1.
       -5    1    3    3    0  502  0.83950004871E+03  0.25802720016E+03  0.10181690428E+04  0.13446295615E+04  0.46999998093E+01 0. -1.
</event>
<event>
 5   0  0.1036691E-05  0.2736700E+04  0.7818609E-02  0.8323194E-01
        1   -1    0    0  501    0  0.00000000000E+00  0.00000000000E+00  0.11939299438E+04  0.11939299439E+04  0.50400001928E-02 0. -1.
       -1   -1    0    0    0  501  0.00000000000E+00  0.00000000000E+00 -0.15682510849E+04  0.15682510849E+04  0.50400001928E-02 0.  1.
    10030    2    1    2    0    0  0.00000000000E+00  0.00000000000E+00 -0.37432114108E+03  0.27621810288E+04  0.27367001515E+04 0.  0.
        4    1    3    3  502    0  0.10373388448E+04 -0.29079337190E+03  0.66434588273E+03  0.12656973291E+04  0.12699999809E+01 0. -1.
       -4    1    3    3    0  502 -0.10373388448E+04  0.29079337190E+03 -0.10386670238E+04  0.14964836997E+04  0.12699999809E+01 0.  1.
</event>
<event>
 5   0  0.1005265E-05  0.2768299E+04  0.7818609E-02  0.8313178E-01
       -1   -1    0    0    0  501  0.00000000000E+00  0.00000000000E+00  0.11835392376E+04  0.11835392376E+04  0.50400001928E-02 0. -1.
        1   -1    0    0  501    0  0.00000000000E+00  0.00000000000E+00 -0.16187635810E+04  0.16187635810E+04  0.50400001928E-02 0.  1.
    10030    2    1    2    0    0  0.00000000000E+00  0.00000000000E+00 -0.43522434337E+03  0.28023028186E+04  0.27682992718E+04 0.  0.
        3    1    3    3  502    0 -0.23280672325E+03  0.14077131284E+03 -0.15914317623E+04  0.16145186890E+04  0.10100000352E+00 0.  1.
       -3    1    3    3    0  502  0.23280672325E+03 -0.14077131284E+03  0.11562074189E+04  0.11877841297E+04  0.10100000352E+00 0. -1.
</event>
<event>
 5   0  0.1041909E-05  0.2603000E+04  0.7818609E-02  0.8367183E-01
       -1   -1    0    0    0  501  0.00000000000E+00  0.00000000000E+00  0.22066681367E+04  0.22066681367E+04  0.50400001928E-02 0.  1.
        1   -1    0    0  501    0  0.00000000000E+00  0.00000000000E+00 -0.76762892139E+03  0.76762892141E+03  0.50400001928E-02 0. -1.
    10030    2    1    2    0    0  0.00000000000E+00  0.00000000000E+00  0.14390392153E+04  0.29742970581E+04  0.26030000243E+04 0.  0.
        5    1    3    3  502    0  0.11791795383E+04 -0.19329857673E+02  0.13485356174E+04  0.17914821875E+04  0.46999998093E+01 0.  1.
       -5    1    3    3    0  502 -0.11791795383E+04  0.19329857673E+02  0.90503597935E+02  0.11828148706E+04  0.46999998093E+01 0. -1.
</event>
<event>
 5   0  0.2540232E-05  0.2738734E+04  0.7818609E-02  0.8322545E-01
       -2   -1    0    0    0  501  0.00000000000E+00  0.00000000000E+00  0.10971639068E+04  0.10971639068E+04  0.25500000920E-02 0.  1.
        2   -1    0    0  501    0  0.00000000000E+00  0.00000000000E+00 -0.17091033472E+04  0.17091033472E+04  0.25500000920E-02 0. -1.
    10030    2    1    2    0    0  0.00000000000E+00  0.00000000000E+00 -0.61193944038E+03  0.28062672540E+04  0.27387343833E+04 0.  0.
        1    1    3    3  502    0  0.76306397874E+03 -0.34442553883E+03  0.80438889622E+03  0.11610069267E+04  0.50400001928E-02 0.  1.
       -1    1    3    3    0  502 -0.76306397874E+03  0.34442553883E+03 -0.14163283366E+04  0.16452603273E+04  0.50400001928E-02 0. -1.
</event>
<event>
 5   0  0.2641216E-05  0.2706570E+04  0.7818609E-02  0.8332876E-01
       -2   -1    0    0    0  501  0.00000000000E+00  0.00000000000E+00  0.12916089424E+04  0.12916089424E+04  0.25500000920E-02 0.  1.
        2   -1    0    0  501    0  0.00000000000E+00  0.00000000000E+00 -0.14179063899E+04  0.14179063899E+04  0.25500000920E-02 0. -1.
    10030    2    1    2    0    0  0.00000000000E+00  0.00000000000E+00 -0.12629744746E+03  0.27095153323E+04  0.27065702080E+04 0.  0.
        5    1    3    3  502    0  0.93701250816E+03 -0.96067258433E+03 -0.23790736996E+03  0.13629036141E+04  0.46999998093E+01 0.  1.
       -5    1    3    3    0  502 -0.93701250816E+03  0.96067258433E+03  0.11160992250E+03  0.13466117182E+04  0.46999998093E+01 0. -1.
</event>
<event>
 5   0  0.1041909E-05  0.2681733E+04  0.7818609E-02  0.8340957E-01
        1   -1    0    0  501    0  0.00000000000E+00  0.00000000000E+00  0.16448632606E+04  0.16448632606E+04  0.50400001928E-02 0. -1.
       -1   -1    0    0    0  501  0.00000000000E+00  0.00000000000E+00 -0.10930527699E+04  0.10930527699E+04  0.50400001928E-02 0.  1.
    10030    2    1    2    0    0  0.00000000000E+00  0.00000000000E+00  0.55181049068E+03  0.27379160306E+04  0.26817325319E+04 0.  0.
        5    1    3    3  502    0  0.10584740085E+04 -0.51535780467E+03  0.93117678992E+03  0.15010240496E+04  0.46999998093E+01 0. -1.
       -5    1    3    3    0  502 -0.10584740085E+04  0.51535780467E+03 -0.37936629924E+03  0.12368919809E+04  0.46999998093E+01 0.  1.
</event>
<event>
 5   0  0.1096672E-05  0.2340197E+04  0.7818609E-02  0.8462239E-01
        1   -1    0    0  501    0  0.00000000000E+00  0.00000000000E+00  0.16344816199E+04  0.16344816199E+04  0.50400001928E-02 0.  1.
       -1   -1    0    0    0  501  0.00000000000E+00  0.00000000000E+00 -0.83765412402E+03  0.83765412403E+03  0.50400001928E-02 0. -1.
    10030    2    1    2    0    0  0.00000000000E+00  0.00000000000E+00  0.79682749590E+03  0.24721357440E+04  0.23401968033E+04 0.  0.
        1    1    3    3  502    0 -0.89428275068E+03  0.72179939826E+03  0.63080343934E+03  0.13109725354E+04  0.50400001928E-02 0. -1.
       -1    1    3    3    0  502  0.89428275068E+03 -0.72179939826E+03  0.16602405656E+03  0.11611632085E+04  0.50400001928E-02 0.  1.
</event>
<event>
 5   0  0.2540684E-05  0.2670114E+04  0.7818609E-02  0.8344767E-01
        2   -1    0    0  501    0  0.00000000000E+00  0.00000000000E+00  0.20866210942E+04  0.20866210942E+04  0.25500000920E-02 0.  1.
       -2   -1    0    0    0  501  0.00000000000E+00  0.00000000000E+00 -0.85419325944E+03  0.85419325944E+03  0.25500000920E-02 0. -1.
    10030    2    1    2    0    0  0.00000000000E+00  0.00000000000E+00  0.12324278348E+04  0.29408143537E+04  0.26701143599E+04 0.  0.
        2    1    3    3  502    0  0.55374102762E+03  0.26577604668E+03  0.19217628768E+04  0.20175327971E+04  0.25500000920E-02 0.  1.
       -2    1    3    3    0  502 -0.55374102762E+03 -0.26577604668E+03 -0.68933504198E+03  0.92328155661E+03  0.25500000920E-02 0. -1.
</event>
<event>
 5   0  0.1096672E-05  0.2669131E+04  0.7818609E-02  0.8345091E-01
       -1   -1    0    0    0  501  0.00000000000E+00  0.00000000000E+00  0.12544209757E+04  0.12544209757E+04  0.50400001928E-02 0.  1.
        1   -1    0    0  501    0  0.00000000000E+00  0.00000000000E+00 -0.14198303226E+04  0.14198303226E+04  0.50400001928E-02 0. -1.
    10030    2    1    2    0    0  0.00000000000E+00  0.00000000000E+00 -0.16540934688E+03  0.26742512984E+04  0.26691308988E+04 0.  0.
        1    1    3    3  502    0 -0.12193671325E+03  0.10192267331E+04 -0.93720257999E+03  0.13899785507E+04  0.50400001928E-02 0. -1.
       -1    1    3    3    0  502  0.12193671325E+03 -0.10192267331E+04  0.77179323311E+03  0.12842727476E+04  0.50400001928E-02 0.  1.
</event>
<event>
 5   0  0.2516518E-05  0.2200154E+04  0.7818609E-02  0.8518364E-01
       -2   -1    0    0    0  501  0.00000000000E+00  0.00000000000E+00  0.72478080318E+03  0.72478080319E+03  0.25500000920E-02 0. -1.
        2   -1    0    0  501    0  0.00000000000E+00  0.00000000000E+00 -0.16697033606E+04  0.16697033606E+04  0.25500000920E-02 0.  1.
    10030    2    1    2    0    0  0.00000000000E+00  0.00000000000E+00 -0.94492255742E+03  0.23944841638E+04  0.22001535790E+04 0.  0.
        4    1    3    3  502    0 -0.26093509613E+03 -0.15364265537E+02  0.69049231881E+03  0.73831188551E+03  0.12699999809E+01 0. -1.
       -4    1    3    3    0  502  0.26093509613E+03  0.15364265537E+02 -0.16354148762E+04  0.16561722783E+04  0.12699999809E+01 0.  1.
</event>
<event>
 5   0  0.2540232E-05  0.2639329E+04  0.7818609E-02  0.8354963E-01
        2   -1    0    0  501    0  0.00000000000E+00  0.00000000000E+00  0.11999826553E+04  0.11999826553E+04  0.25500000920E-02 0. -1.
       -2   -1    0    0    0  501  0.00000000000E+00  0.00000000000E+00 -0.14512829818E+04  0.14512829818E+04  0.25500000920E-02 0.  1.
    10030    2    1    2    0    0  0.00000000000E+00  0.00000000000E+00 -0.25130032648E+03  0.26512656371E+04  0.26393290102E+04 0.  0.
        1    1    3    3  502    0 -0.45354561768E+03  0.99810323078E+01  0.11191925500E+04  0.12076403489E+04  0.50400001928E-02 0. -1.
       -1    1    3    3    0  502  0.45354561768E+03 -0.99810323078E+01 -0.13704928764E+04  0.14436252882E+04  0.50400001928E-02 0.  1.
</event>
<event>
 5   0  0.8740500E-06  0.2695677E+04  0.7818609E-02  0.8336409E-01
       -4   -1    0    0    0  501  0.00000000000E+00  0.00000000000E+00  0.17389893586E+04  0.17389898224E+04  0.12699999809E+01 0.  1.
        4   -1    0    0  501    0  0.00000000000E+00  0.00000000000E+00 -0.10446681309E+04  0.10446689029E+04  0.12699999809E+01 0. -1.
    10030    2    1    2    0    0  0.00000000000E+00  0.00000000000E+00  0.69432122771E+03  0.27836587253E+04  0.26956768967E+04 0.  0.
        1    1    3    3  502    0 -0.10250413136E+04 -0.16533860209E+03  0.12346420017E+04  0.16131916874E+04  0.50400001928E-02 0.  1.
       -1    1    3    3    0  502  0.10250413136E+04  0.16533860209E+03 -0.54032077398E+03  0.11704670379E+04  0.50400001928E-02 0. -1.
</event>
<event>
 5   0  0.1096672E-05  0.2549610E+04  0.7818609E-02  0.8385522E-01
        1   -1    0    0  501    0  0.00000000000E+00  0.00000000000E+00  0.11794645033E+04  0.11794645033E+04  0.50400001928E-02 0.  1.
       -1   -1    0    0    0  501  0.00000000000E+00  0.00000000000E+00 -0.13778522163E+04  0.13778522163E+04  0.50400001928E-02 0. -1.
    10030    2    1    2    0    0  0.00000000000E+00  0.00000000000E+00 -0.19838771307E+03  0.25573167196E+04  0.25496099936E+04 0.  0.
        1    1    3    3  502    0 -0.55314644095E+02  0.33568166454E+03 -0.13314781362E+04  0.13742546769E+04  0.50400001928E-02 0. -1.
       -1    1    3    3    0  502  0.55314644095E+02 -0.33568166454E+03  0.11330904232E+04  0.11830620427E+04  0.50400001928E-02 0.  1.
</event>
<event>
 5   0  0.8740500E-06  0.2711882E+04  0.7818609E-02  0.8331160E-01
       -3   -1    0    0    0  501  0.00000000000E+00  0.00000000000E+00  0.13290373109E+04  0.13290373147E+04  0.10100000352E+00 0.  1.
        3   -1    0    0  501    0  0.00000000000E+00  0.00000000000E+00 -0.13833887997E+04  0.13833888034E+04  0.10100000352E+00 0. -1.
    10030    2    1    2    0    0  0.00000000000E+00  0.00000000000E+00 -0.54351488766E+02  0.27124261181E+04  0.27118815169E+04 0.  0.
        4    1    3    3  502    0  0.60442537573E+03  0.86681725008E+03  0.82262512048E+03  0.13391847825E+04  0.12699999809E+01 0.  1.
       -4    1    3    3    0  502 -0.60442537573E+03 -0.86681725008E+03 -0.87697660924E+03  0.13732413356E+04  0.12699999809E+01 0. -1.
</event>
<event>
 5   0  0.2516518E-05  0.2684245E+04  0.7818609E-02  0.8340135E-01
        2   -1    0    0  501    0  0.00000000000E+00  0.00000000000E+00  0.13002310719E+04  0.13002310719E+04  0.25500000920E-02 0. -1.
       -2   -1    0    0    0  501  0.00000000000E+00  0.00000000000E+00 -0.13853636830E+04  0.13853636830E+04  0.25500000920E-02 0.  1.
    10030    2    1    2    0    0  0.00000000000E+00  0.00000000000E+00 -0.85132611123E+02  0.26855947549E+04  0.26842450756E+04 0.  0.
        4    1    3    3  502    0 -0.12411144127E+04  0.35533733716E+03 -0.40971360405E+03  0.13544358453E+04  0.12699999809E+01 0. -1.
       -4    1    3    3    0  502  0.12411144127E+04 -0.35533733716E+03  0.32458099293E+03  0.13311589096E+04  0.12699999809E+01 0.  1.
</event>
<event>
 5   0  0.1036691E-05  0.2674354E+04  0.7818609E-02  0.8343374E-01
        1   -1    0    0  501    0  0.00000000000E+00  0.00000000000E+00  0.13777576310E+04  0.13777576310E+04  0.50400001928E-02 0. -1.
       -1   -1    0    0    0  501  0.00000000000E+00  0.00000000000E+00 -0.12977919238E+04  0.12977919238E+04  0.50400001928E-02 0.  1.
    10030    2    1    2    0    0  0.00000000000E+00  0.00000000000E+00  0.79965707249E+02  0.26755495548E+04  0.26743542970E+04 0.  0.
        4    1    3    3  502    0  0.10140628111E+04 -0.37588003395E+03  0.82673875472E+03  0.13612890091E+04  0.12699999809E+01 0. -1.
       -4    1    3    3    0  502 -0.10140628111E+04  0.37588003395E+03 -0.74677304747E+03  0.13142605458E+04  0.12699999809E+01 0.  1.
</event>
<event>
 5   0  0.2516518E-05  0.2706508E+04  0.7818609E-02  0.8332896E-01
       -2   -1    0    0    0  501  0.00000000000E+00  0.00000000000E+00  0.11410666887E+04  0.11410666887E+04  0.25500000920E-02 0. -1.
        2   -1    0    0  501    0  0.00000000000E+00  0.00000000000E+00 -0.16048989135E+04  0.16048989135E+04  0.25500000920E-02 0.  1.
    10030    2    1    2    0    0  0.00000000000E+00  0.00000000000E+00 -0.46383222480E+03  0.27459656022E+04  0.27065082220E+04 0.  0.
        4    1    3    3  502    0 -0.60517035595E+03  0.16731219063E+03 -0.14481715256E+04  0.15784254526E+04  0.12699999809E+01 0.  1.
       -4    1    3    3    0  502  0.60517035595E+03 -0.16731219063E+03  0.98433930082E+03  0.11675401496E+04  0.12699999809E+01 0. -1.
</event>
<event>
 5   0  0.9971923E-06  0.2678462E+04  0.7818609E-02  0.8342027E-01
        1   -1    0    0  501    0  0.00000000000E+00  0.00000000000E+00  0.18324746844E+04  0.18324746844E+04  0.50400001928E-02 0. -1.
       -1   -1    0    0    0  501  0.00000000000E+00  0.00000000000E+00 -0.97875274501E+03  0.97875274502E+03  0.50400001928E-02 0.  1.
    10030    2    1    2    0    0  0.00000000000E+00  0.00000000000E+00  0.85372193939E+03  0.28112274294E+04  0.26784619673E+04 0.  0.
        2    1    3    3  502    0  0.94401064331E+02 -0.23855079258E+03  0.18064425185E+04  0.18245691586E+04  0.25500000920E-02 0. -1.
       -2    1    3    3    0  502 -0.94401064331E+02  0.23855079258E+03 -0.95272057913E+03  0.98665827088E+03  0.25500000920E-02 0.  1.
</event>
<event>
 5   0  0.2540232E-05  0.2855812E+04  0.7818609E-02  0.8286147E-01
       -2   -1    0    0    0  501  0.00000000000E+00  0.00000000000E+00  0.12983096857E+04  0.12983096857E+04  0.25500000920E-02 0.  1.
        2   -1    0    0  501    0  0.00000000000E+00  0.00000000000E+00 -0.15704390360E+04  0.15704390360E+04  0.25500000920E-02 0. -1.
    10030    2    1    2    0    0  0.00000000000E+00  0.00000000000E+00 -0.27212935028E+03  0.28687487217E+04  0.28558124667E+04 0.  0.
        1    1    3    3  502    0  0.28409738580E+03  0.12471200580E+04  0.50155181936E+03  0.13738900943E+04  0.50400001928E-02 0.  1.
       -1    1    3    3    0  502 -0.28409738580E+03 -0.12471200580E+04 -0.77368116964E+03  0.14948586274E+04  0.50400001928E-02 0. -1.
</event>
<event>
 5   0  0.1005265E-05  0.2671969E+04  0.7818609E-02  0.8344158E-01
        1   -1    0    0  501    0  0.00000000000E+00  0.00000000000E+00  0.13029568971E+04  0.13029568971E+04  0.50400001928E-02 0.  1.
       -1   -1    0    0    0  501  0.00000000000E+00  0.00000000000E+00 -0.13698489047E+04  0.13698489047E+04  0.50400001928E-02 0. -1.
    10030    2    1    2    0    0  0.00000000000E+00  0.00000000000E+00 -0.66892007526E+02  0.26728058018E+04  0.26719686214E+04 0.  0.
        3    1    3    3  502    0  0.94376458744E+03  0.96009656326E+02  0.90756369100E+03  0.13128523581E+04  0.10100000352E+00 0.  1.
       -3    1    3    3    0  502 -0.94376458744E+03 -0.96009656326E+02 -0.97445569852E+03  0.13599534438E+04  0.10100000352E+00 0. -1.
</event>
<event>
 5   0  0.1096672E-05  0.2889266E+04  0.7818609E-02  0.8276078E-01
       -1   -1    0    0    0  501  0.00000000000E+00  0.00000000000E+00  0.12469781715E+04  0.12469781715E+04  0.50400001928E-02 0.  1.
        1   -1    0    0  501    0  0.00000000000E+00  0.00000000000E+00 -0.16736178632E+04  0.16736178632E+04  0.50400001928E-02 0. -1.
    10030    2    1    2    0    0  0.00000000000E+00  0.00000000000E+00 -0.42663969168E+03  0.29205960346E+04  0.28892663032E+04 0.  0.
        1    1    3    3  502    0 -0.11290550634E+04 -0.82990755710E+03 -0.56848866918E+03  0.15121809602E+04  0.50400001928E-02 0.  1.
       -1    1    3    3    0  502  0.11290550634E+04  0.82990755710E+03  0.14184897750E+03  0.14084150744E+04  0.50400001928E-02 0. -1.
</event>
<event>
 5   0  0.1005265E-05  0.2646339E+04  0.7818609E-02  0.8352629E-01
       -1   -1    0    0    0  501  0.00000000000E+00  0.00000000000E+00  0.11653917426E+04  0.11653917426E+04  0.50400001928E-02 0.  1.
        1   -1    0    0  501    0  0.00000000000E+00  0.00000000000E+00 -0.15023085490E+04  0.15023085490E+04  0.50400001928E-02 0. -1.
    10030    2    1    2    0    0  0.00000000000E+00  0.00000000000E+00 -0.33691680642E+03  0.26677002915E+04  0.26463393416E+04 0.  0.
        3    1    3    3  502    0 -0.50279928889E+03 -0.12112027523E+04  0.89127989498E+01  0.13114490765E+04  0.10100000352E+00 0. -1.
       -3    1    3    3    0  502  0.50279928889E+03  0.12112027523E+04 -0.34582960537E+03  0.13562512150E+04  0.10100000352E+00 0.  1.
</event>
<event>
 5   0  0.2615843E-05  0.2196933E+04  0.7818609E-02  0.8519706E-01
       -2   -1    0    0    0  501  0.00000000000E+00  0.00000000000E+00  0.77302359426E+03  0.77302359427E+03  0.25500000920E-02 0.  1.
        2   -1    0    0  501    0  0.00000000000E+00  0.00000000000E+00 -0.15609214911E+04  0.15609214911E+04  0.25500000920E-02 0. -1.
    10030    2    1    2    0    0  0.00000000000E+00  0.00000000000E+00 -0.78789789680E+03  0.23339450853E+04  0.21969334459E+04 0.  0.
        3    1    3    3  502    0 -0.48890034938E+03  0.83380267442E+03 -0.94839626777E+03  0.13541439888E+04  0.10100000352E+00 0. -1.
       -3    1    3    3    0  502  0.48890034938E+03 -0.83380267442E+03  0.16049837096E+03  0.97980109654E+03  0.10100000352E+00 0.  1.
</event>
<event>
 5   0  0.2540684E-05  0.2674654E+04  0.7818609E-02  0.8343276E-01
       -2   -1    0    0    0  501  0.00000000000E+00  0.00000000000E+00  0.87351448290E+03  0.87351448290E+03  0.25500000920E-02 0.  1.
        2   -1    0    0  501    0  0.00000000000E+00  0.00000000000E+00 -0.20474121398E+04  0.20474121399E+04  0.25500000920E-02 0. -1.
    10030    2    1    2    0    0  0.00000000000E+00  0.00000000000E+00 -0.11738976570E+04  0.29209266227E+04  0.26746544873E+04 0.  0.
        2    1    3    3  502    0  0.63496187939E+03  0.36213758812E+03 -0.18099396220E+04  0.19519737847E+04  0.25500000920E-02 0. -1.
       -2    1    3    3    0  502 -0.63496187939E+03 -0.36213758812E+03  0.63604196504E+03  0.96895283802E+03  0.25500000920E-02 0.  1.
</event>
<event>
 5   0  0.1036691E-05  0.2705188E+04  0.7818609E-02  0.8333323E-01
        1   -1    0    0  501    0  0.00000000000E+00  0.00000000000E+00  0.11443394349E+04  0.11443394349E+04  0.50400001928E-02 0.  1.
       -1   -1    0    0    0  501  0.00000000000E+00  0.00000000000E+00 -0.15987485496E+04  0.15987485496E+04  0.50400001928E-02 0. -1.
    10030    2    1    2    0    0  0.00000000000E+00  0.00000000000E+00 -0.45440911474E+03  0.27430879845E+04  0.27051883571E+04 0.  0.
        4    1    3    3  502    0 -0.17410655002E+03 -0.10763285105E+04 -0.10388644372E+04  0.15060003603E+04  0.12699999809E+01 0. -1.
       -4    1    3    3    0  502  0.17410655002E+03  0.10763285105E+04  0.58445532250E+03  0.12370876243E+04  0.12699999809E+01 0.  1.
</event>
<event>
 5   0  0.2516518E-05  0.2705510E+04  0.7818609E-02  0.8333219E-01
       -2   -1    0    0    0  501  0.00000000000E+00  0.00000000000E+00  0.16004517785E+04  0.16004517785E+04  0.25500000920E-02 0.  1.
        2   -1    0    0  501    0  0.00000000000E+00  0.00000000000E+00 -0.11433934609E+04  0.11433934609E+04  0.25500000920E-02 0. -1.
    10030    2    1    2    0    0  0.00000000000E+00  0.00000000000E+00  0.45705831756E+03  0.27438452394E+04  0.27055100059E+04 0.  0.
        4    1    3    3  502    0 -0.17581982043E+03  0.11702469773E+03  0.15836267781E+04  0.15976491399E+04  0.12699999809E+01 0.  1.
       -4    1    3    3    0  502  0.17581982043E+03 -0.11702469773E+03 -0.11265684605E+04  0.11461960994E+04  0.12699999809E+01 0. -1.
</event>
<event>
 5   0  0.2641216E-05  0.2701918E+04  0.7818609E-02  0.8334383E-01
       -2   -1    0    0    0  501  0.00000000000E+00  0.00000000000E+00  0.16712368023E+04  0.16712368023E+04  0.25500000920E-02 0.  1.
        2   -1    0    0  501    0  0.00000000000E+00  0.00000000000E+00 -0.10920594996E+04  0.10920594996E+04  0.25500000920E-02 0. -1.
    10030    2    1    2    0    0  0.00000000000E+00  0.00000000000E+00  0.57917730271E+03  0.27632963018E+04  0.27019178566E+04 0.  0.
        5    1    3    3  502    0 -0.84396759506E+03 -0.10099439520E+04 -0.21962203711E+02  0.13163481743E+04  0.46999998093E+01 0. -1.
       -5    1    3    3    0  502  0.84396759506E+03  0.10099439520E+04  0.60113950642E+03  0.14469481275E+04  0.46999998093E+01 0.  1.
</event>
<event>
 5   0  0.1036691E-05  0.2647479E+04  0.7818609E-02  0.8352250E-01
        1   -1    0    0  501    0  0.00000000000E+00  0.00000000000E+00  0.15023742800E+04  0.15023742800E+04  0.50400001928E-02 0.  1.
       -1   -1    0    0    0  501  0.00000000000E+00  0.00000000000E+00 -0.11663449460E+04  0.11663449460E+04  0.50400001928E-02 0. -1.
    10030    2    1    2    0    0  0.00000000000E+00  0.00000000000E+00  0.33602933402E+03  0.26687192260E+04  0.26474792906E+04 0.  0.
        4    1    3    3  502    0 -0.51860228971E+03  0.11582385581E+04 -0.21159675612E+03  0.12865611888E+04  0.12699999809E+01 0. -1.
       -4    1    3    3    0  502  0.51860228971E+03 -0.11582385581E+04  0.54762609014E+03  0.13821580372E+04  0.12699999809E+01 0.  1.
</event>
<event>
 5   0  0.2540232E-05  0.2514019E+04  0.7818609E-02  0.8398008E-01
        2   -1    0    0  501    0  0.00000000000E+00  0.00000000000E+00  0.14618091722E+04  0.14618091722E+04  0.25500000920E-02 0. -1.
       -2   -1    0    0    0  501  0.00000000000E+00  0.00000000000E+00 -0.10809023704E+04  0.10809023704E+04  0.25500000920E-02 0.  1.
    10030    2    1    2    0    0  0.00000000000E+00  0.00000000000E+00  0.38090680177E+03  0.25427115426E+04  0.25140190925E+04 0.  0.
        1    1    3    3  502    0 -0.45571664398E+03  0.87119473655E+03  0.98260033165E+03  0.13900220647E+04  0.50400001928E-02 0.  1.
       -1    1    3    3    0  502  0.45571664398E+03 -0.87119473655E+03 -0.60169352988E+03  0.11526894779E+04  0.50400001928E-02 0. -1.
</event>
<event>
 5   0  0.1096672E-05  0.2727669E+04  0.7818609E-02  0.8326083E-01
       -1   -1    0    0    0  501  0.00000000000E+00  0.00000000000E+00  0.17552522888E+04  0.17552522888E+04  0.50400001928E-02 0.  1.
        1   -1    0    0  501    0  0.00000000000E+00  0.00000000000E+00 -0.10597021148E+04  0.10597021148E+04  0.50400001928E-02 0. -1.
    10030    2    1    2    0    0  0.00000000000E+00  0.00000000000E+00  0.69555017392E+03  0.28149544036E+04  0.27276690140E+04 0.  0.
        1    1    3    3  502    0 -0.64765699279E+03  0.16601645554E+03 -0.87897017582E+03  0.11043593681E+04  0.50400001928E-02 0. -1.
       -1    1    3    3    0  502  0.64765699279E+03 -0.16601645554E+03  0.15745203497E+04  0.17105950355E+04  0.50400001928E-02 0.  1.
</event>
<event>
 5   0  0.2540232E-05  0.2109499E+04  0.7818609E-02  0.8557070E-01
       -2   -1    0    0    0  501  0.00000000000E+00  0.00000000000E+00  0.81686322092E+03  0.81686322093E+03  0.25500000920E-02 0. -1.
        2   -1    0    0  501    0  0.00000000000E+00  0.00000000000E+00 -0.13619128761E+04  0.13619128761E+04  0.25500000920E-02 0.  1.
    10030    2    1    2    0    0  0.00000000000E+00  0.00000000000E+00 -0.54504965514E+03  0.21787760970E+04  0.21094990292E+04 0.  0.
        1    1    3    3  502    0  0.71640252870E+03  0.14543823456E+03 -0.10578312376E+04  0.12858428327E+04  0.50400001928E-02 0.  1.
       -1    1    3    3    0  502 -0.71640252870E+03 -0.14543823456E+03  0.51278158242E+03  0.89293326430E+03  0.50400001928E-02 0. -1.
</event>
<event>
 5   0  0.1036691E-05  0.2674369E+04  0.7818609E-02  0.8343370E-01
       -1   -1    0    0    0  501  0.00000000000E+00  0.00000000000E+00  0.15454202939E+04  0.15454202939E+04  0.50400001928E-02 0. -1.
        1   -1    0    0  501    0  0.00000000000E+00  0.00000000000E+00 -0.11570071498E+04  0.11570071498E+04  0.50400001928E-02 0.  1.
    10030    2    1    2    0    0  0.00000000000E+00  0.00000000000E+00  0.38841314414E+03  0.27024274437E+04  0.26743689570E+04 0.  0.
        4    1    3    3  502    0 -0.78516324287E+03 -0.10595118206E+04  0.41792061106E+03  0.13833675817E+04  0.12699999809E+01 0. -1.
       -4    1    3    3    0  502  0.78516324287E+03  0.10595118206E+04 -0.29507466916E+02  0.13190598620E+04  0.12699999809E+01 0.  1.
</event>
<event>
 5   0  0.2540684E-05  0.1966348E+04  0.7818609E-02  0.8622518E-01
        2   -1    0    0  501    0  0.00000000000E+00  0.00000000000E+00  0.69374867971E+03  0.69374867971E+03  0.25500000920E-02 0.  1.
       -2   -1    0    0    0  501  0.00000000000E+00  0.00000000000E+00 -0.13933443414E+04  0.13933443414E+04  0.25500000920E-02 0. -1.
    10030    2    1    2    0    0  0.00000000000E+00  0.00000000000E+00 -0.69959566165E+03  0.20870930211E+04  0.19663476775E+04 0.  0.
        2    1    3    3  502    0  0.70402825681E+03  0.64574803757E+03 -0.10318482951E+03  0.96088158660E+03  0.25500000920E-02 0.  1.
       -2    1    3    3    0  502 -0.70402825681E+03 -0.64574803757E+03 -0.59641083214E+03  0.11262114345E+04  0.25500000920E-02 0. -1.
</event>
<event>
 5   0  0.2540684E-05  0.2623223E+04  0.7818609E-02  0.8360355E-01
        2   -1    0    0  501    0  0.00000000000E+00  0.00000000000E+00  0.23166536494E+04  0.23166536494E+04  0.25500000920E-02 0. -1.
       -2   -1    0    0    0  501  0.00000000000E+00  0.00000000000E+00 -0.74259066394E+03  0.74259066395E+03  0.25500000920E-02 0.  1.
    10030    2    1    2    0    0  0.00000000000E+00  0.00000000000E+00  0.15740629855E+04  0.30592443134E+04  0.26232234916E+04 0.  0.
        2    1    3    3  502    0  0.11543045501E+04  0.60709967127E+03  0.94919991906E+03  0.16130621475E+04  0.25500000920E-02 0. -1.
       -2    1    3    3    0  502 -0.11543045501E+04 -0.60709967127E+03  0.62486306641E+03  0.14461821659E+04  0.25500000920E-02 0.  1.
</event>
<event>
 5   0  0.1036691E-05  0.2567879E+04  0.7818609E-02  0.8379194E-01
        1   -1    0    0  501    0  0.00000000000E+00  0.00000000000E+00  0.20105284007E+04  0.20105284007E+04  0.50400001928E-02 0. -1.
       -1   -1    0    0    0  501  0.00000000000E+00  0.00000000000E+00 -0.81993416772E+03  0.81993416774E+03  0.50400001928E-02 0.  1.
    10030    2    1    2    0    0  0.00000000000E+00  0.00000000000E+00  0.11905942330E+04  0.28304625685E+04  0.25678792269E+04 0.  0.
        4    1    3    3  502    0 -0.79050327287E+01 -0.12272231148E+04  0.17940833993E+03  0.12402935251E+04  0.12699999809E+01 0.  1.
       -4    1    3    3    0  502  0.79050327287E+01  0.12272231148E+04  0.10111858931E+04  0.15901690434E+04  0.12699999809E+01 0. -1.
</event>
<event>
 5   0  0.1041909E-05  0.2660537E+04  0.7818609E-02  0.8347924E-01
        1   -1    0    0  501    0  0.00000000000E+00  0.00000000000E+00  0.13262070245E+04  0.13262070245E+04  0.50400001928E-02 0.  1.
       -1   -1    0    0    0  501  0.00000000000E+00  0.00000000000E+00 -0.13343427071E+04  0.13343427071E+04  0.50400001928E-02 0. -1.
    10030    2    1    2    0    0  0.00000000000E+00  0.00000000000E+00 -0.81356825527E+01  0.26605497316E+04  0.26605372926E+04 0.  0.
        5    1    3    3  502    0  0.91620182936E+03  0.14832169020E+03  0.94891482250E+03  0.13273607446E+04  0.46999998093E+01 0.  1.
       -5    1    3    3    0  502 -0.91620182936E+03 -0.14832169020E+03 -0.95705050505E+03  0.13331889870E+04  0.46999998093E+01 0. -1.
</event>
<event>
 5   0  0.9971923E-06  0.2526883E+04  0.7818609E-02  0.8393470E-01
        1   -1    0    0  501    0  0.00000000000E+00  0.00000000000E+00  0.21716702827E+04  0.21716702827E+04  0.50400001928E-02 0.  1.
       -1   -1    0    0    0  501  0.00000000000E+00  0.00000000000E+00 -0.73504913521E+03  0.73504913523E+03  0.50400001928E-02 0. -1.
    10030    2    1    2    0    0  0.00000000000E+00  0.00000000000E+00  0.14366211475E+04  0.29067194179E+04  0.25268829520E+04 0.  0.
        2    1    3    3  502    0 -0.52142373294E+03 -0.68889007645E+03 -0.34212565458E+03  0.92924819625E+03  0.25500000920E-02 0. -1.
       -2    1    3    3    0  502  0.52142373294E+03  0.68889007645E+03  0.17787468020E+04  0.19774712216E+04  0.25500000920E-02 0.  1.
</event>
<event>
 5   0  0.2615843E-05  0.2647942E+04  0.7818609E-02  0.8352096E-01
       -2   -1    0    0    0  501  0.00000000000E+00  0.00000000000E+00  0.86564529451E+03  0.86564529452E+03  0.25500000920E-02 0. -1.
        2   -1    0    0  501    0  0.00000000000E+00  0.00000000000E+00 -0.20249619801E+04  0.20249619801E+04  0.25500000920E-02 0.  1.
    10030    2    1    2    0    0  0.00000000000E+00  0.00000000000E+00 -0.11593166856E+04  0.28906072746E+04  0.26479416985E+04 0.  0.
        3    1    3    3  502    0  0.18121062907E+03  0.37878903553E+02  0.85144649344E+03  0.87133991348E+03  0.10100000352E+00 0. -1.
       -3    1    3    3    0  502 -0.18121062907E+03 -0.37878903553E+02 -0.20107631791E+04  0.20192673612E+04  0.10100000352E+00 0.  1.
</event>
<event>
 5   0  0.9971923E-06  0.2759775E+04  0.7818609E-02  0.8315866E-01
        1   -1    0    0  501    0  0.00000000000E+00  0.00000000000E+00  0.20265121598E+04  0.20265121598E+04  0.50400001928E-02 0. -1.
       -1   -1    0    0    0  501  0.00000000000E+00  0.00000000000E+00 -0.93958977131E+03  0.93958977133E+03  0.50400001928E-02 0.  1.
    10030    2    1    2    0    0  0.00000000000E+00  0.00000000000E+00  0.10869223885E+04  0.29661019311E+04  0.27597754233E+04 0.  0.
        2    1    3    3  502    0 -0.51518527461E+03  0.80317867416E+03 -0.52784438374E+03  0.10904730823E+04  0.25500000920E-02 0.  1.
       -2    1    3    3    0  502  0.51518527461E+03 -0.80317867416E+03  0.16147667722E+04  0.18756288488E+04  0.25500000920E-02 0. -1.
</event>
<event>
 5   0  0.1096672E-05  0.2631099E+04  0.7818609E-02  0.8357714E-01
       -1   -1    0    0    0  501  0.00000000000E+00  0.00000000000E+00  0.95840758937E+03  0.95840758939E+03  0.50400001928E-02 0.  1.
        1   -1    0    0  501    0  0.00000000000E+00  0.00000000000E+00 -0.18057774311E+04  0.18057774311E+04  0.50400001928E-02 0. -1.
    10030    2    1    2    0    0  0.00000000000E+00  0.00000000000E+00 -0.84736984170E+03  0.27641850205E+04  0.26310992339E+04 0.  0.
        1    1    3    3  502    0 -0.28695294273E+03 -0.10890392929E+04  0.29065063133E+03  0.11631106406E+04  0.50400001928E-02 0.  1.
       -1    1    3    3    0  502  0.28695294273E+03  0.10890392929E+04 -0.11380204730E+04  0.16010743799E+04  0.50400001928E-02 0. -1.
</event>
<event>
 5   0  0.2540232E-05  0.2504362E+04  0.7818609E-02  0.8401433E-01
        2   -1    0    0  501    0  0.00000000000E+00  0.00000000000E+00  0.15337785659E+04  0.15337785659E+04  0.25500000920E-02 0.  1.
       -2   -1    0    0    0  501  0.00000000000E+00  0.00000000000E+00 -0.10222837272E+04  0.10222837272E+04  0.25500000920E-02 0. -1.
    10030    2    1    2    0    0  0.00000000000E+00  0.00000000000E+00  0.51149483870E+03  0.25560622931E+04  0.25043616904E+04 0.  0.
        1    1    3    3  502    0  0.10162042615E+04  0.58925973551E+03  0.69835732954E+03  0.13666020258E+04  0.50400001928E-02 0.  1.
       -1    1    3    3    0  502 -0.10162042615E+04 -0.58925973551E+03 -0.18686249085E+03  0.11894602673E+04  0.50400001928E-02 0. -1.
</event>
<event>
 5   0  0.1041909E-05  0.2285164E+04  0.7818609E-02  0.8483794E-01
        1   -1    0    0  501    0  0.00000000000E+00  0.00000000000E+00  0.17176564122E+04  0.17176564122E+04  0.50400001928E-02 0.  1.
       -1   -1    0    0    0  501  0.00000000000E+00  0.00000000000E+00 -0.76004332986E+03  0.76004332988E+03  0.50400001928E-02 0. -1.
    10030    2    1    2    0    0  0.00000000000E+00  0.00000000000E+00  0.95761308235E+03  0.24776997421E+04  0.22851637133E+04 0.  0.
        5    1    3    3  502    0 -0.52232441226E+02 -0.11614504724E+02  0.17162866906E+04  0.17171270247E+04  0.46999998093E+01 0.  1.
       -5    1    3    3    0  502  0.52232441226E+02  0.11614504724E+02 -0.75867360824E+03  0.76057271741E+03  0.46999998093E+01 0. -1.
</event>
<event>
 5   0  0.1041909E-05  0.2667453E+04  0.7818609E-02  0.8345643E-01
        1   -1    0    0  501    0  0.00000000000E+00  0.00000000000E+00  0.22394962644E+04  0.22394962644E+04  0.50400001928E-02 0.  1.
       -1   -1    0    0    0  501  0.00000000000E+00  0.00000000000E+00 -0.79429733555E+03  0.79429733557E+03  0.50400001928E-02 0. -1.
    10030    2    1    2    0    0  0.00000000000E+00  0.00000000000E+00  0.14451989288E+04  0.30337936000E+04  0.26674526544E+04 0.  0.
        5    1    3    3  502    0 -0.60132964782E+03  0.10377582541E+04  0.59165814484E+02  0.12008589521E+04  0.46999998093E+01 0. -1.
       -5    1    3    3    0  502  0.60132964782E+03 -0.10377582541E+04  0.13860331143E+04  0.18329346479E+04  0.46999998093E+01 0.  1.
</event>
<event>
 5   0  0.2540684E-05  0.2602155E+04  0.7818609E-02  0.8367470E-01
        2   -1    0    0  501    0  0.00000000000E+00  0.00000000000E+00  0.21138929100E+04  0.21138929100E+04  0.25500000920E-02 0. -1.
       -2   -1    0    0    0  501  0.00000000000E+00  0.00000000000E+00 -0.80079838688E+03  0.80079838688E+03  0.25500000920E-02 0.  1.
    10030    2    1    2    0    0  0.00000000000E+00  0.00000000000E+00  0.13130945231E+04  0.29146912969E+04  0.26021545168E+04 0.  0.
        2    1    3    3  502    0  0.78911118521E+03 -0.22294766341E+03  0.17880215467E+04  0.19670849435E+04  0.25500000920E-02 0. -1.
       -2    1    3    3    0  502 -0.78911118521E+03  0.22294766341E+03 -0.47492702362E+03  0.94760635340E+03  0.25500000920E-02 0.  1.
</event>
<event>
 5   0  0.2540684E-05  0.2621926E+04  0.7818609E-02  0.8360791E-01
       -2   -1    0    0    0  501  0.00000000000E+00  0.00000000000E+00  0.14766557619E+04  0.14766557619E+04  0.25500000920E-02 0. -1.
        2   -1    0    0  501    0  0.00000000000E+00  0.00000000000E+00 -0.11638625710E+04  0.11638625710E+04  0.25500000920E-02 0.  1.
    10030    2    1    2    0    0  0.00000000000E+00  0.00000000000E+00  0.31279319084E+03  0.26405183329E+04  0.26219262930E+04 0.  0.
        2    1    3    3  502    0 -0.86414163607E+03  0.55734561997E+03 -0.66254206725E+03  0.12232485022E+04  0.25500000920E-02 0.  1.
       -2    1    3    3    0  502  0.86414163607E+03 -0.55734561997E+03  0.97533525809E+03  0.14172698307E+04  0.25500000920E-02 0. -1.
</event>
<event>
 5   0  0.1005265E-05  0.2695082E+04  0.7818609E-02  0.8336603E-01
        1   -1    0    0  501    0  0.00000000000E+00  0.00000000000E+00  0.16179602774E+04  0.16179602774E+04  0.50400001928E-02 0. -1.
       -1   -1    0    0    0  501  0.00000000000E+00  0.00000000000E+00 -0.11223183213E+04  0.11223183214E+04  0.50400001928E-02 0.  1.
    10030    2    1    2    0    0  0.00000000000E+00  0.00000000000E+00  0.49564195605E+03  0.27402785987E+04  0.26950817891E+04 0.  0.
        3    1    3    3  502    0  0.20920486057E+03  0.17737166597E+03  0.15892791430E+04  0.16127726393E+04  0.10100000352E+00 0. -1.
       -3    1    3    3    0  502 -0.20920486057E+03 -0.17737166597E+03 -0.10936371870E+04  0.11275059594E+04  0.10100000352E+00 0.  1.
</event>
<event>
 5   0  0.2641216E-05  0.2599553E+04  0.7818609E-02  0.8368353E-01
       -2   -1    0    0    0  501  0.00000000000E+00  0.00000000000E+00  0.94342696978E+03  0.94342696979E+03  0.25500000920E-02 0. -1.
        2   -1    0    0  501    0  0.00000000000E+00  0.00000000000E+00 -0.17907252743E+04  0.17907252743E+04  0.25500000920E-02 0.  1.
    10030    2    1    2    0    0  0.00000000000E+00  0.00000000000E+00 -0.84729830454E+03  0.27341522441E+04  0.25995526686E+04 0.  0.
        5    1    3    3  502    0  0.38195813708E+03 -0.54665898999E+03  0.74976385290E+03  0.10034420735E+04  0.46999998093E+01 0. -1.
       -5    1    3    3    0  502 -0.38195813708E+03  0.54665898999E+03 -0.15970621574E+04  0.17307101706E+04  0.46999998093E+01 0.  1.
</event>
<event>
 5   0  0.1036691E-05  0.2696581E+04  0.7818609E-02  0.8336115E-01
       -1   -1    0    0    0  501  0.00000000000E+00  0.00000000000E+00  0.12358891007E+04  0.12358891008E+04  0.50400001928E-02 0. -1.
        1   -1    0    0  501    0  0.00000000000E+00  0.00000000000E+00 -0.14709141340E+04  0.14709141340E+04  0.50400001928E-02 0.  1.
    10030    2    1    2    0    0  0.00000000000E+00  0.00000000000E+00 -0.23502503330E+03  0.27068032348E+04  0.26965806099E+04 0.  0.
        4    1    3    3  502    0  0.86025571824E+03  0.96850365376E+03 -0.49288994698E+03  0.13859947117E+04  0.12699999809E+01 0.  1.
       -4    1    3    3    0  502 -0.86025571824E+03 -0.96850365376E+03  0.25786491368E+03  0.13208085231E+04  0.12699999809E+01 0. -1.
</event>
<event>
 5   0  0.2540684E-05  0.2737364E+04  0.7818609E-02  0.8322983E-01
        2   -1    0    0  501    0  0.00000000000E+00  0.00000000000E+00  0.16133392449E+04  0.16133392449E+04  0.25500000920E-02 0.  1.
       -2   -1    0    0    0  501  0.00000000000E+00  0.00000000000E+00 -0.11611261472E+04  0.11611261472E+04  0.25500000920E-02 0. -1.
    10030    2    1    2    0    0  0.00000000000E+00  0.00000000000E+00  0.45221309766E+03  0.27744653921E+04  0.27373639741E+04 0.  0.
        2    1    3    3  502    0  0.83223804523E+03 -0.10036674447E+04 -0.19585556360E+03  0.13184566376E+04  0.25500000920E-02 0. -1.
       -2    1    3    3    0  502 -0.83223804523E+03  0.10036674447E+04  0.64806866126E+03  0.14560087545E+04  0.25500000920E-02 0.  1.
</event>
<event>
 5   0  0.1005265E-05  0.2639955E+04  0.7818609E-02  0.8354755E-01
       -1   -1    0    0    0  501  0.00000000000E+00  0.00000000000E+00  0.12596366328E+04  0.12596366328E+04  0.50400001928E-02 0.  1.
        1   -1    0    0  501    0  0.00000000000E+00  0.00000000000E+00 -0.13832086654E+04  0.13832086654E+04  0.50400001928E-02 0. -1.
    10030    2    1    2    0    0  0.00000000000E+00  0.00000000000E+00 -0.12357203254E+03  0.26428452982E+04  0.26399547767E+04 0.  0.
        3    1    3    3  502    0  0.94227427158E+03 -0.59355137998E+03  0.64761971324E+03  0.12882528272E+04  0.10100000352E+00 0.  1.
       -3    1    3    3    0  502 -0.94227427158E+03  0.59355137998E+03 -0.77119174578E+03  0.13545924710E+04  0.10100000352E+00 0. -1.
</event>
<event>
 5   0  0.1041909E-05  0.2669136E+04  0.7818609E-02  0.8345089E-01
        1   -1    0    0  501    0  0.00000000000E+00  0.00000000000E+00  0.16874204772E+04  0.16874204772E+04  0.50400001928E-02 0.  1.
       -1   -1    0    0    0  501  0.00000000000E+00  0.00000000000E+00 -0.10554998416E+04  0.10554998416E+04  0.50400001928E-02 0. -1.
    10030    2    1    2    0    0  0.00000000000E+00  0.00000000000E+00  0.63192063565E+03  0.27429203188E+04  0.26691362246E+04 0.  0.
        5    1    3    3  502    0  0.10251815484E+04  0.52782081306E+03 -0.37451967530E+03  0.12123857039E+04  0.46999998093E+01 0. -1.
       -5    1    3    3    0  502 -0.10251815484E+04 -0.52782081306E+03  0.10064403109E+04  0.15305346149E+04  0.46999998093E+01 0.  1.
</event>
<event>
 5   0  0.9971923E-06  0.2775332E+04  0.7818609E-02  0.8310968E-01
       -1   -1    0    0    0  501  0.00000000000E+00  0.00000000000E+00  0.10335282589E+04  0.10335282589E+04  0.50400001928E-02 0. -1.
        1   -1    0    0  501    0  0.00000000000E+00  0.00000000000E+00 -0.18631484982E+04  0.18631484982E+04  0.50400001928E-02 0.  1.
    10030    2    1    2    0    0  0.00000000000E+00  0.00000000000E+00 -0.82962023932E+03  0.28966767571E+04  0.27753317808E+04 0.  0.
        2    1    3    3  502    0 -0.82807483072E+03 -0.10622788111E+04 -0.66337346583E+02  0.13485343308E+04  0.25500000920E-02 0. -1.
       -2    1    3    3    0  502  0.82807483072E+03  0.10622788111E+04 -0.76328289273E+03  0.15481424263E+04  0.25500000920E-02 0.  1.
</event>
<event>
 5   0  0.1041909E-05  0.2706814E+04  0.7818609E-02  0.8332797E-01
        1   -1    0    0  501    0  0.00000000000E+00  0.00000000000E+00  0.14004108298E+04  0.14004108298E+04  0.50400001928E-02 0.  1.
       -1   -1    0    0    0  501  0.00000000000E+00  0.00000000000E+00 -0.13079807700E+04  0.13079807700E+04  0.50400001928E-02 0. -1.
    10030    2    1    2    0    0  0.00000000000E+00  0.00000000000E+00  0.92430059794E+02  0.27083915999E+04  0.27068139468E+04 0.  0.
        5    1    3    3  502    0 -0.71148104806E+03  0.61789978764E+03  0.10182146589E+04  0.13873675111E+04  0.46999998093E+01 0.  1.
       -5    1    3    3    0  502  0.71148104806E+03 -0.61789978764E+03 -0.92578459907E+03  0.13210240888E+04  0.46999998093E+01 0. -1.
</event>
<event>
 5   0  0.2540684E-05  0.2765032E+04  0.7818609E-02  0.8314208E-01
        2   -1    0    0  501    0  0.00000000000E+00  0.00000000000E+00  0.14731650037E+04  0.14731650037E+04  0.25500000920E-02 0. -1.
       -2   -1    0    0    0  501  0.00000000000E+00  0.00000000000E+00 -0.12974447992E+04  0.12974447992E+04  0.25500000920E-02 0.  1.
    10030    2    1    2    0    0  0.00000000000E+00  0.00000000000E+00  0.17572020451E+03  0.27706098028E+04  0.27650318424E+04 0.  0.
        2    1    3    3  502    0 -0.11594915299E+04 -0.55495968505E+03 -0.42203717664E+03  0.13529657196E+04  0.25500000920E-02 0.  1.
       -2    1    3    3    0  502  0.11594915299E+04  0.55495968505E+03  0.59775738115E+03  0.14176440832E+04  0.25500000920E-02 0. -1.
</event>
<event>
 5   0  0.2540684E-05  0.2723920E+04  0.7818609E-02  0.8327285E-01
        2   -1    0    0  501    0  0.00000000000E+00  0.00000000000E+00  0.15359275771E+04  0.15359275771E+04  0.25500000920E-02 0.  1.
       -2   -1    0    0    0  501  0.00000000000E+00  0.00000000000E+00 -0.12076973431E+04  0.12076973431E+04  0.25500000920E-02 0. -1.
    10030    2    1    2    0    0  0.00000000000E+00  0.00000000000E+00  0.32823023404E+03  0.27436249202E+04  0.27239204497E+04 0.  0.
        2    1    3    3  502    0  0.21852968374E+03 -0.73697373022E+03  0.12965479992E+04  0.15072896921E+04  0.25500000920E-02 0.  1.
       -2    1    3    3    0  502 -0.21852968374E+03  0.73697373022E+03 -0.96831776520E+03  0.12363352281E+04  0.25500000920E-02 0. -1.
</event>
<event>
 5   0  0.1036691E-05  0.2637418E+04  0.7818609E-02  0.8355601E-01
        1   -1    0    0  501    0  0.00000000000E+00  0.00000000000E+00  0.13764563483E+04  0.13764563483E+04  0.50400001928E-02 0. -1.
       -1   -1    0    0    0  501  0.00000000000E+00  0.00000000000E+00 -0.12633839371E+04  0.12633839372E+04  0.50400001928E-02 0.  1.
    10030    2    1    2    0    0  0.00000000000E+00  0.00000000000E+00  0.11307241111E+03  0.26398402854E+04  0.26374175556E+04 0.  0.
        4    1    3    3  502    0  0.16416621363E+03  0.12039022758E+04  0.56951064215E+03  0.13418924024E+04  0.12699999809E+01 0.  1.
       -4    1    3    3    0  502 -0.16416621363E+03 -0.12039022758E+04 -0.45643823104E+03  0.12979478830E+04  0.12699999809E+01 0. -1.
</event>
<event>
 5   0  0.2516518E-05  0.2586879E+04  0.7818609E-02  0.8372672E-01
        2   -1    0    0  501    0  0.00000000000E+00  0.00000000000E+00  0.97963295107E+03  0.97963295107E+03  0.25500000920E-02 0.  1.
       -2   -1    0    0    0  501  0.00000000000E+00  0.00000000000E+00 -0.17077681154E+04  0.17077681154E+04  0.25500000920E-02 0. -1.
    10030    2    1    2    0    0  0.00000000000E+00  0.00000000000E+00 -0.72813516435E+03  0.26874010665E+04  0.25868791380E+04 0.  0.
        4    1    3    3  502    0 -0.12361101851E+04 -0.49680637450E+02  0.28158554626E+02  0.12374292192E+04  0.12699999809E+01 0.  1.
       -4    1    3    3    0  502  0.12361101851E+04  0.49680637450E+02 -0.75629371898E+03  0.14499718472E+04  0.12699999809E+01 0. -1.
</event>
<event>
 5   0  0.8740500E-06  0.2116206E+04  0.7818609E-02  0.8554138E-01
       -3   -1    0    0    0  501  0.00000000000E+00  0.00000000000E+00  0.97006361703E+03  0.97006362229E+03  0.10100000352E+00 0. -1.
        3   -1    0    0  501    0  0.00000000000E+00  0.00000000000E+00 -0.11541324295E+04  0.11541324339E+04  0.10100000352E+00 0.  1.
    10030    2    1    2    0    0  0.00000000000E+00  0.00000000000E+00 -0.18406881244E+03  0.21241960562E+04  0.21162059345E+04 0.  0.
        4    1    3    3  502    0 -0.50588739695E+03 -0.31762993194E+03 -0.96869869127E+03  0.11380639698E+04  0.12699999809E+01 0.  1.
       -4    1    3    3    0  502  0.50588739695E+03  0.31762993194E+03  0.78462987884E+03  0.98613208634E+03  0.12699999809E+01 0. -1.
</event>
<event>
 5   0  0.1041909E-05  0.2515929E+04  0.7818609E-02  0.8397333E-01
       -1   -1    0    0    0  501  0.00000000000E+00  0.00000000000E+00  0.68393023309E+03  0.68393023310E+03  0.50400001928E-02 0.  1.
        1   -1    0    0  501    0  0.00000000000E+00  0.00000000000E+00 -0.23137958219E+04  0.23137958219E+04  0.50400001928E-02 0. -1.
    10030    2    1    2    0    0  0.00000000000E+00  0.00000000000E+00 -0.16298655888E+04  0.29977260550E+04  0.25159291849E+04 0.  0.
        5    1    3    3  502    0 -0.31707847674E+03 -0.10868400760E+04 -0.16156912364E+03  0.11436287785E+04  0.46999998093E+01 0.  1.
       -5    1    3    3    0  502  0.31707847674E+03  0.10868400760E+04 -0.14682964652E+04  0.18540972765E+04  0.46999998093E+01 0. -1.
</event>
<event>
 5   0  0.1005265E-05  0.2704334E+04  0.7818609E-02  0.8333600E-01
       -1   -1    0    0    0  501  0.00000000000E+00  0.00000000000E+00  0.17703833365E+04  0.17703833365E+04  0.50400001928E-02 0.  1.
        1   -1    0    0  501    0  0.00000000000E+00  0.00000000000E+00 -0.10327459144E+04  0.10327459144E+04  0.50400001928E-02 0. -1.
    10030    2    1    2    0    0  0.00000000000E+00  0.00000000000E+00  0.73763742212E+03  0.28031292510E+04  0.27043344156E+04 0.  0.
        3    1    3    3  502    0 -0.64150434637E+03  0.82800349598E+03 -0.51754560238E+03  0.11683197664E+04  0.10100000352E+00 0. -1.
       -3    1    3    3    0  502  0.64150434637E+03 -0.82800349598E+03  0.12551830245E+04  0.16348094846E+04  0.10100000352E+00 0.  1.
</event>
<event>
 5   0  0.2540684E-05  0.2826469E+04  0.7818609E-02  0.8295098E-01
        2   -1    0    0  501    0  0.00000000000E+00  0.00000000000E+00  0.14721997844E+04  0.14721997844E+04  0.25500000920E-02 0. -1.
       -2   -1    0    0    0  501  0.00000000000E+00  0.00000000000E+00 -0.13566312292E+04  0.13566312292E+04  0.25500000920E-02 0.  1.
    10030    2    1    2    0    0  0.00000000000E+00  0.00000000000E+00  0.11556855523E+03  0.28288310136E+04  0.28264693193E+04 0.  0.
        2    1    3    3  502    0  0.13898458796E+03  0.15935907509E+03  0.14562779118E+04  0.14715493151E+04  0.25500000920E-02 0. -1.
       -2    1    3    3    0  502 -0.13898458796E+03 -0.15935907509E+03 -0.13407093565E+04  0.13572816985E+04  0.25500000920E-02 0.  1.
</event>
<event>
 5   0  0.1096672E-05  0.2728140E+04  0.7818609E-02  0.8325932E-01
        1   -1    0    0  501    0  0.00000000000E+00  0.00000000000E+00  0.23914849873E+04  0.23914849873E+04  0.50400001928E-02 0. -1.
       -1   -1    0    0    0  501  0.00000000000E+00  0.00000000000E+00 -0.77804691423E+03  0.77804691425E+03  0.50400001928E-02 0.  1.
    10030    2    1    2    0    0  0.00000000000E+00  0.00000000000E+00  0.16134380731E+04  0.31695319016E+04  0.27281404032E+04 0.  0.
        1    1    3    3  502    0 -0.14327158477E+03 -0.89410007465E+03  0.19919438863E+04  0.21881001204E+04  0.50400001928E-02 0. -1.
       -1    1    3    3    0  502  0.14327158477E+03  0.89410007465E+03 -0.37850581322E+03  0.98143178121E+03  0.50400001928E-02 0.  1.
</event>
<event>
 5   0  0.2540684E-05  0.2583372E+04  0.7818609E-02  0.8373871E-01
       -2   -1    0    0    0  501  0.00000000000E+00  0.00000000000E+00  0.11527955462E+04  0.11527955462E+04  0.25500000920E-02 0. -1.
        2   -1    0    0  501    0  0.00000000000E+00  0.00000000000E+00 -0.14473100737E+04  0.14473100737E+04  0.25500000920E-02 0.  1.
    10030    2    1    2    0    0  0.00000000000E+00  0.00000000000E+00 -0.29451452756E+03  0.26001056199E+04  0.25833719105E+04 0.  0.
        2    1    3    3  502    0  0.12352354148E+04 -0.37394632306E+03 -0.20061219537E+03  0.13060963346E+04  0.25500000920E-02 0.  1.
       -2    1    3    3    0  502 -0.12352354148E+04  0.37394632306E+03 -0.93902332182E+02  0.12940092853E+04  0.25500000920E-02 0. -1.
</event>
<event>
 5   0  0.2540684E-05  0.2708270E+04  0.7818609E-02  0.8332327E-01
       -2   -1    0    0    0  501  0.00000000000E+00  0.00000000000E+00  0.20759597181E+04  0.20759597181E+04  0.25500000920E-02 0.  1.
        2   -1    0    0  501    0  0.00000000000E+00  0.00000000000E+00 -0.88329330006E+03  0.88329330006E+03  0.25500000920E-02 0. -1.
    10030    2    1    2    0    0  0.00000000000E+00  0.00000000000E+00  0.11926664181E+04  0.29592530182E+04  0.27082697873E+04 0.  0.
        2    1    3    3  502    0 -0.10080805783E+04 -0.79715085266E+03  0.10624902866E+04  0.16675015872E+04  0.25500000920E-02 0. -1.
       -2    1    3    3    0  502  0.10080805783E+04  0.79715085266E+03  0.13017613145E+03  0.12917514310E+04  0.25500000920E-02 0.  1.
</event>
<event>
 5   0  0.1005265E-05  0.2685141E+04  0.7818609E-02  0.8339842E-01
        1   -1    0    0  501    0  0.00000000000E+00  0.00000000000E+00  0.14896769953E+04  0.14896769953E+04  0.50400001928E-02 0. -1.
       -1   -1    0    0    0  501  0.00000000000E+00  0.00000000000E+00 -0.12099905741E+04  0.12099905741E+04  0.50400001928E-02 0.  1.
    10030    2    1    2    0    0  0.00000000000E+00  0.00000000000E+00  0.27968642122E+03  0.26996675694E+04  0.26851406837E+04 0.  0.
        3    1    3    3  502    0  0.40373916925E+03 -0.40038435625E+03 -0.10829529749E+04  0.12231517099E+04  0.10100000352E+00 0.  1.
       -3    1    3    3    0  502 -0.40373916925E+03  0.40038435625E+03  0.13626393961E+04  0.14765158595E+04  0.10100000352E+00 0. -1.
</event>
<event>
 5   0  0.1096672E-05  0.2704049E+04  0.7818609E-02  0.8333692E-01
       -1   -1    0    0    0  501  0.00000000000E+00  0.00000000000E+00  0.23311492746E+04  0.23311492746E+04  0.50400001928E-02 0. -1.
        1   -1    0    0  501    0  0.00000000000E+00  0.00000000000E+00 -0.78414965076E+03  0.78414965078E+03  0.50400001928E-02 0.  1.
    10030    2    1    2    0    0  0.00000000000E+00  0.00000000000E+00  0.15469996239E+04  0.31152989254E+04  0.27040487345E+04 0.  0.
        1    1    3    3  502    0 -0.22409840642E+03  0.95223436076E+03 -0.30171234869E+03  0.10237190606E+04  0.50400001928E-02 0.  1.
       -1    1    3    3    0  502  0.22409840642E+03 -0.95223436076E+03  0.18487119726E+04  0.20915798649E+04  0.50400001928E-02 0. -1.
</event>
<event>
 5   0  0.1005265E-05  0.2693021E+04  0.7818609E-02  0.8337273E-01
       -1   -1    0    0    0  501  0.00000000000E+00  0.00000000000E+00  0.13623509321E+04  0.13623509322E+04  0.50400001928E-02 0. -1.
        1   -1    0    0  501    0  0.00000000000E+00  0.00000000000E+00 -0.13308547230E+04  0.13308547231E+04  0.50400001928E-02 0.  1.
    10030    2    1    2    0    0  0.00000000000E+00  0.00000000000E+00  0.31496209099E+02  0.26932056552E+04  0.26930214797E+04 0.  0.
        3    1    3    3  502    0 -0.62527257102E+03  0.11154156431E+04 -0.40614958616E+03  0.13416688643E+04  0.10100000352E+00 0.  1.
       -3    1    3    3    0  502  0.62527257102E+03 -0.11154156431E+04  0.43764579526E+03  0.13515367909E+04  0.10100000352E+00 0. -1.
</event>
<event>
 5   0  0.8740500E-06  0.2633492E+04  0.7818609E-02  0.8356913E-01
       -3   -1    0    0    0  501  0.00000000000E+00  0.00000000000E+00  0.15250440555E+04  0.15250440589E+04  0.10100000352E+00 0.  1.
        3   -1    0    0  501    0  0.00000000000E+00  0.00000000000E+00 -0.11368984410E+04  0.11368984455E+04  0.10100000352E+00 0. -1.
    10030    2    1    2    0    0  0.00000000000E+00  0.00000000000E+00  0.38814561450E+03  0.26619425043E+04  0.26334921451E+04 0.  0.
        2    1    3    3  502    0  0.10074010723E+04  0.80729672826E+03  0.45617176252E+03  0.13691886667E+04  0.25500000920E-02 0. -1.
       -2    1    3    3    0  502 -0.10074010723E+04 -0.80729672826E+03 -0.68026148013E+02  0.12927538377E+04  0.25500000920E-02 0.  1.
</event>
<event>
 5   0  0.1036691E-05  0.2680764E+04  0.7818609E-02  0.8341274E-01
        1   -1    0    0  501    0  0.00000000000E+00  0.00000000000E+00  0.15605753160E+04  0.15605753160E+04  0.50400001928E-02 0. -1.
       -1   -1    0    0    0  501  0.00000000000E+00  0.00000000000E+00 -0.11512570905E+04  0.11512570905E+04  0.50400001928E-02 0.  1.
    10030    2    1    2    0    0  0.00000000000E+00  0.00000000000E+00  0.40931822552E+03  0.27118324065E+04  0.26807636209E+04 0.  0.
        4    1    3    3  502    0  0.89937876078E+02 -0.11624687603E+04 -0.46421451972E+03  0.12549578373E+04  0.12699999809E+01 0. -1.
       -4    1    3    3    0  502 -0.89937876078E+02  0.11624687603E+04  0.87353274524E+03  0.14568745691E+04  0.12699999809E+01 0.  1.
</event>
<event>
 5   0  0.1036691E-05  0.2683224E+04  0.7818609E-02  0.8340469E-01
       -1   -1    0    0    0  501  0.00000000000E+00  0.00000000000E+00  0.89986788451E+03  0.89986788453E+03  0.50400001928E-02 0.  1.
        1   -1    0    0  501    0  0.00000000000E+00  0.00000000000E+00 -0.20002075767E+04  0.20002075767E+04  0.50400001928E-02 0. -1.
    10030    2    1    2    0    0  0.00000000000E+00  0.00000000000E+00 -0.11003396922E+04  0.29000754612E+04  0.26832238525E+04 0.  0.
        4    1    3    3  502    0 -0.12550038527E+04  0.36020812365E+03 -0.88353923250E+03  0.15765239455E+04  0.12699999809E+01 0.  1.
       -4    1    3    3    0  502  0.12550038527E+04 -0.36020812365E+03 -0.21680045968E+03  0.13235515157E+04  0.12699999809E+01 0. -1.
</event>
<event>
 5   0  0.2540232E-05  0.2498205E+04  0.7818609E-02  0.8403625E-01
       -2   -1    0    0    0  501  0.00000000000E+00  0.00000000000E+00  0.10513940763E+04  0.10513940763E+04  0.25500000920E-02 0.  1.
        2   -1    0    0  501    0  0.00000000000E+00  0.00000000000E+00 -0.14839892770E+04  0.14839892770E+04  0.25500000920E-02 0. -1.
    10030    2    1    2    0    0  0.00000000000E+00  0.00000000000E+00 -0.43259520071E+03  0.25353833534E+04  0.24982053840E+04 0.  0.
        1    1    3    3  502    0  0.18982481497E+02 -0.72981063468E+02  0.10490818304E+04  0.10517885991E+04  0.50400001928E-02 0.  1.
       -1    1    3    3    0  502 -0.18982481497E+02  0.72981063468E+02 -0.14816770311E+04  0.14835947543E+04  0.50400001928E-02 0. -1.
</event>
<event>
 5   0  0.2615843E-05  0.2883890E+04  0.7818609E-02  0.8277687E-01
       -2   -1    0    0    0  501  0.00000000000E+00  0.00000000000E+00  0.16366906595E+04  0.16366906595E+04  0.25500000920E-02 0. -1.
        2   -1    0    0  501    0  0.00000000000E+00  0.00000000000E+00 -0.12703719095E+04  0.12703719095E+04  0.25500000920E-02 0.  1.
    10030    2    1    2    0    0  0.00000000000E+00  0.00000000000E+00  0.36631874995E+03  0.29070625690E+04  0.28838903158E+04 0.  0.
        3    1    3    3  502    0 -0.57947988133E+03 -0.85405735429E+03 -0.83190487524E+03  0.13256231097E+04  0.10100000352E+00 0.  1.
       -3    1    3    3    0  502  0.57947988133E+03  0.85405735429E+03  0.11982236252E+04  0.15814394593E+04  0.10100000352E+00 0. -1.
</event>
<event>
 5   0  0.1041909E-05  0.2701556E+04  0.7818609E-02  0.8334500E-01
       -1   -1    0    0    0  501  0.00000000000E+00  0.00000000000E+00  0.76375344656E+03  0.76375344658E+03  0.50400001928E-02 0.  1.
        1   -1    0    0  501    0  0.00000000000E+00  0.00000000000E+00 -0.23889928205E+04  0.23889928205E+04  0.50400001928E-02 0. -1.
    10030    2    1    2    0    0  0.00000000000E+00  0.00000000000E+00 -0.16252393739E+04  0.31527462671E+04  0.27015562186E+04 0.  0.
        5    1    3    3  502    0 -0.11244941091E+04 -0.17016493528E+03  0.37887532044E+02  0.11379370201E+04  0.46999998093E+01 0. -1.
       -5    1    3    3    0  502  0.11244941091E+04  0.17016493528E+03 -0.16631269060E+04  0.20148092470E+04  0.46999998093E+01 0.  1.
</event>
<event>
 5   0  0.2540684E-05  0.1823941E+04  0.7818609E-02  0.8693670E-01
        2   -1    0    0  501    0  0.00000000000E+00  0.00000000000E+00  0.12321960833E+04  0.12321960833E+04  0.25500000920E-02 0.  1.
       -2   -1    0    0    0  501  0.00000000000E+00  0.00000000000E+00 -0.67496591877E+03  0.67496591877E+03  0.25500000920E-02 0. -1.
    10030    2    1    2    0    0  0.00000000000E+00  0.00000000000E+00  0.55723016449E+03  0.19071620020E+04  0.18239411849E+04 0.  0.
        2    1    3    3  502    0 -0.51026924176E+03  0.64204566791E+03  0.69567871533E+03  0.10754376847E+04  0.25500000920E-02 0.  1.
       -2    1    3    3    0  502  0.51026924176E+03 -0.64204566791E+03 -0.13844855084E+03  0.83172431731E+03  0.25500000920E-02 0. -1.
</event>
<event>
 5   0  0.2516518E-05  0.2627225E+04  0.7818609E-02  0.8359012E-01
       -2   -1    0    0    0  501  0.00000000000E+00  0.00000000000E+00  0.11062706324E+04  0.11062706324E+04  0.25500000920E-02 0. -1.
        2   -1    0    0  501    0  0.00000000000E+00  0.00000000000E+00 -0.15598147474E+04  0.15598147474E+04  0.25500000920E-02 0.  1.
    10030    2    1    2    0    0  0.00000000000E+00  0.00000000000E+00 -0.45354411499E+03  0.26660853798E+04  0.26272245789E+04 0.  0.
        4    1    3    3  502    0  0.92883942602E+03 -0.78203894693E+03  0.28188865620E+03  0.12465113001E+04  0.12699999809E+01 0. -1.
       -4    1    3    3    0  502 -0.92883942602E+03  0.78203894693E+03 -0.73543277119E+03  0.14195740797E+04  0.12699999809E+01 0.  1.
</event>
<event>
 5   0  0.1036691E-05  0.2115149E+04  0.7818609E-02  0.8554599E-01
        1   -1    0    0  501    0  0.00000000000E+00  0.00000000000E+00  0.16511198131E+04  0.16511198131E+04  0.50400001928E-02 0. -1.
       -1   -1    0    0    0  501  0.00000000000E+00  0.00000000000E+00 -0.67739698373E+03  0.67739698375E+03  0.50400001928E-02 0.  1.
    10030    2    1    2    0    0  0.00000000000E+00  0.00000000000E+00  0.97372282939E+03  0.23285167969E+04  0.21151487713E+04 0.  0.
        4    1    3    3  502    0 -0.29239475492E+03 -0.30717699512E+03  0.15534107381E+04  0.16102605171E+04  0.12699999809E+01 0. -1.
       -4    1    3    3    0  502  0.29239475492E+03  0.30717699512E+03 -0.57968790867E+03  0.71825627975E+03  0.12699999809E+01 0.  1.
</event>
<event>
 5   0  0.2641216E-05  0.2173668E+04  0.7818609E-02  0.8529469E-01
        2   -1    0    0  501    0  0.00000000000E+00  0.00000000000E+00  0.25254053478E+04  0.25254053478E+04  0.25500000920E-02 0.  1.
       -2   -1    0    0    0  501  0.00000000000E+00  0.00000000000E+00 -0.46773008313E+03  0.46773008314E+03  0.25500000920E-02 0. -1.
    10030    2    1    2    0    0  0.00000000000E+00  0.00000000000E+00  0.20576752647E+04  0.29931354309E+04  0.21736679169E+04 0.  0.
        5    1    3    3  502    0  0.18326664211E+03  0.45557999219E+03 -0.30624382830E+03  0.57874619979E+03  0.46999998093E+01 0. -1.
       -5    1    3    3    0  502 -0.18326664211E+03 -0.45557999219E+03  0.23639190930E+04  0.24143892311E+04  0.46999998093E+01 0.  1.
</event>
<event>
 5   0  0.2540232E-05  0.2733132E+04  0.7818609E-02  0.8324334E-01
        2   -1    0    0  501    0  0.00000000000E+00  0.00000000000E+00  0.26850210536E+04  0.26850210536E+04  0.25500000920E-02 0.  1.
       -2   -1    0    0    0  501  0.00000000000E+00  0.00000000000E+00 -0.69552621548E+03  0.69552621549E+03  0.25500000920E-02 0. -1.
    10030    2    1    2    0    0  0.00000000000E+00  0.00000000000E+00  0.19894948381E+04  0.33805472691E+04  0.27331319265E+04 0.  0.
        1    1    3    3  502    0 -0.10492598380E+04 -0.34583741231E+03 -0.11429706245E+00  0.11047849277E+04  0.50400001928E-02 0. -1.
       -1    1    3    3    0  502  0.10492598380E+04  0.34583741231E+03  0.19896091352E+04  0.22757623413E+04  0.50400001928E-02 0.  1.
</event>
<event>
 5   0  0.1036691E-05  0.2701627E+04  0.7818609E-02  0.8334477E-01
       -1   -1    0    0    0  501  0.00000000000E+00  0.00000000000E+00  0.99528465350E+03  0.99528465352E+03  0.50400001928E-02 0.  1.
        1   -1    0    0  501    0  0.00000000000E+00  0.00000000000E+00 -0.18333416720E+04  0.18333416721E+04  0.50400001928E-02 0. -1.
    10030    2    1    2    0    0  0.00000000000E+00  0.00000000000E+00 -0.83805701854E+03  0.28286263256E+04  0.27016267920E+04 0.  0.
        4    1    3    3  502    0 -0.87685423706E+03 -0.67959970029E+03 -0.12259495840E+04  0.16533853456E+04  0.12699999809E+01 0. -1.
       -4    1    3    3    0  502  0.87685423706E+03  0.67959970029E+03  0.38789256548E+03  0.11752409799E+04  0.12699999809E+01 0.  1.
</event>
<event>
 5   0  0.1005265E-05  0.2725312E+04  0.7818609E-02  0.8326839E-01
       -1   -1    0    0    0  501  0.00000000000E+00  0.00000000000E+00  0.12036671633E+04  0.12036671633E+04  0.50400001928E-02 0.  1.
        1   -1    0    0  501    0  0.00000000000E+00  0.00000000000E+00 -0.15426453304E+04  0.15426453304E+04  0.50400001928E-02 0. -1.
    10030    2    1    2    0    0  0.00000000000E+00  0.00000000000E+00 -0.33897816708E+03  0.27463124936E+04  0.27253121133E+04 0.  0.
        3    1    3    3  502    0 -0.12188969225E+04  0.30030845539E+03 -0.70360792710E+03  0.14390826944E+04  0.10100000352E+00 0. -1.
       -3    1    3    3    0  502  0.12188969225E+04 -0.30030845539E+03  0.36462976002E+03  0.13072297993E+04  0.10100000352E+00 0.  1.
</event>
<event>
 5   0  0.2516518E-05  0.2721152E+04  0.7818609E-02  0.8328175E-01
        2   -1    0    0  501    0  0.00000000000E+00  0.00000000000E+00  0.19269707477E+04  0.19269707477E+04  0.25500000920E-02 0.  1.
       -2   -1    0    0    0  501  0.00000000000E+00  0.00000000000E+00 -0.96066141282E+03  0.96066141282E+03  0.25500000920E-02 0. -1.
    10030    2    1    2    0    0  0.00000000000E+00  0.00000000000E+00  0.96630933490E+03  0.28876321605E+04  0.27211515511E+04 0.  0.
        4    1    3    3  502    0 -0.70771370494E+03  0.59273522377E+03  0.15437888047E+04  0.17987437895E+04  0.12699999809E+01 0.  1.
       -4    1    3    3    0  502  0.70771370494E+03 -0.59273522377E+03 -0.57747946983E+03  0.10888883711E+04  0.12699999809E+01 0. -1.
</event>
<event>
 5   0  0.2615843E-05  0.2727805E+04  0.7818609E-02  0.8326039E-01
       -2   -1    0    0    0  501  0.00000000000E+00  0.00000000000E+00  0.17500301566E+04  0.17500301566E+04  0.25500000920E-02 0. -1.
        2   -1    0    0  501    0  0.00000000000E+00  0.00000000000E+00 -0.10629699330E+04  0.10629699330E+04  0.25500000920E-02 0.  1.
    10030    2    1    2    0    0  0.00000000000E+00  0.00000000000E+00  0.68706022365E+03  0.28130000896E+04  0.27278045665E+04 0.  0.
        3    1    3    3  502    0  0.10436185852E+02  0.97875182323E+03 -0.63595891103E+03  0.11672650908E+04  0.10100000352E+00 0.  1.
       -3    1    3    3    0  502 -0.10436185852E+02 -0.97875182323E+03  0.13230191347E+04  0.16457349988E+04  0.10100000352E+00 0. -1.
</event>
<event>
 5   0  0.2540684E-05  0.2851801E+04  0.7818609E-02  0.8287364E-01
       -2   -1    0    0    0  501  0.00000000000E+00  0.00000000000E+00  0.10448020401E+04  0.10448020401E+04  0.25500000920E-02 0. -1.
        2   -1    0    0  501    0  0.00000000000E+00  0.00000000000E+00 -0.19460070769E+04  0.19460070769E+04  0.25500000920E-02 0.  1.
    10030    2    1    2    0    0  0.00000000000E+00  0.00000000000E+00 -0.90120503680E+03  0.29908091169E+04  0.28518009495E+04 0.  0.
        2    1    3    3  502    0  0.69975166104E+03  0.12656113372E+03  0.84557126014E+03  0.11048352202E+04  0.25500000920E-02 0. -1.
       -2    1    3    3    0  502 -0.69975166104E+03 -0.12656113372E+03 -0.17467762969E+04  0.18859738968E+04  0.25500000920E-02 0.  1.
</event>
<event>
 5   0  0.2540684E-05  0.2182408E+04  0.7818609E-02  0.8525786E-01
       -2   -1    0    0    0  501  0.00000000000E+00  0.00000000000E+00  0.12010022495E+04  0.12010022495E+04  0.25500000920E-02 0.  1.
        2   -1    0    0  501    0  0.00000000000E+00  0.00000000000E+00 -0.99144363199E+03  0.99144363200E+03  0.25500000920E-02 0. -1.
    10030    2    1    2    0    0  0.00000000000E+00  0.00000000000E+00  0.20955861755E+03  0.21924458815E+04  0.21824078742E+04 0.  0.
        2    1    3    3  502    0  0.41156525951E+02  0.36534918748E+03 -0.92734690463E+03  0.99757013285E+03  0.25500000920E-02 0. -1.
       -2    1    3    3    0  502 -0.41156525951E+02 -0.36534918748E+03  0.11369055222E+04  0.11948757487E+04  0.25500000920E-02 0.  1.
</event>
<event>
 5   0  0.2516518E-05  0.2668259E+04  0.7818609E-02  0.8345378E-01
        2   -1    0    0  501    0  0.00000000000E+00  0.00000000000E+00  0.14604679035E+04  0.14604679035E+04  0.25500000920E-02 0.  1.
       -2   -1    0    0    0  501  0.00000000000E+00  0.00000000000E+00 -0.12187198046E+04  0.12187198046E+04  0.25500000920E-02 0. -1.
    10030    2    1    2    0    0  0.00000000000E+00  0.00000000000E+00  0.24174809884E+03  0.26791877081E+04  0.26682587266E+04 0.  0.
        4    1    3    3  502    0 -0.79149986749E+03 -0.88979250344E+03 -0.48300163155E+03  0.12851050262E+04  0.12699999809E+01 0. -1.
       -4    1    3    3    0  502  0.79149986749E+03  0.88979250344E+03  0.72474973039E+03  0.13940826819E+04  0.12699999809E+01 0.  1.
</event>
<event>
 5   0  0.2641216E-05  0.2696873E+04  0.7818609E-02  0.8336020E-01
       -2   -1    0    0    0  501  0.00000000000E+00  0.00000000000E+00  0.91751565742E+03  0.91751565742E+03  0.25500000920E-02 0.  1.
        2   -1    0    0  501    0  0.00000000000E+00  0.00000000000E+00 -0.19817442228E+04  0.19817442228E+04  0.25500000920E-02 0. -1.
    10030    2    1    2    0    0  0.00000000000E+00  0.00000000000E+00 -0.10642285654E+04  0.28992598802E+04  0.26968732661E+04 0.  0.
        5    1    3    3  502    0  0.10460378702E+04  0.28231468432E+03 -0.13950763813E+04  0.17663966165E+04  0.46999998093E+01 0. -1.
       -5    1    3    3    0  502 -0.10460378702E+04 -0.28231468432E+03  0.33084781598E+03  0.11328632637E+04  0.46999998093E+01 0.  1.
</event>
<event>
 5   0  0.2641216E-05  0.2675271E+04  0.7818609E-02  0.8343073E-01
       -2   -1    0    0    0  501  0.00000000000E+00  0.00000000000E+00  0.10254154301E+04  0.10254154301E+04  0.25500000920E-02 0. -1.
        2   -1    0    0  501    0  0.00000000000E+00  0.00000000000E+00 -0.17449211174E+04  0.17449211174E+04  0.25500000920E-02 0.  1.
    10030    2    1    2    0    0  0.00000000000E+00  0.00000000000E+00 -0.71950568730E+03  0.27703365475E+04  0.26752712297E+04 0.  0.
        5    1    3    3  502    0  0.59931751640E+03  0.14281799276E+03  0.86973207948E+03  0.10658491660E+04  0.46999998093E+01 0. -1.
       -5    1    3    3    0  502 -0.59931751640E+03 -0.14281799276E+03 -0.15892377668E+04  0.17044873816E+04  0.46999998093E+01 0.  1.
</event>
<event>
 5   0  0.2615843E-05  0.2586537E+04  0.7818609E-02  0.8372789E-01
        2   -1    0    0  501    0  0.00000000000E+00  0.00000000000E+00  0.19464209194E+04  0.19464209194E+04  0.25500000920E-02 0. -1.
       -2   -1    0    0    0  501  0.00000000000E+00  0.00000000000E+00 -0.85929166086E+03  0.85929166086E+03  0.25500000920E-02 0.  1.
    10030    2    1    2    0    0  0.00000000000E+00  0.00000000000E+00  0.10871292586E+04  0.28057125803E+04  0.25865368852E+04 0.  0.
        3    1    3    3  502    0 -0.82360774084E+03 -0.16690294427E+03  0.16098987126E+04  0.18160286834E+04  0.10100000352E+00 0. -1.
       -3    1    3    3    0  502  0.82360774084E+03  0.16690294427E+03 -0.52276945407E+03  0.98968389695E+03  0.10100000352E+00 0.  1.
</event>
<event>
 5   0  0.1096672E-05  0.2761168E+04  0.7818609E-02  0.8315427E-01
        1   -1    0    0  501    0  0.00000000000E+00  0.00000000000E+00  0.21192584632E+04  0.21192584632E+04  0.50400001928E-02 0.  1.
       -1   -1    0    0    0  501  0.00000000000E+00  0.00000000000E+00 -0.89937667164E+03  0.89937667165E+03  0.50400001928E-02 0. -1.
    10030    2    1    2    0    0  0.00000000000E+00  0.00000000000E+00  0.12198817915E+04  0.30186351348E+04  0.27611675958E+04 0.  0.
        1    1    3    3  502    0  0.86822048136E+03 -0.81352071262E+03  0.13755166246E+04  0.18186997385E+04  0.50400001928E-02 0. -1.
       -1    1    3    3    0  502 -0.86822048136E+03  0.81352071262E+03 -0.15563483309E+03  0.11999353963E+04  0.50400001928E-02 0.  1.
</event>
<event>
 5   0  0.1096672E-05  0.2768209E+04  0.7818609E-02  0.8313207E-01
       -1   -1    0    0    0  501  0.00000000000E+00  0.00000000000E+00  0.10763302440E+04  0.10763302440E+04  0.50400001928E-02 0.  1.
        1   -1    0    0  501    0  0.00000000000E+00  0.00000000000E+00 -0.17798867175E+04  0.17798867175E+04  0.50400001928E-02 0. -1.
    10030    2    1    2    0    0  0.00000000000E+00  0.00000000000E+00 -0.70355647344E+03  0.28562169615E+04  0.27682094610E+04 0.  0.
        1    1    3    3  502    0  0.28611447430E+03 -0.12604118720E+04 -0.86274599795E+03  0.15539724053E+04  0.50400001928E-02 0. -1.
       -1    1    3    3    0  502 -0.28611447430E+03  0.12604118720E+04  0.15918952451E+03  0.13022445562E+04  0.50400001928E-02 0.  1.
</event>
<event>
 5   0  0.2540684E-05  0.2696663E+04  0.7818609E-02  0.8336089E-01
       -2   -1    0    0    0  501  0.00000000000E+00  0.00000000000E+00  0.12071826925E+04  0.12071826925E+04  0.25500000920E-02 0. -1.
        2   -1    0    0  501    0  0.00000000000E+00  0.00000000000E+00 -0.15059839345E+04  0.15059839345E+04  0.25500000920E-02 0.  1.
    10030    2    1    2    0    0  0.00000000000E+00  0.00000000000E+00 -0.29880124207E+03  0.27131666270E+04  0.26966629310E+04 0.  0.
        2    1    3    3  502    0  0.90665305289E+03 -0.97887098980E+03 -0.34498571996E+03  0.13781231150E+04  0.25500000920E-02 0.  1.
       -2    1    3    3    0  502 -0.90665305289E+03  0.97887098980E+03  0.46184477890E+02  0.13350435120E+04  0.25500000920E-02 0. -1.
</event>
<event>
 5   0  0.2516518E-05  0.2648316E+04  0.7818609E-02  0.8351972E-01
       -2   -1    0    0    0  501  0.00000000000E+00  0.00000000000E+00  0.10154431238E+04  0.10154431238E+04  0.25500000920E-02 0.  1.
        2   -1    0    0  501    0  0.00000000000E+00  0.00000000000E+00 -0.17267282751E+04  0.17267282751E+04  0.25500000920E-02 0. -1.
    10030    2    1    2    0    0  0.00000000000E+00  0.00000000000E+00 -0.71128515132E+03  0.27421713989E+04  0.26483159582E+04 0.  0.
        4    1    3    3  502    0  0.65251616527E+03  0.56944397413E+03  0.68152946451E+03  0.11020561735E+04  0.12699999809E+01 0.  1.
       -4    1    3    3    0  502 -0.65251616527E+03 -0.56944397413E+03 -0.13928146158E+04  0.16401152254E+04  0.12699999809E+01 0. -1.
</event>
<event>
 5   0  0.1041909E-05  0.1748310E+04  0.7818609E-02  0.8734281E-01
       -1   -1    0    0    0  501  0.00000000000E+00  0.00000000000E+00  0.48188303240E+03  0.48188303243E+03  0.50400001928E-02 0.  1.
        1   -1    0    0  501    0  0.00000000000E+00  0.00000000000E+00 -0.15857517849E+04  0.15857517849E+04  0.50400001928E-02 0. -1.
    10030    2    1    2    0    0  0.00000000000E+00  0.00000000000E+00 -0.11038687525E+04  0.20676348173E+04  0.17483099025E+04 0.  0.
        5    1    3    3  502    0 -0.17712287714E+03 -0.11433552478E+03 -0.15552210286E+04  0.15694520266E+04  0.46999998093E+01 0. -1.
       -5    1    3    3    0  502  0.17712287714E+03  0.11433552478E+03  0.45135227614E+03  0.49818279075E+03  0.46999998093E+01 0.  1.
</event>
<event>
 5   0  0.2516518E-05  0.2752590E+04  0.7818609E-02  0.8318140E-01
       -2   -1    0    0    0  501  0.00000000000E+00  0.00000000000E+00  0.16452144940E+04  0.16452144940E+04  0.25500000920E-02 0. -1.
        2   -1    0    0  501    0  0.00000000000E+00  0.00000000000E+00 -0.11513322996E+04  0.11513322996E+04  0.25500000920E-02 0.  1.
    10030    2    1    2    0    0  0.00000000000E+00  0.00000000000E+00  0.49388219444E+03  0.27965467936E+04  0.27525904793E+04 0.  0.
        4    1    3    3  502    0 -0.18179772903E+03  0.29267109453E+03 -0.11068086942E+04  0.11591953598E+04  0.12699999809E+01 0.  1.
       -4    1    3    3    0  502  0.18179772903E+03 -0.29267109453E+03  0.16006908886E+04  0.16373514338E+04  0.12699999809E+01 0. -1.
</event>
<event>
 5   0  0.1041909E-05  0.2693281E+04  0.7818609E-02  0.8337188E-01
       -1   -1    0    0    0  501  0.00000000000E+00  0.00000000000E+00  0.86917231488E+03  0.86917231489E+03  0.50400001928E-02 0.  1.
        1   -1    0    0  501    0  0.00000000000E+00  0.00000000000E+00 -0.20863995982E+04  0.20863995982E+04  0.50400001928E-02 0. -1.
    10030    2    1    2    0    0  0.00000000000E+00  0.00000000000E+00 -0.12172272833E+04  0.29555719131E+04  0.26932810983E+04 0.  0.
        5    1    3    3  502    0 -0.42305658051E+03 -0.12487161742E+04 -0.90944530467E+03  0.16016809314E+04  0.46999998093E+01 0.  1.
       -5    1    3    3    0  502  0.42305658051E+03  0.12487161742E+04 -0.30778197868E+03  0.13538909817E+04  0.46999998093E+01 0. -1.
</event>
<event>
 5   0  0.1036691E-05  0.2680474E+04  0.7818609E-02  0.8341368E-01
        1   -1    0    0  501    0  0.00000000000E+00  0.00000000000E+00  0.12066083415E+04  0.12066083415E+04  0.50400001928E-02 0.  1.
       -1   -1    0    0    0  501  0.00000000000E+00  0.00000000000E+00 -0.14886646306E+04  0.14886646306E+04  0.50400001928E-02 0. -1.
    10030    2    1    2    0    0  0.00000000000E+00  0.00000000000E+00 -0.28205628915E+03  0.26952729721E+04  0.26804739588E+04 0.  0.
        4    1    3    3  502    0 -0.29118988644E+03  0.89698731562E+02  0.11713197920E+04  0.12103012354E+04  0.12699999809E+01 0.  1.
       -4    1    3    3    0  502  0.29118988644E+03 -0.89698731562E+02 -0.14533760812E+04  0.14849717367E+04  0.12699999809E+01 0. -1.
</event>
<event>
 5   0  0.1096672E-05  0.2726656E+04  0.7818609E-02  0.8326408E-01
       -1   -1    0    0    0  501  0.00000000000E+00  0.00000000000E+00  0.13990123738E+04  0.13990123738E+04  0.50400001928E-02 0.  1.
        1   -1    0    0  501    0  0.00000000000E+00  0.00000000000E+00 -0.13285537604E+04  0.13285537604E+04  0.50400001928E-02 0. -1.
    10030    2    1    2    0    0  0.00000000000E+00  0.00000000000E+00  0.70458613461E+02  0.27275661342E+04  0.27266559373E+04 0.  0.
        1    1    3    3  502    0 -0.10152643805E+04  0.69233386882E+03 -0.55537035424E+03  0.13485266696E+04  0.50400001928E-02 0. -1.
       -1    1    3    3    0  502  0.10152643805E+04 -0.69233386882E+03  0.62582896770E+03  0.13790394646E+04  0.50400001928E-02 0.  1.
</event>
<event>
 5   0  0.1096672E-05  0.2217802E+04  0.7818609E-02  0.8511055E-01
       -1   -1    0    0    0  501  0.00000000000E+00  0.00000000000E+00  0.10132956971E+04  0.10132956971E+04  0.50400001928E-02 0. -1.
        1   -1    0    0  501    0  0.00000000000E+00  0.00000000000E+00 -0.12135263062E+04  0.12135263062E+04  0.50400001928E-02 0.  1.
    10030    2    1    2    0    0  0.00000000000E+00  0.00000000000E+00 -0.20023060913E+03  0.22268220033E+04  0.22178016001E+04 0.  0.
        1    1    3    3  502    0 -0.43096311385E+03  0.52809598719E+02  0.92439890818E+03  0.10212890877E+04  0.50400001928E-02 0. -1.
       -1    1    3    3    0  502  0.43096311385E+03 -0.52809598719E+02 -0.11246295173E+04  0.12055329155E+04  0.50400001928E-02 0.  1.
</event>
<event>
 5   0  0.1096672E-05  0.2663151E+04  0.7818609E-02  0.8347061E-01
        1   -1    0    0  501    0  0.00000000000E+00  0.00000000000E+00  0.12568330846E+04  0.12568330846E+04  0.50400001928E-02 0.  1.
       -1   -1    0    0    0  501  0.00000000000E+00  0.00000000000E+00 -0.14107626116E+04  0.14107626116E+04  0.50400001928E-02 0. -1.
    10030    2    1    2    0    0  0.00000000000E+00  0.00000000000E+00 -0.15392952699E+03  0.26675956962E+04  0.26631508592E+04 0.  0.
        1    1    3    3  502    0 -0.41459751633E+03  0.69916829473E+03 -0.11334125507E+04  0.13947585508E+04  0.50400001928E-02 0. -1.
       -1    1    3    3    0  502  0.41459751633E+03 -0.69916829473E+03  0.97948302372E+03  0.12728371454E+04  0.50400001928E-02 0.  1.
</event>
<event>
 5   0  0.9971923E-06  0.2698794E+04  0.7818609E-02  0.8335396E-01
       -1   -1    0    0    0  501  0.00000000000E+00  0.00000000000E+00  0.13939185751E+04  0.13939185751E+04  0.50400001928E-02 0. -1.
        1   -1    0    0  501    0  0.00000000000E+00  0.00000000000E+00 -0.13062973731E+04  0.13062973731E+04  0.50400001928E-02 0.  1.
    10030    2    1    2    0    0  0.00000000000E+00  0.00000000000E+00  0.87621201980E+02  0.27002159482E+04  0.26987939329E+04 0.  0.
        2    1    3    3  502    0  0.74384253483E+03 -0.88045247054E+03 -0.65825272337E+03  0.13273262287E+04  0.25500000920E-02 0.  1.
       -2    1    3    3    0  502 -0.74384253483E+03  0.88045247054E+03  0.74587392535E+03  0.13728897195E+04  0.25500000920E-02 0. -1.
</event>
<event>
 5   0  0.1041909E-05  0.2700827E+04  0.7818609E-02  0.8334737E-01
        1   -1    0    0  501    0  0.00000000000E+00  0.00000000000E+00  0.15794180573E+04  0.15794180573E+04  0.50400001928E-02 0. -1.
       -1   -1    0    0    0  501  0.00000000000E+00  0.00000000000E+00 -0.11546127358E+04  0.11546127358E+04  0.50400001928E-02 0.  1.
    10030    2    1    2    0    0  0.00000000000E+00  0.00000000000E+00  0.42480532146E+03  0.27340307931E+04  0.27008266913E+04 0.  0.
        5    1    3    3  502    0  0.12213307883E+04 -0.26822284624E+03 -0.30376976317E+03  0.12868141080E+04  0.46999998093E+01 0. -1.
       -5    1    3    3    0  502 -0.12213307883E+04  0.26822284624E+03  0.72857508463E+03  0.14472166851E+04  0.46999998093E+01 0.  1.
</event>
<event>
 5   0  0.2615843E-05  0.2059160E+04  0.7818609E-02  0.8579450E-01
       -2   -1    0    0    0  501  0.00000000000E+00  0.00000000000E+00  0.69315185858E+03  0.69315185859E+03  0.25500000920E-02 0. -1.
        2   -1    0    0  501    0  0.00000000000E+00  0.00000000000E+00 -0.15292971144E+04  0.15292971144E+04  0.25500000920E-02 0.  1.
    10030    2    1    2    0    0  0.00000000000E+00  0.00000000000E+00 -0.83614525577E+03  0.22224489729E+04  0.20591601561E+04 0.  0.
        3    1    3    3  502    0  0.98933641980E+03 -0.23811924909E+03 -0.58717431791E+03  0.11748451039E+04  0.10100000352E+00 0.  1.
       -3    1    3    3    0  502 -0.98933641980E+03  0.23811924909E+03 -0.24897093787E+03  0.10476038690E+04  0.10100000352E+00 0. -1.
</event>
<event>
 5   0  0.1005265E-05  0.2667318E+04  0.7818609E-02  0.8345688E-01
        1   -1    0    0  501    0  0.00000000000E+00  0.00000000000E+00  0.17211769499E+04  0.17211769499E+04  0.50400001928E-02 0. -1.
       -1   -1    0    0    0  501  0.00000000000E+00  0.00000000000E+00 -0.10333893944E+04  0.10333893945E+04  0.50400001928E-02 0.  1.
    10030    2    1    2    0    0  0.00000000000E+00  0.00000000000E+00  0.68778755548E+03  0.27545663444E+04  0.26673177584E+04 0.  0.
        3    1    3    3  502    0 -0.64256104004E+03 -0.74820718182E+03 -0.58321738020E+03  0.11457928259E+04  0.10100000352E+00 0.  1.
       -3    1    3    3    0  502  0.64256104004E+03  0.74820718182E+03  0.12710049357E+04  0.16087735185E+04  0.10100000352E+00 0. -1.
</event>
<event>
 5   0  0.9971923E-06  0.2366863E+04  0.7818609E-02  0.8452015E-01
       -1   -1    0    0    0  501  0.00000000000E+00  0.00000000000E+00  0.11228132466E+04  0.11228132466E+04  0.50400001928E-02 0. -1.
        1   -1    0    0  501    0  0.00000000000E+00  0.00000000000E+00 -0.12473223354E+04  0.12473223354E+04  0.50400001928E-02 0.  1.
    10030    2    1    2    0    0  0.00000000000E+00  0.00000000000E+00 -0.12450908880E+03  0.23701355821E+04  0.23668629373E+04 0.  0.
        2    1    3    3  502    0  0.61370509995E+03  0.95888135185E+03  0.26133719370E+03  0.11680687161E+04  0.25500000920E-02 0. -1.
       -2    1    3    3    0  502 -0.61370509995E+03 -0.95888135185E+03 -0.38584628250E+03  0.12020668660E+04  0.25500000920E-02 0.  1.
</event>
<event>
 5   0  0.2641216E-05  0.2613492E+04  0.7818609E-02  0.8363633E-01
       -2   -1    0    0    0  501  0.00000000000E+00  0.00000000000E+00  0.11134857796E+04  0.11134857796E+04  0.25500000920E-02 0. -1.
        2   -1    0    0  501    0  0.00000000000E+00  0.00000000000E+00 -0.15335491679E+04  0.15335491679E+04  0.25500000920E-02 0.  1.
    10030    2    1    2    0    0  0.00000000000E+00  0.00000000000E+00 -0.42006338825E+03  0.26470349475E+04  0.26134920630E+04 0.  0.
        5    1    3    3  502    0 -0.61263985434E+03 -0.11473581842E+04 -0.82701408759E+02  0.13033111704E+04  0.46999998093E+01 0.  1.
       -5    1    3    3    0  502  0.61263985434E+03  0.11473581842E+04 -0.33736197949E+03  0.13437237771E+04  0.46999998093E+01 0. -1.
</event>
<event>
 5   0  0.2615843E-05  0.2688970E+04  0.7818609E-02  0.8338593E-01
        2   -1    0    0  501    0  0.00000000000E+00  0.00000000000E+00  0.21862112309E+04  0.21862112309E+04  0.25500000920E-02 0.  1.
       -2   -1    0    0    0  501  0.00000000000E+00  0.00000000000E+00 -0.82683705785E+03  0.82683705785E+03  0.25500000920E-02 0. -1.
    10030    2    1    2    0    0  0.00000000000E+00  0.00000000000E+00  0.13593741730E+04  0.30130482887E+04  0.26889704067E+04 0.  0.
        3    1    3    3  502    0 -0.10503850089E+04  0.14702273692E+03  0.16055360432E+04  0.19242324050E+04  0.10100000352E+00 0.  1.
       -3    1    3    3    0  502  0.10503850089E+04 -0.14702273692E+03 -0.24616187020E+03  0.10888158837E+04  0.10100000352E+00 0. -1.
</event>
<event>
 5   0  0.1096672E-05  0.2651674E+04  0.7818609E-02  0.8350857E-01
       -1   -1    0    0    0  501  0.00000000000E+00  0.00000000000E+00  0.79335310731E+03  0.79335310732E+03  0.50400001928E-02 0.  1.
        1   -1    0    0  501    0  0.00000000000E+00  0.00000000000E+00 -0.22157146065E+04  0.22157146065E+04  0.50400001928E-02 0. -1.
    10030    2    1    2    0    0  0.00000000000E+00  0.00000000000E+00 -0.14223614992E+04  0.30090677139E+04  0.26516742394E+04 0.  0.
        1    1    3    3  502    0 -0.87193355820E+02 -0.28574274895E+03 -0.21770219721E+04  0.21974249173E+04  0.50400001928E-02 0. -1.
       -1    1    3    3    0  502  0.87193355820E+02  0.28574274895E+03  0.75466047290E+03  0.81164279659E+03  0.50400001928E-02 0.  1.
</event>
<event>
 5   0  0.2516518E-05  0.2339677E+04  0.7818609E-02  0.8462439E-01
       -2   -1    0    0    0  501  0.00000000000E+00  0.00000000000E+00  0.13222849066E+04  0.13222849066E+04  0.25500000920E-02 0. -1.
        2   -1    0    0  501    0  0.00000000000E+00  0.00000000000E+00 -0.10349679923E+04  0.10349679923E+04  0.25500000920E-02 0.  1.
    10030    2    1    2    0    0  0.00000000000E+00  0.00000000000E+00  0.28731691430E+03  0.23572528989E+04  0.23396773752E+04 0.  0.
        4    1    3    3  502    0 -0.74818042238E+03  0.67395158811E+02  0.10471696934E+04  0.12887521218E+04  0.12699999809E+01 0. -1.
       -4    1    3    3    0  502  0.74818042238E+03 -0.67395158811E+02 -0.75985277906E+03  0.10685007771E+04  0.12699999809E+01 0.  1.
</event>
<event>
 5   0  0.2540232E-05  0.2681178E+04  0.7818609E-02  0.8341138E-01
        2   -1    0    0  501    0  0.00000000000E+00  0.00000000000E+00  0.14945128688E+04  0.14945128688E+04  0.25500000920E-02 0.  1.
       -2   -1    0    0    0  501  0.00000000000E+00  0.00000000000E+00 -0.12025180441E+04  0.12025180441E+04  0.25500000920E-02 0. -1.
    10030    2    1    2    0    0  0.00000000000E+00  0.00000000000E+00  0.29199482465E+03  0.26970309129E+04  0.26811778695E+04 0.  0.
        1    1    3    3  502    0 -0.11754439216E+04  0.40839959417E+03 -0.35566977602E+03  0.12942023146E+04  0.50400001928E-02 0. -1.
       -1    1    3    3    0  502  0.11754439216E+04 -0.40839959417E+03  0.64766460067E+03  0.14028285984E+04  0.50400001928E-02 0.  1.
</event>
<event>
 5   0  0.2615843E-05  0.3228213E+04  0.7818609E-02  0.8181406E-01
       -2   -1    0    0    0  501  0.00000000000E+00  0.00000000000E+00  0.11434123637E+04  0.11434123637E+04  0.25500000920E-02 0.  1.
        2   -1    0    0  501    0  0.00000000000E+00  0.00000000000E+00 -0.22785649398E+04  0.22785649398E+04  0.25500000920E-02 0. -1.
    10030    2    1    2    0    0  0.00000000000E+00  0.00000000000E+00 -0.11351525761E+04  0.34219773034E+04  0.32282127090E+04 0.  0.
        3    1    3    3  502    0 -0.98187850031E+03 -0.80758719019E+03 -0.16217825954E+04  0.20606943626E+04  0.10100000352E+00 0. -1.
       -3    1    3    3    0  502  0.98187850031E+03  0.80758719019E+03  0.48663001930E+03  0.13612829408E+04  0.10100000352E+00 0.  1.
</event>
<event>
 5   0  0.1041909E-05  0.2711543E+04  0.7818609E-02  0.8331269E-01
        1   -1    0    0  501    0  0.00000000000E+00  0.00000000000E+00  0.24183671064E+04  0.24183671064E+04  0.50400001928E-02 0.  1.
       -1   -1    0    0    0  501  0.00000000000E+00  0.00000000000E+00 -0.76006509368E+03  0.76006509369E+03  0.50400001928E-02 0. -1.
    10030    2    1    2    0    0  0.00000000000E+00  0.00000000000E+00  0.16583020127E+04  0.31784322001E+04  0.27115430451E+04 0.  0.
        5    1    3    3  502    0 -0.40930844039E+03 -0.47315432544E+03  0.22390356344E+04  0.23248034491E+04  0.46999998093E+01 0.  1.
       -5    1    3    3    0  502  0.40930844039E+03  0.47315432544E+03 -0.58073362169E+03  0.85362875094E+03  0.46999998093E+01 0. -1.
</event>
<event>
 5   0  0.9971923E-06  0.2751916E+04  0.7818609E-02  0.8318354E-01
       -1   -1    0    0    0  501  0.00000000000E+00  0.00000000000E+00  0.16408882818E+04  0.16408882818E+04  0.50400001928E-02 0.  1.
        1   -1    0    0  501    0  0.00000000000E+00  0.00000000000E+00 -0.11538024459E+04  0.11538024459E+04  0.50400001928E-02 0. -1.
    10030    2    1    2    0    0  0.00000000000E+00  0.00000000000E+00  0.48708583597E+03  0.27946907277E+04  0.27519163599E+04 0.  0.
        2    1    3    3  502    0  0.92312888258E+03  0.45056986090E+03 -0.68615415638E+03  0.12353087305E+04  0.25500000920E-02 0. -1.
       -2    1    3    3    0  502 -0.92312888258E+03 -0.45056986090E+03  0.11732399923E+04  0.15593819972E+04  0.25500000920E-02 0.  1.
</event>
<event>
 5   0  0.1096672E-05  0.2713733E+04  0.7818609E-02  0.8330563E-01
        1   -1    0    0  501    0  0.00000000000E+00  0.00000000000E+00  0.15844614406E+04  0.15844614406E+04  0.50400001928E-02 0.  1.
       -1   -1    0    0    0  501  0.00000000000E+00  0.00000000000E+00 -0.11619638582E+04  0.11619638582E+04  0.50400001928E-02 0. -1.
    10030    2    1    2    0    0  0.00000000000E+00  0.00000000000E+00  0.42249758242E+03  0.27464252988E+04  0.27137331694E+04 0.  0.
        1    1    3    3  502    0  0.88930906877E+03  0.96898871579E+03 -0.12635218884E+03  0.13212776494E+04  0.50400001928E-02 0.  1.
       -1    1    3    3    0  502 -0.88930906877E+03 -0.96898871579E+03  0.54884977126E+03  0.14251476494E+04  0.50400001928E-02 0. -1.
</event>
<event>
 5   0  0.2540684E-05  0.2685430E+04  0.7818609E-02  0.8339748E-01
       -2   -1    0    0    0  501  0.00000000000E+00  0.00000000000E+00  0.93099294664E+03  0.93099294665E+03  0.25500000920E-02 0. -1.
        2   -1    0    0  501    0  0.00000000000E+00  0.00000000000E+00 -0.19365174861E+04  0.19365174861E+04  0.25500000920E-02 0.  1.
    10030    2    1    2    0    0  0.00000000000E+00  0.00000000000E+00 -0.10055245395E+04  0.28675104328E+04  0.26854304092E+04 0.  0.
        2    1    3    3  502    0 -0.20188653161E+03 -0.12919657015E+04 -0.17721268551E+03  0.13195976210E+04  0.25500000920E-02 0. -1.
       -2    1    3    3    0  502  0.20188653161E+03  0.12919657015E+04 -0.82831185398E+03  0.15479128118E+04  0.25500000920E-02 0.  1.
</event>
<event>
 5   0  0.2516518E-05  0.2663395E+04  0.7818609E-02  0.8346981E-01
       -2   -1    0    0    0  501  0.00000000000E+00  0.00000000000E+00  0.13408159535E+04  0.13408159535E+04  0.25500000920E-02 0.  1.
        2   -1    0    0  501    0  0.00000000000E+00  0.00000000000E+00 -0.13226407917E+04  0.13226407917E+04  0.25500000920E-02 0. -1.
    10030    2    1    2    0    0  0.00000000000E+00  0.00000000000E+00  0.18175161778E+02  0.26634567453E+04  0.26633947318E+04 0.  0.
        4    1    3    3  502    0  0.10631384666E+04 -0.91452643028E+02 -0.78766761184E+03  0.13262913951E+04  0.12699999809E+01 0. -1.
       -4    1    3    3    0  502 -0.10631384666E+04  0.91452643028E+02  0.80584277361E+03  0.13371653502E+04  0.12699999809E+01 0.  1.
</event>
<event>
 5   0  0.9971923E-06  0.2547817E+04  0.7818609E-02  0.8386146E-01
        1   -1    0    0  501    0  0.00000000000E+00  0.00000000000E+00  0.16321031878E+04  0.16321031878E+04  0.50400001928E-02 0.  1.
       -1   -1    0    0    0  501  0.00000000000E+00  0.00000000000E+00 -0.99432616468E+03  0.99432616469E+03  0.50400001928E-02 0. -1.
    10030    2    1    2    0    0  0.00000000000E+00  0.00000000000E+00  0.63777702315E+03  0.26264293525E+04  0.25478170289E+04 0.  0.
        2    1    3    3  502    0 -0.34953062096E+03 -0.10233382301E+04  0.10130527650E+04  0.14817788947E+04  0.25500000920E-02 0.  1.
       -2    1    3    3    0  502  0.34953062096E+03  0.10233382301E+04 -0.37527574184E+03  0.11446504578E+04  0.25500000920E-02 0. -1.
</event>
<event>
 5   0  0.1041909E-05  0.2722050E+04  0.7818609E-02  0.8327886E-01
       -1   -1    0    0    0  501  0.00000000000E+00  0.00000000000E+00  0.11433105326E+04  0.11433105326E+04  0.50400001928E-02 0. -1.
        1   -1    0    0  501    0  0.00000000000E+00  0.00000000000E+00 -0.16201971994E+04  0.16201971994E+04  0.50400001928E-02 0.  1.
    10030    2    1    2    0    0  0.00000000000E+00  0.00000000000E+00 -0.47688666680E+03  0.27635077320E+04  0.27220496123E+04 0.  0.
        5    1    3    3  502    0 -0.93011181806E+03 -0.58847704873E+03  0.57434564965E+03  0.12414943601E+04  0.46999998093E+01 0. -1.
       -5    1    3    3    0  502  0.93011181806E+03  0.58847704873E+03 -0.10512323164E+04  0.15220133719E+04  0.46999998093E+01 0.  1.
</event>
<event>
 5   0  0.9971923E-06  0.2708796E+04  0.7818609E-02  0.8332157E-01
        1   -1    0    0  501    0  0.00000000000E+00  0.00000000000E+00  0.15837064456E+04  0.15837064456E+04  0.50400001928E-02 0. -1.
       -1   -1    0    0    0  501  0.00000000000E+00  0.00000000000E+00 -0.11582913156E+04  0.11582913156E+04  0.50400001928E-02 0.  1.
    10030    2    1    2    0    0  0.00000000000E+00  0.00000000000E+00  0.42541513000E+03  0.27419977613E+04  0.27087956161E+04 0.  0.
        2    1    3    3  502    0 -0.59423401375E+02 -0.11293573392E+03 -0.11521919303E+04  0.11592376223E+04  0.25500000920E-02 0.  1.
       -2    1    3    3    0  502  0.59423401375E+02  0.11293573392E+03  0.15776070603E+04  0.15827601390E+04  0.25500000920E-02 0. -1.
</event>
<event>
 5   0  0.8740500E-06  0.1874713E+04  0.7818609E-02  0.8667547E-01
       -3   -1    0    0    0  501  0.00000000000E+00  0.00000000000E+00  0.76715323239E+03  0.76715323904E+03  0.10100000352E+00 0. -1.
        3   -1    0    0  501    0  0.00000000000E+00  0.00000000000E+00 -0.11453217924E+04  0.11453217969E+04  0.10100000352E+00 0.  1.
    10030    2    1    2    0    0  0.00000000000E+00  0.00000000000E+00 -0.37816856005E+03  0.19124750359E+04  0.18747131256E+04 0.  0.
        5    1    3    3  502    0  0.57114575288E+03 -0.62874790972E+03 -0.59340565063E+03  0.10361871265E+04  0.46999998093E+01 0.  1.
       -5    1    3    3    0  502 -0.57114575288E+03  0.62874790972E+03  0.21523709057E+03  0.87628790940E+03  0.46999998093E+01 0. -1.
</event>
<event>
 5   0  0.2540684E-05  0.2626118E+04  0.7818609E-02  0.8359383E-01
       -2   -1    0    0    0  501  0.00000000000E+00  0.00000000000E+00  0.83254168579E+03  0.83254168579E+03  0.25500000920E-02 0.  1.
        2   -1    0    0  501    0  0.00000000000E+00  0.00000000000E+00 -0.20709166563E+04  0.20709166563E+04  0.25500000920E-02 0. -1.
    10030    2    1    2    0    0  0.00000000000E+00  0.00000000000E+00 -0.12383749706E+04  0.29034583421E+04  0.26261183859E+04 0.  0.
        2    1    3    3  502    0  0.37671016025E+02  0.10833750731E+02  0.83189467808E+03  0.83281764572E+03  0.25500000920E-02 0.  1.
       -2    1    3    3    0  502 -0.37671016025E+02 -0.10833750731E+02 -0.20702696486E+04  0.20706406964E+04  0.25500000920E-02 0. -1.
</event>
<event>
 5   0  0.2615843E-05  0.2726727E+04  0.7818609E-02  0.8326385E-01
        2   -1    0    0  501    0  0.00000000000E+00  0.00000000000E+00  0.19213137387E+04  0.19213137387E+04  0.25500000920E-02 0.  1.
       -2   -1    0    0    0  501  0.00000000000E+00  0.00000000000E+00 -0.96744229474E+03  0.96744229474E+03  0.25500000920E-02 0. -1.
    10030    2    1    2    0    0  0.00000000000E+00  0.00000000000E+00  0.95387144393E+03  0.28887560334E+04  0.27267271020E+04 0.  0.
        3    1    3    3  502    0 -0.43211784329E+03 -0.39653281837E+03  0.17808416913E+04  0.18749296643E+04  0.10100000352E+00 0.  1.
       -3    1    3    3    0  502  0.43211784329E+03  0.39653281837E+03 -0.82697024733E+03  0.10138263691E+04  0.10100000352E+00 0. -1.
</event>
<event>
 5   0  0.2540684E-05  0.2605663E+04  0.7818609E-02  0.8366280E-01
       -2   -1    0    0    0  501  0.00000000000E+00  0.00000000000E+00  0.93354077722E+03  0.93354077722E+03  0.25500000920E-02 0.  1.
        2   -1    0    0  501    0  0.00000000000E+00  0.00000000000E+00 -0.18182061526E+04  0.18182061526E+04  0.25500000920E-02 0. -1.
    10030    2    1    2    0    0  0.00000000000E+00  0.00000000000E+00 -0.88466537536E+03  0.27517469298E+04  0.26056627447E+04 0.  0.
        2    1    3    3  502    0 -0.66280972213E+03  0.11216027422E+04 -0.45052285803E+03  0.13785065414E+04  0.25500000920E-02 0.  1.
       -2    1    3    3    0  502  0.66280972213E+03 -0.11216027422E+04 -0.43414251733E+03  0.13732403884E+04  0.25500000920E-02 0. -1.
</event>
<event>
 5   0  0.1005265E-05  0.2840363E+04  0.7818609E-02  0.8290846E-01
       -1   -1    0    0    0  501  0.00000000000E+00  0.00000000000E+00  0.10739660150E+04  0.10739660150E+04  0.50400001928E-02 0.  1.
        1   -1    0    0  501    0  0.00000000000E+00  0.00000000000E+00 -0.18780062466E+04  0.18780062466E+04  0.50400001928E-02 0. -1.
    10030    2    1    2    0    0  0.00000000000E+00  0.00000000000E+00 -0.80404023157E+03  0.29519722616E+04  0.28403625718E+04 0.  0.
        3    1    3    3  502    0  0.80595335372E+03 -0.11406663681E+04 -0.66949313286E+03  0.15488388027E+04  0.10100000352E+00 0.  1.
       -3    1    3    3    0  502 -0.80595335372E+03  0.11406663681E+04 -0.13454709871E+03  0.14031334589E+04  0.10100000352E+00 0. -1.
</event>
<event>
 5   0  0.1041909E-05  0.2658498E+04  0.7818609E-02  0.8348598E-01
        1   -1    0    0  501    0  0.00000000000E+00  0.00000000000E+00  0.15688083781E+04  0.15688083781E+04  0.50400001928E-02 0. -1.
       -1   -1    0    0    0  501  0.00000000000E+00  0.00000000000E+00 -0.11262708503E+04  0.11262708503E+04  0.50400001928E-02 0.  1.
    10030    2    1    2    0    0  0.00000000000E+00  0.00000000000E+00  0.44253752780E+03  0.26950792284E+04  0.26584981820E+04 0.  0.
        5    1    3    3  502    0 -0.88378800356E+03  0.89041015730E+03 -0.22405880980E+03  0.12744159147E+04  0.46999998093E+01 0. -1.
       -5    1    3    3    0  502  0.88378800356E+03 -0.89041015730E+03  0.66659633760E+03  0.14206633137E+04  0.46999998093E+01 0.  1.
</event>
<event>
 5   0  0.2641216E-05  0.2696689E+04  0.7818609E-02  0.8336080E-01
        2   -1    0    0  501    0  0.00000000000E+00  0.00000000000E+00  0.23283149067E+04  0.23283149067E+04  0.25500000920E-02 0.  1.
       -2   -1    0    0    0  501  0.00000000000E+00  0.00000000000E+00 -0.78083625863E+03  0.78083625864E+03  0.25500000920E-02 0. -1.
    10030    2    1    2    0    0  0.00000000000E+00  0.00000000000E+00  0.15474786481E+04  0.31091511654E+04  0.26966888591E+04 0.  0.
        5    1    3    3  502    0  0.10114026319E+04 -0.15128220592E+02 -0.25416482735E+03  0.10429697964E+04  0.46999998093E+01 0. -1.
       -5    1    3    3    0  502 -0.10114026319E+04  0.15128220592E+02  0.18016434754E+04  0.20661813689E+04  0.46999998093E+01 0.  1.
</event>
<event>
 5   0  0.1041909E-05  0.2728758E+04  0.7818609E-02  0.8325734E-01
        1   -1    0    0  501    0  0.00000000000E+00  0.00000000000E+00  0.16478237355E+04  0.16478237355E+04  0.50400001928E-02 0.  1.
       -1   -1    0    0    0  501  0.00000000000E+00  0.00000000000E+00 -0.11296904098E+04  0.11296904098E+04  0.50400001928E-02 0. -1.
    10030    2    1    2    0    0  0.00000000000E+00  0.00000000000E+00  0.51813332574E+03  0.27775141453E+04  0.27287584510E+04 0.  0.
        5    1    3    3  502    0  0.70345506180E+03 -0.48802814122E+03 -0.82221708566E+03  0.11870482368E+04  0.46999998093E+01 0. -1.
       -5    1    3    3    0  502 -0.70345506180E+03  0.48802814122E+03  0.13403504114E+04  0.15904659084E+04  0.46999998093E+01 0.  1.
</event>
<event>
 5   0  0.9971923E-06  0.2121398E+04  0.7818609E-02  0.8551876E-01
       -1   -1    0    0    0  501  0.00000000000E+00  0.00000000000E+00  0.18786451019E+04  0.18786451019E+04  0.50400001928E-02 0.  1.
        1   -1    0    0  501    0  0.00000000000E+00  0.00000000000E+00 -0.59887944518E+03  0.59887944520E+03  0.50400001928E-02 0. -1.
    10030    2    1    2    0    0  0.00000000000E+00  0.00000000000E+00  0.12797656567E+04  0.24775245471E+04  0.21213975925E+04 0.  0.
        2    1    3    3  502    0  0.13163511789E+03 -0.10257173657E+04  0.36435862073E+03  0.10964402050E+04  0.25500000920E-02 0. -1.
       -2    1    3    3    0  502 -0.13163511789E+03  0.10257173657E+04  0.91540703599E+03  0.13810843421E+04  0.25500000920E-02 0.  1.
</event>
<event>
 5   0  0.2641216E-05  0.2940474E+04  0.7818609E-02  0.8260936E-01
       -2   -1    0    0    0  501  0.00000000000E+00  0.00000000000E+00  0.12299839742E+04  0.12299839742E+04  0.25500000920E-02 0.  1.
        2   -1    0    0  501    0  0.00000000000E+00  0.00000000000E+00 -0.17574185051E+04  0.17574185051E+04  0.25500000920E-02 0. -1.
    10030    2    1    2    0    0  0.00000000000E+00  0.00000000000E+00 -0.52743453091E+03  0.29874024793E+04  0.29404738375E+04 0.  0.
        5    1    3    3  502    0  0.51821827493E+03  0.87300969126E+03 -0.13441167618E+04  0.16844488893E+04  0.46999998093E+01 0. -1.
       -5    1    3    3    0  502 -0.51821827493E+03 -0.87300969126E+03  0.81668223086E+03  0.13029535900E+04  0.46999998093E+01 0.  1.
</event>
<event>
 5   0  0.1096672E-05  0.2727387E+04  0.7818609E-02  0.8326173E-01
       -1   -1    0    0    0  501  0.00000000000E+00  0.00000000000E+00  0.10043260234E+04  0.10043260235E+04  0.50400001928E-02 0. -1.
        1   -1    0    0  501    0  0.00000000000E+00  0.00000000000E+00 -0.18516494675E+04  0.18516494675E+04  0.50400001928E-02 0.  1.
    10030    2    1    2    0    0  0.00000000000E+00  0.00000000000E+00 -0.84732344409E+03  0.28559754910E+04  0.27273868421E+04 0.  0.
        1    1    3    3  502    0  0.44432222601E+03  0.10980181704E+04 -0.11312369936E+04  0.16379143075E+04  0.50400001928E-02 0.  1.
       -1    1    3    3    0  502 -0.44432222601E+03 -0.10980181704E+04  0.28391354949E+03  0.12180611835E+04  0.50400001928E-02 0. -1.
</event>
<event>
 5   0  0.2615843E-05  0.2686970E+04  0.7818609E-02  0.8339245E-01
       -2   -1    0    0    0  501  0.00000000000E+00  0.00000000000E+00  0.11065125501E+04  0.11065125501E+04  0.25500000920E-02 0.  1.
        2   -1    0    0  501    0  0.00000000000E+00  0.00000000000E+00 -0.16312075298E+04  0.16312075298E+04  0.25500000920E-02 0. -1.
    10030    2    1    2    0    0  0.00000000000E+00  0.00000000000E+00 -0.52469497966E+03  0.27377200799E+04  0.26869697457E+04 0.  0.
        3    1    3    3  502    0  0.46270324704E+03  0.58002484713E+03 -0.14035145225E+04  0.15875692562E+04  0.10100000352E+00 0. -1.
       -3    1    3    3    0  502 -0.46270324704E+03 -0.58002484713E+03  0.87881954288E+03  0.11501508237E+04  0.10100000352E+00 0.  1.
</event>
<event>
 5   0  0.2540232E-05  0.2696171E+04  0.7818609E-02  0.8336248E-01
        2   -1    0    0  501    0  0.00000000000E+00  0.00000000000E+00  0.23694364079E+04  0.23694364079E+04  0.25500000920E-02 0.  1.
       -2   -1    0    0    0  501  0.00000000000E+00  0.00000000000E+00 -0.76699012710E+03  0.76699012710E+03  0.25500000920E-02 0. -1.
    10030    2    1    2    0    0  0.00000000000E+00  0.00000000000E+00  0.16024462808E+04  0.31364265350E+04  0.26961708638E+04 0.  0.
        1    1    3    3  502    0 -0.95452452399E+03 -0.27539964602E+02 -0.30571170489E+03  0.10026640330E+04  0.50400001928E-02 0. -1.
       -1    1    3    3    0  502  0.95452452399E+03  0.27539964602E+02  0.19081579857E+04  0.21337625020E+04  0.50400001928E-02 0.  1.
</event>
<event>
 5   0  0.2615843E-05  0.2697312E+04  0.7818609E-02  0.8335878E-01
        2   -1    0    0  501    0  0.00000000000E+00  0.00000000000E+00  0.15676791365E+04  0.15676791366E+04  0.25500000920E-02 0.  1.
       -2   -1    0    0    0  501  0.00000000000E+00  0.00000000000E+00 -0.11602325995E+04  0.11602325995E+04  0.25500000920E-02 0. -1.
    10030    2    1    2    0    0  0.00000000000E+00  0.00000000000E+00  0.40744653706E+03  0.27279117360E+04  0.26973115799E+04 0.  0.
        3    1    3    3  502    0  0.10178972321E+04  0.52505758115E+03 -0.51644518595E+03  0.12563900187E+04  0.10100000352E+00 0. -1.
       -3    1    3    3    0  502 -0.10178972321E+04 -0.52505758115E+03  0.92389172301E+03  0.14715217174E+04  0.10100000352E+00 0.  1.
</event>
<event>
 5   0  0.9971923E-06  0.2732613E+04  0.7818609E-02  0.8324500E-01
       -1   -1    0    0    0  501  0.00000000000E+00  0.00000000000E+00  0.12195582239E+04  0.12195582239E+04  0.50400001928E-02 0. -1.
        1   -1    0    0  501    0  0.00000000000E+00  0.00000000000E+00 -0.15307126941E+04  0.15307126941E+04  0.50400001928E-02 0.  1.
    10030    2    1    2    0    0  0.00000000000E+00  0.00000000000E+00 -0.31115447025E+03  0.27502709180E+04  0.27326128555E+04 0.  0.
        2    1    3    3  502    0 -0.34461443095E+02  0.13595390772E+04 -0.23354172746E+02  0.13601762793E+04  0.25500000920E-02 0.  1.
       -2    1    3    3    0  502  0.34461443095E+02 -0.13595390772E+04 -0.28780029750E+03  0.13900946387E+04  0.25500000920E-02 0. -1.
</event>
<event>
 5   0  0.2516518E-05  0.2717800E+04  0.7818609E-02  0.8329253E-01
       -2   -1    0    0    0  501  0.00000000000E+00  0.00000000000E+00  0.11429726938E+04  0.11429726938E+04  0.25500000920E-02 0. -1.
        2   -1    0    0  501    0  0.00000000000E+00  0.00000000000E+00 -0.16156197103E+04  0.16156197103E+04  0.25500000920E-02 0.  1.
    10030    2    1    2    0    0  0.00000000000E+00  0.00000000000E+00 -0.47264701648E+03  0.27585924041E+04  0.27178000018E+04 0.  0.
        4    1    3    3  502    0 -0.31370714207E+03  0.91347531724E+03  0.73393107415E+03  0.12130563716E+04  0.12699999809E+01 0. -1.
       -4    1    3    3    0  502  0.31370714207E+03 -0.91347531724E+03 -0.12065780906E+04  0.15455360325E+04  0.12699999809E+01 0.  1.
</event>
<event>
 5   0  0.1041909E-05  0.2671235E+04  0.7818609E-02  0.8344399E-01
        1   -1    0    0  501    0  0.00000000000E+00  0.00000000000E+00  0.12311212349E+04  0.12311212349E+04  0.50400001928E-02 0.  1.
       -1   -1    0    0    0  501  0.00000000000E+00  0.00000000000E+00 -0.14489829943E+04  0.14489829943E+04  0.50400001928E-02 0. -1.
    10030    2    1    2    0    0  0.00000000000E+00  0.00000000000E+00 -0.21786175933E+03  0.26801042292E+04  0.26712347207E+04 0.  0.
        5    1    3    3  502    0  0.11206954819E+04  0.62059910230E+03  0.27014638992E+03  0.13092374769E+04  0.46999998093E+01 0. -1.
       -5    1    3    3    0  502 -0.11206954819E+04 -0.62059910230E+03 -0.48800814925E+03  0.13708667523E+04  0.46999998093E+01 0.  1.
</event>
<event>
 5   0  0.8740500E-06  0.2731531E+04  0.7818609E-02  0.8324846E-01
       -4   -1    0    0    0  501  0.00000000000E+00  0.00000000000E+00  0.14939147933E+04  0.14939153331E+04  0.12699999809E+01 0. -1.
        4   -1    0    0  501    0  0.00000000000E+00  0.00000000000E+00 -0.12486075638E+04  0.12486082097E+04  0.12699999809E+01 0.  1.
    10030    2    1    2    0    0  0.00000000000E+00  0.00000000000E+00  0.24530722949E+03  0.27425235427E+04  0.27315306598E+04 0.  0.
        5    1    3    3  502    0  0.62968140032E+03 -0.21545777023E+03  0.13200857301E+04  0.14783670524E+04  0.46999998093E+01 0. -1.
       -5    1    3    3    0  502 -0.62968140032E+03  0.21545777023E+03 -0.10747785007E+04  0.12641564904E+04  0.46999998093E+01 0.  1.
</event>
<event>
 5   0  0.8740500E-06  0.2706827E+04  0.7818609E-02  0.8332793E-01
        3   -1    0    0  501    0  0.00000000000E+00  0.00000000000E+00  0.12196188559E+04  0.12196188601E+04  0.10100000352E+00 0.  1.
       -3   -1    0    0    0  501  0.00000000000E+00  0.00000000000E+00 -0.15018854561E+04  0.15018854595E+04  0.10100000352E+00 0. -1.
    10030    2    1    2    0    0  0.00000000000E+00  0.00000000000E+00 -0.28226660015E+03  0.27215043196E+04  0.27068268005E+04 0.  0.
        3    1    3    3  502    0 -0.66281080098E+03 -0.46113103231E+03 -0.12331941445E+04  0.14740175695E+04  0.10100000352E+00 0. -1.
       -3    1    3    3    0  502  0.66281080098E+03  0.46113103231E+03  0.95092754436E+03  0.12474867501E+04  0.10100000352E+00 0.  1.
</event>
<event>
 5   0  0.9971923E-06  0.2754514E+04  0.7818609E-02  0.8317531E-01
       -1   -1    0    0    0  501  0.00000000000E+00  0.00000000000E+00  0.89741226178E+03  0.89741226179E+03  0.50400001928E-02 0. -1.
        1   -1    0    0  501    0  0.00000000000E+00  0.00000000000E+00 -0.21136736377E+04  0.21136736377E+04  0.50400001928E-02 0.  1.
    10030    2    1    2    0    0  0.00000000000E+00  0.00000000000E+00 -0.12162613759E+04  0.30110858995E+04  0.27545138518E+04 0.  0.
        2    1    3    3  502    0  0.10523545011E+04 -0.50947688603E+03 -0.14038178238E+04  0.18269431233E+04  0.25500000920E-02 0.  1.
       -2    1    3    3    0  502 -0.10523545011E+04  0.50947688603E+03  0.18755644786E+03  0.11841427762E+04  0.25500000920E-02 0. -1.
</event>
<event>
 5   0  0.1005265E-05  0.2554864E+04  0.7818609E-02  0.8383696E-01
        1   -1    0    0  501    0  0.00000000000E+00  0.00000000000E+00  0.10217326258E+04  0.10217326258E+04  0.50400001928E-02 0. -1.
       -1   -1    0    0    0  501  0.00000000000E+00  0.00000000000E+00 -0.15971230253E+04  0.15971230253E+04  0.50400001928E-02 0.  1.
    10030    2    1    2    0    0  0.00000000000E+00  0.00000000000E+00 -0.57539039950E+03  0.26188556512E+04  0.25548641470E+04 0.  0.
        3    1    3    3  502    0 -0.58875480791E+03  0.68849403761E+03 -0.12109071353E+04  0.15122672926E+04  0.10100000352E+00 0.  1.
       -3    1    3    3    0  502  0.58875480791E+03 -0.68849403761E+03  0.63551673582E+03  0.11065883586E+04  0.10100000352E+00 0. -1.
</event>
<event>
 5   0  0.1041909E-05  0.2695180E+04  0.7818609E-02  0.8336570E-01
        1   -1    0    0  501    0  0.00000000000E+00  0.00000000000E+00  0.10387009402E+04  0.10387009402E+04  0.50400001928E-02 0. -1.
       -1   -1    0    0    0  501  0.00000000000E+00  0.00000000000E+00 -0.17483369227E+04  0.17483369227E+04  0.50400001928E-02 0.  1.
    10030    2    1    2    0    0  0.00000000000E+00  0.00000000000E+00 -0.70963598249E+03  0.27870378629E+04  0.26951802948E+04 0.  0.
        5    1    3    3  502    0  0.54501230256E+03 -0.10465857268E+04  0.31820747124E+03  0.12221530911E+04  0.46999998093E+01 0. -1.
       -5    1    3    3    0  502 -0.54501230256E+03  0.10465857268E+04 -0.10278434537E+04  0.15648847717E+04  0.46999998093E+01 0.  1.
</event>
<event>
 5   0  0.2641216E-05  0.2654423E+04  0.7818609E-02  0.8349946E-01
        2   -1    0    0  501    0  0.00000000000E+00  0.00000000000E+00  0.20691740515E+04  0.20691740515E+04  0.25500000920E-02 0. -1.
       -2   -1    0    0    0  501  0.00000000000E+00  0.00000000000E+00 -0.85130139666E+03  0.85130139667E+03  0.25500000920E-02 0.  1.
    10030    2    1    2    0    0  0.00000000000E+00  0.00000000000E+00  0.12178726548E+04  0.29204754481E+04  0.26544232970E+04 0.  0.
        5    1    3    3  502    0 -0.84830330619E+03  0.92336110379E+03  0.10875734960E+04  0.16598350600E+04  0.46999998093E+01 0. -1.
       -5    1    3    3    0  502  0.84830330619E+03 -0.92336110379E+03  0.13029915878E+03  0.12606403881E+04  0.46999998093E+01 0.  1.
</event>
<event>
 5   0  0.1096672E-05  0.2768753E+04  0.7818609E-02  0.8313035E-01
        1   -1    0    0  501    0  0.00000000000E+00  0.00000000000E+00  0.15269877730E+04  0.15269877730E+04  0.50400001928E-02 0.  1.
       -1   -1    0    0    0  501  0.00000000000E+00  0.00000000000E+00 -0.12550841893E+04  0.12550841893E+04  0.50400001928E-02 0. -1.
    10030    2    1    2    0    0  0.00000000000E+00  0.00000000000E+00  0.27190358372E+03  0.27820719623E+04  0.27687529403E+04 0.  0.
        1    1    3    3  502    0  0.20968539890E+02  0.21823709091E+03  0.15094329273E+04  0.15252720642E+04  0.50400001928E-02 0.  1.
       -1    1    3    3    0  502 -0.20968539890E+02 -0.21823709091E+03 -0.12375293436E+04  0.12567998981E+04  0.50400001928E-02 0. -1.
</event>
<event>
 5   0  0.1041909E-05  0.2512264E+04  0.7818609E-02  0.8398629E-01
       -1   -1    0    0    0  501  0.00000000000E+00  0.00000000000E+00  0.76974727928E+03  0.76974727929E+03  0.50400001928E-02 0.  1.
        1   -1    0    0  501    0  0.00000000000E+00  0.00000000000E+00 -0.20498516474E+04  0.20498516474E+04  0.50400001928E-02 0. -1.
    10030    2    1    2    0    0  0.00000000000E+00  0.00000000000E+00 -0.12801043681E+04  0.28195989267E+04  0.25122641012E+04 0.  0.
        5    1    3    3  502    0 -0.45534851659E+03 -0.68145888223E+03 -0.17084038247E+04  0.18948335541E+04  0.46999998093E+01 0. -1.
       -5    1    3    3    0  502  0.45534851659E+03  0.68145888223E+03  0.42829945658E+03  0.92476537253E+03  0.46999998093E+01 0.  1.
</event>
<event>
 5   0  0.1036691E-05  0.2748478E+04  0.7818609E-02  0.8319445E-01
       -1   -1    0    0    0  501  0.00000000000E+00  0.00000000000E+00  0.11145177512E+04  0.11145177512E+04  0.50400001928E-02 0.  1.
        1   -1    0    0  501    0  0.00000000000E+00  0.00000000000E+00 -0.16944845240E+04  0.16944845240E+04  0.50400001928E-02 0. -1.
    10030    2    1    2    0    0  0.00000000000E+00  0.00000000000E+00 -0.57996677285E+03  0.28090022752E+04  0.27484781834E+04 0.  0.
        4    1    3    3  502    0  0.46983735705E+03  0.10162522813E+04 -0.11044100870E+04  0.15726535202E+04  0.12699999809E+01 0. -1.
       -4    1    3    3    0  502 -0.46983735705E+03 -0.10162522813E+04  0.52444331417E+03  0.12363487550E+04  0.12699999809E+01 0.  1.
</event>
<event>
 5   0  0.9971923E-06  0.2690921E+04  0.7818609E-02  0.8337957E-01
       -1   -1    0    0    0  501  0.00000000000E+00  0.00000000000E+00  0.31894486005E+04  0.31894486005E+04  0.50400001928E-02 0. -1.
        1   -1    0    0  501    0  0.00000000000E+00  0.00000000000E+00 -0.56757891029E+03  0.56757891031E+03  0.50400001928E-02 0.  1.
    10030    2    1    2    0    0  0.00000000000E+00  0.00000000000E+00  0.26218696902E+04  0.37570275108E+04  0.26909208544E+04 0.  0.
        2    1    3    3  502    0 -0.11404921902E+04  0.69209786129E+03  0.10669340156E+04  0.17082359553E+04  0.25500000920E-02 0.  1.
       -2    1    3    3    0  502  0.11404921902E+04 -0.69209786129E+03  0.15549356746E+04  0.20487915555E+04  0.25500000920E-02 0. -1.
</event>
<event>
 5   0  0.2540684E-05  0.2657166E+04  0.7818609E-02  0.8349039E-01
       -2   -1    0    0    0  501  0.00000000000E+00  0.00000000000E+00  0.16559514413E+04  0.16559514413E+04  0.25500000920E-02 0.  1.
        2   -1    0    0  501    0  0.00000000000E+00  0.00000000000E+00 -0.10659324400E+04  0.10659324400E+04  0.25500000920E-02 0. -1.
    10030    2    1    2    0    0  0.00000000000E+00  0.00000000000E+00  0.59001900129E+03  0.27218838812E+04  0.26571656781E+04 0.  0.
        2    1    3    3  502    0  0.18208070483E+03  0.36904528924E+03  0.15890208573E+04  0.16414429912E+04  0.25500000920E-02 0.  1.
       -2    1    3    3    0  502 -0.18208070483E+03 -0.36904528924E+03 -0.99900185596E+03  0.10804408900E+04  0.25500000920E-02 0. -1.
</event>
<event>
 5   0  0.2615843E-05  0.2734791E+04  0.7818609E-02  0.8323804E-01
        2   -1    0    0  501    0  0.00000000000E+00  0.00000000000E+00  0.13972224232E+04  0.13972224232E+04  0.25500000920E-02 0.  1.
       -2   -1    0    0    0  501  0.00000000000E+00  0.00000000000E+00 -0.13382050541E+04  0.13382050541E+04  0.25500000920E-02 0. -1.
    10030    2    1    2    0    0  0.00000000000E+00  0.00000000000E+00  0.59017369193E+02  0.27354274773E+04  0.27347907477E+04 0.  0.
        3    1    3    3  502    0  0.49572971596E+03 -0.50473481036E+03 -0.11409196953E+04  0.13424615233E+04  0.10100000352E+00 0. -1.
       -3    1    3    3    0  502 -0.49572971596E+03  0.50473481036E+03  0.11999370645E+04  0.13929659540E+04  0.10100000352E+00 0.  1.
</event>
<event>
 5   0  0.2516518E-05  0.2781007E+04  0.7818609E-02  0.8309189E-01
        2   -1    0    0  501    0  0.00000000000E+00  0.00000000000E+00  0.12118336620E+04  0.12118336620E+04  0.25500000920E-02 0. -1.
       -2   -1    0    0    0  501  0.00000000000E+00  0.00000000000E+00 -0.15955164823E+04  0.15955164823E+04  0.25500000920E-02 0.  1.
    10030    2    1    2    0    0  0.00000000000E+00  0.00000000000E+00 -0.38368282028E+03  0.28073501443E+04  0.27810074301E+04 0.  0.
        4    1    3    3  502    0  0.67846888589E+03 -0.10628217291E+04  0.39987553137E+03  0.13228046380E+04  0.12699999809E+01 0. -1.
       -4    1    3    3    0  502 -0.67846888589E+03  0.10628217291E+04 -0.78355835165E+03  0.14845455063E+04  0.12699999809E+01 0.  1.
</event>
<event>
 5   0  0.1041909E-05  0.1788980E+04  0.7818609E-02  0.8712182E-01
       -1   -1    0    0    0  501  0.00000000000E+00  0.00000000000E+00  0.10603289023E+04  0.10603289023E+04  0.50400001928E-02 0.  1.
        1   -1    0    0  501    0  0.00000000000E+00  0.00000000000E+00 -0.75458845996E+03  0.75458845998E+03  0.50400001928E-02 0. -1.
    10030    2    1    2    0    0  0.00000000000E+00  0.00000000000E+00  0.30574044235E+03  0.18149173623E+04  0.17889795454E+04 0.  0.
        5    1    3    3  502    0  0.72599858930E+03 -0.52246019584E+03  0.14560712171E+03  0.90623514156E+03  0.46999998093E+01 0.  1.
       -5    1    3    3    0  502 -0.72599858930E+03  0.52246019584E+03  0.16013332064E+03  0.90868222074E+03  0.46999998093E+01 0. -1.
</event>
<event>
 5   0  0.2540232E-05  0.2574129E+04  0.7818609E-02  0.8377042E-01
        2   -1    0    0  501    0  0.00000000000E+00  0.00000000000E+00  0.14646327325E+04  0.14646327325E+04  0.25500000920E-02 0. -1.
       -2   -1    0    0    0  501  0.00000000000E+00  0.00000000000E+00 -0.11310244612E+04  0.11310244612E+04  0.25500000920E-02 0.  1.
    10030    2    1    2    0    0  0.00000000000E+00  0.00000000000E+00  0.33360827131E+03  0.25956571937E+04  0.25741293263E+04 0.  0.
        1    1    3    3  502    0  0.93114769186E+03  0.60705404076E+03  0.82106386243E+03  0.13819176888E+04  0.50400001928E-02 0. -1.
       -1    1    3    3    0  502 -0.93114769186E+03 -0.60705404076E+03 -0.48745559112E+03  0.12137395049E+04  0.50400001928E-02 0.  1.
</event>
<event>
 5   0  0.2641216E-05  0.2740583E+04  0.7818609E-02  0.8321956E-01
        2   -1    0    0  501    0  0.00000000000E+00  0.00000000000E+00  0.25145110991E+04  0.25145110991E+04  0.25500000920E-02 0. -1.
       -2   -1    0    0    0  501  0.00000000000E+00  0.00000000000E+00 -0.74674490475E+03  0.74674490475E+03  0.25500000920E-02 0.  1.
    10030    2    1    2    0    0  0.00000000000E+00  0.00000000000E+00  0.17677661944E+04  0.32612560039E+04  0.27405826761E+04 0.  0.
        5    1    3    3  502    0 -0.69386124048E+03  0.84063880080E+03  0.18720442503E+04  0.21662614754E+04  0.46999998093E+01 0. -1.
       -5    1    3    3    0  502  0.69386124048E+03 -0.84063880080E+03 -0.10427805598E+03  0.10949945285E+04  0.46999998093E+01 0.  1.
</event>
<event>
 5   0  0.1036691E-05  0.2656891E+04  0.7818609E-02  0.8349129E-01
        1   -1    0    0  501    0  0.00000000000E+00  0.00000000000E+00  0.89219054030E+03  0.89219054031E+03  0.50400001928E-02 0. -1.
       -1   -1    0    0    0  501  0.00000000000E+00  0.00000000000E+00 -0.19780162888E+04  0.19780162888E+04  0.50400001928E-02 0.  1.
    10030    2    1    2    0    0  0.00000000000E+00  0.00000000000E+00 -0.10858257485E+04  0.28702068291E+04  0.26568909812E+04 0.  0.
        4    1    3    3  502    0 -0.74503272157E+03  0.87297781649E+03 -0.12656583194E+04  0.17085246907E+04  0.12699999809E+01 0.  1.
       -4    1    3    3    0  502  0.74503272157E+03 -0.87297781649E+03  0.17983257092E+03  0.11616821384E+04  0.12699999809E+01 0. -1.
</event>
<event>
 5   0  0.9971923E-06  0.2594644E+04  0.7818609E-02  0.8370023E-01
        1   -1    0    0  501    0  0.00000000000E+00  0.00000000000E+00  0.18101914364E+04  0.18101914364E+04  0.50400001928E-02 0. -1.
       -1   -1    0    0    0  501  0.00000000000E+00  0.00000000000E+00 -0.92976044535E+03  0.92976044537E+03  0.50400001928E-02 0.  1.
    10030    2    1    2    0    0  0.00000000000E+00  0.00000000000E+00  0.88043099105E+03  0.27399518818E+04  0.25946440188E+04 0.  0.
        2    1    3    3  502    0 -0.34834314326E+03 -0.62204466763E+03 -0.70434849256E+03  0.10021922535E+04  0.25500000920E-02 0.  1.
       -2    1    3    3    0  502  0.34834314326E+03  0.62204466763E+03  0.15847794836E+04  0.17377596283E+04  0.25500000920E-02 0. -1.
</event>
<event>
 5   0  0.9971923E-06  0.1897839E+04  0.7818609E-02  0.8655933E-01
       -1   -1    0    0    0  501  0.00000000000E+00  0.00000000000E+00  0.43400464414E+03  0.43400464417E+03  0.50400001928E-02 0. -1.
        1   -1    0    0  501    0  0.00000000000E+00  0.00000000000E+00 -0.20747435309E+04  0.20747435309E+04  0.50400001928E-02 0.  1.
    10030    2    1    2    0    0  0.00000000000E+00  0.00000000000E+00 -0.16407388867E+04  0.25087481750E+04  0.18978391163E+04 0.  0.
        2    1    3    3  502    0 -0.78323247800E+03  0.53518156833E+03 -0.78864660551E+03  0.12336271293E+04  0.25500000920E-02 0. -1.
       -2    1    3    3    0  502  0.78323247800E+03 -0.53518156833E+03 -0.85209228122E+03  0.12751210458E+04  0.25500000920E-02 0.  1.
</event>
<event>
 5   0  0.1005265E-05  0.2718055E+04  0.7818609E-02  0.8329171E-01
       -1   -1    0    0    0  501  0.00000000000E+00  0.00000000000E+00  0.98190021721E+03  0.98190021722E+03  0.50400001928E-02 0.  1.
        1   -1    0    0  501    0  0.00000000000E+00  0.00000000000E+00 -0.18810009849E+04  0.18810009850E+04  0.50400001928E-02 0. -1.
    10030    2    1    2    0    0  0.00000000000E+00  0.00000000000E+00 -0.89910076774E+03  0.28629012022E+04  0.27180546541E+04 0.  0.
        3    1    3    3  502    0 -0.75150353107E+03 -0.58763389624E+03  0.56995873080E+03  0.11112713972E+04  0.10100000352E+00 0.  1.
       -3    1    3    3    0  502  0.75150353107E+03  0.58763389624E+03 -0.14690594985E+04  0.17516298050E+04  0.10100000352E+00 0. -1.
</event>
<event>
 5   0  0.9971923E-06  0.2685014E+04  0.7818609E-02  0.8339884E-01
        1   -1    0    0  501    0  0.00000000000E+00  0.00000000000E+00  0.11857394502E+04  0.11857394502E+04  0.50400001928E-02 0. -1.
       -1   -1    0    0    0  501  0.00000000000E+00  0.00000000000E+00 -0.15200014768E+04  0.15200014768E+04  0.50400001928E-02 0.  1.
    10030    2    1    2    0    0  0.00000000000E+00  0.00000000000E+00 -0.33426202663E+03  0.27057409271E+04  0.26850144994E+04 0.  0.
        2    1    3    3  502    0  0.99898831354E+02 -0.12758730403E+04  0.24157827333E+03  0.13023793049E+04  0.25500000920E-02 0.  1.
       -2    1    3    3    0  502 -0.99898831354E+02  0.12758730403E+04 -0.57584029997E+03  0.14033616222E+04  0.25500000920E-02 0. -1.
</event>
<event>
 5   0  0.2540684E-05  0.2705811E+04  0.7818609E-02  0.8333122E-01
       -2   -1    0    0    0  501  0.00000000000E+00  0.00000000000E+00  0.12200060431E+04  0.12200060431E+04  0.25500000920E-02 0.  1.
        2   -1    0    0  501    0  0.00000000000E+00  0.00000000000E+00 -0.15002821025E+04  0.15002821026E+04  0.25500000920E-02 0. -1.
    10030    2    1    2    0    0  0.00000000000E+00  0.00000000000E+00 -0.28027605944E+03  0.27202881457E+04  0.27058109553E+04 0.  0.
        2    1    3    3  502    0  0.10546069945E+04  0.67536677940E+03  0.37449634806E+03  0.13071203901E+04  0.25500000920E-02 0.  1.
       -2    1    3    3    0  502 -0.10546069945E+04 -0.67536677940E+03 -0.65477240750E+03  0.14131677555E+04  0.25500000920E-02 0. -1.
</event>
<event>
 5   0  0.2540684E-05  0.2371660E+04  0.7818609E-02  0.8450191E-01
       -2   -1    0    0    0  501  0.00000000000E+00  0.00000000000E+00  0.16485602761E+04  0.16485602761E+04  0.25500000920E-02 0.  1.
        2   -1    0    0  501    0  0.00000000000E+00  0.00000000000E+00 -0.85298206191E+03  0.85298206191E+03  0.25500000920E-02 0. -1.
    10030    2    1    2    0    0  0.00000000000E+00  0.00000000000E+00  0.79557821418E+03  0.25015423380E+04  0.23716596244E+04 0.  0.
        2    1    3    3  502    0 -0.69095707008E+03  0.57569512381E+03 -0.41741883666E+03  0.99150644651E+03  0.25500000920E-02 0. -1.
       -2    1    3    3    0  502  0.69095707008E+03 -0.57569512381E+03  0.12129970508E+04  0.15100358915E+04  0.25500000920E-02 0.  1.
</event>
<event>
 5   0  0.2615843E-05  0.2814084E+04  0.7818609E-02  0.8298909E-01
       -2   -1    0    0    0  501  0.00000000000E+00  0.00000000000E+00  0.83922262412E+03  0.83922262412E+03  0.25500000920E-02 0.  1.
        2   -1    0    0  501    0  0.00000000000E+00  0.00000000000E+00 -0.23590494679E+04  0.23590494679E+04  0.25500000920E-02 0. -1.
    10030    2    1    2    0    0  0.00000000000E+00  0.00000000000E+00 -0.15198268438E+04  0.31982720920E+04  0.28140843519E+04 0.  0.
        3    1    3    3  502    0  0.67531486936E+03  0.11939259767E+04 -0.11161699580E+04  0.17684300370E+04  0.10100000352E+00 0.  1.
       -3    1    3    3    0  502 -0.67531486936E+03 -0.11939259767E+04 -0.40365688580E+03  0.14298420550E+04  0.10100000352E+00 0. -1.
</event>
<event>
 5   0  0.1096672E-05  0.2738319E+04  0.7818609E-02  0.8322678E-01
        1   -1    0    0  501    0  0.00000000000E+00  0.00000000000E+00  0.21150184015E+04  0.21150184015E+04  0.50400001928E-02 0.  1.
       -1   -1    0    0    0  501  0.00000000000E+00  0.00000000000E+00 -0.88632722506E+03  0.88632722508E+03  0.50400001928E-02 0. -1.
    10030    2    1    2    0    0  0.00000000000E+00  0.00000000000E+00  0.12286911764E+04  0.30013456265E+04  0.27383194779E+04 0.  0.
        1    1    3    3  502    0  0.87580939029E+03  0.44587646310E+03  0.16591962497E+04  0.19284138828E+04  0.50400001928E-02 0.  1.
       -1    1    3    3    0  502 -0.87580939029E+03 -0.44587646310E+03 -0.43050507332E+03  0.10729317437E+04  0.50400001928E-02 0. -1.
</event>
<event>
 5   0  0.9971923E-06  0.2680702E+04  0.7818609E-02  0.8341294E-01
       -1   -1    0    0    0  501  0.00000000000E+00  0.00000000000E+00  0.12078045152E+04  0.12078045152E+04  0.50400001928E-02 0. -1.
        1   -1    0    0  501    0  0.00000000000E+00  0.00000000000E+00 -0.14874435954E+04  0.14874435954E+04  0.50400001928E-02 0.  1.
    10030    2    1    2    0    0  0.00000000000E+00  0.00000000000E+00 -0.27963908019E+03  0.26952481105E+04  0.26807022144E+04 0.  0.
        2    1    3    3  502    0  0.26083457022E+03 -0.18592019838E+03 -0.14483962949E+04  0.14833923352E+04  0.25500000920E-02 0.  1.
       -2    1    3    3    0  502 -0.26083457022E+03  0.18592019838E+03  0.11687572147E+04  0.12118557753E+04  0.25500000920E-02 0. -1.
</event>
<event>
 5   0  0.9971923E-06  0.2653540E+04  0.7818609E-02  0.8350239E-01
        1   -1    0    0  501    0  0.00000000000E+00  0.00000000000E+00  0.12091775486E+04  0.12091775486E+04  0.50400001928E-02 0. -1.
       -1   -1    0    0    0  501  0.00000000000E+00  0.00000000000E+00 -0.14557979067E+04  0.14557979067E+04  0.50400001928E-02 0.  1.
    10030    2    1    2    0    0  0.00000000000E+00  0.00000000000E+00 -0.24662035813E+03  0.26649754553E+04  0.26535396316E+04 0.  0.
        2    1    3    3  502    0  0.10857726837E+03  0.39876008349E+03  0.11428847429E+04  0.12153123726E+04  0.25500000920E-02 0. -1.
       -2    1    3    3    0  502 -0.10857726837E+03 -0.39876008349E+03 -0.13895051011E+04  0.14496630827E+04  0.25500000920E-02 0.  1.
</event>
<event>
 5   0  0.2615843E-05  0.2698175E+04  0.7818609E-02  0.8335598E-01
        2   -1    0    0  501    0  0.00000000000E+00  0.00000000000E+00  0.15360906127E+04  0.15360906127E+04  0.25500000920E-02 0. -1.
       -2   -1    0    0    0  501  0.00000000000E+00  0.00000000000E+00 -0.11848496758E+04  0.11848496758E+04  0.25500000920E-02 0.  1.
    10030    2    1    2    0    0  0.00000000000E+00  0.00000000000E+00  0.35124093681E+03  0.27209402885E+04  0.26981745418E+04 0.  0.
        3    1    3    3  502    0  0.10382326297E+04 -0.77538019635E+03  0.55414739643E+03  0.14093334557E+04  0.10100000352E+00 0. -1.
       -3    1    3    3    0  502 -0.10382326297E+04  0.77538019635E+03 -0.20290645962E+03  0.13116068328E+04  0.10100000352E+00 0.  1.
</event>
<event>
 5   0  0.2540684E-05  0.2617185E+04  0.7818609E-02  0.8362387E-01
       -2   -1    0    0    0  501  0.00000000000E+00  0.00000000000E+00  0.97538218143E+03  0.97538218144E+03  0.25500000920E-02 0.  1.
        2   -1    0    0  501    0  0.00000000000E+00  0.00000000000E+00 -0.17556343387E+04  0.17556343387E+04  0.25500000920E-02 0. -1.
    10030    2    1    2    0    0  0.00000000000E+00  0.00000000000E+00 -0.78025215723E+03  0.27310165201E+04  0.26171850917E+04 0.  0.
        2    1    3    3  502    0 -0.22695044605E+03  0.14888138982E+03 -0.17259377034E+04  0.17471500020E+04  0.25500000920E-02 0. -1.
       -2    1    3    3    0  502  0.22695044605E+03 -0.14888138982E+03  0.94568554621E+03  0.98386651814E+03  0.25500000920E-02 0.  1.
</event>
<event>
 5   0  0.2540684E-05  0.2803058E+04  0.7818609E-02  0.8302320E-01
       -2   -1    0    0    0  501  0.00000000000E+00  0.00000000000E+00  0.12821331115E+04  0.12821331115E+04  0.25500000920E-02 0. -1.
        2   -1    0    0  501    0  0.00000000000E+00  0.00000000000E+00 -0.15320436903E+04  0.15320436903E+04  0.25500000920E-02 0.  1.
    10030    2    1    2    0    0  0.00000000000E+00  0.00000000000E+00 -0.24991057885E+03  0.28141768018E+04  0.28030582895E+04 0.  0.
        2    1    3    3  502    0 -0.78327075748E+02  0.12968568619E+04  0.40278276275E+03  0.13602230718E+04  0.25500000920E-02 0. -1.
       -2    1    3    3    0  502  0.78327075748E+02 -0.12968568619E+04 -0.65269334160E+03  0.14539537301E+04  0.25500000920E-02 0.  1.
</event>
<event>
 5   0  0.1036691E-05  0.1652664E+04  0.7818609E-02  0.8788832E-01
       -1   -1    0    0    0  501  0.00000000000E+00  0.00000000000E+00  0.74864125495E+03  0.74864125496E+03  0.50400001928E-02 0.  1.
        1   -1    0    0  501    0  0.00000000000E+00  0.00000000000E+00 -0.91208468981E+03  0.91208468982E+03  0.50400001928E-02 0. -1.
    10030    2    1    2    0    0  0.00000000000E+00  0.00000000000E+00 -0.16344343486E+03  0.16607259448E+04  0.16526635796E+04 0.  0.
        4    1    3    3  502    0 -0.16960193457E+03 -0.75590701964E+03 -0.37063496395E+03  0.85879690728E+03  0.12699999809E+01 0. -1.
       -4    1    3    3    0  502  0.16960193457E+03  0.75590701964E+03  0.20719152909E+03  0.80192903750E+03  0.12699999809E+01 0.  1.
</event>
<event>
 5   0  0.8740500E-06  0.2681224E+04  0.7818609E-02  0.8341123E-01
        3   -1    0    0  501    0  0.00000000000E+00  0.00000000000E+00  0.91344206099E+03  0.91344206657E+03  0.10100000352E+00 0.  1.
       -3   -1    0    0    0  501  0.00000000000E+00  0.00000000000E+00 -0.19675469406E+04  0.19675469432E+04  0.10100000352E+00 0. -1.
    10030    2    1    2    0    0  0.00000000000E+00  0.00000000000E+00 -0.10541048796E+04  0.28809890097E+04  0.26812237089E+04 0.  0.
        4    1    3    3  502    0  0.27531039240E+03 -0.61746015514E+03  0.71686350996E+03  0.98536681503E+03  0.12699999809E+01 0.  1.
       -4    1    3    3    0  502 -0.27531039240E+03  0.61746015514E+03 -0.17709683895E+04  0.18956221947E+04  0.12699999809E+01 0. -1.
</event>
<event>
 5   0  0.2540232E-05  0.2705628E+04  0.7818609E-02  0.8333181E-01
       -2   -1    0    0    0  501  0.00000000000E+00  0.00000000000E+00  0.19404367436E+04  0.19404367436E+04  0.25500000920E-02 0.  1.
        2   -1    0    0  501    0  0.00000000000E+00  0.00000000000E+00 -0.94314110745E+03  0.94314110746E+03  0.25500000920E-02 0. -1.
    10030    2    1    2    0    0  0.00000000000E+00  0.00000000000E+00  0.99729563617E+03  0.28835778511E+04  0.27056279562E+04 0.  0.
        1    1    3    3  502    0  0.10876892005E+03 -0.11185124004E+04  0.13013115230E+04  0.17193930173E+04  0.50400001928E-02 0. -1.
       -1    1    3    3    0  502 -0.10876892005E+03  0.11185124004E+04 -0.30401588686E+03  0.11641848338E+04  0.50400001928E-02 0.  1.
</event>
<event>
 5   0  0.2615843E-05  0.2689469E+04  0.7818609E-02  0.8338430E-01
       -2   -1    0    0    0  501  0.00000000000E+00  0.00000000000E+00  0.12386239929E+04  0.12386239929E+04  0.25500000920E-02 0. -1.
        2   -1    0    0  501    0  0.00000000000E+00  0.00000000000E+00 -0.14599351492E+04  0.14599351492E+04  0.25500000920E-02 0.  1.
    10030    2    1    2    0    0  0.00000000000E+00  0.00000000000E+00 -0.22131115630E+03  0.26985591421E+04  0.26894688724E+04 0.  0.
        3    1    3    3  502    0  0.13073404517E+04 -0.31470534243E+03 -0.12219159145E+03  0.13502256494E+04  0.10100000352E+00 0.  1.
       -3    1    3    3    0  502 -0.13073404517E+04  0.31470534243E+03 -0.99119564843E+02  0.13483334927E+04  0.10100000352E+00 0. -1.
</event>
<event>
 5   0  0.9971923E-06  0.2712129E+04  0.7818609E-02  0.8331080E-01
       -1   -1    0    0    0  501  0.00000000000E+00  0.00000000000E+00  0.17998101663E+04  0.17998101663E+04  0.50400001928E-02 0.  1.
        1   -1    0    0  501    0  0.00000000000E+00  0.00000000000E+00 -0.10217248359E+04  0.10217248359E+04  0.50400001928E-02 0. -1.
    10030    2    1    2    0    0  0.00000000000E+00  0.00000000000E+00  0.77808533043E+03  0.28215350022E+04  0.27121288663E+04 0.  0.
        2    1    3    3  502    0 -0.32235485526E+02  0.79654448441E+03  0.15302854647E+04  0.17254842351E+04  0.25500000920E-02 0.  1.
       -2    1    3    3    0  502  0.32235485526E+02 -0.79654448441E+03 -0.75220013424E+03  0.10960507671E+04  0.25500000920E-02 0. -1.
</event>
<event>
 5   0  0.2615843E-05  0.1737171E+04  0.7818609E-02  0.8740444E-01
        2   -1    0    0  501    0  0.00000000000E+00  0.00000000000E+00  0.14591357338E+04  0.14591357338E+04  0.25500000920E-02 0.  1.
       -2   -1    0    0    0  501  0.00000000000E+00  0.00000000000E+00 -0.51704606309E+03  0.51704606310E+03  0.25500000920E-02 0. -1.
    10030    2    1    2    0    0  0.00000000000E+00  0.00000000000E+00  0.94208967066E+03  0.19761817969E+04  0.17371705577E+04 0.  0.
        3    1    3    3  502    0  0.10962823834E+03 -0.78100231750E+03  0.88506601369E+03  0.11854639722E+04  0.10100000352E+00 0. -1.
       -3    1    3    3    0  502 -0.10962823834E+03  0.78100231750E+03  0.57023656972E+02  0.79071782466E+03  0.10100000352E+00 0.  1.
</event>
<event>
 5   0  0.2540684E-05  0.2729141E+04  0.7818609E-02  0.8325611E-01
       -2   -1    0    0    0  501  0.00000000000E+00  0.00000000000E+00  0.15597478920E+04  0.15597478921E+04  0.25500000920E-02 0. -1.
        2   -1    0    0  501    0  0.00000000000E+00  0.00000000000E+00 -0.11938160705E+04  0.11938160705E+04  0.25500000920E-02 0.  1.
    10030    2    1    2    0    0  0.00000000000E+00  0.00000000000E+00  0.36593182159E+03  0.27535639625E+04  0.27291405969E+04 0.  0.
        2    1    3    3  502    0 -0.87555411064E+03 -0.22980953882E+03 -0.84727175575E+03  0.12398696919E+04  0.25500000920E-02 0.  1.
       -2    1    3    3    0  502  0.87555411064E+03  0.22980953882E+03  0.12132035773E+04  0.15136942706E+04  0.25500000920E-02 0. -1.
</event>
<event>
 5   0  0.2615843E-05  0.2580068E+04  0.7818609E-02  0.8375003E-01
       -2   -1    0    0    0  501  0.00000000000E+00  0.00000000000E+00  0.79895712150E+03  0.79895712151E+03  0.25500000920E-02 0.  1.
        2   -1    0    0  501    0  0.00000000000E+00  0.00000000000E+00 -0.20829496525E+04  0.20829496525E+04  0.25500000920E-02 0. -1.
    10030    2    1    2    0    0  0.00000000000E+00  0.00000000000E+00 -0.12839925310E+04  0.28819067740E+04  0.25800677965E+04 0.  0.
        3    1    3    3  502    0  0.11748755384E+04 -0.51743994017E+03 -0.78377389621E+03  0.15041203918E+04  0.10100000352E+00 0. -1.
       -3    1    3    3    0  502 -0.11748755384E+04  0.51743994017E+03 -0.50021863483E+03  0.13777863823E+04  0.10100000352E+00 0.  1.
</event>
<event>
 5   0  0.1041909E-05  0.2685086E+04  0.7818609E-02  0.8339860E-01
       -1   -1    0    0    0  501  0.00000000000E+00  0.00000000000E+00  0.13870997429E+04  0.13870997429E+04  0.50400001928E-02 0.  1.
        1   -1    0    0  501    0  0.00000000000E+00  0.00000000000E+00 -0.12994170604E+04  0.12994170605E+04  0.50400001928E-02 0. -1.
    10030    2    1    2    0    0  0.00000000000E+00  0.00000000000E+00  0.87682682437E+02  0.26865168033E+04  0.26850855260E+04 0.  0.
        5    1    3    3  502    0  0.23986569310E+03  0.16737803142E+03 -0.12671425772E+04  0.13004704368E+04  0.46999998093E+01 0. -1.
       -5    1    3    3    0  502 -0.23986569310E+03 -0.16737803142E+03  0.13548252596E+04  0.13860463665E+04  0.46999998093E+01 0.  1.
</event>
<event>
 5   0  0.1041909E-05  0.2666505E+04  0.7818609E-02  0.8345955E-01
       -1   -1    0    0    0  501  0.00000000000E+00  0.00000000000E+00  0.97803738132E+03  0.97803738133E+03  0.50400001928E-02 0.  1.
        1   -1    0    0  501    0  0.00000000000E+00  0.00000000000E+00 -0.18174788235E+04  0.18174788235E+04  0.50400001928E-02 0. -1.
    10030    2    1    2    0    0  0.00000000000E+00  0.00000000000E+00 -0.83944144221E+03  0.27955162049E+04  0.26665050003E+04 0.  0.
        5    1    3    3  502    0 -0.19108796580E+03  0.96447079020E+03  0.52430162079E+03  0.11142857781E+04  0.46999998093E+01 0.  1.
       -5    1    3    3    0  502  0.19108796580E+03 -0.96447079020E+03 -0.13637430630E+04  0.16812304267E+04  0.46999998093E+01 0. -1.
</event>
<event>
 5   0  0.2540232E-05  0.2295658E+04  0.7818609E-02  0.8479635E-01
       -2   -1    0    0    0  501  0.00000000000E+00  0.00000000000E+00  0.68906808411E+03  0.68906808411E+03  0.25500000920E-02 0. -1.
        2   -1    0    0  501    0  0.00000000000E+00  0.00000000000E+00 -0.19120189171E+04  0.19120189171E+04  0.25500000920E-02 0.  1.
    10030    2    1    2    0    0  0.00000000000E+00  0.00000000000E+00 -0.12229508330E+04  0.26010870012E+04  0.22956578247E+04 0.  0.
        1    1    3    3  502    0  0.38739557970E+03 -0.54390155260E+03  0.44633556781E+03  0.80319342204E+03  0.50400001928E-02 0. -1.
       -1    1    3    3    0  502 -0.38739557970E+03  0.54390155260E+03 -0.16692864008E+04  0.17978935792E+04  0.50400001928E-02 0.  1.
</event>
<event>
 5   0  0.9971923E-06  0.2386878E+04  0.7818609E-02  0.8444432E-01
       -1   -1    0    0    0  501  0.00000000000E+00  0.00000000000E+00  0.89506089706E+03  0.89506089707E+03  0.50400001928E-02 0. -1.
        1   -1    0    0  501    0  0.00000000000E+00  0.00000000000E+00 -0.15912851930E+04  0.15912851930E+04  0.50400001928E-02 0.  1.
    10030    2    1    2    0    0  0.00000000000E+00  0.00000000000E+00 -0.69622429594E+03  0.24863460901E+04  0.23868784237E+04 0.  0.
        2    1    3    3  502    0 -0.51382174887E+03 -0.64983138351E+03 -0.12429832904E+04  0.14937540215E+04  0.25500000920E-02 0.  1.
       -2    1    3    3    0  502  0.51382174887E+03  0.64983138351E+03  0.54675899444E+03  0.99259206858E+03  0.25500000920E-02 0. -1.
</event>
<event>
 5   0  0.2540684E-05  0.2316430E+04  0.7818609E-02  0.8471471E-01
        2   -1    0    0  501    0  0.00000000000E+00  0.00000000000E+00  0.13749955830E+04  0.13749955830E+04  0.25500000920E-02 0. -1.
       -2   -1    0    0    0  501  0.00000000000E+00  0.00000000000E+00 -0.97561214842E+03  0.97561214842E+03  0.25500000920E-02 0.  1.
    10030    2    1    2    0    0  0.00000000000E+00  0.00000000000E+00  0.39938343457E+03  0.23506077314E+04  0.23164303528E+04 0.  0.
        2    1    3    3  502    0  0.66615860899E+03  0.17765758389E+03 -0.74470219177E+03  0.10148452413E+04  0.25500000920E-02 0.  1.
       -2    1    3    3    0  502 -0.66615860899E+03 -0.17765758389E+03  0.11440856263E+04  0.13357624901E+04  0.25500000920E-02 0. -1.
</event>
<event>
 5   0  0.1096672E-05  0.2272469E+04  0.7818609E-02  0.8488856E-01
        1   -1    0    0  501    0  0.00000000000E+00  0.00000000000E+00  0.62594574370E+03  0.62594574372E+03  0.50400001928E-02 0.  1.
       -1   -1    0    0    0  501  0.00000000000E+00  0.00000000000E+00 -0.20625246323E+04  0.20625246323E+04  0.50400001928E-02 0. -1.
    10030    2    1    2    0    0  0.00000000000E+00  0.00000000000E+00 -0.14365788886E+04  0.26884703760E+04  0.22724687148E+04 0.  0.
        1    1    3    3  502    0  0.50549398498E+03 -0.81535706792E+03  0.20164920091E+01  0.95934111938E+03  0.50400001928E-02 0.  1.
       -1    1    3    3    0  502 -0.50549398498E+03  0.81535706792E+03 -0.14385953806E+04  0.17291292566E+04  0.50400001928E-02 0. -1.
</event>
<event>
 5   0  0.2516518E-05  0.2670828E+04  0.7818609E-02  0.8344533E-01
        2   -1    0    0  501    0  0.00000000000E+00  0.00000000000E+00  0.12677237189E+04  0.12677237189E+04  0.25500000920E-02 0.  1.
       -2   -1    0    0    0  501  0.00000000000E+00  0.00000000000E+00 -0.14067189377E+04  0.14067189377E+04  0.25500000920E-02 0. -1.
    10030    2    1    2    0    0  0.00000000000E+00  0.00000000000E+00 -0.13899521881E+03  0.26744426567E+04  0.26708283084E+04 0.  0.
        4    1    3    3  502    0  0.13245523325E+04  0.33033248087E+01 -0.23966744631E+03  0.13460653369E+04  0.12699999809E+01 0.  1.
       -4    1    3    3    0  502 -0.13245523325E+04 -0.33033248087E+01  0.10067222749E+03  0.13283773198E+04  0.12699999809E+01 0. -1.
</event>
<event>
 5   0  0.1036691E-05  0.2773523E+04  0.7818609E-02  0.8311536E-01
        1   -1    0    0  501    0  0.00000000000E+00  0.00000000000E+00  0.14771641610E+04  0.14771641610E+04  0.50400001928E-02 0.  1.
       -1   -1    0    0    0  501  0.00000000000E+00  0.00000000000E+00 -0.13018919201E+04  0.13018919201E+04  0.50400001928E-02 0. -1.
    10030    2    1    2    0    0  0.00000000000E+00  0.00000000000E+00  0.17527224089E+03  0.27790560811E+04  0.27735234528E+04 0.  0.
        4    1    3    3  502    0 -0.13339373688E+04  0.41437700315E+01 -0.29219841918E+03  0.13655722624E+04  0.12699999809E+01 0. -1.
       -4    1    3    3    0  502  0.13339373688E+04 -0.41437700315E+01  0.46747066007E+03  0.14134838187E+04  0.12699999809E+01 0.  1.
</event>
<event>
 5   0  0.2641216E-05  0.2687327E+04  0.7818609E-02  0.8339129E-01
       -2   -1    0    0    0  501  0.00000000000E+00  0.00000000000E+00  0.15496838418E+04  0.15496838418E+04  0.25500000920E-02 0.  1.
        2   -1    0    0  501    0  0.00000000000E+00  0.00000000000E+00 -0.11650321670E+04  0.11650321670E+04  0.25500000920E-02 0. -1.
    10030    2    1    2    0    0  0.00000000000E+00  0.00000000000E+00  0.38465167482E+03  0.27147160089E+04  0.26873269429E+04 0.  0.
        5    1    3    3  502    0 -0.41653995643E+01 -0.20443603865E+03 -0.11492143755E+04  0.11672734107E+04  0.46999998093E+01 0. -1.
       -5    1    3    3    0  502  0.41653995643E+01  0.20443603865E+03  0.15338660503E+04  0.15474425982E+04  0.46999998093E+01 0.  1.
</event>
<event>
 5   0  0.1036691E-05  0.1670861E+04  0.7818609E-02  0.8778160E-01
       -1   -1    0    0    0  501  0.00000000000E+00  0.00000000000E+00  0.93098918975E+03  0.93098918976E+03  0.50400001928E-02 0. -1.
        1   -1    0    0  501    0  0.00000000000E+00  0.00000000000E+00 -0.74968008862E+03  0.74968008864E+03  0.50400001928E-02 0.  1.
    10030    2    1    2    0    0  0.00000000000E+00  0.00000000000E+00  0.18130910113E+03  0.16806692784E+04  0.16708609258E+04 0.  0.
        4    1    3    3  502    0  0.61818317411E+03 -0.44184473236E+03 -0.25860880179E+03  0.80265642060E+03  0.12699999809E+01 0. -1.
       -4    1    3    3    0  502 -0.61818317411E+03  0.44184473236E+03  0.43991790291E+03  0.87801285780E+03  0.12699999809E+01 0.  1.
</event>
<event>
 5   0  0.1041909E-05  0.2669861E+04  0.7818609E-02  0.8344851E-01
        1   -1    0    0  501    0  0.00000000000E+00  0.00000000000E+00  0.15690696473E+04  0.15690696474E+04  0.50400001928E-02 0.  1.
       -1   -1    0    0    0  501  0.00000000000E+00  0.00000000000E+00 -0.11357302581E+04  0.11357302581E+04  0.50400001928E-02 0. -1.
    10030    2    1    2    0    0  0.00000000000E+00  0.00000000000E+00  0.43333938925E+03  0.27047999055E+04  0.26698613264E+04 0.  0.
        5    1    3    3  502    0 -0.11602094803E+04 -0.48992309998E+03 -0.23173642381E+03  0.12805602454E+04  0.46999998093E+01 0. -1.
       -5    1    3    3    0  502  0.11602094803E+04  0.48992309998E+03  0.66507581305E+03  0.14242396600E+04  0.46999998093E+01 0.  1.
</event>
<event>
 5   0  0.2540232E-05  0.2678259E+04  0.7818609E-02  0.8342094E-01
        2   -1    0    0  501    0  0.00000000000E+00  0.00000000000E+00  0.19836054999E+04  0.19836054999E+04  0.25500000920E-02 0. -1.
       -2   -1    0    0    0  501  0.00000000000E+00  0.00000000000E+00 -0.90404463198E+03  0.90404463198E+03  0.25500000920E-02 0.  1.
    10030    2    1    2    0    0  0.00000000000E+00  0.00000000000E+00  0.10795608679E+04  0.28876501319E+04  0.26782590645E+04 0.  0.
        1    1    3    3  502    0 -0.10085908654E+04  0.85076660862E+03  0.29342463059E+03  0.13517238512E+04  0.50400001928E-02 0.  1.
       -1    1    3    3    0  502  0.10085908654E+04 -0.85076660862E+03  0.78613623732E+03  0.15359262807E+04  0.50400001928E-02 0. -1.
</event>
<event>
 5   0  0.1005265E-05  0.2647108E+04  0.7818609E-02  0.8352373E-01
       -1   -1    0    0    0  501  0.00000000000E+00  0.00000000000E+00  0.83802771442E+03  0.83802771444E+03  0.50400001928E-02 0. -1.
        1   -1    0    0  501    0  0.00000000000E+00  0.00000000000E+00 -0.20903790742E+04  0.20903790742E+04  0.50400001928E-02 0.  1.
    10030    2    1    2    0    0  0.00000000000E+00  0.00000000000E+00 -0.12523513597E+04  0.29284067886E+04  0.26471083074E+04 0.  0.
        3    1    3    3  502    0  0.74424791973E+03 -0.80743009647E+03 -0.14435764446E+04  0.18137699105E+04  0.10100000352E+00 0.  1.
       -3    1    3    3    0  502 -0.74424791973E+03  0.80743009647E+03  0.19122508485E+03  0.11146368781E+04  0.10100000352E+00 0. -1.
</event>
<event>
 5   0  0.2540232E-05  0.2702666E+04  0.7818609E-02  0.8334140E-01
        2   -1    0    0  501    0  0.00000000000E+00  0.00000000000E+00  0.15388373958E+04  0.15388373958E+04  0.25500000920E-02 0.  1.
       -2   -1    0    0    0  501  0.00000000000E+00  0.00000000000E+00 -0.11866759570E+04  0.11866759570E+04  0.25500000920E-02 0. -1.
    10030    2    1    2    0    0  0.00000000000E+00  0.00000000000E+00  0.35216143881E+03  0.27255133529E+04  0.27026663423E+04 0.  0.
        1    1    3    3  502    0 -0.12289763646E+04 -0.14758560039E+02  0.74252342568E+03  0.14359462934E+04  0.50400001928E-02 0. -1.
       -1    1    3    3    0  502  0.12289763646E+04  0.14758560039E+02 -0.39036198687E+03  0.12895670594E+04  0.50400001928E-02 0.  1.
</event>
<event>
 5   0  0.1005265E-05  0.2821349E+04  0.7818609E-02  0.8296671E-01
       -1   -1    0    0    0  501  0.00000000000E+00  0.00000000000E+00  0.12197368057E+04  0.12197368057E+04  0.50400001928E-02 0. -1.
        1   -1    0    0  501    0  0.00000000000E+00  0.00000000000E+00 -0.16315021190E+04  0.16315021190E+04  0.50400001928E-02 0.  1.
    10030    2    1    2    0    0  0.00000000000E+00  0.00000000000E+00 -0.41176531329E+03  0.28512389247E+04  0.28213494524E+04 0.  0.
        3    1    3    3  502    0  0.42384650990E+03 -0.38452917385E+03 -0.15089199779E+04  0.16137992624E+04  0.10100000352E+00 0.  1.
       -3    1    3    3    0  502 -0.42384650990E+03  0.38452917385E+03  0.10971546646E+04  0.12374396623E+04  0.10100000352E+00 0. -1.
</event>
<event>
 5   0  0.1041909E-05  0.2696184E+04  0.7818609E-02  0.8336244E-01
       -1   -1    0    0    0  501  0.00000000000E+00  0.00000000000E+00  0.11095555886E+04  0.11095555886E+04  0.50400001928E-02 0.  1.
        1   -1    0    0  501    0  0.00000000000E+00  0.00000000000E+00 -0.16379100446E+04  0.16379100446E+04  0.50400001928E-02 0. -1.
    10030    2    1    2    0    0  0.00000000000E+00  0.00000000000E+00 -0.52835445599E+03  0.27474656333E+04  0.26961841508E+04 0.  0.
        5    1    3    3  502    0  0.10243565805E+04  0.75091625557E+03 -0.72459898997E+03  0.14622747393E+04  0.46999998093E+01 0. -1.
       -5    1    3    3    0  502 -0.10243565805E+04 -0.75091625557E+03  0.19624453399E+03  0.12851908940E+04  0.46999998093E+01 0.  1.
</event>
<event>
 5   0  0.2516518E-05  0.2738044E+04  0.7818609E-02  0.8322765E-01
        2   -1    0    0  501    0  0.00000000000E+00  0.00000000000E+00  0.17647996632E+04  0.17647996632E+04  0.25500000920E-02 0.  1.
       -2   -1    0    0    0  501  0.00000000000E+00  0.00000000000E+00 -0.10620024577E+04  0.10620024577E+04  0.25500000920E-02 0. -1.
    10030    2    1    2    0    0  0.00000000000E+00  0.00000000000E+00  0.70279720548E+03  0.28268021209E+04  0.27380442506E+04 0.  0.
        4    1    3    3  502    0 -0.23282164816E+03  0.10233355333E+04  0.12589851758E+04  0.16390444836E+04  0.12699999809E+01 0.  1.
       -4    1    3    3    0  502  0.23282164816E+03 -0.10233355333E+04 -0.55618797036E+03  0.11877576372E+04  0.12699999809E+01 0. -1.
</event>
<event>
 5   0  0.2540684E-05  0.2774241E+04  0.7818609E-02  0.8311310E-01
       -2   -1    0    0    0  501  0.00000000000E+00  0.00000000000E+00  0.69305298218E+03  0.69305298219E+03  0.25500000920E-02 0.  1.
        2   -1    0    0  501    0  0.00000000000E+00  0.00000000000E+00 -0.27762714062E+04  0.27762714062E+04  0.25500000920E-02 0. -1.
    10030    2    1    2    0    0  0.00000000000E+00  0.00000000000E+00 -0.20832184240E+04  0.34693243883E+04  0.27742409249E+04 0.  0.
        2    1    3    3  502    0 -0.15929104803E+03 -0.76873230269E+03  0.38849640246E+03  0.87592947542E+03  0.25500000920E-02 0.  1.
       -2    1    3    3    0  502  0.15929104803E+03  0.76873230269E+03 -0.24717148264E+04  0.25933949129E+04  0.25500000920E-02 0. -1.
</event>
<event>
 5   0  0.1036691E-05  0.2705207E+04  0.7818609E-02  0.8333317E-01
        1   -1    0    0  501    0  0.00000000000E+00  0.00000000000E+00  0.10682824094E+04  0.10682824095E+04  0.50400001928E-02 0.  1.
       -1   -1    0    0    0  501  0.00000000000E+00  0.00000000000E+00 -0.17125966313E+04  0.17125966313E+04  0.50400001928E-02 0. -1.
    10030    2    1    2    0    0  0.00000000000E+00  0.00000000000E+00 -0.64431422184E+03  0.27808790407E+04  0.27052074639E+04 0.  0.
        4    1    3    3  502    0  0.10703293851E+01 -0.12917739627E+04 -0.73444219730E+03  0.14859636840E+04  0.12699999809E+01 0.  1.
       -4    1    3    3    0  502 -0.10703293851E+01  0.12917739627E+04  0.90127975461E+02  0.12949153567E+04  0.12699999809E+01 0. -1.
</event>
<event>
 5   0  0.2641216E-05  0.2699234E+04  0.7818609E-02  0.8335253E-01
       -2   -1    0    0    0  501  0.00000000000E+00  0.00000000000E+00  0.13759945772E+04  0.13759945772E+04  0.25500000920E-02 0.  1.
        2   -1    0    0  501    0  0.00000000000E+00  0.00000000000E+00 -0.13237454480E+04  0.13237454480E+04  0.25500000920E-02 0. -1.
    10030    2    1    2    0    0  0.00000000000E+00  0.00000000000E+00  0.52249129214E+02  0.26997400252E+04  0.26992343789E+04 0.  0.
        5    1    3    3  502    0 -0.21884872048E+03  0.12171695217E+04 -0.51439138304E+03  0.13394091952E+04  0.46999998093E+01 0. -1.
       -5    1    3    3    0  502  0.21884872048E+03 -0.12171695217E+04  0.56664051226E+03  0.13603308301E+04  0.46999998093E+01 0.  1.
</event>
<event>
 5   0  0.1096672E-05  0.2691964E+04  0.7818609E-02  0.8337617E-01
       -1   -1    0    0    0  501  0.00000000000E+00  0.00000000000E+00  0.92050431626E+03  0.92050431628E+03  0.50400001928E-02 0.  1.
        1   -1    0    0  501    0  0.00000000000E+00  0.00000000000E+00 -0.19681248299E+04  0.19681248299E+04  0.50400001928E-02 0. -1.
    10030    2    1    2    0    0  0.00000000000E+00  0.00000000000E+00 -0.10476205137E+04  0.28886291462E+04  0.26919638935E+04 0.  0.
        1    1    3    3  502    0  0.52107772764E+03  0.37268865110E+03 -0.17940337765E+04  0.19049871444E+04  0.50400001928E-02 0. -1.
       -1    1    3    3    0  502 -0.52107772764E+03 -0.37268865110E+03  0.74641326282E+03  0.98364200187E+03  0.50400001928E-02 0.  1.
</event>
<event>
 5   0  0.2516518E-05  0.2662826E+04  0.7818609E-02  0.8347168E-01
       -2   -1    0    0    0  501  0.00000000000E+00  0.00000000000E+00  0.11658833579E+04  0.11658833579E+04  0.25500000920E-02 0.  1.
        2   -1    0    0  501    0  0.00000000000E+00  0.00000000000E+00 -0.15204440059E+04  0.15204440059E+04  0.25500000920E-02 0. -1.
    10030    2    1    2    0    0  0.00000000000E+00  0.00000000000E+00 -0.35456064804E+03  0.26863273638E+04  0.26628258397E+04 0.  0.
        4    1    3    3  502    0 -0.20820509707E+03  0.13148846374E+04 -0.15741444646E+03  0.13405416417E+04  0.12699999809E+01 0. -1.
       -4    1    3    3    0  502  0.20820509707E+03 -0.13148846374E+04 -0.19714620159E+03  0.13457857221E+04  0.12699999809E+01 0.  1.
</event>
<event>
 5   0  0.9971923E-06  0.2375529E+04  0.7818609E-02  0.8448722E-01
        1   -1    0    0  501    0  0.00000000000E+00  0.00000000000E+00  0.85337874378E+03  0.85337874380E+03  0.50400001928E-02 0. -1.
       -1   -1    0    0    0  501  0.00000000000E+00  0.00000000000E+00 -0.16531745181E+04  0.16531745181E+04  0.50400001928E-02 0.  1.
    10030    2    1    2    0    0  0.00000000000E+00  0.00000000000E+00 -0.79979577434E+03  0.25065532619E+04  0.23755285673E+04 0.  0.
        2    1    3    3  502    0  0.10819487565E+04 -0.42121819392E+03 -0.66420576062E+03  0.13376124891E+04  0.25500000920E-02 0.  1.
       -2    1    3    3    0  502 -0.10819487565E+04  0.42121819392E+03 -0.13559001372E+03  0.11689407728E+04  0.25500000920E-02 0. -1.
</event>
<event>
 5   0  0.9971923E-06  0.2680141E+04  0.7818609E-02  0.8341477E-01
        1   -1    0    0  501    0  0.00000000000E+00  0.00000000000E+00  0.16182644551E+04  0.16182644551E+04  0.50400001928E-02 0.  1.
       -1   -1    0    0    0  501  0.00000000000E+00  0.00000000000E+00 -0.11097008695E+04  0.11097008695E+04  0.50400001928E-02 0. -1.
    10030    2    1    2    0    0  0.00000000000E+00  0.00000000000E+00  0.50856358563E+03  0.27279653246E+04  0.26801413940E+04 0.  0.
        2    1    3    3  502    0  0.86782220384E+03 -0.47678457019E+03 -0.66479823486E+03  0.11926422753E+04  0.25500000920E-02 0. -1.
       -2    1    3    3    0  502 -0.86782220384E+03  0.47678457019E+03  0.11733618205E+04  0.15353230493E+04  0.25500000920E-02 0.  1.
</event>
<event>
 5   0  0.2540684E-05  0.2575305E+04  0.7818609E-02  0.8376638E-01
       -2   -1    0    0    0  501  0.00000000000E+00  0.00000000000E+00  0.15297456154E+04  0.15297456154E+04  0.25500000920E-02 0. -1.
        2   -1    0    0  501    0  0.00000000000E+00  0.00000000000E+00 -0.10838726310E+04  0.10838726310E+04  0.25500000920E-02 0.  1.
    10030    2    1    2    0    0  0.00000000000E+00  0.00000000000E+00  0.44587298441E+03  0.26136182465E+04  0.25753053450E+04 0.  0.
        2    1    3    3  502    0 -0.20325667104E+03  0.52496659386E+03 -0.95237095192E+03  0.11063062998E+04  0.25500000920E-02 0.  1.
       -2    1    3    3    0  502  0.20325667104E+03 -0.52496659386E+03  0.13982439363E+04  0.15073119466E+04  0.25500000920E-02 0. -1.
</event>
<event>
 5   0  0.1041909E-05  0.2619077E+04  0.7818609E-02  0.8361750E-01
        1   -1    0    0  501    0  0.00000000000E+00  0.00000000000E+00  0.29969229216E+04  0.29969229216E+04  0.50400001928E-02 0.  1.
       -1   -1    0    0    0  501  0.00000000000E+00  0.00000000000E+00 -0.57221717820E+03  0.57221717822E+03  0.50400001928E-02 0. -1.
    10030    2    1    2    0    0  0.00000000000E+00  0.00000000000E+00  0.24247057434E+04  0.35691400998E+04  0.26190767667E+04 0.  0.
        5    1    3    3  502    0  0.12846547881E+04  0.13545504452E+03  0.15052094602E+04  0.19835230280E+04  0.46999998093E+01 0. -1.
       -5    1    3    3    0  502 -0.12846547881E+04 -0.13545504452E+03  0.91949628321E+03  0.15856170718E+04  0.46999998093E+01 0.  1.
</event>
<event>
 5   0  0.1036691E-05  0.2791154E+04  0.7818609E-02  0.8306020E-01
        1   -1    0    0  501    0  0.00000000000E+00  0.00000000000E+00  0.12253092901E+04  0.12253092901E+04  0.50400001928E-02 0.  1.
       -1   -1    0    0    0  501  0.00000000000E+00  0.00000000000E+00 -0.15895052003E+04  0.15895052003E+04  0.50400001928E-02 0. -1.
    10030    2    1    2    0    0  0.00000000000E+00  0.00000000000E+00 -0.36419591018E+03  0.28148144904E+04  0.27911542333E+04 0.  0.
        4    1    3    3  502    0 -0.54137286043E+03 -0.30823061687E+03 -0.14415007298E+04  0.15703555821E+04  0.12699999809E+01 0. -1.
       -4    1    3    3    0  502  0.54137286043E+03  0.30823061687E+03  0.10773048196E+04  0.12444589083E+04  0.12699999809E+01 0.  1.
</event>
<event>
 5   0  0.1041909E-05  0.2716505E+04  0.7818609E-02  0.8329670E-01
        1   -1    0    0  501    0  0.00000000000E+00  0.00000000000E+00  0.81286718564E+03  0.81286718565E+03  0.50400001928E-02 0. -1.
       -1   -1    0    0    0  501  0.00000000000E+00  0.00000000000E+00 -0.22695581278E+04  0.22695581278E+04  0.50400001928E-02 0.  1.
    10030    2    1    2    0    0  0.00000000000E+00  0.00000000000E+00 -0.14566909422E+04  0.30824253135E+04  0.27165046129E+04 0.  0.
        5    1    3    3  502    0 -0.10901432968E+04 -0.77192836015E+03 -0.10075410127E+04  0.16731547397E+04  0.46999998093E+01 0.  1.
       -5    1    3    3    0  502  0.10901432968E+04  0.77192836015E+03 -0.44914992946E+03  0.14092705737E+04  0.46999998093E+01 0. -1.
</event>
<event>
 5   0  0.2540684E-05  0.2522869E+04  0.7818609E-02  0.8394883E-01
        2   -1    0    0  501    0  0.00000000000E+00  0.00000000000E+00  0.26613857786E+04  0.26613857786E+04  0.25500000920E-02 0. -1.
       -2   -1    0    0    0  501  0.00000000000E+00  0.00000000000E+00 -0.59789023824E+03  0.59789023824E+03  0.25500000920E-02 0.  1.
    10030    2    1    2    0    0  0.00000000000E+00  0.00000000000E+00  0.20634955403E+04  0.32592760168E+04  0.25228686666E+04 0.  0.
        2    1    3    3  502    0 -0.81507681935E+03 -0.65645435823E+02 -0.20911315797E+03  0.84403072072E+03  0.25500000920E-02 0.  1.
       -2    1    3    3    0  502  0.81507681935E+03  0.65645435823E+02  0.22726086983E+04  0.24152452961E+04  0.25500000920E-02 0. -1.
</event>
<event>
 5   0  0.2540684E-05  0.2777065E+04  0.7818609E-02  0.8310424E-01
       -2   -1    0    0    0  501  0.00000000000E+00  0.00000000000E+00  0.13608216805E+04  0.13608216805E+04  0.25500000920E-02 0. -1.
        2   -1    0    0  501    0  0.00000000000E+00  0.00000000000E+00 -0.14168078608E+04  0.14168078608E+04  0.25500000920E-02 0.  1.
    10030    2    1    2    0    0  0.00000000000E+00  0.00000000000E+00 -0.55986180310E+02  0.27776295414E+04  0.27770652525E+04 0.  0.
        2    1    3    3  502    0 -0.91735222250E+03 -0.36380242627E+03  0.94900401390E+03  0.13691223188E+04  0.25500000920E-02 0. -1.
       -2    1    3    3    0  502  0.91735222250E+03  0.36380242627E+03 -0.10049901942E+04  0.14085072225E+04  0.25500000920E-02 0.  1.
</event>
<event>
 5   0  0.1096672E-05  0.1895217E+04  0.7818609E-02  0.8657241E-01
        1   -1    0    0  501    0  0.00000000000E+00  0.00000000000E+00  0.72564388219E+03  0.72564388221E+03  0.50400001928E-02 0. -1.
       -1   -1    0    0    0  501  0.00000000000E+00  0.00000000000E+00 -0.12374696129E+04  0.12374696130E+04  0.50400001928E-02 0.  1.
    10030    2    1    2    0    0  0.00000000000E+00  0.00000000000E+00 -0.51182573075E+03  0.19631134952E+04  0.18952174061E+04 0.  0.
        1    1    3    3  502    0  0.21798212938E+03  0.71660426707E+03 -0.85715939754E+03  0.11383145950E+04  0.50400001928E-02 0.  1.
       -1    1    3    3    0  502 -0.21798212938E+03 -0.71660426707E+03  0.34533366679E+03  0.82479890019E+03  0.50400001928E-02 0. -1.
</event>
<event>
 5   0  0.2615843E-05  0.2721109E+04  0.7818609E-02  0.8328188E-01
       -2   -1    0    0    0  501  0.00000000000E+00  0.00000000000E+00  0.18650675975E+04  0.18650675975E+04  0.25500000920E-02 0.  1.
        2   -1    0    0  501    0  0.00000000000E+00  0.00000000000E+00 -0.99251569731E+03  0.99251569731E+03  0.25500000920E-02 0. -1.
    10030    2    1    2    0    0  0.00000000000E+00  0.00000000000E+00  0.87255190022E+03  0.28575832948E+04  0.27211092349E+04 0.  0.
        3    1    3    3  502    0  0.24793557959E+03  0.12354190888E+04 -0.10266528939E+03  0.12642280445E+04  0.10100000352E+00 0. -1.
       -3    1    3    3    0  502 -0.24793557959E+03 -0.12354190888E+04  0.97521718962E+03  0.15933552503E+04  0.10100000352E+00 0.  1.
</event>
<event>
 5   0  0.2615843E-05  0.2712237E+04  0.7818609E-02  0.8331046E-01
       -2   -1    0    0    0  501  0.00000000000E+00  0.00000000000E+00  0.12796736949E+04  0.12796736949E+04  0.25500000920E-02 0.  1.
        2   -1    0    0  501    0  0.00000000000E+00  0.00000000000E+00 -0.14371294797E+04  0.14371294797E+04  0.25500000920E-02 0. -1.
    10030    2    1    2    0    0  0.00000000000E+00  0.00000000000E+00 -0.15745578478E+03  0.27168031745E+04  0.27122365614E+04 0.  0.
        3    1    3    3  502    0 -0.35811781444E+03 -0.11809989114E+04 -0.64185767383E+03  0.13910384903E+04  0.10100000352E+00 0. -1.
       -3    1    3    3    0  502  0.35811781444E+03  0.11809989114E+04  0.48440188906E+03  0.13257646843E+04  0.10100000352E+00 0.  1.
</event>
<event>
 5   0  0.2516518E-05  0.2680719E+04  0.7818609E-02  0.8341288E-01
        2   -1    0    0  501    0  0.00000000000E+00  0.00000000000E+00  0.12586830241E+04  0.12586830241E+04  0.25500000920E-02 0.  1.
       -2   -1    0    0    0  501  0.00000000000E+00  0.00000000000E+00 -0.14273356908E+04  0.14273356908E+04  0.25500000920E-02 0. -1.
    10030    2    1    2    0    0  0.00000000000E+00  0.00000000000E+00 -0.16865266669E+03  0.26860187148E+04  0.26807187123E+04 0.  0.
        4    1    3    3  502    0  0.10646498186E+04 -0.21619048405E+03  0.70230163743E+03  0.12936177042E+04  0.12699999809E+01 0.  1.
       -4    1    3    3    0  502 -0.10646498186E+04  0.21619048405E+03 -0.87095430412E+03  0.13924010107E+04  0.12699999809E+01 0. -1.
</event>
<event>
 5   0  0.1036691E-05  0.2711693E+04  0.7818609E-02  0.8331221E-01
       -1   -1    0    0    0  501  0.00000000000E+00  0.00000000000E+00  0.13825754846E+04  0.13825754847E+04  0.50400001928E-02 0.  1.
        1   -1    0    0  501    0  0.00000000000E+00  0.00000000000E+00 -0.13296341537E+04  0.13296341537E+04  0.50400001928E-02 0. -1.
    10030    2    1    2    0    0  0.00000000000E+00  0.00000000000E+00  0.52941330981E+02  0.27122096383E+04  0.27116928915E+04 0.  0.
        4    1    3    3  502    0 -0.75815857562E+03  0.46477249028E+03  0.10501402139E+04  0.13760864709E+04  0.12699999809E+01 0.  1.
       -4    1    3    3    0  502  0.75815857562E+03 -0.46477249028E+03 -0.99719888296E+03  0.13361231674E+04  0.12699999809E+01 0. -1.
</event>
<event>
 5   0  0.1036691E-05  0.2671881E+04  0.7818609E-02  0.8344187E-01
        1   -1    0    0  501    0  0.00000000000E+00  0.00000000000E+00  0.16537324035E+04  0.16537324035E+04  0.50400001928E-02 0. -1.
       -1   -1    0    0    0  501  0.00000000000E+00  0.00000000000E+00 -0.10792176298E+04  0.10792176298E+04  0.50400001928E-02 0.  1.
    10030    2    1    2    0    0  0.00000000000E+00  0.00000000000E+00  0.57451477367E+03  0.27329500333E+04  0.26718811088E+04 0.  0.
        4    1    3    3  502    0 -0.40337274228E+03 -0.48103100917E+03 -0.91894772204E+03  0.11129092190E+04  0.12699999809E+01 0.  1.
       -4    1    3    3    0  502  0.40337274228E+03  0.48103100917E+03  0.14934624957E+04  0.16200408143E+04  0.12699999809E+01 0. -1.
</event>
<event>
 5   0  0.2641216E-05  0.2703505E+04  0.7818609E-02  0.8333869E-01
       -2   -1    0    0    0  501  0.00000000000E+00  0.00000000000E+00  0.54161550930E+03  0.54161550931E+03  0.25500000920E-02 0.  1.
        2   -1    0    0  501    0  0.00000000000E+00  0.00000000000E+00 -0.33736752364E+04  0.33736752364E+04  0.25500000920E-02 0. -1.
    10030    2    1    2    0    0  0.00000000000E+00  0.00000000000E+00 -0.28320597271E+04  0.39152907457E+04  0.27035050075E+04 0.  0.
        5    1    3    3  502    0 -0.10775158531E+04 -0.66361835297E+02 -0.25941507720E+04  0.28098193224E+04  0.46999998093E+01 0. -1.
       -5    1    3    3    0  502  0.10775158531E+04  0.66361835297E+02 -0.23790895507E+03  0.11054714233E+04  0.46999998093E+01 0.  1.
</event>
<event>
 5   0  0.1036691E-05  0.2722025E+04  0.7818609E-02  0.8327894E-01
        1   -1    0    0  501    0  0.00000000000E+00  0.00000000000E+00  0.16711980697E+04  0.16711980697E+04  0.50400001928E-02 0. -1.
       -1   -1    0    0    0  501  0.00000000000E+00  0.00000000000E+00 -0.11083996394E+04  0.11083996394E+04  0.50400001928E-02 0.  1.
    10030    2    1    2    0    0  0.00000000000E+00  0.00000000000E+00  0.56279843028E+03  0.27795977091E+04  0.27220252298E+04 0.  0.
        4    1    3    3  502    0  0.57501486936E+03 -0.11534940645E+04 -0.16507028383E+03  0.12994000417E+04  0.12699999809E+01 0.  1.
       -4    1    3    3    0  502 -0.57501486936E+03  0.11534940645E+04  0.72786871410E+03  0.14801976674E+04  0.12699999809E+01 0. -1.
</event>
<event>
 5   0  0.2615843E-05  0.2647358E+04  0.7818609E-02  0.8352291E-01
       -2   -1    0    0    0  501  0.00000000000E+00  0.00000000000E+00  0.15829110484E+04  0.15829110484E+04  0.25500000920E-02 0. -1.
        2   -1    0    0  501    0  0.00000000000E+00  0.00000000000E+00 -0.11069008007E+04  0.11069008007E+04  0.25500000920E-02 0.  1.
    10030    2    1    2    0    0  0.00000000000E+00  0.00000000000E+00  0.47601024774E+03  0.26898118491E+04  0.26473575557E+04 0.  0.
        3    1    3    3  502    0 -0.63203233200E+03  0.97360595771E+03 -0.40839858323E+03  0.12305132436E+04  0.10100000352E+00 0.  1.
       -3    1    3    3    0  502  0.63203233200E+03 -0.97360595771E+03  0.88440883098E+03  0.14592986055E+04  0.10100000352E+00 0. -1.
</event>
<event>
 5   0  0.2615843E-05  0.2675442E+04  0.7818609E-02  0.8343017E-01
       -2   -1    0    0    0  501  0.00000000000E+00  0.00000000000E+00  0.77429184508E+03  0.77429184509E+03  0.25500000920E-02 0.  1.
        2   -1    0    0  501    0  0.00000000000E+00  0.00000000000E+00 -0.23111407564E+04  0.23111407564E+04  0.25500000920E-02 0. -1.
    10030    2    1    2    0    0  0.00000000000E+00  0.00000000000E+00 -0.15368489113E+04  0.30854326015E+04  0.26754419751E+04 0.  0.
        3    1    3    3  502    0 -0.99278336894E+03  0.67239854114E+03 -0.14524038561E+04  0.18834053167E+04  0.10100000352E+00 0.  1.
       -3    1    3    3    0  502  0.99278336894E+03 -0.67239854114E+03 -0.84445055263E+02  0.12020272848E+04  0.10100000352E+00 0. -1.
</event>
<event>
 5   0  0.1036691E-05  0.2355289E+04  0.7818609E-02  0.8456435E-01
       -1   -1    0    0    0  501  0.00000000000E+00  0.00000000000E+00  0.84198954904E+03  0.84198954906E+03  0.50400001928E-02 0.  1.
        1   -1    0    0  501    0  0.00000000000E+00  0.00000000000E+00 -0.16471066859E+04  0.16471066859E+04  0.50400001928E-02 0. -1.
    10030    2    1    2    0    0  0.00000000000E+00  0.00000000000E+00 -0.80511713689E+03  0.24890962350E+04  0.23552890402E+04 0.  0.
        4    1    3    3  502    0 -0.99644712491E+03 -0.12504416082E+03 -0.10525637907E+04  0.14547972578E+04  0.12699999809E+01 0. -1.
       -4    1    3    3    0  502  0.99644712491E+03  0.12504416082E+03  0.24744665379E+03  0.10342989772E+04  0.12699999809E+01 0.  1.
</event>
<event>
 5   0  0.1005265E-05  0.2693041E+04  0.7818609E-02  0.8337266E-01
       -1   -1    0    0    0  501  0.00000000000E+00  0.00000000000E+00  0.12037889273E+04  0.12037889273E+04  0.50400001928E-02 0. -1.
        1   -1    0    0  501    0  0.00000000000E+00  0.00000000000E+00 -0.15061755768E+04  0.15061755768E+04  0.50400001928E-02 0.  1.
    10030    2    1    2    0    0  0.00000000000E+00  0.00000000000E+00 -0.30238664950E+03  0.27099645041E+04  0.26930410186E+04 0.  0.
        3    1    3    3  502    0 -0.13024482921E+04  0.17769761280E+03 -0.44486538046E+03  0.13877511347E+04  0.10100000352E+00 0.  1.
       -3    1    3    3    0  502  0.13024482921E+04 -0.17769761280E+03  0.14247873096E+03  0.13222133693E+04  0.10100000352E+00 0. -1.
</event>
<event>
 5   0  0.1036691E-05  0.2695725E+04  0.7818609E-02  0.8336393E-01
        1   -1    0    0  501    0  0.00000000000E+00  0.00000000000E+00  0.18599190298E+04  0.18599190298E+04  0.50400001928E-02 0. -1.
       -1   -1    0    0    0  501  0.00000000000E+00  0.00000000000E+00 -0.97678093413E+03  0.97678093414E+03  0.50400001928E-02 0.  1.
    10030    2    1    2    0    0  0.00000000000E+00  0.00000000000E+00  0.88313809564E+03  0.28366999639E+04  0.26957250953E+04 0.  0.
        4    1    3    3  502    0 -0.10271894744E+04  0.85985975543E+03  0.28458705607E+03  0.13694774262E+04  0.12699999809E+01 0.  1.
       -4    1    3    3    0  502  0.10271894744E+04 -0.85985975543E+03  0.59855103957E+03  0.14672225377E+04  0.12699999809E+01 0. -1.
</event>
<event>
 5   0  0.2641216E-05  0.2295480E+04  0.7818609E-02  0.8479705E-01
       -2   -1    0    0    0  501  0.00000000000E+00  0.00000000000E+00  0.43825872622E+03  0.43825872623E+03  0.25500000920E-02 0. -1.
        2   -1    0    0  501    0  0.00000000000E+00  0.00000000000E+00 -0.30057751502E+04  0.30057751502E+04  0.25500000920E-02 0.  1.
    10030    2    1    2    0    0  0.00000000000E+00  0.00000000000E+00 -0.25675164240E+04  0.34440338765E+04  0.22954800706E+04 0.  0.
        5    1    3    3  502    0  0.48715853142E+03  0.96182598833E+03 -0.18741671227E+04  0.21621649245E+04  0.46999998093E+01 0.  1.
       -5    1    3    3    0  502 -0.48715853142E+03 -0.96182598833E+03 -0.69334930127E+03  0.12818689520E+04  0.46999998093E+01 0. -1.
</event>
<event>
 5   0  0.1036691E-05  0.2713244E+04  0.7818609E-02  0.8330721E-01
        1   -1    0    0  501    0  0.00000000000E+00  0.00000000000E+00  0.12391548682E+04  0.12391548682E+04  0.50400001928E-02 0.  1.
       -1   -1    0    0    0  501  0.00000000000E+00  0.00000000000E+00 -0.14852240373E+04  0.14852240373E+04  0.50400001928E-02 0. -1.
    10030    2    1    2    0    0  0.00000000000E+00  0.00000000000E+00 -0.24606916905E+03  0.27243789055E+04  0.27132435174E+04 0.  0.
        4    1    3    3  502    0  0.86746461703E+03  0.30854309108E+03 -0.11234807261E+04  0.14525509477E+04  0.12699999809E+01 0. -1.
       -4    1    3    3    0  502 -0.86746461703E+03 -0.30854309108E+03  0.87741155707E+03  0.12718279578E+04  0.12699999809E+01 0.  1.
</event>
<event>
 5   0  0.9971923E-06  0.2029229E+04  0.7818609E-02  0.8593076E-01
       -1   -1    0    0    0  501  0.00000000000E+00  0.00000000000E+00  0.66808389341E+03  0.66808389343E+03  0.50400001928E-02 0. -1.
        1   -1    0    0  501    0  0.00000000000E+00  0.00000000000E+00 -0.15408882420E+04  0.15408882420E+04  0.50400001928E-02 0.  1.
    10030    2    1    2    0    0  0.00000000000E+00  0.00000000000E+00 -0.87280434860E+03  0.22089721355E+04  0.20292290320E+04 0.  0.
        2    1    3    3  502    0 -0.67841019462E+03  0.46959304606E+03 -0.10792017046E+04  0.13584676442E+04  0.25500000920E-02 0.  1.
       -2    1    3    3    0  502  0.67841019462E+03 -0.46959304606E+03  0.20639735601E+03  0.85050449126E+03  0.25500000920E-02 0. -1.
</event>
<event>
 5   0  0.1041909E-05  0.2430463E+04  0.7818609E-02  0.8428186E-01
        1   -1    0    0  501    0  0.00000000000E+00  0.00000000000E+00  0.21735239172E+04  0.21735239173E+04  0.50400001928E-02 0. -1.
       -1   -1    0    0    0  501  0.00000000000E+00  0.00000000000E+00 -0.67944417525E+03  0.67944417527E+03  0.50400001928E-02 0.  1.
    10030    2    1    2    0    0  0.00000000000E+00  0.00000000000E+00  0.14940797420E+04  0.28529680925E+04  0.24304634664E+04 0.  0.
        5    1    3    3  502    0 -0.90441945867E+03 -0.67503150695E+03  0.12760797604E+04  0.17035385929E+04  0.46999998093E+01 0. -1.
       -5    1    3    3    0  502  0.90441945867E+03  0.67503150695E+03  0.21799998156E+03  0.11494294996E+04  0.46999998093E+01 0.  1.
</event>
<event>
 5   0  0.2540684E-05  0.2640133E+04  0.7818609E-02  0.8354695E-01
        2   -1    0    0  501    0  0.00000000000E+00  0.00000000000E+00  0.17324836355E+04  0.17324836355E+04  0.25500000920E-02 0.  1.
       -2   -1    0    0    0  501  0.00000000000E+00  0.00000000000E+00 -0.10058248466E+04  0.10058248466E+04  0.25500000920E-02 0. -1.
    10030    2    1    2    0    0  0.00000000000E+00  0.00000000000E+00  0.72665878881E+03  0.27383084821E+04  0.26401326383E+04 0.  0.
        2    1    3    3  502    0 -0.78047297724E+03 -0.10169746167E+03 -0.73584044701E+03  0.10774700021E+04  0.25500000920E-02 0. -1.
       -2    1    3    3    0  502  0.78047297724E+03  0.10169746167E+03  0.14624992358E+04  0.16608384800E+04  0.25500000920E-02 0.  1.
</event>
<event>
 5   0  0.2516518E-05  0.2692376E+04  0.7818609E-02  0.8337483E-01
       -2   -1    0    0    0  501  0.00000000000E+00  0.00000000000E+00  0.12905987584E+04  0.12905987584E+04  0.25500000920E-02 0. -1.
        2   -1    0    0  501    0  0.00000000000E+00  0.00000000000E+00 -0.14041713216E+04  0.14041713216E+04  0.25500000920E-02 0.  1.
    10030    2    1    2    0    0  0.00000000000E+00  0.00000000000E+00 -0.11357256319E+03  0.26947700799E+04  0.26923757272E+04 0.  0.
        4    1    3    3  502    0 -0.49549920401E+03 -0.68095778415E+03 -0.11079569948E+04  0.13916872063E+04  0.12699999809E+01 0.  1.
       -4    1    3    3    0  502  0.49549920401E+03  0.68095778415E+03  0.99438443158E+03  0.13030828737E+04  0.12699999809E+01 0. -1.
</event>
<event>
 5   0  0.2615843E-05  0.2651514E+04  0.7818609E-02  0.8350911E-01
        2   -1    0    0  501    0  0.00000000000E+00  0.00000000000E+00  0.12514055916E+04  0.12514055916E+04  0.25500000920E-02 0. -1.
       -2   -1    0    0    0  501  0.00000000000E+00  0.00000000000E+00 -0.14045262311E+04  0.14045262311E+04  0.25500000920E-02 0.  1.
    10030    2    1    2    0    0  0.00000000000E+00  0.00000000000E+00 -0.15312063952E+03  0.26559318227E+04  0.26515142686E+04 0.  0.
        3    1    3    3  502    0  0.75479057050E+03  0.36971912897E+03 -0.11035640456E+04  0.13871750620E+04  0.10100000352E+00 0.  1.
       -3    1    3    3    0  502 -0.75479057050E+03 -0.36971912897E+03  0.95044340604E+03  0.12687567607E+04  0.10100000352E+00 0. -1.
</event>
<event>
 5   0  0.1036691E-05  0.2529797E+04  0.7818609E-02  0.8392446E-01
       -1   -1    0    0    0  501  0.00000000000E+00  0.00000000000E+00  0.86253590583E+03  0.86253590584E+03  0.50400001928E-02 0. -1.
        1   -1    0    0  501    0  0.00000000000E+00  0.00000000000E+00 -0.18549582711E+04  0.18549582711E+04  0.50400001928E-02 0.  1.
    10030    2    1    2    0    0  0.00000000000E+00  0.00000000000E+00 -0.99242236526E+03  0.27174941769E+04  0.25297969189E+04 0.  0.
        4    1    3    3  502    0  0.33755138073E+03 -0.75951071822E+03 -0.15204595504E+04  0.17328001394E+04  0.12699999809E+01 0.  1.
       -4    1    3    3    0  502 -0.33755138073E+03  0.75951071822E+03  0.52803718517E+03  0.98469403753E+03  0.12699999809E+01 0. -1.
</event>
<event>
 5   0  0.1005265E-05  0.2675704E+04  0.7818609E-02  0.8342931E-01
        1   -1    0    0  501    0  0.00000000000E+00  0.00000000000E+00  0.14358338143E+04  0.14358338143E+04  0.50400001928E-02 0.  1.
       -1   -1    0    0    0  501  0.00000000000E+00  0.00000000000E+00 -0.12465567458E+04  0.12465567458E+04  0.50400001928E-02 0. -1.
    10030    2    1    2    0    0  0.00000000000E+00  0.00000000000E+00  0.18927706845E+03  0.26823905601E+04  0.26757042640E+04 0.  0.
        3    1    3    3  502    0  0.15194749511E+03  0.13287883432E+04  0.61665392005E+02  0.13388686018E+04  0.10100000352E+00 0. -1.
       -3    1    3    3    0  502 -0.15194749511E+03 -0.13287883432E+04  0.12761167645E+03  0.13435219583E+04  0.10100000352E+00 0.  1.
</event>
<event>
 5   0  0.1041909E-05  0.2807838E+04  0.7818609E-02  0.8300839E-01
        1   -1    0    0  501    0  0.00000000000E+00  0.00000000000E+00  0.17600028787E+04  0.17600028788E+04  0.50400001928E-02 0.  1.
       -1   -1    0    0    0  501  0.00000000000E+00  0.00000000000E+00 -0.11198777333E+04  0.11198777333E+04  0.50400001928E-02 0. -1.
    10030    2    1    2    0    0  0.00000000000E+00  0.00000000000E+00  0.64012514547E+03  0.28798806120E+04  0.28078376267E+04 0.  0.
        5    1    3    3  502    0  0.91121668631E+03 -0.91923897963E+03 -0.23762540766E+03  0.13159802717E+04  0.46999998093E+01 0. -1.
       -5    1    3    3    0  502 -0.91121668631E+03  0.91923897963E+03  0.87775055313E+03  0.15639003404E+04  0.46999998093E+01 0.  1.
</event>
<event>
 5   0  0.1041909E-05  0.2659470E+04  0.7818609E-02  0.8348277E-01
       -1   -1    0    0    0  501  0.00000000000E+00  0.00000000000E+00  0.10324117067E+04  0.10324117067E+04  0.50400001928E-02 0.  1.
        1   -1    0    0  501    0  0.00000000000E+00  0.00000000000E+00 -0.17126835833E+04  0.17126835833E+04  0.50400001928E-02 0. -1.
    10030    2    1    2    0    0  0.00000000000E+00  0.00000000000E+00 -0.68027187660E+03  0.27450952900E+04  0.26594695571E+04 0.  0.
        5    1    3    3  502    0 -0.86433039218E+03 -0.10092696843E+04 -0.28873121555E+03  0.13598088569E+04  0.46999998093E+01 0.  1.
       -5    1    3    3    0  502  0.86433039218E+03  0.10092696843E+04 -0.39154066105E+03  0.13852864331E+04  0.46999998093E+01 0. -1.
</event>
<event>
 5   0  0.2540684E-05  0.2637622E+04  0.7818609E-02  0.8355533E-01
        2   -1    0    0  501    0  0.00000000000E+00  0.00000000000E+00  0.20143407116E+04  0.20143407116E+04  0.25500000920E-02 0. -1.
       -2   -1    0    0    0  501  0.00000000000E+00  0.00000000000E+00 -0.86343974814E+03  0.86343974814E+03  0.25500000920E-02 0.  1.
    10030    2    1    2    0    0  0.00000000000E+00  0.00000000000E+00  0.11509009635E+04  0.28777804598E+04  0.26376215321E+04 0.  0.
        2    1    3    3  502    0  0.14747871276E+03 -0.63025094276E+03 -0.67821240817E+03  0.93751708900E+03  0.25500000920E-02 0.  1.
       -2    1    3    3    0  502 -0.14747871276E+03  0.63025094276E+03  0.18291133716E+04  0.19402633708E+04  0.25500000920E-02 0. -1.
</event>
<event>
 5   0  0.2540684E-05  0.2724283E+04  0.7818609E-02  0.8327169E-01
        2   -1    0    0  501    0  0.00000000000E+00  0.00000000000E+00  0.98019872487E+03  0.98019872488E+03  0.25500000920E-02 0. -1.
       -2   -1    0    0    0  501  0.00000000000E+00  0.00000000000E+00 -0.18929112783E+04  0.18929112783E+04  0.25500000920E-02 0.  1.
    10030    2    1    2    0    0  0.00000000000E+00  0.00000000000E+00 -0.91271255347E+03  0.28731100032E+04  0.27242828204E+04 0.  0.
        2    1    3    3  502    0 -0.70259497238E+03 -0.47563071164E+03  0.66748777833E+03  0.10795388846E+04  0.25500000920E-02 0. -1.
       -2    1    3    3    0  502  0.70259497238E+03  0.47563071164E+03 -0.15802003318E+04  0.17935711187E+04  0.25500000920E-02 0.  1.
</event>
<event>
 5   0  0.1005265E-05  0.1733516E+04  0.7818609E-02  0.8742477E-01
       -1   -1    0    0    0  501  0.00000000000E+00  0.00000000000E+00  0.47849158703E+03  0.47849158706E+03  0.50400001928E-02 0.  1.
        1   -1    0    0  501    0  0.00000000000E+00  0.00000000000E+00 -0.15700784788E+04  0.15700784788E+04  0.50400001928E-02 0. -1.
    10030    2    1    2    0    0  0.00000000000E+00  0.00000000000E+00 -0.10915868917E+04  0.20485700658E+04  0.17335158991E+04 0.  0.
        3    1    3    3  502    0 -0.33574342179E+03 -0.29789669725E+02  0.39786968894E+03  0.52145121466E+03  0.10100000352E+00 0.  1.
       -3    1    3    3    0  502  0.33574342179E+03  0.29789669725E+02 -0.14894565807E+04  0.15271188512E+04  0.10100000352E+00 0. -1.
</event>
<event>
 5   0  0.1096672E-05  0.2706290E+04  0.7818609E-02  0.8332967E-01
       -1   -1    0    0    0  501  0.00000000000E+00  0.00000000000E+00  0.11988934607E+04  0.11988934607E+04  0.50400001928E-02 0.  1.
        1   -1    0    0  501    0  0.00000000000E+00  0.00000000000E+00 -0.15272422397E+04  0.15272422398E+04  0.50400001928E-02 0. -1.
    10030    2    1    2    0    0  0.00000000000E+00  0.00000000000E+00 -0.32834877904E+03  0.27261357005E+04  0.27062895146E+04 0.  0.
        1    1    3    3  502    0  0.96808452644E+03  0.89517095750E+03  0.14216434742E+03  0.13261709525E+04  0.50400001928E-02 0.  1.
       -1    1    3    3    0  502 -0.96808452644E+03 -0.89517095750E+03 -0.47051312646E+03  0.13999647480E+04  0.50400001928E-02 0. -1.
</event>
<event>
 5   0  0.2540232E-05  0.2718328E+04  0.7818609E-02  0.8329082E-01
       -2   -1    0    0    0  501  0.00000000000E+00  0.00000000000E+00  0.79770551972E+03  0.79770551973E+03  0.25500000920E-02 0.  1.
        2   -1    0    0  501    0  0.00000000000E+00  0.00000000000E+00 -0.23158010189E+04  0.23158010189E+04  0.25500000920E-02 0. -1.
    10030    2    1    2    0    0  0.00000000000E+00  0.00000000000E+00 -0.15180954992E+04  0.31135065386E+04  0.27183283506E+04 0.  0.
        1    1    3    3  502    0 -0.83111833879E+03 -0.89285976683E+03 -0.14456723844E+04  0.18915403509E+04  0.50400001928E-02 0.  1.
       -1    1    3    3    0  502  0.83111833879E+03  0.89285976683E+03 -0.72423114823E+02  0.12219661877E+04  0.50400001928E-02 0. -1.
</event>
<event>
 5   0  0.2641216E-05  0.2753074E+04  0.7818609E-02  0.8317987E-01
       -2   -1    0    0    0  501  0.00000000000E+00  0.00000000000E+00  0.12264106896E+04  0.12264106896E+04  0.25500000920E-02 0.  1.
        2   -1    0    0  501    0  0.00000000000E+00  0.00000000000E+00 -0.15450404684E+04  0.15450404684E+04  0.25500000920E-02 0. -1.
    10030    2    1    2    0    0  0.00000000000E+00  0.00000000000E+00 -0.31862977878E+03  0.27714511580E+04  0.27530740247E+04 0.  0.
        5    1    3    3  502    0  0.18690264305E+02  0.21550105590E+03  0.12091865608E+04  0.12283909231E+04  0.46999998093E+01 0.  1.
       -5    1    3    3    0  502 -0.18690264305E+02 -0.21550105590E+03 -0.15278163396E+04  0.15430602349E+04  0.46999998093E+01 0. -1.
</event>
<event>
 5   0  0.9971923E-06  0.2698749E+04  0.7818609E-02  0.8335411E-01
       -1   -1    0    0    0  501  0.00000000000E+00  0.00000000000E+00  0.11453792516E+04  0.11453792516E+04  0.50400001928E-02 0.  1.
        1   -1    0    0  501    0  0.00000000000E+00  0.00000000000E+00 -0.15897017529E+04  0.15897017529E+04  0.50400001928E-02 0. -1.
    10030    2    1    2    0    0  0.00000000000E+00  0.00000000000E+00 -0.44432250131E+03  0.27350810045E+04  0.26987488983E+04 0.  0.
        2    1    3    3  502    0 -0.13451977262E+04 -0.10582278035E+03 -0.21457580541E+03  0.13663082228E+04  0.25500000920E-02 0.  1.
       -2    1    3    3    0  502  0.13451977262E+04  0.10582278035E+03 -0.22974669590E+03  0.13687727817E+04  0.25500000920E-02 0. -1.
</event>
<event>
 5   0  0.9971923E-06  0.2820940E+04  0.7818609E-02  0.8296797E-01
        1   -1    0    0  501    0  0.00000000000E+00  0.00000000000E+00  0.15382501634E+04  0.15382501634E+04  0.50400001928E-02 0.  1.
       -1   -1    0    0    0  501  0.00000000000E+00  0.00000000000E+00 -0.12933043605E+04  0.12933043605E+04  0.50400001928E-02 0. -1.
    10030    2    1    2    0    0  0.00000000000E+00  0.00000000000E+00  0.24494580297E+03  0.28315545239E+04  0.28209400163E+04 0.  0.
        2    1    3    3  502    0 -0.38366052378E+03  0.93615808917E+03  0.11089415425E+04  0.15011124908E+04  0.25500000920E-02 0.  1.
       -2    1    3    3    0  502  0.38366052378E+03 -0.93615808917E+03 -0.86399573956E+03  0.13304420331E+04  0.25500000920E-02 0. -1.
</event>
<event>
 5   0  0.1005265E-05  0.2708937E+04  0.7818609E-02  0.8332111E-01
       -1   -1    0    0    0  501  0.00000000000E+00  0.00000000000E+00  0.10489725001E+04  0.10489725002E+04  0.50400001928E-02 0.  1.
        1   -1    0    0  501    0  0.00000000000E+00  0.00000000000E+00 -0.17489350868E+04  0.17489350868E+04  0.50400001928E-02 0. -1.
    10030    2    1    2    0    0  0.00000000000E+00  0.00000000000E+00 -0.69996258669E+03  0.27979075870E+04  0.27089369211E+04 0.  0.
        3    1    3    3  502    0  0.12544271790E+04  0.48848562459E+03 -0.50449082412E+03  0.14376079976E+04  0.10100000352E+00 0. -1.
       -3    1    3    3    0  502 -0.12544271790E+04 -0.48848562459E+03 -0.19547176257E+03  0.13602995894E+04  0.10100000352E+00 0.  1.
</event>
<event>
 5   0  0.2615843E-05  0.2638822E+04  0.7818609E-02  0.8355133E-01
       -2   -1    0    0    0  501  0.00000000000E+00  0.00000000000E+00  0.19423250537E+04  0.19423250537E+04  0.25500000920E-02 0. -1.
        2   -1    0    0  501    0  0.00000000000E+00  0.00000000000E+00 -0.89626857251E+03  0.89626857251E+03  0.25500000920E-02 0.  1.
    10030    2    1    2    0    0  0.00000000000E+00  0.00000000000E+00  0.10460564812E+04  0.28385936262E+04  0.26388216334E+04 0.  0.
        3    1    3    3  502    0 -0.20757393921E+03  0.95602360193E+03 -0.42930599366E+03  0.10683499961E+04  0.10100000352E+00 0.  1.
       -3    1    3    3    0  502  0.20757393921E+03 -0.95602360193E+03  0.14753624749E+04  0.17702436302E+04  0.10100000352E+00 0. -1.
</event>
<event>
 5   0  0.1041909E-05  0.2674880E+04  0.7818609E-02  0.8343202E-01
       -1   -1    0    0    0  501  0.00000000000E+00  0.00000000000E+00  0.10955899884E+04  0.10955899885E+04  0.50400001928E-02 0.  1.
        1   -1    0    0  501    0  0.00000000000E+00  0.00000000000E+00 -0.16326781835E+04  0.16326781835E+04  0.50400001928E-02 0. -1.
    10030    2    1    2    0    0  0.00000000000E+00  0.00000000000E+00 -0.53708819501E+03  0.27282681719E+04  0.26748800887E+04 0.  0.
        5    1    3    3  502    0 -0.83407945807E+03  0.89346940023E+03  0.28519849470E+03  0.12551240508E+04  0.46999998093E+01 0.  1.
       -5    1    3    3    0  502  0.83407945807E+03 -0.89346940023E+03 -0.82228668971E+03  0.14731441211E+04  0.46999998093E+01 0. -1.
</event>
<event>
 5   0  0.9971923E-06  0.2690044E+04  0.7818609E-02  0.8338243E-01
        1   -1    0    0  501    0  0.00000000000E+00  0.00000000000E+00  0.13908505344E+04  0.13908505344E+04  0.50400001928E-02 0.  1.
       -1   -1    0    0    0  501  0.00000000000E+00  0.00000000000E+00 -0.13007033996E+04  0.13007033996E+04  0.50400001928E-02 0. -1.
    10030    2    1    2    0    0  0.00000000000E+00  0.00000000000E+00  0.90147134740E+02  0.26915539340E+04  0.26900438795E+04 0.  0.
        2    1    3    3  502    0  0.12235767004E+04 -0.15018650665E+03 -0.49317644581E+03  0.13277495755E+04  0.25500000920E-02 0.  1.
       -2    1    3    3    0  502 -0.12235767004E+04  0.15018650665E+03  0.58332358055E+03  0.13638043585E+04  0.25500000920E-02 0. -1.
</event>
<event>
 5   0  0.2540232E-05  0.2525168E+04  0.7818609E-02  0.8394074E-01
       -2   -1    0    0    0  501  0.00000000000E+00  0.00000000000E+00  0.92241982835E+03  0.92241982835E+03  0.25500000920E-02 0.  1.
        2   -1    0    0  501    0  0.00000000000E+00  0.00000000000E+00 -0.17281921062E+04  0.17281921062E+04  0.25500000920E-02 0. -1.
    10030    2    1    2    0    0  0.00000000000E+00  0.00000000000E+00 -0.80577227784E+03  0.26506119345E+04  0.25251682447E+04 0.  0.
        1    1    3    3  502    0  0.37455620663E+03 -0.50575071263E+03 -0.15518118485E+04  0.16745734229E+04  0.50400001928E-02 0. -1.
       -1    1    3    3    0  502 -0.37455620663E+03  0.50575071263E+03  0.74603957069E+03  0.97603851169E+03  0.50400001928E-02 0.  1.
</event>
<event>
 5   0  0.2641216E-05  0.1873758E+04  0.7818609E-02  0.8668030E-01
       -2   -1    0    0    0  501  0.00000000000E+00  0.00000000000E+00  0.13434712800E+04  0.13434712800E+04  0.25500000920E-02 0. -1.
        2   -1    0    0  501    0  0.00000000000E+00  0.00000000000E+00 -0.65333879271E+03  0.65333879272E+03  0.25500000920E-02 0.  1.
    10030    2    1    2    0    0  0.00000000000E+00  0.00000000000E+00  0.69013248726E+03  0.19968100727E+04  0.18737576194E+04 0.  0.
        5    1    3    3  502    0 -0.44450916768E+03  0.62429550787E+03 -0.22919774430E+03  0.79992935768E+03  0.46999998093E+01 0.  1.
       -5    1    3    3    0  502  0.44450916768E+03 -0.62429550787E+03  0.91933023156E+03  0.11968807150E+04  0.46999998093E+01 0. -1.
</event>
<event>
 5   0  0.2641216E-05  0.2687337E+04  0.7818609E-02  0.8339125E-01
       -2   -1    0    0    0  501  0.00000000000E+00  0.00000000000E+00  0.81606320326E+03  0.81606320327E+03  0.25500000920E-02 0.  1.
        2   -1    0    0  501    0  0.00000000000E+00  0.00000000000E+00 -0.22123835667E+04  0.22123835667E+04  0.25500000920E-02 0. -1.
    10030    2    1    2    0    0  0.00000000000E+00  0.00000000000E+00 -0.13963203635E+04  0.30284467700E+04  0.26873368381E+04 0.  0.
        5    1    3    3  502    0 -0.10552600018E+04  0.23129353429E+02 -0.16351514506E+04  0.19462402202E+04  0.46999998093E+01 0. -1.
       -5    1    3    3    0  502  0.10552600018E+04 -0.23129353429E+02  0.23883108711E+03  0.10822065498E+04  0.46999998093E+01 0.  1.
</event>
<event>
 5   0  0.2641216E-05  0.2742350E+04  0.7818609E-02  0.8321393E-01
       -2   -1    0    0    0  501  0.00000000000E+00  0.00000000000E+00  0.67104413614E+03  0.67104413614E+03  0.25500000920E-02 0. -1.
        2   -1    0    0  501    0  0.00000000000E+00  0.00000000000E+00 -0.28017844359E+04  0.28017844359E+04  0.25500000920E-02 0.  1.
    10030    2    1    2    0    0  0.00000000000E+00  0.00000000000E+00 -0.21307402997E+04  0.34728285720E+04  0.27423500990E+04 0.  0.
        5    1    3    3  502    0 -0.58218241365E+03 -0.51662528379E+03  0.36414783422E+03  0.85933915411E+03  0.46999998093E+01 0. -1.
       -5    1    3    3    0  502  0.58218241365E+03  0.51662528379E+03 -0.24948881340E+04  0.26134894179E+04  0.46999998093E+01 0.  1.
</event>
<event>
 5   0  0.2540684E-05  0.2663774E+04  0.7818609E-02  0.8346856E-01
        2   -1    0    0  501    0  0.00000000000E+00  0.00000000000E+00  0.10321977746E+04  0.10321977746E+04  0.25500000920E-02 0.  1.
       -2   -1    0    0    0  501  0.00000000000E+00  0.00000000000E+00 -0.17185878268E+04  0.17185878268E+04  0.25500000920E-02 0. -1.
    10030    2    1    2    0    0  0.00000000000E+00  0.00000000000E+00 -0.68639005216E+03  0.27507856014E+04  0.26637736618E+04 0.  0.
        2    1    3    3  502    0 -0.15262515488E+03 -0.78267787960E+02  0.10207447300E+04  0.10350555967E+04  0.25500000920E-02 0.  1.
       -2    1    3    3    0  502  0.15262515488E+03  0.78267787960E+02 -0.17071347821E+04  0.17157300047E+04  0.25500000920E-02 0. -1.
</event>
<event>
 5   0  0.2516518E-05  0.2470386E+04  0.7818609E-02  0.8413612E-01
       -2   -1    0    0    0  501  0.00000000000E+00  0.00000000000E+00  0.65789861852E+03  0.65789861852E+03  0.25500000920E-02 0. -1.
        2   -1    0    0  501    0  0.00000000000E+00  0.00000000000E+00 -0.23190530741E+04  0.23190530741E+04  0.25500000920E-02 0.  1.
    10030    2    1    2    0    0  0.00000000000E+00  0.00000000000E+00 -0.16611544556E+04  0.29769516926E+04  0.24703860538E+04 0.  0.
        4    1    3    3  502    0 -0.30855307855E+03 -0.35561914026E+03 -0.22066797452E+04  0.22563481749E+04  0.12699999809E+01 0.  1.
       -4    1    3    3    0  502  0.30855307855E+03  0.35561914026E+03  0.54552528969E+03  0.72060351774E+03  0.12699999809E+01 0. -1.
</event>
<event>
 5   0  0.2615843E-05  0.2699792E+04  0.7818609E-02  0.8335073E-01
        2   -1    0    0  501    0  0.00000000000E+00  0.00000000000E+00  0.17959683066E+04  0.17959683066E+04  0.25500000920E-02 0. -1.
       -2   -1    0    0    0  501  0.00000000000E+00  0.00000000000E+00 -0.10146164508E+04  0.10146164508E+04  0.25500000920E-02 0.  1.
    10030    2    1    2    0    0  0.00000000000E+00  0.00000000000E+00  0.78135185580E+03  0.28105847575E+04  0.26997918357E+04 0.  0.
        3    1    3    3  502    0  0.11062298934E+04  0.45866180693E+03  0.10392212420E+04  0.15855901205E+04  0.10100000352E+00 0.  1.
       -3    1    3    3    0  502 -0.11062298934E+04 -0.45866180693E+03 -0.25786938620E+03  0.12249946370E+04  0.10100000352E+00 0. -1.
</event>
<event>
 5   0  0.2641216E-05  0.2720013E+04  0.7818609E-02  0.8328540E-01
       -2   -1    0    0    0  501  0.00000000000E+00  0.00000000000E+00  0.10139050855E+04  0.10139050855E+04  0.25500000920E-02 0.  1.
        2   -1    0    0  501    0  0.00000000000E+00  0.00000000000E+00 -0.18242518127E+04  0.18242518127E+04  0.25500000920E-02 0. -1.
    10030    2    1    2    0    0  0.00000000000E+00  0.00000000000E+00 -0.81034672722E+03  0.28381568982E+04  0.27200133751E+04 0.  0.
        5    1    3    3  502    0 -0.12425621949E+03 -0.91842305391E+03 -0.14437216827E+04  0.17156033636E+04  0.46999998093E+01 0. -1.
       -5    1    3    3    0  502  0.12425621949E+03  0.91842305391E+03  0.63337495545E+03  0.11225535347E+04  0.46999998093E+01 0.  1.
</event>
<event>
 5   0  0.2516518E-05  0.2699921E+04  0.7818609E-02  0.8335031E-01
       -2   -1    0    0    0  501  0.00000000000E+00  0.00000000000E+00  0.83625552657E+03  0.83625552658E+03  0.25500000920E-02 0. -1.
        2   -1    0    0  501    0  0.00000000000E+00  0.00000000000E+00 -0.21792297913E+04  0.21792297913E+04  0.25500000920E-02 0.  1.
    10030    2    1    2    0    0  0.00000000000E+00  0.00000000000E+00 -0.13429742647E+04  0.30154853179E+04  0.26999207075E+04 0.  0.
        4    1    3    3  502    0  0.85321634929E+03 -0.89121349328E+03 -0.12833817354E+04  0.17802555774E+04  0.12699999809E+01 0.  1.
       -4    1    3    3    0  502 -0.85321634929E+03  0.89121349328E+03 -0.59592529361E+02  0.12352297405E+04  0.12699999809E+01 0. -1.
</event>
<event>
 5   0  0.8740500E-06  0.2765391E+04  0.7818609E-02  0.8314094E-01
        3   -1    0    0  501    0  0.00000000000E+00  0.00000000000E+00  0.98137523425E+03  0.98137523945E+03  0.10100000352E+00 0. -1.
       -3   -1    0    0    0  501  0.00000000000E+00  0.00000000000E+00 -0.19481305598E+04  0.19481305624E+04  0.10100000352E+00 0.  1.
    10030    2    1    2    0    0  0.00000000000E+00  0.00000000000E+00 -0.96675532558E+03  0.29295058019E+04  0.27653911810E+04 0.  0.
        3    1    3    3  502    0 -0.94471910625E+03  0.99898422204E+03 -0.63828656403E+03  0.15158738119E+04  0.10100000352E+00 0. -1.
       -3    1    3    3    0  502  0.94471910625E+03 -0.99898422204E+03 -0.32846876155E+03  0.14136319900E+04  0.10100000352E+00 0.  1.
</event>
<event>
 5   0  0.2540232E-05  0.3090009E+04  0.7818609E-02  0.8218485E-01
       -2   -1    0    0    0  501  0.00000000000E+00  0.00000000000E+00  0.10781998513E+04  0.10781998513E+04  0.25500000920E-02 0.  1.
        2   -1    0    0  501    0  0.00000000000E+00  0.00000000000E+00 -0.22139117185E+04  0.22139117185E+04  0.25500000920E-02 0. -1.
    10030    2    1    2    0    0  0.00000000000E+00  0.00000000000E+00 -0.11357118673E+04  0.32921115698E+04  0.30900092463E+04 0.  0.
        1    1    3    3  502    0  0.93625938202E+03  0.10851225787E+03  0.73642041696E+03  0.11961068393E+04  0.50400001928E-02 0.  1.
       -1    1    3    3    0  502 -0.93625938202E+03 -0.10851225787E+03 -0.18721322842E+04  0.20960047305E+04  0.50400001928E-02 0. -1.
</event>
<event>
 5   0  0.9971923E-06  0.3288819E+04  0.7818609E-02  0.8165746E-01
       -1   -1    0    0    0  501  0.00000000000E+00  0.00000000000E+00  0.30450975977E+04  0.30450975977E+04  0.50400001928E-02 0. -1.
        1   -1    0    0  501    0  0.00000000000E+00  0.00000000000E+00 -0.88801203900E+03  0.88801203901E+03  0.50400001928E-02 0.  1.
    10030    2    1    2    0    0  0.00000000000E+00  0.00000000000E+00  0.21570855587E+04  0.39331096367E+04  0.32888194397E+04 0.  0.
        2    1    3    3  502    0 -0.10174696365E+04 -0.24287314473E+03  0.25959038244E+04  0.27987405187E+04  0.25500000920E-02 0. -1.
       -2    1    3    3    0  502  0.10174696365E+04  0.24287314473E+03 -0.43881826570E+03  0.11343691180E+04  0.25500000920E-02 0.  1.
</event>
<event>
 5   0  0.2615843E-05  0.2715795E+04  0.7818609E-02  0.8329898E-01
        2   -1    0    0  501    0  0.00000000000E+00  0.00000000000E+00  0.20495049454E+04  0.20495049454E+04  0.25500000920E-02 0. -1.
       -2   -1    0    0    0  501  0.00000000000E+00  0.00000000000E+00 -0.89967353645E+03  0.89967353646E+03  0.25500000920E-02 0.  1.
    10030    2    1    2    0    0  0.00000000000E+00  0.00000000000E+00  0.11498314090E+04  0.29491784819E+04  0.27157948098E+04 0.  0.
        3    1    3    3  502    0 -0.12547187450E+04  0.21199422298E+03  0.60240991618E+02  0.12739268687E+04  0.10100000352E+00 0.  1.
       -3    1    3    3    0  502  0.12547187450E+04 -0.21199422298E+03  0.10895904174E+04  0.16752516132E+04  0.10100000352E+00 0. -1.
</event>
<event>
 5   0  0.1036691E-05  0.2721641E+04  0.7818609E-02  0.8328017E-01
       -1   -1    0    0    0  501  0.00000000000E+00  0.00000000000E+00  0.15606074022E+04  0.15606074022E+04  0.50400001928E-02 0.  1.
        1   -1    0    0  501    0  0.00000000000E+00  0.00000000000E+00 -0.11866100198E+04  0.11866100198E+04  0.50400001928E-02 0. -1.
    10030    2    1    2    0    0  0.00000000000E+00  0.00000000000E+00  0.37399738238E+03  0.27472174220E+04  0.27216409612E+04 0.  0.
        4    1    3    3  502    0  0.43398710151E+03 -0.92805466583E+03 -0.71707465113E+03  0.12505310613E+04  0.12699999809E+01 0.  1.
       -4    1    3    3    0  502 -0.43398710151E+03  0.92805466583E+03  0.10910720335E+04  0.14966863607E+04  0.12699999809E+01 0. -1.
</event>
<event>
 5   0  0.1096672E-05  0.2679728E+04  0.7818609E-02  0.8341612E-01
        1   -1    0    0  501    0  0.00000000000E+00  0.00000000000E+00  0.16409566488E+04  0.16409566488E+04  0.50400001928E-02 0.  1.
       -1   -1    0    0    0  501  0.00000000000E+00  0.00000000000E+00 -0.10940180557E+04  0.10940180557E+04  0.50400001928E-02 0. -1.
    10030    2    1    2    0    0  0.00000000000E+00  0.00000000000E+00  0.54693859308E+03  0.27349747045E+04  0.26797284955E+04 0.  0.
        1    1    3    3  502    0  0.66216655276E+03 -0.93471132810E+03 -0.43590413963E+03  0.12256272800E+04  0.50400001928E-02 0. -1.
       -1    1    3    3    0  502 -0.66216655276E+03  0.93471132810E+03  0.98284273271E+03  0.15093474245E+04  0.50400001928E-02 0.  1.
</event>
<event>
 5   0  0.1041909E-05  0.2547073E+04  0.7818609E-02  0.8386405E-01
       -1   -1    0    0    0  501  0.00000000000E+00  0.00000000000E+00  0.10611802383E+04  0.10611802383E+04  0.50400001928E-02 0. -1.
        1   -1    0    0  501    0  0.00000000000E+00  0.00000000000E+00 -0.15283882583E+04  0.15283882583E+04  0.50400001928E-02 0.  1.
    10030    2    1    2    0    0  0.00000000000E+00  0.00000000000E+00 -0.46720802000E+03  0.25895684966E+04  0.25470731565E+04 0.  0.
        5    1    3    3  502    0 -0.66989936793E+03  0.24962075349E+03  0.83792382909E+03  0.11014599934E+04  0.46999998093E+01 0. -1.
       -5    1    3    3    0  502  0.66989936793E+03 -0.24962075349E+03 -0.13051318491E+04  0.14881085032E+04  0.46999998093E+01 0.  1.
</event>
<event>
 5   0  0.2516518E-05  0.2731683E+04  0.7818609E-02  0.8324798E-01
       -2   -1    0    0    0  501  0.00000000000E+00  0.00000000000E+00  0.99703367790E+03  0.99703367790E+03  0.25500000920E-02 0.  1.
        2   -1    0    0  501    0  0.00000000000E+00  0.00000000000E+00 -0.18710728550E+04  0.18710728550E+04  0.25500000920E-02 0. -1.
    10030    2    1    2    0    0  0.00000000000E+00  0.00000000000E+00 -0.87403917712E+03  0.28681065329E+04  0.27316827416E+04 0.  0.
        4    1    3    3  502    0  0.25967035947E+03 -0.11778816184E+04 -0.11098732529E+04  0.16391015993E+04  0.12699999809E+01 0. -1.
       -4    1    3    3    0  502 -0.25967035947E+03  0.11778816184E+04  0.23583407581E+03  0.12290049336E+04  0.12699999809E+01 0.  1.
</event>
<event>
 5   0  0.9971923E-06  0.2689246E+04  0.7818609E-02  0.8338503E-01
        1   -1    0    0  501    0  0.00000000000E+00  0.00000000000E+00  0.13190793667E+04  0.13190793668E+04  0.50400001928E-02 0. -1.
       -1   -1    0    0    0  501  0.00000000000E+00  0.00000000000E+00 -0.13706612963E+04  0.13706612963E+04  0.50400001928E-02 0.  1.
    10030    2    1    2    0    0  0.00000000000E+00  0.00000000000E+00 -0.51581929568E+02  0.26897406631E+04  0.26892460168E+04 0.  0.
        2    1    3    3  502    0 -0.22902391715E+03  0.63644527201E+03  0.11365314296E+04  0.13225801410E+04  0.25500000920E-02 0. -1.
       -2    1    3    3    0  502  0.22902391715E+03 -0.63644527201E+03 -0.11881133592E+04  0.13671605221E+04  0.25500000920E-02 0.  1.
</event>
<event>
 5   0  0.2540684E-05  0.1792763E+04  0.7818609E-02  0.8710157E-01
       -2   -1    0    0    0  501  0.00000000000E+00  0.00000000000E+00  0.48682786249E+03  0.48682786250E+03  0.25500000920E-02 0.  1.
        2   -1    0    0  501    0  0.00000000000E+00  0.00000000000E+00 -0.16504804999E+04  0.16504805000E+04  0.25500000920E-02 0. -1.
    10030    2    1    2    0    0  0.00000000000E+00  0.00000000000E+00 -0.11636526375E+04  0.21373083625E+04  0.17927631119E+04 0.  0.
        2    1    3    3  502    0  0.59162253031E+03 -0.37675594884E+02  0.21974813357E+03  0.63223880854E+03  0.25500000920E-02 0.  1.
       -2    1    3    3    0  502 -0.59162253031E+03  0.37675594884E+02 -0.13834007710E+04  0.15050695539E+04  0.25500000920E-02 0. -1.
</event>
<event>
 5   0  0.2540232E-05  0.2714395E+04  0.7818609E-02  0.8330349E-01
       -2   -1    0    0    0  501  0.00000000000E+00  0.00000000000E+00  0.14099083130E+04  0.14099083130E+04  0.25500000920E-02 0. -1.
        2   -1    0    0  501    0  0.00000000000E+00  0.00000000000E+00 -0.13064570752E+04  0.13064570752E+04  0.25500000920E-02 0.  1.
    10030    2    1    2    0    0  0.00000000000E+00  0.00000000000E+00  0.10345123781E+03  0.27163653883E+04  0.27143947325E+04 0.  0.
        1    1    3    3  502    0 -0.11130476606E+04 -0.11756768110E+03  0.81993353000E+03  0.13874394575E+04  0.50400001928E-02 0. -1.
       -1    1    3    3    0  502  0.11130476606E+04  0.11756768110E+03 -0.71648229219E+03  0.13289259308E+04  0.50400001928E-02 0.  1.
</event>
<event>
 5   0  0.2641216E-05  0.2663258E+04  0.7818609E-02  0.8347026E-01
       -2   -1    0    0    0  501  0.00000000000E+00  0.00000000000E+00  0.13727380883E+04  0.13727380883E+04  0.25500000920E-02 0. -1.
        2   -1    0    0  501    0  0.00000000000E+00  0.00000000000E+00 -0.12917512459E+04  0.12917512459E+04  0.25500000920E-02 0.  1.
    10030    2    1    2    0    0  0.00000000000E+00  0.00000000000E+00  0.80986842444E+02  0.26644893342E+04  0.26632582570E+04 0.  0.
        5    1    3    3  502    0 -0.53513909641E+03  0.44715116927E+03  0.11754321958E+04  0.13667409987E+04  0.46999998093E+01 0. -1.
       -5    1    3    3    0  502  0.53513909641E+03 -0.44715116927E+03 -0.10944453534E+04  0.12977483355E+04  0.46999998093E+01 0.  1.
</event>
<event>
 5   0  0.9971923E-06  0.2680439E+04  0.7818609E-02  0.8341380E-01
        1   -1    0    0  501    0  0.00000000000E+00  0.00000000000E+00  0.19252537199E+04  0.19252537199E+04  0.50400001928E-02 0.  1.
       -1   -1    0    0    0  501  0.00000000000E+00  0.00000000000E+00 -0.93296167712E+03  0.93296167714E+03  0.50400001928E-02 0. -1.
    10030    2    1    2    0    0  0.00000000000E+00  0.00000000000E+00  0.99229204281E+03  0.28582153971E+04  0.26804387249E+04 0.  0.
        2    1    3    3  502    0 -0.32865176860E+03  0.82915018659E+03  0.15628353882E+04  0.17994322626E+04  0.25500000920E-02 0.  1.
       -2    1    3    3    0  502  0.32865176860E+03 -0.82915018659E+03 -0.57054334540E+03  0.10587831345E+04  0.25500000920E-02 0. -1.
</event>
<event>
 5   0  0.1036691E-05  0.2729970E+04  0.7818609E-02  0.8325346E-01
       -1   -1    0    0    0  501  0.00000000000E+00  0.00000000000E+00  0.11782266829E+04  0.11782266829E+04  0.50400001928E-02 0.  1.
        1   -1    0    0  501    0  0.00000000000E+00  0.00000000000E+00 -0.15813464631E+04  0.15813464631E+04  0.50400001928E-02 0. -1.
    10030    2    1    2    0    0  0.00000000000E+00  0.00000000000E+00 -0.40311978018E+03  0.27595731461E+04  0.27299704012E+04 0.  0.
        4    1    3    3  502    0  0.82912295662E+02 -0.76696311134E+03 -0.13398596235E+04  0.15460699488E+04  0.12699999809E+01 0. -1.
       -4    1    3    3    0  502 -0.82912295662E+02  0.76696311134E+03  0.93673984331E+03  0.12135031973E+04  0.12699999809E+01 0.  1.
</event>
<event>
 5   0  0.2516518E-05  0.2701897E+04  0.7818609E-02  0.8334390E-01
        2   -1    0    0  501    0  0.00000000000E+00  0.00000000000E+00  0.29158708127E+04  0.29158708127E+04  0.25500000920E-02 0.  1.
       -2   -1    0    0    0  501  0.00000000000E+00  0.00000000000E+00 -0.62590628141E+03  0.62590628142E+03  0.25500000920E-02 0. -1.
    10030    2    1    2    0    0  0.00000000000E+00  0.00000000000E+00  0.22899645313E+04  0.35417770942E+04  0.27018970058E+04 0.  0.
        4    1    3    3  502    0  0.50564715908E+03  0.40675162367E+03  0.26981767118E+04  0.27751189369E+04  0.12699999809E+01 0.  1.
       -4    1    3    3    0  502 -0.50564715908E+03 -0.40675162367E+03 -0.40821218051E+03  0.76665815724E+03  0.12699999809E+01 0. -1.
</event>
<event>
 5   0  0.2615843E-05  0.2216631E+04  0.7818609E-02  0.8511538E-01
       -2   -1    0    0    0  501  0.00000000000E+00  0.00000000000E+00  0.56134374188E+03  0.56134374188E+03  0.25500000920E-02 0.  1.
        2   -1    0    0  501    0  0.00000000000E+00  0.00000000000E+00 -0.21882543962E+04  0.21882543962E+04  0.25500000920E-02 0. -1.
    10030    2    1    2    0    0  0.00000000000E+00  0.00000000000E+00 -0.16269106543E+04  0.27495981380E+04  0.22166306963E+04 0.  0.
        3    1    3    3  502    0  0.46916271346E+03 -0.98511605776E+03 -0.57230019200E+03  0.12321099054E+04  0.10100000352E+00 0.  1.
       -3    1    3    3    0  502 -0.46916271346E+03  0.98511605776E+03 -0.10546104623E+04  0.15174882327E+04  0.10100000352E+00 0. -1.
</event>
<event>
 5   0  0.1096672E-05  0.1759380E+04  0.7818609E-02  0.8728204E-01
       -1   -1    0    0    0  501  0.00000000000E+00  0.00000000000E+00  0.64469050174E+03  0.64469050176E+03  0.50400001928E-02 0.  1.
        1   -1    0    0  501    0  0.00000000000E+00  0.00000000000E+00 -0.12003508544E+04  0.12003508545E+04  0.50400001928E-02 0. -1.
    10030    2    1    2    0    0  0.00000000000E+00  0.00000000000E+00 -0.55566035270E+03  0.18450413562E+04  0.17593803394E+04 0.  0.
        1    1    3    3  502    0 -0.15924831841E+03  0.18392649400E+03  0.60870888239E+03  0.65552687637E+03  0.50400001928E-02 0.  1.
       -1    1    3    3    0  502  0.15924831841E+03 -0.18392649400E+03 -0.11643692351E+04  0.11895144798E+04  0.50400001928E-02 0. -1.
</event>
<event>
 5   0  0.1005265E-05  0.2649126E+04  0.7818609E-02  0.8351703E-01
        1   -1    0    0  501    0  0.00000000000E+00  0.00000000000E+00  0.13549242339E+04  0.13549242339E+04  0.50400001928E-02 0. -1.
       -1   -1    0    0    0  501  0.00000000000E+00  0.00000000000E+00 -0.12948821697E+04  0.12948821697E+04  0.50400001928E-02 0.  1.
    10030    2    1    2    0    0  0.00000000000E+00  0.00000000000E+00  0.60042064263E+02  0.26498064036E+04  0.26491260686E+04 0.  0.
        3    1    3    3  502    0 -0.40940814259E+03  0.63932816954E+03 -0.10556662511E+04  0.13003025723E+04  0.10100000352E+00 0.  1.
       -3    1    3    3    0  502  0.40940814259E+03 -0.63932816954E+03  0.11157083154E+04  0.13495038313E+04  0.10100000352E+00 0. -1.
</event>
<event>
 5   0  0.9971923E-06  0.2713700E+04  0.7818609E-02  0.8330573E-01
        1   -1    0    0  501    0  0.00000000000E+00  0.00000000000E+00  0.19353578287E+04  0.19353578287E+04  0.50400001928E-02 0.  1.
       -1   -1    0    0    0  501  0.00000000000E+00  0.00000000000E+00 -0.95126687153E+03  0.95126687154E+03  0.50400001928E-02 0. -1.
    10030    2    1    2    0    0  0.00000000000E+00  0.00000000000E+00  0.98409095713E+03  0.28866247002E+04  0.27136999001E+04 0.  0.
        2    1    3    3  502    0  0.11977224943E+03  0.13491533043E+04  0.57768512487E+03  0.14725081099E+04  0.25500000920E-02 0.  1.
       -2    1    3    3    0  502 -0.11977224943E+03 -0.13491533043E+04  0.40640583226E+03  0.14141165903E+04  0.25500000920E-02 0. -1.
</event>
<event>
 5   0  0.9971923E-06  0.2721667E+04  0.7818609E-02  0.8328009E-01
       -1   -1    0    0    0  501  0.00000000000E+00  0.00000000000E+00  0.71062773302E+03  0.71062773304E+03  0.50400001928E-02 0. -1.
        1   -1    0    0  501    0  0.00000000000E+00  0.00000000000E+00 -0.26059613118E+04  0.26059613118E+04  0.50400001928E-02 0.  1.
    10030    2    1    2    0    0  0.00000000000E+00  0.00000000000E+00 -0.18953335788E+04  0.33165890448E+04  0.27216674149E+04 0.  0.
        2    1    3    3  502    0 -0.28719433882E+03 -0.13512542911E+02 -0.25685275627E+04  0.25845690197E+04  0.25500000920E-02 0.  1.
       -2    1    3    3    0  502  0.28719433882E+03  0.13512542911E+02  0.67319398399E+03  0.73202002510E+03  0.25500000920E-02 0. -1.
</event>
<event>
 5   0  0.2641216E-05  0.2667739E+04  0.7818609E-02  0.8345549E-01
       -2   -1    0    0    0  501  0.00000000000E+00  0.00000000000E+00  0.10100896934E+04  0.10100896934E+04  0.25500000920E-02 0.  1.
        2   -1    0    0  501    0  0.00000000000E+00  0.00000000000E+00 -0.17614358387E+04  0.17614358387E+04  0.25500000920E-02 0. -1.
    10030    2    1    2    0    0  0.00000000000E+00  0.00000000000E+00 -0.75134614532E+03  0.27715255321E+04  0.26677392573E+04 0.  0.
        5    1    3    3  502    0  0.50055440535E+03 -0.67794675136E+03  0.69848534248E+03  0.10945640109E+04  0.46999998093E+01 0.  1.
       -5    1    3    3    0  502 -0.50055440535E+03  0.67794675136E+03 -0.14498314878E+04  0.16769615211E+04  0.46999998093E+01 0. -1.
</event>
<event>
 5   0  0.1041909E-05  0.2613697E+04  0.7818609E-02  0.8363563E-01
       -1   -1    0    0    0  501  0.00000000000E+00  0.00000000000E+00  0.12022828083E+04  0.12022828083E+04  0.50400001928E-02 0. -1.
        1   -1    0    0  501    0  0.00000000000E+00  0.00000000000E+00 -0.14205085315E+04  0.14205085315E+04  0.50400001928E-02 0.  1.
    10030    2    1    2    0    0  0.00000000000E+00  0.00000000000E+00 -0.21822572321E+03  0.26227913398E+04  0.26136969882E+04 0.  0.
        5    1    3    3  502    0 -0.62588283999E+03  0.33563581141E+03 -0.12099486997E+04  0.14029891922E+04  0.46999998093E+01 0.  1.
       -5    1    3    3    0  502  0.62588283999E+03 -0.33563581141E+03  0.99172297654E+03  0.12198021477E+04  0.46999998093E+01 0. -1.
</event>
<event>
 5   0  0.1005265E-05  0.2678677E+04  0.7818609E-02  0.8341957E-01
        1   -1    0    0  501    0  0.00000000000E+00  0.00000000000E+00  0.14051070734E+04  0.14051070734E+04  0.50400001928E-02 0. -1.
       -1   -1    0    0    0  501  0.00000000000E+00  0.00000000000E+00 -0.12766480247E+04  0.12766480247E+04  0.50400001928E-02 0.  1.
    10030    2    1    2    0    0  0.00000000000E+00  0.00000000000E+00  0.12845904876E+03  0.26817550981E+04  0.26786766656E+04 0.  0.
        3    1    3    3  502    0  0.11963968252E+04 -0.35370772985E+03 -0.42351887392E+03  0.13175138589E+04  0.10100000352E+00 0.  1.
       -3    1    3    3    0  502 -0.11963968252E+04  0.35370772985E+03  0.55197792268E+03  0.13642412392E+04  0.10100000352E+00 0. -1.
</event>
<event>
 5   0  0.1041909E-05  0.2704956E+04  0.7818609E-02  0.8333399E-01
       -1   -1    0    0    0  501  0.00000000000E+00  0.00000000000E+00  0.16599006158E+04  0.16599006158E+04  0.50400001928E-02 0. -1.
        1   -1    0    0  501    0  0.00000000000E+00  0.00000000000E+00 -0.11019917831E+04  0.11019917831E+04  0.50400001928E-02 0.  1.
    10030    2    1    2    0    0  0.00000000000E+00  0.00000000000E+00  0.55790883276E+03  0.27618923989E+04  0.27049560731E+04 0.  0.
        5    1    3    3  502    0  0.74919040332E+03  0.79960351806E+03  0.10884360933E+04  0.15444634233E+04  0.46999998093E+01 0. -1.
       -5    1    3    3    0  502 -0.74919040332E+03 -0.79960351806E+03 -0.53052726058E+03  0.12174289756E+04  0.46999998093E+01 0.  1.
</event>
<event>
 5   0  0.1036691E-05  0.2317056E+04  0.7818609E-02  0.8471226E-01
        1   -1    0    0  501    0  0.00000000000E+00  0.00000000000E+00  0.10740298714E+04  0.10740298714E+04  0.50400001928E-02 0. -1.
       -1   -1    0    0    0  501  0.00000000000E+00  0.00000000000E+00 -0.12496743106E+04  0.12496743106E+04  0.50400001928E-02 0.  1.
    10030    2    1    2    0    0  0.00000000000E+00  0.00000000000E+00 -0.17564443917E+03  0.23237041820E+04  0.23170563559E+04 0.  0.
        4    1    3    3  502    0  0.15170758544E+03 -0.81788167108E+03 -0.89651056852E+03  0.12229793260E+04  0.12699999809E+01 0.  1.
       -4    1    3    3    0  502 -0.15170758544E+03  0.81788167108E+03  0.72086612935E+03  0.11007248560E+04  0.12699999809E+01 0. -1.
</event>
<event>
 5   0  0.2540684E-05  0.2377921E+04  0.7818609E-02  0.8447816E-01
        2   -1    0    0  501    0  0.00000000000E+00  0.00000000000E+00  0.25448136867E+04  0.25448136867E+04  0.25500000920E-02 0.  1.
       -2   -1    0    0    0  501  0.00000000000E+00  0.00000000000E+00 -0.55549349236E+03  0.55549349236E+03  0.25500000920E-02 0. -1.
    10030    2    1    2    0    0  0.00000000000E+00  0.00000000000E+00  0.19893201943E+04  0.31003071790E+04  0.23779213126E+04 0.  0.
        2    1    3    3  502    0  0.12826335126E+03 -0.11147607241E+04  0.48221224357E+03  0.12213400866E+04  0.25500000920E-02 0. -1.
       -2    1    3    3    0  502 -0.12826335126E+03  0.11147607241E+04  0.15071079507E+04  0.18789670924E+04  0.25500000920E-02 0.  1.
</event>
<event>
 5   0  0.2540232E-05  0.2673850E+04  0.7818609E-02  0.8343540E-01
        2   -1    0    0  501    0  0.00000000000E+00  0.00000000000E+00  0.93303358575E+03  0.93303358576E+03  0.25500000920E-02 0.  1.
       -2   -1    0    0    0  501  0.00000000000E+00  0.00000000000E+00 -0.19156523190E+04  0.19156523190E+04  0.25500000920E-02 0. -1.
    10030    2    1    2    0    0  0.00000000000E+00  0.00000000000E+00 -0.98261873324E+03  0.28486859048E+04  0.26738496235E+04 0.  0.
        1    1    3    3  502    0 -0.11394035104E+04 -0.22866178996E+02 -0.12360180561E+04  0.16812209423E+04  0.50400001928E-02 0. -1.
       -1    1    3    3    0  502  0.11394035104E+04  0.22866178996E+02  0.25339932290E+03  0.11674649625E+04  0.50400001928E-02 0.  1.
</event>
<event>
 5   0  0.1041909E-05  0.2619106E+04  0.7818609E-02  0.8361740E-01
       -1   -1    0    0    0  501  0.00000000000E+00  0.00000000000E+00  0.13162184145E+04  0.13162184145E+04  0.50400001928E-02 0.  1.
        1   -1    0    0  501    0  0.00000000000E+00  0.00000000000E+00 -0.13029209984E+04  0.13029209984E+04  0.50400001928E-02 0. -1.
    10030    2    1    2    0    0  0.00000000000E+00  0.00000000000E+00  0.13297416079E+02  0.26191394129E+04  0.26191056571E+04 0.  0.
        5    1    3    3  502    0  0.10113948210E+04 -0.26338830448E+03 -0.78242016530E+03  0.13055635901E+04  0.46999998093E+01 0. -1.
       -5    1    3    3    0  502 -0.10113948210E+04  0.26338830448E+03  0.79571758138E+03  0.13135758228E+04  0.46999998093E+01 0.  1.
</event>
<event>
 5   0  0.9971923E-06  0.2682325E+04  0.7818609E-02  0.8340763E-01
       -1   -1    0    0    0  501  0.00000000000E+00  0.00000000000E+00  0.21295848223E+04  0.21295848223E+04  0.50400001928E-02 0.  1.
        1   -1    0    0  501    0  0.00000000000E+00  0.00000000000E+00 -0.84463243317E+03  0.84463243318E+03  0.50400001928E-02 0. -1.
    10030    2    1    2    0    0  0.00000000000E+00  0.00000000000E+00  0.12849523892E+04  0.29742172555E+04  0.26823246710E+04 0.  0.
        2    1    3    3  502    0 -0.28503603338E+03 -0.60380196257E+03  0.19321896768E+04  0.20443041108E+04  0.25500000920E-02 0.  1.
       -2    1    3    3    0  502  0.28503603338E+03  0.60380196257E+03 -0.64723728759E+03  0.92991314475E+03  0.25500000920E-02 0. -1.
</event>
<event>
 5   0  0.1005265E-05  0.2556831E+04  0.7818609E-02  0.8383014E-01
       -1   -1    0    0    0  501  0.00000000000E+00  0.00000000000E+00  0.86536133135E+03  0.86536133137E+03  0.50400001928E-02 0.  1.
        1   -1    0    0  501    0  0.00000000000E+00  0.00000000000E+00 -0.18886286087E+04  0.18886286087E+04  0.50400001928E-02 0. -1.
    10030    2    1    2    0    0  0.00000000000E+00  0.00000000000E+00 -0.10232672774E+04  0.27539899401E+04  0.25568309817E+04 0.  0.
        3    1    3    3  502    0 -0.67525022267E+03  0.43185232394E+03 -0.15843660409E+04  0.17755773862E+04  0.10100000352E+00 0.  1.
       -3    1    3    3    0  502  0.67525022267E+03 -0.43185232394E+03  0.56109876350E+03  0.97841255384E+03  0.10100000352E+00 0. -1.
</event>
<event>
 5   0  0.2540684E-05  0.1954291E+04  0.7818609E-02  0.8628294E-01
        2   -1    0    0  501    0  0.00000000000E+00  0.00000000000E+00  0.10433154215E+04  0.10433154215E+04  0.25500000920E-02 0.  1.
       -2   -1    0    0    0  501  0.00000000000E+00  0.00000000000E+00 -0.91517213696E+03  0.91517213697E+03  0.25500000920E-02 0. -1.
    10030    2    1    2    0    0  0.00000000000E+00  0.00000000000E+00  0.12814328452E+03  0.19584875585E+04  0.19542908727E+04 0.  0.
        2    1    3    3  502    0  0.34002674792E+03  0.55683733895E+03  0.79304499597E+03  0.10269402987E+04  0.25500000920E-02 0.  1.
       -2    1    3    3    0  502 -0.34002674792E+03 -0.55683733895E+03 -0.66490171145E+03  0.93154725980E+03  0.25500000920E-02 0. -1.
</event>
<event>
 5   0  0.2540232E-05  0.2660476E+04  0.7818609E-02  0.8347944E-01
        2   -1    0    0  501    0  0.00000000000E+00  0.00000000000E+00  0.13818255833E+04  0.13818255833E+04  0.25500000920E-02 0. -1.
       -2   -1    0    0    0  501  0.00000000000E+00  0.00000000000E+00 -0.12805762944E+04  0.12805762944E+04  0.25500000920E-02 0.  1.
    10030    2    1    2    0    0  0.00000000000E+00  0.00000000000E+00  0.10124928885E+03  0.26624018777E+04  0.26604759611E+04 0.  0.
        1    1    3    3  502    0 -0.85402040643E+03 -0.46578145521E+03 -0.85735232040E+03  0.12966712073E+04  0.50400001928E-02 0.  1.
       -1    1    3    3    0  502  0.85402040643E+03  0.46578145521E+03  0.95860160925E+03  0.13657306703E+04  0.50400001928E-02 0. -1.
</event>
<event>
 5   0  0.1096672E-05  0.2004621E+04  0.7818609E-02  0.8604463E-01
        1   -1    0    0  501    0  0.00000000000E+00  0.00000000000E+00  0.12466933684E+04  0.12466933684E+04  0.50400001928E-02 0.  1.
       -1   -1    0    0    0  501  0.00000000000E+00  0.00000000000E+00 -0.80583256728E+03  0.80583256729E+03  0.50400001928E-02 0. -1.
    10030    2    1    2    0    0  0.00000000000E+00  0.00000000000E+00  0.44086080114E+03  0.20525259357E+04  0.20046207798E+04 0.  0.
        1    1    3    3  502    0  0.22618962760E+03 -0.11788433803E+03 -0.77204660606E+03  0.81308943342E+03  0.50400001928E-02 0. -1.
       -1    1    3    3    0  502 -0.22618962760E+03  0.11788433803E+03  0.12129074072E+04  0.12394365023E+04  0.50400001928E-02 0.  1.
</event>
<event>
 5   0  0.2540684E-05  0.2700733E+04  0.7818609E-02  0.8334767E-01
       -2   -1    0    0    0  501  0.00000000000E+00  0.00000000000E+00  0.88241602824E+03  0.88241602825E+03  0.25500000920E-02 0. -1.
        2   -1    0    0  501    0  0.00000000000E+00  0.00000000000E+00 -0.20664735020E+04  0.20664735020E+04  0.25500000920E-02 0.  1.
    10030    2    1    2    0    0  0.00000000000E+00  0.00000000000E+00 -0.11840574737E+04  0.29488895302E+04  0.27007327451E+04 0.  0.
        2    1    3    3  502    0 -0.63636025319E+02 -0.60107116670E+03  0.72646623638E+03  0.94503401196E+03  0.25500000920E-02 0. -1.
       -2    1    3    3    0  502  0.63636025319E+02  0.60107116670E+03 -0.19105237101E+04  0.20038555182E+04  0.25500000920E-02 0.  1.
</event>
<event>
 5   0  0.1036691E-05  0.2674455E+04  0.7818609E-02  0.8343341E-01
        1   -1    0    0  501    0  0.00000000000E+00  0.00000000000E+00  0.97006861190E+03  0.97006861192E+03  0.50400001928E-02 0.  1.
       -1   -1    0    0    0  501  0.00000000000E+00  0.00000000000E+00 -0.18433519207E+04  0.18433519208E+04  0.50400001928E-02 0. -1.
    10030    2    1    2    0    0  0.00000000000E+00  0.00000000000E+00 -0.87328330884E+03  0.28134205327E+04  0.26744553382E+04 0.  0.
        4    1    3    3  502    0  0.84251847809E+03 -0.71050676080E+03  0.36001869325E+03  0.11594275809E+04  0.12699999809E+01 0.  1.
       -4    1    3    3    0  502 -0.84251847809E+03  0.71050676080E+03 -0.12333020021E+04  0.16539929517E+04  0.12699999809E+01 0. -1.
</event>
<event>
 5   0  0.1005265E-05  0.2758558E+04  0.7818609E-02  0.8316251E-01
       -1   -1    0    0    0  501  0.00000000000E+00  0.00000000000E+00  0.16922236943E+04  0.16922236943E+04  0.50400001928E-02 0. -1.
        1   -1    0    0  501    0  0.00000000000E+00  0.00000000000E+00 -0.11242078934E+04  0.11242078934E+04  0.50400001928E-02 0.  1.
    10030    2    1    2    0    0  0.00000000000E+00  0.00000000000E+00  0.56801580091E+03  0.28164315876E+04  0.27585584891E+04 0.  0.
        3    1    3    3  502    0  0.74323076287E+03  0.10540823394E+04 -0.21505129224E+03  0.13075659118E+04  0.10100000352E+00 0.  1.
       -3    1    3    3    0  502 -0.74323076287E+03 -0.10540823394E+04  0.78306709314E+03  0.15088656758E+04  0.10100000352E+00 0. -1.
</event>
<event>
 5   0  0.2641216E-05  0.2677527E+04  0.7818609E-02  0.8342334E-01
        2   -1    0    0  501    0  0.00000000000E+00  0.00000000000E+00  0.16285404983E+04  0.16285404983E+04  0.25500000920E-02 0. -1.
       -2   -1    0    0    0  501  0.00000000000E+00  0.00000000000E+00 -0.11005485071E+04  0.11005485071E+04  0.25500000920E-02 0.  1.
    10030    2    1    2    0    0  0.00000000000E+00  0.00000000000E+00  0.52799199120E+03  0.27290890054E+04  0.26775270786E+04 0.  0.
        5    1    3    3  502    0 -0.42595393932E+02  0.10970105190E+04 -0.51693023393E+03  0.12134600954E+04  0.46999998093E+01 0.  1.
       -5    1    3    3    0  502  0.42595393932E+02 -0.10970105190E+04  0.10449222251E+04  0.15156289100E+04  0.46999998093E+01 0. -1.
</event>
<event>
 5   0  0.2540684E-05  0.2695006E+04  0.7818609E-02  0.8336627E-01
        2   -1    0    0  501    0  0.00000000000E+00  0.00000000000E+00  0.84172528653E+03  0.84172528653E+03  0.25500000920E-02 0.  1.
       -2   -1    0    0    0  501  0.00000000000E+00  0.00000000000E+00 -0.21571935728E+04  0.21571935728E+04  0.25500000920E-02 0. -1.
    10030    2    1    2    0    0  0.00000000000E+00  0.00000000000E+00 -0.13154682863E+04  0.29989188594E+04  0.26950060321E+04 0.  0.
        2    1    3    3  502    0  0.10105972443E+04  0.44516212824E+02 -0.16483334146E+04  0.19339833322E+04  0.25500000920E-02 0. -1.
       -2    1    3    3    0  502 -0.10105972443E+04 -0.44516212824E+02  0.33286512830E+03  0.10649355272E+04  0.25500000920E-02 0.  1.
</event>
<event>
 5   0  0.8740500E-06  0.2697450E+04  0.7818609E-02  0.8335833E-01
        3   -1    0    0  501    0  0.00000000000E+00  0.00000000000E+00  0.24004480769E+04  0.24004480791E+04  0.10100000352E+00 0. -1.
       -3   -1    0    0    0  501  0.00000000000E+00  0.00000000000E+00 -0.75779995587E+03  0.75779996260E+03  0.10100000352E+00 0.  1.
    10030    2    1    2    0    0  0.00000000000E+00  0.00000000000E+00  0.16426481211E+04  0.31582480417E+04  0.26974502485E+04 0.  0.
        4    1    3    3  502    0 -0.73682508827E+03 -0.14072018212E+03  0.21336664529E+04  0.22616912975E+04  0.12699999809E+01 0. -1.
       -4    1    3    3    0  502  0.73682508827E+03  0.14072018212E+03 -0.49101833181E+03  0.89655674412E+03  0.12699999809E+01 0.  1.
</event>
<event>
 5   0  0.1041909E-05  0.2677816E+04  0.7818609E-02  0.8342239E-01
       -1   -1    0    0    0  501  0.00000000000E+00  0.00000000000E+00  0.12794684402E+04  0.12794684402E+04  0.50400001928E-02 0.  1.
        1   -1    0    0  501    0  0.00000000000E+00  0.00000000000E+00 -0.14011093362E+04  0.14011093362E+04  0.50400001928E-02 0. -1.
    10030    2    1    2    0    0  0.00000000000E+00  0.00000000000E+00 -0.12164089596E+03  0.26805777764E+04  0.26778164067E+04 0.  0.
        5    1    3    3  502    0  0.20989444582E+03  0.40334630587E+02 -0.13839135449E+04  0.14003290151E+04  0.46999998093E+01 0. -1.
       -5    1    3    3    0  502 -0.20989444582E+03 -0.40334630587E+02  0.12622726489E+04  0.12802487614E+04  0.46999998093E+01 0.  1.
</event>
<event>
 5   0  0.9971923E-06  0.2514059E+04  0.7818609E-02  0.8397994E-01
        1   -1    0    0  501    0  0.00000000000E+00  0.00000000000E+00  0.14219109782E+04  0.14219109783E+04  0.50400001928E-02 0. -1.
       -1   -1    0    0    0  501  0.00000000000E+00  0.00000000000E+00 -0.11112669701E+04  0.11112669701E+04  0.50400001928E-02 0.  1.
    10030    2    1    2    0    0  0.00000000000E+00  0.00000000000E+00  0.31064400816E+03  0.25331779483E+04  0.25140586346E+04 0.  0.
        2    1    3    3  502    0 -0.25630352561E+03  0.80485701353E+03  0.10933347900E+04  0.13816176289E+04  0.25500000920E-02 0. -1.
       -2    1    3    3    0  502  0.25630352561E+03 -0.80485701353E+03 -0.78269078180E+03  0.11515603195E+04  0.25500000920E-02 0.  1.
</event>
<event>
 5   0  0.1096672E-05  0.2487252E+04  0.7818609E-02  0.8407541E-01
        1   -1    0    0  501    0  0.00000000000E+00  0.00000000000E+00  0.19474937674E+04  0.19474937674E+04  0.50400001928E-02 0.  1.
       -1   -1    0    0    0  501  0.00000000000E+00  0.00000000000E+00 -0.79415196937E+03  0.79415196939E+03  0.50400001928E-02 0. -1.
    10030    2    1    2    0    0  0.00000000000E+00  0.00000000000E+00  0.11533417981E+04  0.27416457368E+04  0.24872523079E+04 0.  0.
        1    1    3    3  502    0 -0.72955716962E+03  0.97593473938E+03  0.30241883280E+03  0.12554518827E+04  0.50400001928E-02 0. -1.
       -1    1    3    3    0  502  0.72955716962E+03 -0.97593473938E+03  0.85092296526E+03  0.14861938541E+04  0.50400001928E-02 0.  1.
</event>
<event>
 5   0  0.2540684E-05  0.2631214E+04  0.7818609E-02  0.8357675E-01
        2   -1    0    0  501    0  0.00000000000E+00  0.00000000000E+00  0.21406423042E+04  0.21406423042E+04  0.25500000920E-02 0. -1.
       -2   -1    0    0    0  501  0.00000000000E+00  0.00000000000E+00 -0.80855227483E+03  0.80855227484E+03  0.25500000920E-02 0.  1.
    10030    2    1    2    0    0  0.00000000000E+00  0.00000000000E+00  0.13320900294E+04  0.29491945790E+04  0.26312135639E+04 0.  0.
        2    1    3    3  502    0 -0.37441965751E+03 -0.11908511620E+04  0.11315750557E+04  0.16848675546E+04  0.25500000920E-02 0.  1.
       -2    1    3    3    0  502  0.37441965751E+03  0.11908511620E+04  0.20051497364E+03  0.12643270244E+04  0.25500000920E-02 0. -1.
</event>
<event>
 5   0  0.1096672E-05  0.2713811E+04  0.7818609E-02  0.8330538E-01
        1   -1    0    0  501    0  0.00000000000E+00  0.00000000000E+00  0.13062742918E+04  0.13062742918E+04  0.50400001928E-02 0.  1.
       -1   -1    0    0    0  501  0.00000000000E+00  0.00000000000E+00 -0.14094994734E+04  0.14094994734E+04  0.50400001928E-02 0. -1.
    10030    2    1    2    0    0  0.00000000000E+00  0.00000000000E+00 -0.10322518162E+03  0.27157737652E+04  0.27138112878E+04 0.  0.
        1    1    3    3  502    0 -0.76381572507E+03  0.43045820956E+03  0.98474443121E+03  0.13184954785E+04  0.50400001928E-02 0.  1.
       -1    1    3    3    0  502  0.76381572507E+03 -0.43045820956E+03 -0.10879696128E+04  0.13972782867E+04  0.50400001928E-02 0. -1.
</event>
<event>
 5   0  0.2641216E-05  0.2739263E+04  0.7818609E-02  0.8322377E-01
        2   -1    0    0  501    0  0.00000000000E+00  0.00000000000E+00  0.15989590266E+04  0.15989590266E+04  0.25500000920E-02 0.  1.
       -2   -1    0    0    0  501  0.00000000000E+00  0.00000000000E+00 -0.11731951548E+04  0.11731951548E+04  0.25500000920E-02 0. -1.
    10030    2    1    2    0    0  0.00000000000E+00  0.00000000000E+00  0.42576387185E+03  0.27721541814E+04  0.27392633920E+04 0.  0.
        5    1    3    3  502    0 -0.13583836254E+04  0.17130578746E+03  0.24961021370E+03  0.13917180373E+04  0.46999998093E+01 0.  1.
       -5    1    3    3    0  502  0.13583836254E+04 -0.17130578746E+03  0.17615365815E+03  0.13804361441E+04  0.46999998093E+01 0. -1.
</event>
<event>
 5   0  0.1005265E-05  0.2689421E+04  0.7818609E-02  0.8338446E-01
        1   -1    0    0  501    0  0.00000000000E+00  0.00000000000E+00  0.18470955184E+04  0.18470955184E+04  0.50400001928E-02 0. -1.
       -1   -1    0    0    0  501  0.00000000000E+00  0.00000000000E+00 -0.97896759617E+03  0.97896759618E+03  0.50400001928E-02 0.  1.
    10030    2    1    2    0    0  0.00000000000E+00  0.00000000000E+00  0.86812792224E+03  0.28260631146E+04  0.26894212460E+04 0.  0.
        3    1    3    3  502    0  0.38973752772E+03 -0.10516049019E+04  0.12137022902E+04  0.16525257849E+04  0.10100000352E+00 0. -1.
       -3    1    3    3    0  502 -0.38973752772E+03  0.10516049019E+04 -0.34557436796E+03  0.11735373297E+04  0.10100000352E+00 0.  1.
</event>
<event>
 5   0  0.8740500E-06  0.2740750E+04  0.7818609E-02  0.8321903E-01
        3   -1    0    0  501    0  0.00000000000E+00  0.00000000000E+00  0.16876729101E+04  0.16876729131E+04  0.10100000352E+00 0.  1.
       -3   -1    0    0    0  501  0.00000000000E+00  0.00000000000E+00 -0.11127320523E+04  0.11127320569E+04  0.10100000352E+00 0. -1.
    10030    2    1    2    0    0  0.00000000000E+00  0.00000000000E+00  0.57494085785E+03  0.28004049700E+04  0.27407500809E+04 0.  0.
        2    1    3    3  502    0 -0.13324104798E+04  0.37643966782E+02 -0.37561954508E+02  0.13334712803E+04  0.25500000920E-02 0.  1.
       -2    1    3    3    0  502  0.13324104798E+04 -0.37643966782E+02  0.61250281235E+03  0.14669336897E+04  0.25500000920E-02 0. -1.
</event>
<event>
 5   0  0.1041909E-05  0.2641974E+04  0.7818609E-02  0.8354082E-01
        1   -1    0    0  501    0  0.00000000000E+00  0.00000000000E+00  0.26731325920E+04  0.26731325920E+04  0.50400001928E-02 0. -1.
       -1   -1    0    0    0  501  0.00000000000E+00  0.00000000000E+00 -0.65279478357E+03  0.65279478359E+03  0.50400001928E-02 0.  1.
    10030    2    1    2    0    0  0.00000000000E+00  0.00000000000E+00  0.20203378084E+04  0.33259273756E+04  0.26419742708E+04 0.  0.
        5    1    3    3  502    0  0.94736202913E+03  0.11646257747E+03 -0.13943461617E+03  0.96463591493E+03  0.46999998093E+01 0.  1.
       -5    1    3    3    0  502 -0.94736202913E+03 -0.11646257747E+03  0.21597724246E+04  0.23612914606E+04  0.46999998093E+01 0. -1.
</event>
<event>
 5   0  0.2540684E-05  0.2714961E+04  0.7818609E-02  0.8330167E-01
        2   -1    0    0  501    0  0.00000000000E+00  0.00000000000E+00  0.20893223499E+04  0.20893223499E+04  0.25500000920E-02 0.  1.
       -2   -1    0    0    0  501  0.00000000000E+00  0.00000000000E+00 -0.88198639186E+03  0.88198639186E+03  0.25500000920E-02 0. -1.
    10030    2    1    2    0    0  0.00000000000E+00  0.00000000000E+00  0.12073359580E+04  0.29713087417E+04  0.27149614220E+04 0.  0.
        2    1    3    3  502    0 -0.81747170052E+03 -0.58382351801E+03  0.16029186119E+04  0.18916812516E+04  0.25500000920E-02 0.  1.
       -2    1    3    3    0  502  0.81747170052E+03  0.58382351801E+03 -0.39558265390E+03  0.10796274901E+04  0.25500000920E-02 0. -1.
</event>
<event>
 5   0  0.8740500E-06  0.1732500E+04  0.7818609E-02  0.8743043E-01
        3   -1    0    0  501    0  0.00000000000E+00  0.00000000000E+00  0.11207625398E+04  0.11207625444E+04  0.10100000352E+00 0.  1.
       -3   -1    0    0    0  501  0.00000000000E+00  0.00000000000E+00 -0.66953417961E+03  0.66953418722E+03  0.10100000352E+00 0. -1.
    10030    2    1    2    0    0  0.00000000000E+00  0.00000000000E+00  0.45122836023E+03  0.17902967316E+04  0.17324997415E+04 0.  0.
        4    1    3    3  502    0 -0.85347339118E+03 -0.11467837696E+03  0.12857032023E+03  0.87068932447E+03  0.12699999809E+01 0. -1.
       -4    1    3    3    0  502  0.85347339118E+03  0.11467837696E+03  0.32265804000E+03  0.91960740714E+03  0.12699999809E+01 0.  1.
</event>
<event>
 5   0  0.1096672E-05  0.2697455E+04  0.7818609E-02  0.8335831E-01
        1   -1    0    0  501    0  0.00000000000E+00  0.00000000000E+00  0.15608671724E+04  0.15608671724E+04  0.50400001928E-02 0.  1.
       -1   -1    0    0    0  501  0.00000000000E+00  0.00000000000E+00 -0.11654198271E+04  0.11654198271E+04  0.50400001928E-02 0. -1.
    10030    2    1    2    0    0  0.00000000000E+00  0.00000000000E+00  0.39544734533E+03  0.27262869995E+04  0.26974547634E+04 0.  0.
        1    1    3    3  502    0  0.90225154447E+03 -0.37946582506E+03  0.11355498579E+04  0.14991749871E+04  0.50400001928E-02 0.  1.
       -1    1    3    3    0  502 -0.90225154447E+03  0.37946582506E+03 -0.74010251262E+03  0.12271120125E+04  0.50400001928E-02 0. -1.
</event>
<event>
 5   0  0.2540684E-05  0.2689287E+04  0.7818609E-02  0.8338489E-01
       -2   -1    0    0    0  501  0.00000000000E+00  0.00000000000E+00  0.10594102485E+04  0.10594102485E+04  0.25500000920E-02 0. -1.
        2   -1    0    0  501    0  0.00000000000E+00  0.00000000000E+00 -0.17066723819E+04  0.17066723819E+04  0.25500000920E-02 0.  1.
    10030    2    1    2    0    0  0.00000000000E+00  0.00000000000E+00 -0.64726213333E+03  0.27660826304E+04  0.26892870522E+04 0.  0.
        2    1    3    3  502    0 -0.16039325598E+03  0.92381667326E+03 -0.13149494599E+04  0.16150093884E+04  0.25500000920E-02 0.  1.
       -2    1    3    3    0  502  0.16039325598E+03 -0.92381667326E+03  0.66768732660E+03  0.11510732420E+04  0.25500000920E-02 0. -1.
</event>
<event>
 5   0  0.9971923E-06  0.2736332E+04  0.7818609E-02  0.8323312E-01
       -1   -1    0    0    0  501  0.00000000000E+00  0.00000000000E+00  0.16335218246E+04  0.16335218246E+04  0.50400001928E-02 0. -1.
        1   -1    0    0  501    0  0.00000000000E+00  0.00000000000E+00 -0.11459157410E+04  0.11459157410E+04  0.50400001928E-02 0.  1.
    10030    2    1    2    0    0  0.00000000000E+00  0.00000000000E+00  0.48760608363E+03  0.27794375656E+04  0.27363321231E+04 0.  0.
        2    1    3    3  502    0 -0.94340047200E+03 -0.96971580852E+03  0.36815677303E+02  0.13534062930E+04  0.25500000920E-02 0.  1.
       -2    1    3    3    0  502  0.94340047200E+03  0.96971580852E+03  0.45079040633E+03  0.14260312726E+04  0.25500000920E-02 0. -1.
</event>
<event>
 5   0  0.9971923E-06  0.2703080E+04  0.7818609E-02  0.8334006E-01
        1   -1    0    0  501    0  0.00000000000E+00  0.00000000000E+00  0.18173488292E+04  0.18173488292E+04  0.50400001928E-02 0.  1.
       -1   -1    0    0    0  501  0.00000000000E+00  0.00000000000E+00 -0.10051236235E+04  0.10051236235E+04  0.50400001928E-02 0. -1.
    10030    2    1    2    0    0  0.00000000000E+00  0.00000000000E+00  0.81222520574E+03  0.28224724527E+04  0.27030799029E+04 0.  0.
        2    1    3    3  502    0 -0.62612103667E+03  0.13581881814E+03 -0.83648630317E+03  0.10536525230E+04  0.25500000920E-02 0. -1.
       -2    1    3    3    0  502  0.62612103667E+03 -0.13581881814E+03  0.16487115089E+04  0.17688199296E+04  0.25500000920E-02 0.  1.
</event>
<event>
 5   0  0.1036691E-05  0.2637941E+04  0.7818609E-02  0.8355426E-01
        1   -1    0    0  501    0  0.00000000000E+00  0.00000000000E+00  0.21738329285E+04  0.21738329285E+04  0.50400001928E-02 0.  1.
       -1   -1    0    0    0  501  0.00000000000E+00  0.00000000000E+00 -0.80028390222E+03  0.80028390223E+03  0.50400001928E-02 0. -1.
    10030    2    1    2    0    0  0.00000000000E+00  0.00000000000E+00  0.13735490263E+04  0.29741168308E+04  0.26379412418E+04 0.  0.
        4    1    3    3  502    0 -0.30107293790E+03  0.15601347849E+03  0.21238482914E+04  0.21507483109E+04  0.12699999809E+01 0.  1.
       -4    1    3    3    0  502  0.30107293790E+03 -0.15601347849E+03 -0.75029926505E+03  0.82336851982E+03  0.12699999809E+01 0. -1.
</event>
<event>
 5   0  0.1036691E-05  0.2533740E+04  0.7818609E-02  0.8391063E-01
       -1   -1    0    0    0  501  0.00000000000E+00  0.00000000000E+00  0.10744305824E+04  0.10744305825E+04  0.50400001928E-02 0.  1.
        1   -1    0    0  501    0  0.00000000000E+00  0.00000000000E+00 -0.14937772093E+04  0.14937772093E+04  0.50400001928E-02 0. -1.
    10030    2    1    2    0    0  0.00000000000E+00  0.00000000000E+00 -0.41934662685E+03  0.25682077918E+04  0.25337402527E+04 0.  0.
        4    1    3    3  502    0 -0.94972143520E+03 -0.83188708891E+03 -0.31574569354E+03  0.13014237930E+04  0.12699999809E+01 0.  1.
       -4    1    3    3    0  502  0.94972143520E+03  0.83188708891E+03 -0.10360093331E+03  0.12667839987E+04  0.12699999809E+01 0. -1.
</event>
<event>
 5   0  0.1041909E-05  0.2717689E+04  0.7818609E-02  0.8329288E-01
        1   -1    0    0  501    0  0.00000000000E+00  0.00000000000E+00  0.18786219623E+04  0.18786219624E+04  0.50400001928E-02 0. -1.
       -1   -1    0    0    0  501  0.00000000000E+00  0.00000000000E+00 -0.98287915792E+03  0.98287915793E+03  0.50400001928E-02 0.  1.
    10030    2    1    2    0    0  0.00000000000E+00  0.00000000000E+00  0.89574280443E+03  0.28615011203E+04  0.27176889980E+04 0.  0.
        5    1    3    3  502    0 -0.54338586888E+03  0.91086944645E+03  0.13422219897E+04  0.17107113463E+04  0.46999998093E+01 0. -1.
       -5    1    3    3    0  502  0.54338586888E+03 -0.91086944645E+03 -0.44647918523E+03  0.11507897739E+04  0.46999998093E+01 0.  1.
</event>
<event>
 5   0  0.1005265E-05  0.2581141E+04  0.7818609E-02  0.8374636E-01
        1   -1    0    0  501    0  0.00000000000E+00  0.00000000000E+00  0.16780470856E+04  0.16780470856E+04  0.50400001928E-02 0.  1.
       -1   -1    0    0    0  501  0.00000000000E+00  0.00000000000E+00 -0.99256561051E+03  0.99256561052E+03  0.50400001928E-02 0. -1.
    10030    2    1    2    0    0  0.00000000000E+00  0.00000000000E+00  0.68548147509E+03  0.26706126961E+04  0.25811407013E+04 0.  0.
        3    1    3    3  502    0 -0.78898228266E+03  0.33413898331E+03  0.13413010975E+04  0.15916125618E+04  0.10100000352E+00 0.  1.
       -3    1    3    3    0  502  0.78898228266E+03 -0.33413898331E+03 -0.65581962242E+03  0.10790001343E+04  0.10100000352E+00 0. -1.
</event>
<event>
 5   0  0.2641216E-05  0.2730596E+04  0.7818609E-02  0.8325145E-01
       -2   -1    0    0    0  501  0.00000000000E+00  0.00000000000E+00  0.12314629601E+04  0.12314629601E+04  0.25500000920E-02 0. -1.
        2   -1    0    0  501    0  0.00000000000E+00  0.00000000000E+00 -0.15136778891E+04  0.15136778891E+04  0.25500000920E-02 0.  1.
    10030    2    1    2    0    0  0.00000000000E+00  0.00000000000E+00 -0.28221492900E+03  0.27451408492E+04  0.27305957255E+04 0.  0.
        5    1    3    3  502    0 -0.54862242662E+03  0.10958327622E+04  0.46391228440E+03  0.13103712098E+04  0.46999998093E+01 0. -1.
       -5    1    3    3    0  502  0.54862242662E+03 -0.10958327622E+04 -0.74612721340E+03  0.14347696395E+04  0.46999998093E+01 0.  1.
</event>
<event>
 5   0  0.1041909E-05  0.2735625E+04  0.7818609E-02  0.8323537E-01
       -1   -1    0    0    0  501  0.00000000000E+00  0.00000000000E+00  0.80618161673E+03  0.80618161675E+03  0.50400001928E-02 0. -1.
        1   -1    0    0  501    0  0.00000000000E+00  0.00000000000E+00 -0.23207073086E+04  0.23207073086E+04  0.50400001928E-02 0.  1.
    10030    2    1    2    0    0  0.00000000000E+00  0.00000000000E+00 -0.15145256919E+04  0.31268889254E+04  0.27356253911E+04 0.  0.
        5    1    3    3  502    0  0.80025758623E+03  0.34683394476E+03  0.44708852301E+03  0.98011031367E+03  0.46999998093E+01 0. -1.
       -5    1    3    3    0  502 -0.80025758623E+03 -0.34683394476E+03 -0.19616142149E+04  0.21467786117E+04  0.46999998093E+01 0.  1.
</event>
<event>
 5   0  0.2540232E-05  0.2692689E+04  0.7818609E-02  0.8337381E-01
       -2   -1    0    0    0  501  0.00000000000E+00  0.00000000000E+00  0.11572681885E+04  0.11572681885E+04  0.25500000920E-02 0. -1.
        2   -1    0    0  501    0  0.00000000000E+00  0.00000000000E+00 -0.15663121984E+04  0.15663121984E+04  0.25500000920E-02 0.  1.
    10030    2    1    2    0    0  0.00000000000E+00  0.00000000000E+00 -0.40904400990E+03  0.27235803870E+04  0.26926888276E+04 0.  0.
        1    1    3    3  502    0 -0.78556204824E+03  0.10931946072E+04 -0.18280242187E+03  0.13585282133E+04  0.50400001928E-02 0. -1.
       -1    1    3    3    0  502  0.78556204824E+03 -0.10931946072E+04 -0.22624158803E+03  0.13650521737E+04  0.50400001928E-02 0.  1.
</event>
<event>
 5   0  0.1005265E-05  0.2624764E+04  0.7818609E-02  0.8359838E-01
       -1   -1    0    0    0  501  0.00000000000E+00  0.00000000000E+00  0.71115188067E+03  0.71115188069E+03  0.50400001928E-02 0. -1.
        1   -1    0    0  501    0  0.00000000000E+00  0.00000000000E+00 -0.24219112391E+04  0.24219112391E+04  0.50400001928E-02 0.  1.
    10030    2    1    2    0    0  0.00000000000E+00  0.00000000000E+00 -0.17107593585E+04  0.31330631198E+04  0.26247641666E+04 0.  0.
        3    1    3    3  502    0  0.68761739448E+03 -0.11792582440E+03 -0.21822294912E+04  0.22910368272E+04  0.10100000352E+00 0.  1.
       -3    1    3    3    0  502 -0.68761739448E+03  0.11792582440E+03  0.47147013271E+03  0.84202629263E+03  0.10100000352E+00 0. -1.
</event>
<event>
 5   0  0.9971923E-06  0.2707882E+04  0.7818609E-02  0.8332452E-01
       -1   -1    0    0    0  501  0.00000000000E+00  0.00000000000E+00  0.12829439867E+04  0.12829439867E+04  0.50400001928E-02 0. -1.
        1   -1    0    0  501    0  0.00000000000E+00  0.00000000000E+00 -0.14288671244E+04  0.14288671244E+04  0.50400001928E-02 0.  1.
    10030    2    1    2    0    0  0.00000000000E+00  0.00000000000E+00 -0.14592313774E+03  0.27118111111E+04  0.27078821873E+04 0.  0.
        2    1    3    3  502    0  0.22284375882E+03 -0.12916321753E+04  0.26691775481E+03  0.13376165762E+04  0.25500000920E-02 0. -1.
       -2    1    3    3    0  502 -0.22284375882E+03  0.12916321753E+04 -0.41284089255E+03  0.13741945349E+04  0.25500000920E-02 0.  1.
</event>
<event>
 5   0  0.2540232E-05  0.2731218E+04  0.7818609E-02  0.8324946E-01
        2   -1    0    0  501    0  0.00000000000E+00  0.00000000000E+00  0.10524381396E+04  0.10524381396E+04  0.25500000920E-02 0.  1.
       -2   -1    0    0    0  501  0.00000000000E+00  0.00000000000E+00 -0.17719693251E+04  0.17719693251E+04  0.25500000920E-02 0. -1.
    10030    2    1    2    0    0  0.00000000000E+00  0.00000000000E+00 -0.71953118550E+03  0.28244074648E+04  0.27312181166E+04 0.  0.
        1    1    3    3  502    0  0.22546297008E+03  0.10810398723E+04  0.47101801228E+03  0.12005576722E+04  0.50400001928E-02 0.  1.
       -1    1    3    3    0  502 -0.22546297008E+03 -0.10810398723E+04 -0.11905491978E+04  0.16238497926E+04  0.50400001928E-02 0. -1.
</event>
<event>
 5   0  0.2615843E-05  0.2689349E+04  0.7818609E-02  0.8338469E-01
        2   -1    0    0  501    0  0.00000000000E+00  0.00000000000E+00  0.13028272780E+04  0.13028272780E+04  0.25500000920E-02 0. -1.
       -2   -1    0    0    0  501  0.00000000000E+00  0.00000000000E+00 -0.13878657338E+04  0.13878657338E+04  0.25500000920E-02 0.  1.
    10030    2    1    2    0    0  0.00000000000E+00  0.00000000000E+00 -0.85038455820E+02  0.26906930118E+04  0.26893488700E+04 0.  0.
        3    1    3    3  502    0 -0.11062681598E+04 -0.66470069238E+03  0.33515198674E+03  0.13334103330E+04  0.10100000352E+00 0. -1.
       -3    1    3    3    0  502  0.11062681598E+04  0.66470069238E+03 -0.42019044256E+03  0.13572826788E+04  0.10100000352E+00 0.  1.
</event>
<event>
 5   0  0.2540232E-05  0.2640817E+04  0.7818609E-02  0.8354467E-01
       -2   -1    0    0    0  501  0.00000000000E+00  0.00000000000E+00  0.14569019749E+04  0.14569019749E+04  0.25500000920E-02 0. -1.
        2   -1    0    0  501    0  0.00000000000E+00  0.00000000000E+00 -0.11967025041E+04  0.11967025041E+04  0.25500000920E-02 0.  1.
    10030    2    1    2    0    0  0.00000000000E+00  0.00000000000E+00  0.26019947080E+03  0.26536044790E+04  0.26408167234E+04 0.  0.
        1    1    3    3  502    0  0.61736637939E+03 -0.11649419707E+04  0.20288806297E+03  0.13339395067E+04  0.50400001928E-02 0.  1.
       -1    1    3    3    0  502 -0.61736637939E+03  0.11649419707E+04  0.57311407829E+02  0.13196649723E+04  0.50400001928E-02 0. -1.
</event>
<event>
 5   0  0.2615843E-05  0.2763534E+04  0.7818609E-02  0.8314680E-01
        2   -1    0    0  501    0  0.00000000000E+00  0.00000000000E+00  0.20111159129E+04  0.20111159129E+04  0.25500000920E-02 0. -1.
       -2   -1    0    0    0  501  0.00000000000E+00  0.00000000000E+00 -0.94936363487E+03  0.94936363487E+03  0.25500000920E-02 0.  1.
    10030    2    1    2    0    0  0.00000000000E+00  0.00000000000E+00  0.10617522781E+04  0.29604795478E+04  0.27635341961E+04 0.  0.
        3    1    3    3  502    0  0.38982638502E+03 -0.13255875427E+04  0.51850502488E+03  0.14758029729E+04  0.10100000352E+00 0. -1.
       -3    1    3    3    0  502 -0.38982638502E+03  0.13255875427E+04  0.54324725319E+03  0.14846765749E+04  0.10100000352E+00 0.  1.
</event>
<event>
 5   0  0.2540684E-05  0.2707196E+04  0.7818609E-02  0.8332674E-01
        2   -1    0    0  501    0  0.00000000000E+00  0.00000000000E+00  0.15890619740E+04  0.15890619740E+04  0.25500000920E-02 0.  1.
       -2   -1    0    0    0  501  0.00000000000E+00  0.00000000000E+00 -0.11530250080E+04  0.11530250080E+04  0.25500000920E-02 0. -1.
    10030    2    1    2    0    0  0.00000000000E+00  0.00000000000E+00  0.43603696599E+03  0.27420869820E+04  0.27071964799E+04 0.  0.
        2    1    3    3  502    0 -0.12162442286E+04  0.14475481694E+03 -0.36562323783E+03  0.12782348504E+04  0.25500000920E-02 0. -1.
       -2    1    3    3    0  502  0.12162442286E+04 -0.14475481694E+03  0.80166020383E+03  0.14638521316E+04  0.25500000920E-02 0.  1.
</event>
<event>
 5   0  0.2540232E-05  0.2670390E+04  0.7818609E-02  0.8344677E-01
        2   -1    0    0  501    0  0.00000000000E+00  0.00000000000E+00  0.80055963518E+03  0.80055963519E+03  0.25500000920E-02 0. -1.
       -2   -1    0    0    0  501  0.00000000000E+00  0.00000000000E+00 -0.22268745191E+04  0.22268745191E+04  0.25500000920E-02 0.  1.
    10030    2    1    2    0    0  0.00000000000E+00  0.00000000000E+00 -0.14263148839E+04  0.30274341543E+04  0.26703901233E+04 0.  0.
        1    1    3    3  502    0  0.58481037012E+03  0.11185915596E+04 -0.12066715424E+04  0.17462263477E+04  0.50400001928E-02 0. -1.
       -1    1    3    3    0  502 -0.58481037012E+03 -0.11185915596E+04 -0.21964334147E+03  0.12812078066E+04  0.50400001928E-02 0.  1.
</event>
<event>
 5   0  0.1041909E-05  0.2736096E+04  0.7818609E-02  0.8323387E-01
       -1   -1    0    0    0  501  0.00000000000E+00  0.00000000000E+00  0.10349118008E+04  0.10349118008E+04  0.50400001928E-02 0. -1.
        1   -1    0    0  501    0  0.00000000000E+00  0.00000000000E+00 -0.18084203977E+04  0.18084203977E+04  0.50400001928E-02 0.  1.
    10030    2    1    2    0    0  0.00000000000E+00  0.00000000000E+00 -0.77350859690E+03  0.28433321986E+04  0.27360962048E+04 0.  0.
        5    1    3    3  502    0  0.13456934028E+03  0.12587239568E+04  0.15226404847E+03  0.12750299358E+04  0.46999998093E+01 0. -1.
       -5    1    3    3    0  502 -0.13456934028E+03 -0.12587239568E+04 -0.92577264537E+03  0.15683022628E+04  0.46999998093E+01 0.  1.
</event>
<event>
 5   0  0.1041909E-05  0.2240239E+04  0.7818609E-02  0.8501864E-01
       -1   -1    0    0    0  501  0.00000000000E+00  0.00000000000E+00  0.82229836985E+03  0.82229836986E+03  0.50400001928E-02 0.  1.
        1   -1    0    0  501    0  0.00000000000E+00  0.00000000000E+00 -0.15258061406E+04  0.15258061406E+04  0.50400001928E-02 0. -1.
    10030    2    1    2    0    0  0.00000000000E+00  0.00000000000E+00 -0.70350777074E+03  0.23481045104E+04  0.22402391856E+04 0.  0.
        5    1    3    3  502    0  0.70407823388E+03 -0.61940163416E+03  0.29032724106E+03  0.98168046774E+03  0.46999998093E+01 0.  1.
       -5    1    3    3    0  502 -0.70407823388E+03  0.61940163416E+03 -0.99383501180E+03  0.13664240427E+04  0.46999998093E+01 0. -1.
</event>
<event>
 5   0  0.2540684E-05  0.2680120E+04  0.7818609E-02  0.8341484E-01
       -2   -1    0    0    0  501  0.00000000000E+00  0.00000000000E+00  0.72215570282E+03  0.72215570283E+03  0.25500000920E-02 0.  1.
        2   -1    0    0  501    0  0.00000000000E+00  0.00000000000E+00 -0.24866673146E+04  0.24866673146E+04  0.25500000920E-02 0. -1.
    10030    2    1    2    0    0  0.00000000000E+00  0.00000000000E+00 -0.17645116117E+04  0.32088230174E+04  0.26801201333E+04 0.  0.
        2    1    3    3  502    0  0.49049723932E+03 -0.79156401330E+03 -0.20359901170E+04  0.22388427559E+04  0.25500000920E-02 0. -1.
       -2    1    3    3    0  502 -0.49049723932E+03  0.79156401330E+03  0.27147850526E+03  0.96998026153E+03  0.25500000920E-02 0.  1.
</event>
<event>
 5   0  0.1005265E-05  0.2748831E+04  0.7818609E-02  0.8319333E-01
       -1   -1    0    0    0  501  0.00000000000E+00  0.00000000000E+00  0.22916814080E+04  0.22916814080E+04  0.50400001928E-02 0. -1.
        1   -1    0    0  501    0  0.00000000000E+00  0.00000000000E+00 -0.82429331994E+03  0.82429331996E+03  0.50400001928E-02 0.  1.
    10030    2    1    2    0    0  0.00000000000E+00  0.00000000000E+00  0.14673880881E+04  0.31159747280E+04  0.27488307886E+04 0.  0.
        3    1    3    3  502    0  0.51496223398E+03  0.44608981396E+03  0.20867889990E+04  0.21951926022E+04  0.10100000352E+00 0. -1.
       -3    1    3    3    0  502 -0.51496223398E+03 -0.44608981396E+03 -0.61940091086E+03  0.92078212576E+03  0.10100000352E+00 0.  1.
</event>
<event>
 5   0  0.1041909E-05  0.2724034E+04  0.7818609E-02  0.8327249E-01
        1   -1    0    0  501    0  0.00000000000E+00  0.00000000000E+00  0.12611877480E+04  0.12611877480E+04  0.50400001928E-02 0.  1.
       -1   -1    0    0    0  501  0.00000000000E+00  0.00000000000E+00 -0.14709067986E+04  0.14709067986E+04  0.50400001928E-02 0. -1.
    10030    2    1    2    0    0  0.00000000000E+00  0.00000000000E+00 -0.20971905058E+03  0.27320945466E+04  0.27240335041E+04 0.  0.
        5    1    3    3  502    0 -0.10954715805E+03 -0.12322511428E+04  0.46658443682E+03  0.13221825083E+04  0.46999998093E+01 0.  1.
       -5    1    3    3    0  502  0.10954715805E+03  0.12322511428E+04 -0.67630348740E+03  0.14099120383E+04  0.46999998093E+01 0. -1.
</event>
<event>
 5   0  0.2641216E-05  0.2755304E+04  0.7818609E-02  0.8317281E-01
       -2   -1    0    0    0  501  0.00000000000E+00  0.00000000000E+00  0.11745477695E+04  0.11745477695E+04  0.25500000920E-02 0. -1.
        2   -1    0    0  501    0  0.00000000000E+00  0.00000000000E+00 -0.16158767674E+04  0.16158767674E+04  0.25500000920E-02 0.  1.
    10030    2    1    2    0    0  0.00000000000E+00  0.00000000000E+00 -0.44132899783E+03  0.27904245369E+04  0.27553035789E+04 0.  0.
        5    1    3    3  502    0 -0.13980535889E+03  0.27829567484E+03  0.11384205369E+04  0.11802615938E+04  0.46999998093E+01 0. -1.
       -5    1    3    3    0  502  0.13980535889E+03 -0.27829567484E+03 -0.15797495347E+04  0.16101629431E+04  0.46999998093E+01 0.  1.
</event>
<event>
 5   0  0.2615843E-05  0.2704282E+04  0.7818609E-02  0.8333617E-01
        2   -1    0    0  501    0  0.00000000000E+00  0.00000000000E+00  0.16494669234E+04  0.16494669234E+04  0.25500000920E-02 0. -1.
       -2   -1    0    0    0  501  0.00000000000E+00  0.00000000000E+00 -0.11084098900E+04  0.11084098900E+04  0.25500000920E-02 0.  1.
    10030    2    1    2    0    0  0.00000000000E+00  0.00000000000E+00  0.54105703336E+03  0.27578768133E+04  0.27042821236E+04 0.  0.
        3    1    3    3  502    0 -0.22432242170E+03 -0.21378100147E+01 -0.10892992303E+04  0.11121591354E+04  0.10100000352E+00 0.  1.
       -3    1    3    3    0  502  0.22432242170E+03  0.21378100147E+01  0.16303562636E+04  0.16457176780E+04  0.10100000352E+00 0. -1.
</event>
<event>
 5   0  0.1041909E-05  0.2267090E+04  0.7818609E-02  0.8491011E-01
       -1   -1    0    0    0  501  0.00000000000E+00  0.00000000000E+00  0.61881070939E+03  0.61881070941E+03  0.50400001928E-02 0. -1.
        1   -1    0    0  501    0  0.00000000000E+00  0.00000000000E+00 -0.20764409790E+04  0.20764409790E+04  0.50400001928E-02 0.  1.
    10030    2    1    2    0    0  0.00000000000E+00  0.00000000000E+00 -0.14576302696E+04  0.26952516884E+04  0.22670896897E+04 0.  0.
        5    1    3    3  502    0  0.28076420664E+03 -0.91992519854E+02  0.57221828288E+03  0.64400855328E+03  0.46999998093E+01 0. -1.
       -5    1    3    3    0  502 -0.28076420664E+03  0.91992519854E+02 -0.20298485525E+04  0.20512431351E+04  0.46999998093E+01 0.  1.
</event>
<event>
 5   0  0.2540684E-05  0.2609378E+04  0.7818609E-02  0.8365023E-01
        2   -1    0    0  501    0  0.00000000000E+00  0.00000000000E+00  0.17528176588E+04  0.17528176588E+04  0.25500000920E-02 0.  1.
       -2   -1    0    0    0  501  0.00000000000E+00  0.00000000000E+00 -0.97112995222E+03  0.97112995223E+03  0.25500000920E-02 0. -1.
    10030    2    1    2    0    0  0.00000000000E+00  0.00000000000E+00  0.78168770659E+03  0.27239476110E+04  0.26093782625E+04 0.  0.
        2    1    3    3  502    0  0.11741718696E+04 -0.37073583704E+03  0.84116481735E+03  0.14912018275E+04  0.25500000920E-02 0.  1.
       -2    1    3    3    0  502 -0.11741718696E+04  0.37073583704E+03 -0.59477110761E+02  0.12327457836E+04  0.25500000920E-02 0. -1.
</event>
<event>
 5   0  0.1096672E-05  0.2711157E+04  0.7818609E-02  0.8331394E-01
        1   -1    0    0  501    0  0.00000000000E+00  0.00000000000E+00  0.18153044045E+04  0.18153044045E+04  0.50400001928E-02 0. -1.
       -1   -1    0    0    0  501  0.00000000000E+00  0.00000000000E+00 -0.10122784387E+04  0.10122784387E+04  0.50400001928E-02 0.  1.
    10030    2    1    2    0    0  0.00000000000E+00  0.00000000000E+00  0.80302596584E+03  0.28275828432E+04  0.27111573236E+04 0.  0.
        1    1    3    3  502    0  0.27505591077E+03 -0.93681211304E+03 -0.57925333574E+03  0.11352564099E+04  0.50400001928E-02 0.  1.
       -1    1    3    3    0  502 -0.27505591077E+03  0.93681211304E+03  0.13822793016E+04  0.16923264333E+04  0.50400001928E-02 0. -1.
</event>
<event>
 5   0  0.2540232E-05  0.2715950E+04  0.7818609E-02  0.8329848E-01
       -2   -1    0    0    0  501  0.00000000000E+00  0.00000000000E+00  0.94697430342E+03  0.94697430342E+03  0.25500000920E-02 0.  1.
        2   -1    0    0  501    0  0.00000000000E+00  0.00000000000E+00 -0.19473556338E+04  0.19473556338E+04  0.25500000920E-02 0. -1.
    10030    2    1    2    0    0  0.00000000000E+00  0.00000000000E+00 -0.10003813303E+04  0.28943299372E+04  0.27159497380E+04 0.  0.
        1    1    3    3  502    0 -0.37981443925E+03  0.36583123836E+03  0.83340070113E+03  0.98622929985E+03  0.50400001928E-02 0.  1.
       -1    1    3    3    0  502  0.37981443925E+03 -0.36583123836E+03 -0.18337820315E+04  0.19081006373E+04  0.50400001928E-02 0. -1.
</event>
<event>
 5   0  0.9971923E-06  0.2701432E+04  0.7818609E-02  0.8334541E-01
        1   -1    0    0  501    0  0.00000000000E+00  0.00000000000E+00  0.65048217159E+03  0.65048217161E+03  0.50400001928E-02 0. -1.
       -1   -1    0    0    0  501  0.00000000000E+00  0.00000000000E+00 -0.28047403648E+04  0.28047403648E+04  0.50400001928E-02 0.  1.
    10030    2    1    2    0    0  0.00000000000E+00  0.00000000000E+00 -0.21542581932E+04  0.34552225364E+04  0.27014319190E+04 0.  0.
        2    1    3    3  502    0  0.91481302372E+03 -0.99105060027E+03 -0.98340600671E+03  0.16691769034E+04  0.25500000920E-02 0. -1.
       -2    1    3    3    0  502 -0.91481302372E+03  0.99105060027E+03 -0.11708521865E+04  0.17860456330E+04  0.25500000920E-02 0.  1.
</event>
<event>
 5   0  0.1005265E-05  0.2705981E+04  0.7818609E-02  0.8333067E-01
        1   -1    0    0  501    0  0.00000000000E+00  0.00000000000E+00  0.19713289658E+04  0.19713289658E+04  0.50400001928E-02 0. -1.
       -1   -1    0    0    0  501  0.00000000000E+00  0.00000000000E+00 -0.92860364116E+03  0.92860364117E+03  0.50400001928E-02 0.  1.
    10030    2    1    2    0    0  0.00000000000E+00  0.00000000000E+00  0.10427253246E+04  0.28999326070E+04  0.27059809723E+04 0.  0.
        3    1    3    3  502    0  0.11955317721E+03 -0.56619932838E+03  0.18320124537E+04  0.19212350930E+04  0.10100000352E+00 0. -1.
       -3    1    3    3    0  502 -0.11955317721E+03  0.56619932838E+03 -0.78928712907E+03  0.97869751403E+03  0.10100000352E+00 0.  1.
</event>
<event>
 5   0  0.1041909E-05  0.2697461E+04  0.7818609E-02  0.8335829E-01
       -1   -1    0    0    0  501  0.00000000000E+00  0.00000000000E+00  0.19369453563E+04  0.19369453563E+04  0.50400001928E-02 0. -1.
        1   -1    0    0  501    0  0.00000000000E+00  0.00000000000E+00 -0.93914540611E+03  0.93914540613E+03  0.50400001928E-02 0.  1.
    10030    2    1    2    0    0  0.00000000000E+00  0.00000000000E+00  0.99779995017E+03  0.28760907624E+04  0.26974605341E+04 0.  0.
        5    1    3    3  502    0  0.13299013618E+04  0.22412434140E+03  0.51327977287E+03  0.14430341534E+04  0.46999998093E+01 0.  1.
       -5    1    3    3    0  502 -0.13299013618E+04 -0.22412434140E+03  0.48452017730E+03  0.14330566091E+04  0.46999998093E+01 0. -1.
</event>
<event>
 5   0  0.9971923E-06  0.2531863E+04  0.7818609E-02  0.8391721E-01
        1   -1    0    0  501    0  0.00000000000E+00  0.00000000000E+00  0.13939903661E+04  0.13939903661E+04  0.50400001928E-02 0. -1.
       -1   -1    0    0    0  501  0.00000000000E+00  0.00000000000E+00 -0.11496366976E+04  0.11496366976E+04  0.50400001928E-02 0.  1.
    10030    2    1    2    0    0  0.00000000000E+00  0.00000000000E+00  0.24435366849E+03  0.25436270637E+04  0.25318629355E+04 0.  0.
        2    1    3    3  502    0 -0.84348756323E+03 -0.25094087889E+03  0.10364271046E+04  0.13596410325E+04  0.25500000920E-02 0. -1.
       -2    1    3    3    0  502  0.84348756323E+03  0.25094087889E+03 -0.79207343613E+03  0.11839860313E+04  0.25500000920E-02 0.  1.
</event>
<event>
 5   0  0.2516518E-05  0.2739195E+04  0.7818609E-02  0.8322399E-01
       -2   -1    0    0    0  501  0.00000000000E+00  0.00000000000E+00  0.91154411625E+03  0.91154411625E+03  0.25500000920E-02 0.  1.
        2   -1    0    0  501    0  0.00000000000E+00  0.00000000000E+00 -0.20578233124E+04  0.20578233124E+04  0.25500000920E-02 0. -1.
    10030    2    1    2    0    0  0.00000000000E+00  0.00000000000E+00 -0.11462791961E+04  0.29693674286E+04  0.27391945770E+04 0.  0.
        4    1    3    3  502    0 -0.23822297182E+03 -0.61354738849E+03  0.72887155414E+03  0.98206208437E+03  0.12699999809E+01 0.  1.
       -4    1    3    3    0  502  0.23822297182E+03  0.61354738849E+03 -0.18751507502E+04  0.19873053442E+04  0.12699999809E+01 0. -1.
</event>
<event>
 5   0  0.1036691E-05  0.2722030E+04  0.7818609E-02  0.8327892E-01
        1   -1    0    0  501    0  0.00000000000E+00  0.00000000000E+00  0.20493150906E+04  0.20493150906E+04  0.50400001928E-02 0.  1.
       -1   -1    0    0    0  501  0.00000000000E+00  0.00000000000E+00 -0.90389287426E+03  0.90389287427E+03  0.50400001928E-02 0. -1.
    10030    2    1    2    0    0  0.00000000000E+00  0.00000000000E+00  0.11454222163E+04  0.29532079648E+04  0.27220296159E+04 0.  0.
        4    1    3    3  502    0 -0.30841768644E+03 -0.73667059970E+03  0.17683766573E+04  0.19403511684E+04  0.12699999809E+01 0.  1.
       -4    1    3    3    0  502  0.30841768644E+03  0.73667059970E+03 -0.62295444094E+03  0.10128567965E+04  0.12699999809E+01 0. -1.
</event>
<event>
 5   0  0.1041909E-05  0.2672875E+04  0.7818609E-02  0.8343860E-01
       -1   -1    0    0    0  501  0.00000000000E+00  0.00000000000E+00  0.72040112886E+03  0.72040112888E+03  0.50400001928E-02 0. -1.
        1   -1    0    0  501    0  0.00000000000E+00  0.00000000000E+00 -0.24792656405E+04  0.24792656405E+04  0.50400001928E-02 0.  1.
    10030    2    1    2    0    0  0.00000000000E+00  0.00000000000E+00 -0.17588645117E+04  0.31996667694E+04  0.26728754301E+04 0.  0.
        5    1    3    3  502    0 -0.50315714327E+02  0.43571398332E+03  0.63177696349E+03  0.76911804554E+03  0.46999998093E+01 0. -1.
       -5    1    3    3    0  502  0.50315714327E+02 -0.43571398332E+03 -0.23906414752E+04  0.24305487239E+04  0.46999998093E+01 0.  1.
</event>
<event>
 5   0  0.9971923E-06  0.2641249E+04  0.7818609E-02  0.8354323E-01
       -1   -1    0    0    0  501  0.00000000000E+00  0.00000000000E+00  0.73085822709E+03  0.73085822711E+03  0.50400001928E-02 0. -1.
        1   -1    0    0  501    0  0.00000000000E+00  0.00000000000E+00 -0.23863032227E+04  0.23863032227E+04  0.50400001928E-02 0.  1.
    10030    2    1    2    0    0  0.00000000000E+00  0.00000000000E+00 -0.16554449956E+04  0.31171614498E+04  0.26412492065E+04 0.  0.
        2    1    3    3  502    0 -0.11023978433E+04 -0.24366831641E+03 -0.16362945485E+04  0.19879927321E+04  0.25500000920E-02 0.  1.
       -2    1    3    3    0  502  0.11023978433E+04  0.24366831641E+03 -0.19150447094E+02  0.11291687177E+04  0.25500000920E-02 0. -1.
</event>
<event>
 5   0  0.2540232E-05  0.2720830E+04  0.7818609E-02  0.8328278E-01
       -2   -1    0    0    0  501  0.00000000000E+00  0.00000000000E+00  0.98559561090E+03  0.98559561091E+03  0.25500000920E-02 0.  1.
        2   -1    0    0  501    0  0.00000000000E+00  0.00000000000E+00 -0.18777771571E+04  0.18777771571E+04  0.25500000920E-02 0. -1.
    10030    2    1    2    0    0  0.00000000000E+00  0.00000000000E+00 -0.89218154618E+03  0.28633727680E+04  0.27208299648E+04 0.  0.
        1    1    3    3  502    0 -0.42745437100E+03  0.10774533960E+04 -0.11955116805E+04  0.16651940542E+04  0.50400001928E-02 0. -1.
       -1    1    3    3    0  502  0.42745437100E+03 -0.10774533960E+04  0.30333013434E+03  0.11981787138E+04  0.50400001928E-02 0.  1.
</event>
<event>
 5   0  0.2615843E-05  0.2588008E+04  0.7818609E-02  0.8372286E-01
       -2   -1    0    0    0  501  0.00000000000E+00  0.00000000000E+00  0.71410458308E+03  0.71410458308E+03  0.25500000920E-02 0. -1.
        2   -1    0    0  501    0  0.00000000000E+00  0.00000000000E+00 -0.23448192626E+04  0.23448192626E+04  0.25500000920E-02 0.  1.
    10030    2    1    2    0    0  0.00000000000E+00  0.00000000000E+00 -0.16307146795E+04  0.30589238456E+04  0.25880078685E+04 0.  0.
        3    1    3    3  502    0 -0.19306059252E+03  0.92799551688E+03 -0.18565555227E+04  0.20845254834E+04  0.10100000352E+00 0.  1.
       -3    1    3    3    0  502  0.19306059252E+03 -0.92799551688E+03  0.22584084322E+03  0.97439836227E+03  0.10100000352E+00 0. -1.
</event>
<event>
 5   0  0.2615843E-05  0.2684508E+04  0.7818609E-02  0.8340049E-01
       -2   -1    0    0    0  501  0.00000000000E+00  0.00000000000E+00  0.10596738170E+04  0.10596738170E+04  0.25500000920E-02 0. -1.
        2   -1    0    0  501    0  0.00000000000E+00  0.00000000000E+00 -0.17001890132E+04  0.17001890132E+04  0.25500000920E-02 0.  1.
    10030    2    1    2    0    0  0.00000000000E+00  0.00000000000E+00 -0.64051519615E+03  0.27598628302E+04  0.26845079857E+04 0.  0.
        3    1    3    3  502    0 -0.11968175168E+04 -0.53534542004E+03 -0.24646932137E+02  0.13113254244E+04  0.10100000352E+00 0.  1.
       -3    1    3    3    0  502  0.11968175168E+04  0.53534542004E+03 -0.61586826401E+03  0.14485374058E+04  0.10100000352E+00 0. -1.
</event>
<event>
 5   0  0.1036691E-05  0.1754457E+04  0.7818609E-02  0.8730901E-01
       -1   -1    0    0    0  501  0.00000000000E+00  0.00000000000E+00  0.42832191915E+03  0.42832191918E+03  0.50400001928E-02 0.  1.
        1   -1    0    0  501    0  0.00000000000E+00  0.00000000000E+00 -0.17966150374E+04  0.17966150374E+04  0.50400001928E-02 0. -1.
    10030    2    1    2    0    0  0.00000000000E+00  0.00000000000E+00 -0.13682931183E+04  0.22249369566E+04  0.17544567260E+04 0.  0.
        4    1    3    3  502    0  0.18313324187E+03 -0.88440578817E+02  0.39801221067E+03  0.44696180262E+03  0.12699999809E+01 0.  1.
       -4    1    3    3    0  502 -0.18313324187E+03  0.88440578817E+02 -0.17663053290E+04  0.17779751540E+04  0.12699999809E+01 0. -1.
</event>
<event>
 5   0  0.2540232E-05  0.1842543E+04  0.7818609E-02  0.8683997E-01
        2   -1    0    0  501    0  0.00000000000E+00  0.00000000000E+00  0.76867106785E+03  0.76867106785E+03  0.25500000920E-02 0.  1.
       -2   -1    0    0    0  501  0.00000000000E+00  0.00000000000E+00 -0.11041667560E+04  0.11041667560E+04  0.25500000920E-02 0. -1.
    10030    2    1    2    0    0  0.00000000000E+00  0.00000000000E+00 -0.33549568812E+03  0.18728378238E+04  0.18425428509E+04 0.  0.
        1    1    3    3  502    0 -0.62379309130E+03  0.50256639820E+03  0.29476142189E+03  0.85356610828E+03  0.50400001928E-02 0.  1.
       -1    1    3    3    0  502  0.62379309130E+03 -0.50256639820E+03 -0.63025711001E+03  0.10192717155E+04  0.50400001928E-02 0. -1.
</event>
<event>
 5   0  0.9971923E-06  0.2603950E+04  0.7818609E-02  0.8366861E-01
       -1   -1    0    0    0  501  0.00000000000E+00  0.00000000000E+00  0.96298412296E+03  0.96298412297E+03  0.50400001928E-02 0.  1.
        1   -1    0    0  501    0  0.00000000000E+00  0.00000000000E+00 -0.17602980699E+04  0.17602980699E+04  0.50400001928E-02 0. -1.
    10030    2    1    2    0    0  0.00000000000E+00  0.00000000000E+00 -0.79731394695E+03  0.27232821929E+04  0.26039501478E+04 0.  0.
        2    1    3    3  502    0  0.89788383682E+03  0.84395097096E+03  0.40951991418E+02  0.12329337741E+04  0.25500000920E-02 0. -1.
       -2    1    3    3    0  502 -0.89788383682E+03 -0.84395097096E+03 -0.83826593837E+03  0.14903484187E+04  0.25500000920E-02 0.  1.
</event>
<event>
 5   0  0.1096672E-05  0.2733852E+04  0.7818609E-02  0.8324104E-01
       -1   -1    0    0    0  501  0.00000000000E+00  0.00000000000E+00  0.91161811903E+03  0.91161811904E+03  0.50400001928E-02 0.  1.
        1   -1    0    0  501    0  0.00000000000E+00  0.00000000000E+00 -0.20496369571E+04  0.20496369571E+04  0.50400001928E-02 0. -1.
    10030    2    1    2    0    0  0.00000000000E+00  0.00000000000E+00 -0.11380188380E+04  0.29612550761E+04  0.27338516328E+04 0.  0.
        1    1    3    3  502    0  0.62879831062E+03  0.96978622779E+03  0.22149987420E+03  0.11768325443E+04  0.50400001928E-02 0. -1.
       -1    1    3    3    0  502 -0.62879831062E+03 -0.96978622779E+03 -0.13595187122E+04  0.17844225318E+04  0.50400001928E-02 0.  1.
</event>
<event>
 5   0  0.1041909E-05  0.2759285E+04  0.7818609E-02  0.8316021E-01
        1   -1    0    0  501    0  0.00000000000E+00  0.00000000000E+00  0.17771287337E+04  0.17771287337E+04  0.50400001928E-02 0.  1.
       -1   -1    0    0    0  501  0.00000000000E+00  0.00000000000E+00 -0.10710612455E+04  0.10710612455E+04  0.50400001928E-02 0. -1.
    10030    2    1    2    0    0  0.00000000000E+00  0.00000000000E+00  0.70606748816E+03  0.28481899792E+04  0.27592852081E+04 0.  0.
        5    1    3    3  502    0  0.61522895063E+03  0.53970380291E+03 -0.79343014768E+03  0.11398861109E+04  0.46999998093E+01 0. -1.
       -5    1    3    3    0  502 -0.61522895063E+03 -0.53970380291E+03  0.14994976358E+04  0.17083038683E+04  0.46999998093E+01 0.  1.
</event>
<event>
 5   0  0.2540684E-05  0.2400873E+04  0.7818609E-02  0.8439177E-01
       -2   -1    0    0    0  501  0.00000000000E+00  0.00000000000E+00  0.16222034983E+04  0.16222034983E+04  0.25500000920E-02 0.  1.
        2   -1    0    0  501    0  0.00000000000E+00  0.00000000000E+00 -0.88832705842E+03  0.88832705842E+03  0.25500000920E-02 0. -1.
    10030    2    1    2    0    0  0.00000000000E+00  0.00000000000E+00  0.73387643988E+03  0.25105305567E+04  0.24008725595E+04 0.  0.
        2    1    3    3  502    0  0.15380680883E+03 -0.11077514239E+04  0.82306979184E+03  0.13886013229E+04  0.25500000920E-02 0.  1.
       -2    1    3    3    0  502 -0.15380680883E+03  0.11077514239E+04 -0.89193351966E+02  0.11219292338E+04  0.25500000920E-02 0. -1.
</event>
<event>
 5   0  0.2540232E-05  0.2730484E+04  0.7818609E-02  0.8325181E-01
       -2   -1    0    0    0  501  0.00000000000E+00  0.00000000000E+00  0.10746269145E+04  0.10746269145E+04  0.25500000920E-02 0. -1.
        2   -1    0    0  501    0  0.00000000000E+00  0.00000000000E+00 -0.17344493751E+04  0.17344493751E+04  0.25500000920E-02 0.  1.
    10030    2    1    2    0    0  0.00000000000E+00  0.00000000000E+00 -0.65982246059E+03  0.28090762897E+04  0.27304841918E+04 0.  0.
        1    1    3    3  502    0 -0.10454434844E+04 -0.58627666285E+03 -0.10023401607E+04  0.15624846246E+04  0.50400001928E-02 0.  1.
       -1    1    3    3    0  502  0.10454434844E+04  0.58627666285E+03  0.34251770010E+03  0.12465916650E+04  0.50400001928E-02 0. -1.
</event>
<event>
 5   0  0.2615843E-05  0.2366602E+04  0.7818609E-02  0.8452114E-01
       -2   -1    0    0    0  501  0.00000000000E+00  0.00000000000E+00  0.12203666786E+04  0.12203666786E+04  0.25500000920E-02 0. -1.
        2   -1    0    0  501    0  0.00000000000E+00  0.00000000000E+00 -0.11473609943E+04  0.11473609943E+04  0.25500000920E-02 0.  1.
    10030    2    1    2    0    0  0.00000000000E+00  0.00000000000E+00  0.73005684304E+02  0.23677276728E+04  0.23666018894E+04 0.  0.
        3    1    3    3  502    0 -0.35042425222E+02 -0.11332258845E+04  0.37544451561E+03  0.11943146451E+04  0.10100000352E+00 0.  1.
       -3    1    3    3    0  502  0.35042425222E+02  0.11332258845E+04 -0.30243883130E+03  0.11734130278E+04  0.10100000352E+00 0. -1.
</event>
<event>
 5   0  0.8740500E-06  0.1848894E+04  0.7818609E-02  0.8680722E-01
       -3   -1    0    0    0  501  0.00000000000E+00  0.00000000000E+00  0.32741352156E+03  0.32741353714E+03  0.10100000352E+00 0.  1.
        3   -1    0    0  501    0  0.00000000000E+00  0.00000000000E+00 -0.26101630284E+04  0.26101630304E+04  0.10100000352E+00 0. -1.
    10030    2    1    2    0    0  0.00000000000E+00  0.00000000000E+00 -0.22827495069E+04  0.29375765675E+04  0.18488944748E+04 0.  0.
        3    1    3    3  502    0  0.80806863770E+01 -0.92366938048E+03 -0.10825180836E+04  0.14230515920E+04  0.10100000352E+00 0. -1.
       -3    1    3    3    0  502 -0.80806863770E+01  0.92366938048E+03 -0.12002314233E+04  0.15145249755E+04  0.10100000352E+00 0.  1.
</event>
<event>
 5   0  0.8740500E-06  0.2752584E+04  0.7818609E-02  0.8318142E-01
       -4   -1    0    0    0  501  0.00000000000E+00  0.00000000000E+00  0.84604705160E+03  0.84604800480E+03  0.12699999809E+01 0. -1.
        4   -1    0    0  501    0  0.00000000000E+00  0.00000000000E+00 -0.22388560190E+04  0.22388563792E+04  0.12699999809E+01 0.  1.
    10030    2    1    2    0    0  0.00000000000E+00  0.00000000000E+00 -0.13928089674E+04  0.30849043840E+04  0.27525839204E+04 0.  0.
        5    1    3    3  502    0  0.10018630397E+04 -0.82871100121E+03 -0.12021830276E+04  0.17708070464E+04  0.46999998093E+01 0.  1.
       -5    1    3    3    0  502 -0.10018630397E+04  0.82871100121E+03 -0.19062593983E+03  0.13140973376E+04  0.46999998093E+01 0. -1.
</event>
<event>
 5   0  0.2516518E-05  0.2279900E+04  0.7818609E-02  0.8485889E-01
       -2   -1    0    0    0  501  0.00000000000E+00  0.00000000000E+00  0.11385056123E+04  0.11385056123E+04  0.25500000920E-02 0.  1.
        2   -1    0    0  501    0  0.00000000000E+00  0.00000000000E+00 -0.11413961225E+04  0.11413961225E+04  0.25500000920E-02 0. -1.
    10030    2    1    2    0    0  0.00000000000E+00  0.00000000000E+00 -0.28905102007E+01  0.22799017347E+04  0.22798999024E+04 0.  0.
        4    1    3    3  502    0  0.10702145829E+04  0.32215169764E+03  0.22292807134E+03  0.11396664019E+04  0.12699999809E+01 0.  1.
       -4    1    3    3    0  502 -0.10702145829E+04 -0.32215169764E+03 -0.22581858154E+03  0.11402353329E+04  0.12699999809E+01 0. -1.
</event>
<event>
 5   0  0.2540232E-05  0.2398349E+04  0.7818609E-02  0.8440122E-01
       -2   -1    0    0    0  501  0.00000000000E+00  0.00000000000E+00  0.68448667172E+03  0.68448667172E+03  0.25500000920E-02 0. -1.
        2   -1    0    0  501    0  0.00000000000E+00  0.00000000000E+00 -0.21008722691E+04  0.21008722691E+04  0.25500000920E-02 0.  1.
    10030    2    1    2    0    0  0.00000000000E+00  0.00000000000E+00 -0.14163855974E+04  0.27853589408E+04  0.23983486545E+04 0.  0.
        1    1    3    3  502    0 -0.26327739061E+03 -0.90200930176E+03 -0.15734554004E+04  0.18326750017E+04  0.50400001928E-02 0.  1.
       -1    1    3    3    0  502  0.26327739061E+03  0.90200930176E+03  0.15706980297E+03  0.95268393914E+03  0.50400001928E-02 0. -1.
</event>
<event>
 5   0  0.1096672E-05  0.2728610E+04  0.7818609E-02  0.8325781E-01
       -1   -1    0    0    0  501  0.00000000000E+00  0.00000000000E+00  0.85527835663E+03  0.85527835664E+03  0.50400001928E-02 0. -1.
        1   -1    0    0  501    0  0.00000000000E+00  0.00000000000E+00 -0.21762831497E+04  0.21762831497E+04  0.50400001928E-02 0.  1.
    10030    2    1    2    0    0  0.00000000000E+00  0.00000000000E+00 -0.13210047931E+04  0.30315615063E+04  0.27286098115E+04 0.  0.
        1    1    3    3  502    0  0.85084507260E+03  0.87287641999E+03  0.20293276719E+02  0.12191236194E+04  0.50400001928E-02 0. -1.
       -1    1    3    3    0  502 -0.85084507260E+03 -0.87287641999E+03 -0.13412980698E+04  0.18124378870E+04  0.50400001928E-02 0.  1.
</event>
<event>
 5   0  0.1041909E-05  0.2592228E+04  0.7818609E-02  0.8370846E-01
       -1   -1    0    0    0  501  0.00000000000E+00  0.00000000000E+00  0.26427133528E+04  0.26427133528E+04  0.50400001928E-02 0. -1.
        1   -1    0    0  501    0  0.00000000000E+00  0.00000000000E+00 -0.63567658780E+03  0.63567658782E+03  0.50400001928E-02 0.  1.
    10030    2    1    2    0    0  0.00000000000E+00  0.00000000000E+00  0.20070367650E+04  0.32783899406E+04  0.25922276186E+04 0.  0.
        5    1    3    3  502    0  0.44930748916E+03 -0.70735546279E+03 -0.24697496729E+03  0.87364048385E+03  0.46999998093E+01 0.  1.
       -5    1    3    3    0  502 -0.44930748916E+03  0.70735546279E+03  0.22540117323E+04  0.24047494568E+04  0.46999998093E+01 0. -1.
</event>
<event>
 5   0  0.2641216E-05  0.2718902E+04  0.7818609E-02  0.8328898E-01
       -2   -1    0    0    0  501  0.00000000000E+00  0.00000000000E+00  0.17183662902E+04  0.17183662902E+04  0.25500000920E-02 0. -1.
        2   -1    0    0  501    0  0.00000000000E+00  0.00000000000E+00 -0.10755024016E+04  0.10755024016E+04  0.25500000920E-02 0.  1.
    10030    2    1    2    0    0  0.00000000000E+00  0.00000000000E+00  0.64286388862E+03  0.27938686918E+04  0.27189020372E+04 0.  0.
        5    1    3    3  502    0  0.12163597564E+04 -0.49408411456E+02 -0.30032385975E+03  0.12538695143E+04  0.46999998093E+01 0.  1.
       -5    1    3    3    0  502 -0.12163597564E+04  0.49408411456E+02  0.94318774837E+03  0.15399991775E+04  0.46999998093E+01 0. -1.
</event>
<event>
 5   0  0.2641216E-05  0.2668864E+04  0.7818609E-02  0.8345179E-01
       -2   -1    0    0    0  501  0.00000000000E+00  0.00000000000E+00  0.17501227249E+04  0.17501227249E+04  0.25500000920E-02 0.  1.
        2   -1    0    0  501    0  0.00000000000E+00  0.00000000000E+00 -0.10174763703E+04  0.10174763703E+04  0.25500000920E-02 0. -1.
    10030    2    1    2    0    0  0.00000000000E+00  0.00000000000E+00  0.73264635455E+03  0.27675990952E+04  0.26688638165E+04 0.  0.
        5    1    3    3  502    0 -0.13301688819E+04  0.19444389387E+02  0.25776463724E+03  0.13550616358E+04  0.46999998093E+01 0. -1.
       -5    1    3    3    0  502  0.13301688819E+04 -0.19444389387E+02  0.47488171732E+03  0.14125374594E+04  0.46999998093E+01 0.  1.
</event>
<event>
 5   0  0.2641216E-05  0.2746996E+04  0.7818609E-02  0.8319915E-01
       -2   -1    0    0    0  501  0.00000000000E+00  0.00000000000E+00  0.18072179090E+04  0.18072179090E+04  0.25500000920E-02 0.  1.
        2   -1    0    0  501    0  0.00000000000E+00  0.00000000000E+00 -0.10438680351E+04  0.10438680351E+04  0.25500000920E-02 0. -1.
    10030    2    1    2    0    0  0.00000000000E+00  0.00000000000E+00  0.76334987391E+03  0.28510859441E+04  0.27469961832E+04 0.  0.
        5    1    3    3  502    0 -0.15545917423E+03 -0.10867627035E+04 -0.47498182226E+03  0.11961816543E+04  0.46999998093E+01 0. -1.
       -5    1    3    3    0  502  0.15545917423E+03  0.10867627035E+04  0.12383316962E+04  0.16549042898E+04  0.46999998093E+01 0.  1.
</event>
<event>
 5   0  0.2516518E-05  0.2669247E+04  0.7818609E-02  0.8345053E-01
       -2   -1    0    0    0  501  0.00000000000E+00  0.00000000000E+00  0.11115575604E+04  0.11115575604E+04  0.25500000920E-02 0. -1.
        2   -1    0    0  501    0  0.00000000000E+00  0.00000000000E+00 -0.16024543623E+04  0.16024543623E+04  0.25500000920E-02 0.  1.
    10030    2    1    2    0    0  0.00000000000E+00  0.00000000000E+00 -0.49089680194E+03  0.27140119228E+04  0.26692472809E+04 0.  0.
        4    1    3    3  502    0 -0.43403516811E+03 -0.32723930368E+03  0.99390541661E+03  0.11328378874E+04  0.12699999809E+01 0. -1.
       -4    1    3    3    0  502  0.43403516811E+03  0.32723930368E+03 -0.14848022185E+04  0.15811740354E+04  0.12699999809E+01 0.  1.
</event>
<event>
 5   0  0.2516518E-05  0.2654141E+04  0.7818609E-02  0.8350040E-01
       -2   -1    0    0    0  501  0.00000000000E+00  0.00000000000E+00  0.90766108844E+03  0.90766108844E+03  0.25500000920E-02 0.  1.
        2   -1    0    0  501    0  0.00000000000E+00  0.00000000000E+00 -0.19402793288E+04  0.19402793288E+04  0.25500000920E-02 0. -1.
    10030    2    1    2    0    0  0.00000000000E+00  0.00000000000E+00 -0.10326182404E+04  0.28479404173E+04  0.26541409514E+04 0.  0.
        4    1    3    3  502    0  0.10171020249E+04 -0.61695609201E+03 -0.11474616834E+04  0.16528161653E+04  0.12699999809E+01 0. -1.
       -4    1    3    3    0  502 -0.10171020249E+04  0.61695609201E+03  0.11484344298E+03  0.11951242520E+04  0.12699999809E+01 0.  1.
</event>
<event>
 5   0  0.1041909E-05  0.2658552E+04  0.7818609E-02  0.8348580E-01
       -1   -1    0    0    0  501  0.00000000000E+00  0.00000000000E+00  0.92500055710E+03  0.92500055711E+03  0.50400001928E-02 0. -1.
        1   -1    0    0  501    0  0.00000000000E+00  0.00000000000E+00 -0.19102416598E+04  0.19102416598E+04  0.50400001928E-02 0.  1.
    10030    2    1    2    0    0  0.00000000000E+00  0.00000000000E+00 -0.98524110267E+03  0.28352422169E+04  0.26585519363E+04 0.  0.
        5    1    3    3  502    0 -0.24555028664E+03  0.77187328316E+03 -0.16166468721E+04  0.18082180476E+04  0.46999998093E+01 0.  1.
       -5    1    3    3    0  502  0.24555028664E+03 -0.77187328316E+03  0.63140576947E+03  0.10270241693E+04  0.46999998093E+01 0. -1.
</event>
<event>
 5   0  0.2615843E-05  0.2575285E+04  0.7818609E-02  0.8376645E-01
       -2   -1    0    0    0  501  0.00000000000E+00  0.00000000000E+00  0.16143489382E+04  0.16143489382E+04  0.25500000920E-02 0. -1.
        2   -1    0    0  501    0  0.00000000000E+00  0.00000000000E+00 -0.10270535323E+04  0.10270535323E+04  0.25500000920E-02 0.  1.
    10030    2    1    2    0    0  0.00000000000E+00  0.00000000000E+00  0.58729540590E+03  0.26414024705E+04  0.25752846673E+04 0.  0.
        3    1    3    3  502    0  0.12161313233E+04 -0.31894835520E+03  0.57885021825E+03  0.13841138083E+04  0.10100000352E+00 0. -1.
       -3    1    3    3    0  502 -0.12161313233E+04  0.31894835520E+03  0.84451876521E+01  0.12572886622E+04  0.10100000352E+00 0.  1.
</event>
<event>
 5   0  0.2540684E-05  0.2670256E+04  0.7818609E-02  0.8344721E-01
        2   -1    0    0  501    0  0.00000000000E+00  0.00000000000E+00  0.15540685172E+04  0.15540685172E+04  0.25500000920E-02 0.  1.
       -2   -1    0    0    0  501  0.00000000000E+00  0.00000000000E+00 -0.11470323767E+04  0.11470323767E+04  0.25500000920E-02 0. -1.
    10030    2    1    2    0    0  0.00000000000E+00  0.00000000000E+00  0.40703614054E+03  0.27011008938E+04  0.26702560962E+04 0.  0.
        2    1    3    3  502    0 -0.17294143557E+03 -0.76883432038E+03  0.12937206641E+04  0.15148360007E+04  0.25500000920E-02 0.  1.
       -2    1    3    3    0  502  0.17294143557E+03  0.76883432038E+03 -0.88668452356E+03  0.11862648931E+04  0.25500000920E-02 0. -1.
</event>
<event>
 5   0  0.1005265E-05  0.2697357E+04  0.7818609E-02  0.8335863E-01
        1   -1    0    0  501    0  0.00000000000E+00  0.00000000000E+00  0.12862681203E+04  0.12862681203E+04  0.50400001928E-02 0.  1.
       -1   -1    0    0    0  501  0.00000000000E+00  0.00000000000E+00 -0.14141172976E+04  0.14141172976E+04  0.50400001928E-02 0. -1.
    10030    2    1    2    0    0  0.00000000000E+00  0.00000000000E+00 -0.12784917729E+03  0.27003854178E+04  0.26973572238E+04 0.  0.
        3    1    3    3  502    0 -0.17558143076E+03 -0.10725670761E+04  0.73553626851E+03  0.13123424035E+04  0.10100000352E+00 0.  1.
       -3    1    3    3    0  502  0.17558143076E+03  0.10725670761E+04 -0.86338544580E+03  0.13880430144E+04  0.10100000352E+00 0. -1.
</event>
<event>
 5   0  0.2641216E-05  0.2649783E+04  0.7818609E-02  0.8351485E-01
       -2   -1    0    0    0  501  0.00000000000E+00  0.00000000000E+00  0.99655047634E+03  0.99655047635E+03  0.25500000920E-02 0.  1.
        2   -1    0    0  501    0  0.00000000000E+00  0.00000000000E+00 -0.17614133344E+04  0.17614133344E+04  0.25500000920E-02 0. -1.
    10030    2    1    2    0    0  0.00000000000E+00  0.00000000000E+00 -0.76486285808E+03  0.27579638108E+04  0.26497828571E+04 0.  0.
        5    1    3    3  502    0  0.73360913799E+03 -0.91510551743E+02  0.76189011967E+03  0.10616285569E+04  0.46999998093E+01 0.  1.
       -5    1    3    3    0  502 -0.73360913799E+03  0.91510551743E+02 -0.15267529777E+04  0.16963352539E+04  0.46999998093E+01 0. -1.
</event>
<event>
 5   0  0.2540684E-05  0.2747389E+04  0.7818609E-02  0.8319791E-01
       -2   -1    0    0    0  501  0.00000000000E+00  0.00000000000E+00  0.14106594633E+04  0.14106594633E+04  0.25500000920E-02 0.  1.
        2   -1    0    0  501    0  0.00000000000E+00  0.00000000000E+00 -0.13376981261E+04  0.13376981261E+04  0.25500000920E-02 0. -1.
    10030    2    1    2    0    0  0.00000000000E+00  0.00000000000E+00  0.72961337213E+02  0.27483575894E+04  0.27473889572E+04 0.  0.
        2    1    3    3  502    0  0.77951179931E+03 -0.39645102269E+03 -0.10232437836E+04  0.13460460243E+04  0.25500000920E-02 0. -1.
       -2    1    3    3    0  502 -0.77951179931E+03  0.39645102269E+03  0.10962051209E+04  0.14023115651E+04  0.25500000920E-02 0.  1.
</event>
<event>
 5   0  0.1096672E-05  0.2680755E+04  0.7818609E-02  0.8341276E-01
        1   -1    0    0  501    0  0.00000000000E+00  0.00000000000E+00  0.14544496768E+04  0.14544496768E+04  0.50400001928E-02 0. -1.
       -1   -1    0    0    0  501  0.00000000000E+00  0.00000000000E+00 -0.12352523775E+04  0.12352523776E+04  0.50400001928E-02 0.  1.
    10030    2    1    2    0    0  0.00000000000E+00  0.00000000000E+00  0.21919729921E+03  0.26897020543E+04  0.26807554318E+04 0.  0.
        1    1    3    3  502    0  0.73523302317E+03 -0.67733814247E+03 -0.78627422223E+03  0.12718418574E+04  0.50400001928E-02 0.  1.
       -1    1    3    3    0  502 -0.73523302317E+03  0.67733814247E+03  0.10054715214E+04  0.14178601969E+04  0.50400001928E-02 0. -1.
</event>
<event>
 5   0  0.2641216E-05  0.2661478E+04  0.7818609E-02  0.8347613E-01
       -2   -1    0    0    0  501  0.00000000000E+00  0.00000000000E+00  0.11496995225E+04  0.11496995225E+04  0.25500000920E-02 0. -1.
        2   -1    0    0  501    0  0.00000000000E+00  0.00000000000E+00 -0.15402859006E+04  0.15402859006E+04  0.25500000920E-02 0.  1.
    10030    2    1    2    0    0  0.00000000000E+00  0.00000000000E+00 -0.39058637812E+03  0.26899854231E+04  0.26614777583E+04 0.  0.
        5    1    3    3  502    0 -0.24236846030E+03 -0.43771305157E+03 -0.14415901571E+04  0.15259552605E+04  0.46999998093E+01 0.  1.
       -5    1    3    3    0  502  0.24236846030E+03  0.43771305157E+03  0.10510037790E+04  0.11640301626E+04  0.46999998093E+01 0. -1.
</event>
<event>
 5   0  0.2641216E-05  0.2708288E+04  0.7818609E-02  0.8332321E-01
        2   -1    0    0  501    0  0.00000000000E+00  0.00000000000E+00  0.11157834086E+04  0.11157834086E+04  0.25500000920E-02 0. -1.
       -2   -1    0    0    0  501  0.00000000000E+00  0.00000000000E+00 -0.16434246335E+04  0.16434246335E+04  0.25500000920E-02 0.  1.
    10030    2    1    2    0    0  0.00000000000E+00  0.00000000000E+00 -0.52764122493E+03  0.27592080422E+04  0.27082879754E+04 0.  0.
        5    1    3    3  502    0 -0.76508048167E+03 -0.10326911775E+04 -0.69831844638E+03  0.14626927066E+04  0.46999998093E+01 0. -1.
       -5    1    3    3    0  502  0.76508048167E+03  0.10326911775E+04  0.17067722145E+03  0.12965153356E+04  0.46999998093E+01 0.  1.
</event>
<event>
 5   0  0.2615843E-05  0.2750810E+04  0.7818609E-02  0.8318705E-01
        2   -1    0    0  501    0  0.00000000000E+00  0.00000000000E+00  0.20867554920E+04  0.20867554920E+04  0.25500000920E-02 0.  1.
       -2   -1    0    0    0  501  0.00000000000E+00  0.00000000000E+00 -0.90654538214E+03  0.90654538215E+03  0.25500000920E-02 0. -1.
    10030    2    1    2    0    0  0.00000000000E+00  0.00000000000E+00  0.11802101099E+04  0.29933008741E+04  0.27508097389E+04 0.  0.
        3    1    3    3  502    0 -0.11286723033E+04 -0.69212764684E+03  0.18470912450E+03  0.13368093801E+04  0.10100000352E+00 0.  1.
       -3    1    3    3    0  502  0.11286723033E+04  0.69212764684E+03  0.99550098535E+03  0.16564914941E+04  0.10100000352E+00 0. -1.
</event>
<event>
 5   0  0.9971923E-06  0.2621239E+04  0.7818609E-02  0.8361022E-01
       -1   -1    0    0    0  501  0.00000000000E+00  0.00000000000E+00  0.15542015921E+04  0.15542015921E+04  0.50400001928E-02 0.  1.
        1   -1    0    0  501    0  0.00000000000E+00  0.00000000000E+00 -0.11052127343E+04  0.11052127344E+04  0.50400001928E-02 0. -1.
    10030    2    1    2    0    0  0.00000000000E+00  0.00000000000E+00  0.44898885775E+03  0.26594143265E+04  0.26212389371E+04 0.  0.
        2    1    3    3  502    0  0.85074482674E+03  0.20980058217E+03  0.12133379227E+04  0.14966535869E+04  0.25500000920E-02 0.  1.
       -2    1    3    3    0  502 -0.85074482674E+03 -0.20980058217E+03 -0.76434906492E+03  0.11627607396E+04  0.25500000920E-02 0. -1.
</event>
<event>
 5   0  0.1041909E-05  0.1768639E+04  0.7818609E-02  0.8723157E-01
        1   -1    0    0  501    0  0.00000000000E+00  0.00000000000E+00  0.53383364145E+03  0.53383364148E+03  0.50400001928E-02 0.  1.
       -1   -1    0    0    0  501  0.00000000000E+00  0.00000000000E+00 -0.14649145872E+04  0.14649145872E+04  0.50400001928E-02 0. -1.
    10030    2    1    2    0    0  0.00000000000E+00  0.00000000000E+00 -0.93108094572E+03  0.19987482287E+04  0.17686386726E+04 0.  0.
        5    1    3    3  502    0  0.15345032547E+03 -0.40398988606E+03  0.40635897683E+03  0.59321542333E+03  0.46999998093E+01 0.  1.
       -5    1    3    3    0  502 -0.15345032547E+03  0.40398988606E+03 -0.13374399226E+04  0.14055328053E+04  0.46999998093E+01 0. -1.
</event>
<event>
 5   0  0.2540684E-05  0.2428701E+04  0.7818609E-02  0.8428836E-01
        2   -1    0    0  501    0  0.00000000000E+00  0.00000000000E+00  0.93694616184E+03  0.93694616184E+03  0.25500000920E-02 0.  1.
       -2   -1    0    0    0  501  0.00000000000E+00  0.00000000000E+00 -0.15738869303E+04  0.15738869303E+04  0.25500000920E-02 0. -1.
    10030    2    1    2    0    0  0.00000000000E+00  0.00000000000E+00 -0.63694076845E+03  0.25108330921E+04  0.24287011496E+04 0.  0.
        2    1    3    3  502    0 -0.96323307253E+03 -0.68929825398E+03 -0.41651880861E+02  0.11851940407E+04  0.25500000920E-02 0. -1.
       -2    1    3    3    0  502  0.96323307253E+03  0.68929825398E+03 -0.59528888759E+03  0.13256390514E+04  0.25500000920E-02 0.  1.
</event>
<event>
 5   0  0.2540232E-05  0.2260538E+04  0.7818609E-02  0.8493645E-01
       -2   -1    0    0    0  501  0.00000000000E+00  0.00000000000E+00  0.87638172617E+03  0.87638172618E+03  0.25500000920E-02 0.  1.
        2   -1    0    0  501    0  0.00000000000E+00  0.00000000000E+00 -0.14577070406E+04  0.14577070406E+04  0.25500000920E-02 0. -1.
    10030    2    1    2    0    0  0.00000000000E+00  0.00000000000E+00 -0.58132531443E+03  0.23340887668E+04  0.22605378232E+04 0.  0.
        1    1    3    3  502    0  0.43383117576E+03  0.91799265636E+03  0.22207048333E+03  0.10393436899E+04  0.50400001928E-02 0. -1.
       -1    1    3    3    0  502 -0.43383117576E+03 -0.91799265636E+03 -0.80339579776E+03  0.12947450769E+04  0.50400001928E-02 0.  1.
</event>
<event>
 5   0  0.9971923E-06  0.2666686E+04  0.7818609E-02  0.8345896E-01
        1   -1    0    0  501    0  0.00000000000E+00  0.00000000000E+00  0.21050589116E+04  0.21050589116E+04  0.50400001928E-02 0.  1.
       -1   -1    0    0    0  501  0.00000000000E+00  0.00000000000E+00 -0.84453889114E+03  0.84453889115E+03  0.50400001928E-02 0. -1.
    10030    2    1    2    0    0  0.00000000000E+00  0.00000000000E+00  0.12605200205E+04  0.29495978028E+04  0.26666864225E+04 0.  0.
        2    1    3    3  502    0  0.81794043398E+03 -0.86984675618E+03  0.12866336220E+04  0.17553022561E+04  0.25500000920E-02 0.  1.
       -2    1    3    3    0  502 -0.81794043398E+03  0.86984675618E+03 -0.26113601534E+02  0.11942955467E+04  0.25500000920E-02 0. -1.
</event>
<event>
 5   0  0.1005265E-05  0.2727445E+04  0.7818609E-02  0.8326155E-01
       -1   -1    0    0    0  501  0.00000000000E+00  0.00000000000E+00  0.87141321705E+03  0.87141321706E+03  0.50400001928E-02 0.  1.
        1   -1    0    0  501    0  0.00000000000E+00  0.00000000000E+00 -0.21341640552E+04  0.21341640553E+04  0.50400001928E-02 0. -1.
    10030    2    1    2    0    0  0.00000000000E+00  0.00000000000E+00 -0.12627508382E+04  0.30055772723E+04  0.27274447860E+04 0.  0.
        3    1    3    3  502    0  0.41829485800E+03 -0.42875679369E+01  0.79896573707E+03  0.90185100248E+03  0.10100000352E+00 0.  1.
       -3    1    3    3    0  502 -0.41829485800E+03  0.42875679369E+01 -0.20617165753E+04  0.21037262698E+04  0.10100000352E+00 0. -1.
</event>
<event>
 5   0  0.2540684E-05  0.2653180E+04  0.7818609E-02  0.8350358E-01
        2   -1    0    0  501    0  0.00000000000E+00  0.00000000000E+00  0.19710798942E+04  0.19710798942E+04  0.25500000920E-02 0. -1.
       -2   -1    0    0    0  501  0.00000000000E+00  0.00000000000E+00 -0.89283112785E+03  0.89283112786E+03  0.25500000920E-02 0.  1.
    10030    2    1    2    0    0  0.00000000000E+00  0.00000000000E+00  0.10782487664E+04  0.28639110221E+04  0.26531803445E+04 0.  0.
        2    1    3    3  502    0  0.20006516592E+03 -0.71813523469E+03 -0.64534413652E+03  0.98600879331E+03  0.25500000920E-02 0.  1.
       -2    1    3    3    0  502 -0.20006516592E+03  0.71813523469E+03  0.17235929029E+04  0.18779022288E+04  0.25500000920E-02 0. -1.
</event>
<event>
 5   0  0.1096672E-05  0.2696207E+04  0.7818609E-02  0.8336237E-01
        1   -1    0    0  501    0  0.00000000000E+00  0.00000000000E+00  0.97846833683E+03  0.97846833684E+03  0.50400001928E-02 0. -1.
       -1   -1    0    0    0  501  0.00000000000E+00  0.00000000000E+00 -0.18573753515E+04  0.18573753515E+04  0.50400001928E-02 0.  1.
    10030    2    1    2    0    0  0.00000000000E+00  0.00000000000E+00 -0.87890701465E+03  0.28358436883E+04  0.26962069439E+04 0.  0.
        1    1    3    3  502    0  0.12921149611E+04 -0.11148964630E+03 -0.52440555841E+02  0.12979757416E+04  0.50400001928E-02 0. -1.
       -1    1    3    3    0  502 -0.12921149611E+04  0.11148964630E+03 -0.82646645881E+03  0.15378679467E+04  0.50400001928E-02 0.  1.
</event>
<event>
 5   0  0.1096672E-05  0.2268141E+04  0.7818609E-02  0.8490590E-01
       -1   -1    0    0    0  501  0.00000000000E+00  0.00000000000E+00  0.94600032650E+03  0.94600032651E+03  0.50400001928E-02 0.  1.
        1   -1    0    0  501    0  0.00000000000E+00  0.00000000000E+00 -0.13595296144E+04  0.13595296144E+04  0.50400001928E-02 0. -1.
    10030    2    1    2    0    0  0.00000000000E+00  0.00000000000E+00 -0.41352928788E+03  0.23055299409E+04  0.22681406121E+04 0.  0.
        1    1    3    3  502    0 -0.64263826151E+03  0.90562636526E+03  0.27186762061E+02  0.11108024886E+04  0.50400001928E-02 0.  1.
       -1    1    3    3    0  502  0.64263826151E+03 -0.90562636526E+03 -0.44071604995E+03  0.11947274523E+04  0.50400001928E-02 0. -1.
</event>
<event>
 5   0  0.9971923E-06  0.2723929E+04  0.7818609E-02  0.8327282E-01
        1   -1    0    0  501    0  0.00000000000E+00  0.00000000000E+00  0.17854825688E+04  0.17854825689E+04  0.50400001928E-02 0.  1.
       -1   -1    0    0    0  501  0.00000000000E+00  0.00000000000E+00 -0.10389051213E+04  0.10389051213E+04  0.50400001928E-02 0. -1.
    10030    2    1    2    0    0  0.00000000000E+00  0.00000000000E+00  0.74657744754E+03  0.28243876902E+04  0.27239287691E+04 0.  0.
        2    1    3    3  502    0 -0.18224856194E+03  0.11861807768E+04  0.10410166907E+04  0.15886960452E+04  0.25500000920E-02 0.  1.
       -2    1    3    3    0  502  0.18224856194E+03 -0.11861807768E+04 -0.29443924320E+03  0.12356916450E+04  0.25500000920E-02 0. -1.
</event>
<event>
 5   0  0.2516518E-05  0.1936272E+04  0.7818609E-02  0.8637009E-01
        2   -1    0    0  501    0  0.00000000000E+00  0.00000000000E+00  0.24616628958E+04  0.24616628958E+04  0.25500000920E-02 0.  1.
       -2   -1    0    0    0  501  0.00000000000E+00  0.00000000000E+00 -0.38075363644E+03  0.38075363645E+03  0.25500000920E-02 0. -1.
    10030    2    1    2    0    0  0.00000000000E+00  0.00000000000E+00  0.20809092594E+04  0.28424165322E+04  0.19362717777E+04 0.  0.
        4    1    3    3  502    0 -0.78353926328E+03 -0.42752409542E+03  0.15908505808E+04  0.18241485171E+04  0.12699999809E+01 0.  1.
       -4    1    3    3    0  502  0.78353926328E+03  0.42752409542E+03  0.49005867857E+03  0.10182680151E+04  0.12699999809E+01 0. -1.
</event>
<event>
 5   0  0.2641216E-05  0.2645889E+04  0.7818609E-02  0.8352779E-01
       -2   -1    0    0    0  501  0.00000000000E+00  0.00000000000E+00  0.90139125448E+03  0.90139125449E+03  0.25500000920E-02 0. -1.
        2   -1    0    0  501    0  0.00000000000E+00  0.00000000000E+00 -0.19416458705E+04  0.19416458705E+04  0.25500000920E-02 0.  1.
    10030    2    1    2    0    0  0.00000000000E+00  0.00000000000E+00 -0.10402546160E+04  0.28430371250E+04  0.26458893453E+04 0.  0.
        5    1    3    3  502    0 -0.11815432220E+04 -0.24908700734E+03 -0.11008324381E+04  0.16339959821E+04  0.46999998093E+01 0.  1.
       -5    1    3    3    0  502  0.11815432220E+04  0.24908700734E+03  0.60577822144E+02  0.12090411429E+04  0.46999998093E+01 0. -1.
</event>
<event>
 5   0  0.2516518E-05  0.2644896E+04  0.7818609E-02  0.8353109E-01
       -2   -1    0    0    0  501  0.00000000000E+00  0.00000000000E+00  0.10323947008E+04  0.10323947008E+04  0.25500000920E-02 0.  1.
        2   -1    0    0  501    0  0.00000000000E+00  0.00000000000E+00 -0.16939922699E+04  0.16939922699E+04  0.25500000920E-02 0. -1.
    10030    2    1    2    0    0  0.00000000000E+00  0.00000000000E+00 -0.66159756908E+03  0.27263869707E+04  0.26448959470E+04 0.  0.
        4    1    3    3  502    0 -0.53122730354E+03 -0.11264822817E+04 -0.78913556862E+03  0.14744155919E+04  0.12699999809E+01 0. -1.
       -4    1    3    3    0  502  0.53122730354E+03  0.11264822817E+04  0.12753799953E+03  0.12519713788E+04  0.12699999809E+01 0.  1.
</event>
<event>
 5   0  0.2540232E-05  0.2693585E+04  0.7818609E-02  0.8337090E-01
        2   -1    0    0  501    0  0.00000000000E+00  0.00000000000E+00  0.19928664792E+04  0.19928664792E+04  0.25500000920E-02 0. -1.
       -2   -1    0    0    0  501  0.00000000000E+00  0.00000000000E+00 -0.91017113740E+03  0.91017113740E+03  0.25500000920E-02 0.  1.
    10030    2    1    2    0    0  0.00000000000E+00  0.00000000000E+00  0.10826953418E+04  0.29030376166E+04  0.26935846377E+04 0.  0.
        1    1    3    3  502    0 -0.52184654910E+03  0.48024664810E+03 -0.69262339812E+03  0.99130612601E+03  0.50400001928E-02 0.  1.
       -1    1    3    3    0  502  0.52184654910E+03 -0.48024664810E+03  0.17753187399E+04  0.19117314906E+04  0.50400001928E-02 0. -1.
</event>
<event>
 5   0  0.2641216E-05  0.2683978E+04  0.7818609E-02  0.8340222E-01
       -2   -1    0    0    0  501  0.00000000000E+00  0.00000000000E+00  0.12206874345E+04  0.12206874345E+04  0.25500000920E-02 0. -1.
        2   -1    0    0  501    0  0.00000000000E+00  0.00000000000E+00 -0.14753441613E+04  0.14753441613E+04  0.25500000920E-02 0.  1.
    10030    2    1    2    0    0  0.00000000000E+00  0.00000000000E+00 -0.25465672680E+03  0.26960315958E+04  0.26839777043E+04 0.  0.
        5    1    3    3  502    0 -0.12387176861E+04 -0.33472940314E+03  0.26743369473E+03  0.13107280993E+04  0.46999998093E+01 0. -1.
       -5    1    3    3    0  502  0.12387176861E+04  0.33472940314E+03 -0.52209042152E+03  0.13853034965E+04  0.46999998093E+01 0.  1.
</event>
<event>
 5   0  0.2615843E-05  0.2210650E+04  0.7818609E-02  0.8514009E-01
       -2   -1    0    0    0  501  0.00000000000E+00  0.00000000000E+00  0.11683793838E+04  0.11683793838E+04  0.25500000920E-02 0.  1.
        2   -1    0    0  501    0  0.00000000000E+00  0.00000000000E+00 -0.10456732193E+04  0.10456732193E+04  0.25500000920E-02 0. -1.
    10030    2    1    2    0    0  0.00000000000E+00  0.00000000000E+00  0.12270616450E+03  0.22140526031E+04  0.22106497069E+04 0.  0.
        3    1    3    3  502    0  0.57887165115E+02  0.13363673847E+03  0.11587282109E+04  0.11678445011E+04  0.10100000352E+00 0.  1.
       -3    1    3    3    0  502 -0.57887165115E+02 -0.13363673847E+03 -0.10360220464E+04  0.10462081020E+04  0.10100000352E+00 0. -1.
</event>
<event>
 5   0  0.2516518E-05  0.2535141E+04  0.7818609E-02  0.8390572E-01
        2   -1    0    0  501    0  0.00000000000E+00  0.00000000000E+00  0.12078630948E+04  0.12078630948E+04  0.25500000920E-02 0.  1.
       -2   -1    0    0    0  501  0.00000000000E+00  0.00000000000E+00 -0.13302294740E+04  0.13302294740E+04  0.25500000920E-02 0. -1.
    10030    2    1    2    0    0  0.00000000000E+00  0.00000000000E+00 -0.12236637914E+03  0.25380925688E+04  0.25351410922E+04 0.  0.
        4    1    3    3  502    0 -0.51693322435E+03 -0.11533806442E+04 -0.15735025103E+03  0.12736826855E+04  0.12699999809E+01 0.  1.
       -4    1    3    3    0  502  0.51693322435E+03  0.11533806442E+04  0.34983871889E+02  0.12644098834E+04  0.12699999809E+01 0. -1.
</event>
<event>
 5   0  0.1005265E-05  0.2635174E+04  0.7818609E-02  0.8356351E-01
        1   -1    0    0  501    0  0.00000000000E+00  0.00000000000E+00  0.12137942257E+04  0.12137942257E+04  0.50400001928E-02 0.  1.
       -1   -1    0    0    0  501  0.00000000000E+00  0.00000000000E+00 -0.14302554172E+04  0.14302554172E+04  0.50400001928E-02 0. -1.
    10030    2    1    2    0    0  0.00000000000E+00  0.00000000000E+00 -0.21646119146E+03  0.26440496429E+04  0.26351742005E+04 0.  0.
        3    1    3    3  502    0  0.12471355228E+04  0.36873573018E+03 -0.32042030099E+03  0.13393962186E+04  0.10100000352E+00 0.  1.
       -3    1    3    3    0  502 -0.12471355228E+04 -0.36873573018E+03  0.10395910954E+03  0.13046534243E+04  0.10100000352E+00 0. -1.
</event>
<event>
 5   0  0.9971923E-06  0.2686996E+04  0.7818609E-02  0.8339237E-01
        1   -1    0    0  501    0  0.00000000000E+00  0.00000000000E+00  0.14315056085E+04  0.14315056085E+04  0.50400001928E-02 0.  1.
       -1   -1    0    0    0  501  0.00000000000E+00  0.00000000000E+00 -0.12609008359E+04  0.12609008359E+04  0.50400001928E-02 0. -1.
    10030    2    1    2    0    0  0.00000000000E+00  0.00000000000E+00  0.17060477261E+03  0.26924064443E+04  0.26869958082E+04 0.  0.
        2    1    3    3  502    0  0.10249219543E+04 -0.48954734712E+03 -0.63368342139E+03  0.13006445694E+04  0.25500000920E-02 0.  1.
       -2    1    3    3    0  502 -0.10249219543E+04  0.48954734712E+03  0.80428819400E+03  0.13917618749E+04  0.25500000920E-02 0. -1.
</event>
<event>
 5   0  0.1041909E-05  0.2594067E+04  0.7818609E-02  0.8370219E-01
        1   -1    0    0  501    0  0.00000000000E+00  0.00000000000E+00  0.86759309231E+03  0.86759309232E+03  0.50400001928E-02 0.  1.
       -1   -1    0    0    0  501  0.00000000000E+00  0.00000000000E+00 -0.19390380238E+04  0.19390380238E+04  0.50400001928E-02 0. -1.
    10030    2    1    2    0    0  0.00000000000E+00  0.00000000000E+00 -0.10714449315E+04  0.28066311161E+04  0.25940670733E+04 0.  0.
        5    1    3    3  502    0  0.11602616047E+04  0.57946472108E+03 -0.51737561730E+03  0.13963115604E+04  0.46999998093E+01 0. -1.
       -5    1    3    3    0  502 -0.11602616047E+04 -0.57946472108E+03 -0.55406931420E+03  0.14103195557E+04  0.46999998093E+01 0.  1.
</event>
<event>
 5   0  0.2516518E-05  0.1888638E+04  0.7818609E-02  0.8660533E-01
       -2   -1    0    0    0  501  0.00000000000E+00  0.00000000000E+00  0.15306217266E+04  0.15306217266E+04  0.25500000920E-02 0.  1.
        2   -1    0    0  501    0  0.00000000000E+00  0.00000000000E+00 -0.58259871761E+03  0.58259871762E+03  0.25500000920E-02 0. -1.
    10030    2    1    2    0    0  0.00000000000E+00  0.00000000000E+00  0.94802300897E+03  0.21132204442E+04  0.18886378743E+04 0.  0.
        4    1    3    3  502    0  0.23620379485E+03 -0.48955762567E+03 -0.39000175524E+03  0.66900066035E+03  0.12699999809E+01 0. -1.
       -4    1    3    3    0  502 -0.23620379485E+03  0.48955762567E+03  0.13380247642E+04  0.14442197839E+04  0.12699999809E+01 0.  1.
</event>
<event>
 5   0  0.1096672E-05  0.2679257E+04  0.7818609E-02  0.8341767E-01
        1   -1    0    0  501    0  0.00000000000E+00  0.00000000000E+00  0.12069237905E+04  0.12069237905E+04  0.50400001928E-02 0.  1.
       -1   -1    0    0    0  501  0.00000000000E+00  0.00000000000E+00 -0.14869239351E+04  0.14869239351E+04  0.50400001928E-02 0. -1.
    10030    2    1    2    0    0  0.00000000000E+00  0.00000000000E+00 -0.28000014466E+03  0.26938477256E+04  0.26792565177E+04 0.  0.
        1    1    3    3  502    0  0.18570306366E+03 -0.13259843678E+04 -0.18363805387E+03  0.13514596207E+04  0.50400001928E-02 0.  1.
       -1    1    3    3    0  502 -0.18570306366E+03  0.13259843678E+04 -0.96362090789E+02  0.13423881049E+04  0.50400001928E-02 0. -1.
</event>
<event>
 5   0  0.1041909E-05  0.2704544E+04  0.7818609E-02  0.8333532E-01
        1   -1    0    0  501    0  0.00000000000E+00  0.00000000000E+00  0.17604078914E+04  0.17604078914E+04  0.50400001928E-02 0.  1.
       -1   -1    0    0    0  501  0.00000000000E+00  0.00000000000E+00 -0.10387589586E+04  0.10387589586E+04  0.50400001928E-02 0. -1.
    10030    2    1    2    0    0  0.00000000000E+00  0.00000000000E+00  0.72164893281E+03  0.27991668499E+04  0.27045439304E+04 0.  0.
        5    1    3    3  502    0  0.85772254999E+03  0.92634598645E+03 -0.14070374720E+03  0.12702852018E+04  0.46999998093E+01 0.  1.
       -5    1    3    3    0  502 -0.85772254999E+03 -0.92634598645E+03  0.86235268001E+03  0.15288816482E+04  0.46999998093E+01 0. -1.
</event>
<event>
 5   0  0.1096672E-05  0.2683073E+04  0.7818609E-02  0.8340518E-01
        1   -1    0    0  501    0  0.00000000000E+00  0.00000000000E+00  0.17866852176E+04  0.17866852177E+04  0.50400001928E-02 0.  1.
       -1   -1    0    0    0  501  0.00000000000E+00  0.00000000000E+00 -0.10072952498E+04  0.10072952498E+04  0.50400001928E-02 0. -1.
    10030    2    1    2    0    0  0.00000000000E+00  0.00000000000E+00  0.77938996784E+03  0.27939804675E+04  0.26830725168E+04 0.  0.
        1    1    3    3  502    0 -0.88132158239E+03 -0.56581547512E+03  0.12627078141E+04  0.16405200113E+04  0.50400001928E-02 0.  1.
       -1    1    3    3    0  502  0.88132158239E+03  0.56581547512E+03 -0.48331784629E+03  0.11534604562E+04  0.50400001928E-02 0. -1.
</event>
<event>
 5   0  0.9971923E-06  0.2217638E+04  0.7818609E-02  0.8511123E-01
        1   -1    0    0  501    0  0.00000000000E+00  0.00000000000E+00  0.10857035957E+04  0.10857035957E+04  0.50400001928E-02 0. -1.
       -1   -1    0    0    0  501  0.00000000000E+00  0.00000000000E+00 -0.11324262860E+04  0.11324262860E+04  0.50400001928E-02 0.  1.
    10030    2    1    2    0    0  0.00000000000E+00  0.00000000000E+00 -0.46722690320E+02  0.22181298818E+04  0.22176377438E+04 0.  0.
        2    1    3    3  502    0  0.61939745340E+03  0.91923079191E+03 -0.52364962357E+02  0.11096758731E+04  0.25500000920E-02 0. -1.
       -2    1    3    3    0  502 -0.61939745340E+03 -0.91923079191E+03  0.56422720378E+01  0.11084540087E+04  0.25500000920E-02 0.  1.
</event>
<event>
 5   0  0.2641216E-05  0.1742021E+04  0.7818609E-02  0.8737755E-01
        2   -1    0    0  501    0  0.00000000000E+00  0.00000000000E+00  0.13369361156E+04  0.13369361156E+04  0.25500000920E-02 0.  1.
       -2   -1    0    0    0  501  0.00000000000E+00  0.00000000000E+00 -0.56746103991E+03  0.56746103991E+03  0.25500000920E-02 0. -1.
    10030    2    1    2    0    0  0.00000000000E+00  0.00000000000E+00  0.76947507567E+03  0.19043971555E+04  0.17420208477E+04 0.  0.
        5    1    3    3  502    0 -0.56514752733E+03 -0.63184477080E+03  0.60342772493E+03  0.10405607389E+04  0.46999998093E+01 0.  1.
       -5    1    3    3    0  502  0.56514752733E+03  0.63184477080E+03  0.16604735075E+03  0.86383641664E+03  0.46999998093E+01 0. -1.
</event>
<event>
 5   0  0.2516518E-05  0.2688909E+04  0.7818609E-02  0.8338612E-01
        2   -1    0    0  501    0  0.00000000000E+00  0.00000000000E+00  0.11608663500E+04  0.11608663500E+04  0.25500000920E-02 0. -1.
       -2   -1    0    0    0  501  0.00000000000E+00  0.00000000000E+00 -0.15570772299E+04  0.15570772299E+04  0.25500000920E-02 0.  1.
    10030    2    1    2    0    0  0.00000000000E+00  0.00000000000E+00 -0.39621087993E+03  0.27179435799E+04  0.26889094894E+04 0.  0.
        4    1    3    3  502    0  0.11287783664E+03 -0.10231068105E+04 -0.10723537289E+04  0.14864161881E+04  0.12699999809E+01 0.  1.
       -4    1    3    3    0  502 -0.11287783664E+03  0.10231068105E+04  0.67614284896E+03  0.12315273918E+04  0.12699999809E+01 0. -1.
</event>
<event>
 5   0  0.1005265E-05  0.1666836E+04  0.7818609E-02  0.8780508E-01
        1   -1    0    0  501    0  0.00000000000E+00  0.00000000000E+00  0.10054931107E+04  0.10054931107E+04  0.50400001928E-02 0.  1.
       -1   -1    0    0    0  501  0.00000000000E+00  0.00000000000E+00 -0.69079087654E+03  0.69079087656E+03  0.50400001928E-02 0. -1.
    10030    2    1    2    0    0  0.00000000000E+00  0.00000000000E+00  0.31470223413E+03  0.16962839873E+04  0.16668358855E+04 0.  0.
        3    1    3    3  502    0 -0.30086153549E+03 -0.49347835091E+03 -0.45371275816E+03  0.73477467531E+03  0.10100000352E+00 0. -1.
       -3    1    3    3    0  502  0.30086153549E+03  0.49347835091E+03  0.76841499230E+03  0.96150931194E+03  0.10100000352E+00 0.  1.
</event>
<event>
 5   0  0.9971923E-06  0.2751280E+04  0.7818609E-02  0.8318556E-01
       -1   -1    0    0    0  501  0.00000000000E+00  0.00000000000E+00  0.15720304406E+04  0.15720304406E+04  0.50400001928E-02 0. -1.
        1   -1    0    0  501    0  0.00000000000E+00  0.00000000000E+00 -0.12037840570E+04  0.12037840570E+04  0.50400001928E-02 0.  1.
    10030    2    1    2    0    0  0.00000000000E+00  0.00000000000E+00  0.36824638359E+03  0.27758144976E+04  0.27512798342E+04 0.  0.
        2    1    3    3  502    0  0.75944043882E+02  0.13695426338E+04  0.78448250861E+02  0.13738881510E+04  0.25500000920E-02 0. -1.
       -2    1    3    3    0  502 -0.75944043882E+02 -0.13695426338E+04  0.28979813273E+03  0.14019263466E+04  0.25500000920E-02 0.  1.
</event>
<event>
 5   0  0.2516518E-05  0.2706856E+04  0.7818609E-02  0.8332784E-01
       -2   -1    0    0    0  501  0.00000000000E+00  0.00000000000E+00  0.16702584306E+04  0.16702584306E+04  0.25500000920E-02 0. -1.
        2   -1    0    0  501    0  0.00000000000E+00  0.00000000000E+00 -0.10966970555E+04  0.10966970555E+04  0.25500000920E-02 0.  1.
    10030    2    1    2    0    0  0.00000000000E+00  0.00000000000E+00  0.57356137510E+03  0.27669554860E+04  0.27068561119E+04 0.  0.
        4    1    3    3  502    0 -0.46427356044E+03 -0.14436076858E+03  0.15779063641E+04  0.16511147983E+04  0.12699999809E+01 0. -1.
       -4    1    3    3    0  502  0.46427356044E+03  0.14436076858E+03 -0.10043449890E+04  0.11158406877E+04  0.12699999809E+01 0.  1.
</event>
<event>
 5   0  0.1096672E-05  0.2764047E+04  0.7818609E-02  0.8314518E-01
       -1   -1    0    0    0  501  0.00000000000E+00  0.00000000000E+00  0.16813911563E+04  0.16813911563E+04  0.50400001928E-02 0.  1.
        1   -1    0    0  501    0  0.00000000000E+00  0.00000000000E+00 -0.11359572678E+04  0.11359572678E+04  0.50400001928E-02 0. -1.
    10030    2    1    2    0    0  0.00000000000E+00  0.00000000000E+00  0.54543388849E+03  0.28173484242E+04  0.27640466741E+04 0.  0.
        1    1    3    3  502    0  0.97444313123E+03  0.19073689342E+03 -0.70710525923E+03  0.12189822912E+04  0.50400001928E-02 0. -1.
       -1    1    3    3    0  502 -0.97444313123E+03 -0.19073689342E+03  0.12525391477E+04  0.15983661330E+04  0.50400001928E-02 0.  1.
</event>
<event>
 5   0  0.2516518E-05  0.2659272E+04  0.7818609E-02  0.8348342E-01
       -2   -1    0    0    0  501  0.00000000000E+00  0.00000000000E+00  0.12332277516E+04  0.12332277516E+04  0.25500000920E-02 0. -1.
        2   -1    0    0  501    0  0.00000000000E+00  0.00000000000E+00 -0.14335806662E+04  0.14335806662E+04  0.25500000920E-02 0.  1.
    10030    2    1    2    0    0  0.00000000000E+00  0.00000000000E+00 -0.20035291464E+03  0.26668084178E+04  0.26592716760E+04 0.  0.
        4    1    3    3  502    0 -0.10896134495E+04  0.74941668832E+03  0.38225578084E+02  0.13230062924E+04  0.12699999809E+01 0. -1.
       -4    1    3    3    0  502  0.10896134495E+04 -0.74941668832E+03 -0.23857849272E+03  0.13438021254E+04  0.12699999809E+01 0.  1.
</event>
<event>
 5   0  0.1096672E-05  0.2570719E+04  0.7818609E-02  0.8378216E-01
       -1   -1    0    0    0  501  0.00000000000E+00  0.00000000000E+00  0.10598300373E+04  0.10598300373E+04  0.50400001928E-02 0. -1.
        1   -1    0    0  501    0  0.00000000000E+00  0.00000000000E+00 -0.15588811036E+04  0.15588811036E+04  0.50400001928E-02 0.  1.
    10030    2    1    2    0    0  0.00000000000E+00  0.00000000000E+00 -0.49905106627E+03  0.26187111408E+04  0.25707189797E+04 0.  0.
        1    1    3    3  502    0  0.78813144418E+03 -0.56865932048E+03 -0.11064339299E+04  0.14726576783E+04  0.50400001928E-02 0.  1.
       -1    1    3    3    0  502 -0.78813144418E+03  0.56865932048E+03  0.60738286362E+03  0.11460534626E+04  0.50400001928E-02 0. -1.
</event>
<event>
 5   0  0.1096672E-05  0.2757120E+04  0.7818609E-02  0.8316706E-01
        1   -1    0    0  501    0  0.00000000000E+00  0.00000000000E+00  0.21327749338E+04  0.21327749338E+04  0.50400001928E-02 0.  1.
       -1   -1    0    0    0  501  0.00000000000E+00  0.00000000000E+00 -0.89105881352E+03  0.89105881353E+03  0.50400001928E-02 0. -1.
    10030    2    1    2    0    0  0.00000000000E+00  0.00000000000E+00  0.12417161203E+04  0.30238337473E+04  0.27571201657E+04 0.  0.
        1    1    3    3  502    0  0.11349197808E+04 -0.58379706252E+03  0.49326918810E+02  0.12772216190E+04  0.50400001928E-02 0. -1.
       -1    1    3    3    0  502 -0.11349197808E+04  0.58379706252E+03  0.11923892015E+04  0.17466121284E+04  0.50400001928E-02 0.  1.
</event>
<event>
 5   0  0.2615843E-05  0.2699000E+04  0.7818609E-02  0.8335329E-01
        2   -1    0    0  501    0  0.00000000000E+00  0.00000000000E+00  0.21353110753E+04  0.21353110753E+04  0.25500000920E-02 0. -1.
       -2   -1    0    0    0  501  0.00000000000E+00  0.00000000000E+00 -0.85287353517E+03  0.85287353517E+03  0.25500000920E-02 0.  1.
    10030    2    1    2    0    0  0.00000000000E+00  0.00000000000E+00  0.12824375401E+04  0.29881846104E+04  0.26990000411E+04 0.  0.
        3    1    3    3  502    0  0.50353297394E+03  0.85764455128E+03 -0.36868366437E+03  0.10606730348E+04  0.10100000352E+00 0.  1.
       -3    1    3    3    0  502 -0.50353297394E+03 -0.85764455128E+03  0.16511212045E+04  0.19275115756E+04  0.10100000352E+00 0. -1.
</event>
<event>
 5   0  0.1041909E-05  0.2696720E+04  0.7818609E-02  0.8336070E-01
        1   -1    0    0  501    0  0.00000000000E+00  0.00000000000E+00  0.21926580825E+04  0.21926580825E+04  0.50400001928E-02 0. -1.
       -1   -1    0    0    0  501  0.00000000000E+00  0.00000000000E+00 -0.82916458946E+03  0.82916458948E+03  0.50400001928E-02 0.  1.
    10030    2    1    2    0    0  0.00000000000E+00  0.00000000000E+00  0.13634934930E+04  0.30218226720E+04  0.26967198140E+04 0.  0.
        5    1    3    3  502    0  0.12135056922E+04  0.27200034847E+03  0.12655893004E+04  0.17743501971E+04  0.46999998093E+01 0. -1.
       -5    1    3    3    0  502 -0.12135056922E+04 -0.27200034847E+03  0.97904192628E+02  0.12474724749E+04  0.46999998093E+01 0.  1.
</event>
<event>
 5   0  0.2615843E-05  0.2744218E+04  0.7818609E-02  0.8320799E-01
        2   -1    0    0  501    0  0.00000000000E+00  0.00000000000E+00  0.15145400477E+04  0.15145400477E+04  0.25500000920E-02 0.  1.
       -2   -1    0    0    0  501  0.00000000000E+00  0.00000000000E+00 -0.12430723685E+04  0.12430723685E+04  0.25500000920E-02 0. -1.
    10030    2    1    2    0    0  0.00000000000E+00  0.00000000000E+00  0.27146767921E+03  0.27576124161E+04  0.27442178370E+04 0.  0.
        3    1    3    3  502    0 -0.13610138279E+04  0.10434266326E+03 -0.43627308169E+01  0.13650146794E+04  0.10100000352E+00 0. -1.
       -3    1    3    3    0  502  0.13610138279E+04 -0.10434266326E+03  0.27583041003E+03  0.13925977368E+04  0.10100000352E+00 0.  1.
</event>
<event>
 5   0  0.2516518E-05  0.2384775E+04  0.7818609E-02  0.8445226E-01
       -2   -1    0    0    0  501  0.00000000000E+00  0.00000000000E+00  0.85697412769E+03  0.85697412770E+03  0.25500000920E-02 0.  1.
        2   -1    0    0  501    0  0.00000000000E+00  0.00000000000E+00 -0.16590785878E+04  0.16590785878E+04  0.25500000920E-02 0. -1.
    10030    2    1    2    0    0  0.00000000000E+00  0.00000000000E+00 -0.80210446008E+03  0.25160527155E+04  0.23847745600E+04 0.  0.
        4    1    3    3  502    0 -0.43181069664E+03  0.36538899926E+03 -0.15085095179E+04  0.16110779550E+04  0.12699999809E+01 0. -1.
       -4    1    3    3    0  502  0.43181069664E+03 -0.36538899926E+03  0.70640505782E+03  0.90497476049E+03  0.12699999809E+01 0.  1.
</event>
<event>
 5   0  0.2615843E-05  0.2687462E+04  0.7818609E-02  0.8339085E-01
       -2   -1    0    0    0  501  0.00000000000E+00  0.00000000000E+00  0.13689867465E+04  0.13689867465E+04  0.25500000920E-02 0.  1.
        2   -1    0    0  501    0  0.00000000000E+00  0.00000000000E+00 -0.13189410358E+04  0.13189410358E+04  0.25500000920E-02 0. -1.
    10030    2    1    2    0    0  0.00000000000E+00  0.00000000000E+00  0.50045710645E+02  0.26879277823E+04  0.26874618490E+04 0.  0.
        3    1    3    3  502    0  0.75304004023E+03  0.62808892020E+03 -0.89385716349E+03  0.13268555433E+04  0.10100000352E+00 0. -1.
       -3    1    3    3    0  502 -0.75304004023E+03 -0.62808892020E+03  0.94390287414E+03  0.13610722390E+04  0.10100000352E+00 0.  1.
</event>
<event>
 5   0  0.2540232E-05  0.2637700E+04  0.7818609E-02  0.8355507E-01
       -2   -1    0    0    0  501  0.00000000000E+00  0.00000000000E+00  0.72546147275E+03  0.72546147275E+03  0.25500000920E-02 0.  1.
        2   -1    0    0  501    0  0.00000000000E+00  0.00000000000E+00 -0.23975992370E+04  0.23975992370E+04  0.25500000920E-02 0. -1.
    10030    2    1    2    0    0  0.00000000000E+00  0.00000000000E+00 -0.16721377643E+04  0.31230607098E+04  0.26377004178E+04 0.  0.
        1    1    3    3  502    0 -0.59239655061E+03 -0.99617101947E+03 -0.90918466122E+02  0.11625646394E+04  0.50400001928E-02 0. -1.
       -1    1    3    3    0  502  0.59239655061E+03  0.99617101947E+03 -0.15812192982E+04  0.19604960704E+04  0.50400001928E-02 0.  1.
</event>
<event>
 5   0  0.9971923E-06  0.2793907E+04  0.7818609E-02  0.8305162E-01
        1   -1    0    0  501    0  0.00000000000E+00  0.00000000000E+00  0.15170572270E+04  0.15170572270E+04  0.50400001928E-02 0. -1.
       -1   -1    0    0    0  501  0.00000000000E+00  0.00000000000E+00 -0.12863585951E+04  0.12863585951E+04  0.50400001928E-02 0.  1.
    10030    2    1    2    0    0  0.00000000000E+00  0.00000000000E+00  0.23069863191E+03  0.28034158220E+04  0.27939073736E+04 0.  0.
        2    1    3    3  502    0 -0.75731820182E+03 -0.30184409241E+03 -0.10229005416E+04  0.13080390793E+04  0.25500000920E-02 0.  1.
       -2    1    3    3    0  502  0.75731820182E+03  0.30184409241E+03  0.12535991735E+04  0.14953767427E+04  0.25500000920E-02 0. -1.
</event>
<event>
 5   0  0.1036691E-05  0.2234112E+04  0.7818609E-02  0.8504363E-01
       -1   -1    0    0    0  501  0.00000000000E+00  0.00000000000E+00  0.14103209704E+04  0.14103209705E+04  0.50400001928E-02 0. -1.
        1   -1    0    0  501    0  0.00000000000E+00  0.00000000000E+00 -0.88477335851E+03  0.88477335852E+03  0.50400001928E-02 0.  1.
    10030    2    1    2    0    0  0.00000000000E+00  0.00000000000E+00  0.52554761194E+03  0.22950943290E+04  0.22341122815E+04 0.  0.
        4    1    3    3  502    0  0.15411568326E+02  0.17658587325E+02 -0.88451998883E+03  0.88483137698E+03  0.12699999809E+01 0.  1.
       -4    1    3    3    0  502 -0.15411568326E+02 -0.17658587325E+02  0.14100676008E+04  0.14102629520E+04  0.12699999809E+01 0. -1.
</event>
<event>
 5   0  0.2641216E-05  0.2713953E+04  0.7818609E-02  0.8330492E-01
       -2   -1    0    0    0  501  0.00000000000E+00  0.00000000000E+00  0.11163631620E+04  0.11163631620E+04  0.25500000920E-02 0. -1.
        2   -1    0    0  501    0  0.00000000000E+00  0.00000000000E+00 -0.16494502546E+04  0.16494502546E+04  0.25500000920E-02 0.  1.
    10030    2    1    2    0    0  0.00000000000E+00  0.00000000000E+00 -0.53308709262E+03  0.27658134166E+04  0.27139532065E+04 0.  0.
        5    1    3    3  502    0  0.11755518454E+04 -0.62652697994E+03 -0.53014664139E+03  0.14337139705E+04  0.46999998093E+01 0.  1.
       -5    1    3    3    0  502 -0.11755518454E+04  0.62652697994E+03 -0.29404512250E+01  0.13320994460E+04  0.46999998093E+01 0. -1.
</event>
<event>
 5   0  0.1096672E-05  0.2370959E+04  0.7818609E-02  0.8450457E-01
        1   -1    0    0  501    0  0.00000000000E+00  0.00000000000E+00  0.18095532901E+04  0.18095532901E+04  0.50400001928E-02 0. -1.
       -1   -1    0    0    0  501  0.00000000000E+00  0.00000000000E+00 -0.77663488556E+03  0.77663488558E+03  0.50400001928E-02 0.  1.
    10030    2    1    2    0    0  0.00000000000E+00  0.00000000000E+00  0.10329184046E+04  0.25861881757E+04  0.23709594787E+04 0.  0.
        1    1    3    3  502    0 -0.15140592149E+03 -0.36529606419E+03  0.17354957611E+04  0.17799748606E+04  0.50400001928E-02 0. -1.
       -1    1    3    3    0  502  0.15140592149E+03  0.36529606419E+03 -0.70257735651E+03  0.80621331513E+03  0.50400001928E-02 0.  1.
</event>
<event>
 5   0  0.1036691E-05  0.2699388E+04  0.7818609E-02  0.8335203E-01
        1   -1    0    0  501    0  0.00000000000E+00  0.00000000000E+00  0.73005653387E+03  0.73005653388E+03  0.50400001928E-02 0. -1.
       -1   -1    0    0    0  501  0.00000000000E+00  0.00000000000E+00 -0.24952512064E+04  0.24952512064E+04  0.50400001928E-02 0.  1.
    10030    2    1    2    0    0  0.00000000000E+00  0.00000000000E+00 -0.17651946726E+04  0.32253077403E+04  0.26993884099E+04 0.  0.
        4    1    3    3  502    0 -0.34240218347E+03  0.98311631601E+03 -0.19089797699E+04  0.21743878037E+04  0.12699999809E+01 0.  1.
       -4    1    3    3    0  502  0.34240218347E+03 -0.98311631601E+03  0.14378509735E+03  0.10509199366E+04  0.12699999809E+01 0. -1.
</event>
<event>
 5   0  0.1041909E-05  0.2729982E+04  0.7818609E-02  0.8325342E-01
       -1   -1    0    0    0  501  0.00000000000E+00  0.00000000000E+00  0.11133114544E+04  0.11133114544E+04  0.50400001928E-02 0. -1.
        1   -1    0    0  501    0  0.00000000000E+00  0.00000000000E+00 -0.16735661338E+04  0.16735661338E+04  0.50400001928E-02 0.  1.
    10030    2    1    2    0    0  0.00000000000E+00  0.00000000000E+00 -0.56025467943E+03  0.27868775882E+04  0.27299819387E+04 0.  0.
        5    1    3    3  502    0 -0.49711359197E+03 -0.82389052937E+03 -0.12684262794E+04  0.15921196073E+04  0.46999998093E+01 0.  1.
       -5    1    3    3    0  502  0.49711359197E+03  0.82389052937E+03  0.70817160001E+03  0.11947579808E+04  0.46999998093E+01 0. -1.
</event>
<event>
 5   0  0.2516518E-05  0.1653926E+04  0.7818609E-02  0.8788087E-01
       -2   -1    0    0    0  501  0.00000000000E+00  0.00000000000E+00  0.76138448133E+03  0.76138448134E+03  0.25500000920E-02 0. -1.
        2   -1    0    0  501    0  0.00000000000E+00  0.00000000000E+00 -0.89818978807E+03  0.89818978807E+03  0.25500000920E-02 0.  1.
    10030    2    1    2    0    0  0.00000000000E+00  0.00000000000E+00 -0.13680530674E+03  0.16595742694E+04  0.16539259547E+04 0.  0.
        4    1    3    3  502    0 -0.68855515822E+03 -0.32553531112E+03 -0.39165918943E+03  0.85643445648E+03  0.12699999809E+01 0.  1.
       -4    1    3    3    0  502  0.68855515822E+03  0.32553531112E+03  0.25485388269E+03  0.80313981293E+03  0.12699999809E+01 0. -1.
</event>
<event>
 5   0  0.1096672E-05  0.2728996E+04  0.7818609E-02  0.8325658E-01
        1   -1    0    0  501    0  0.00000000000E+00  0.00000000000E+00  0.15747405915E+04  0.15747405915E+04  0.50400001928E-02 0. -1.
       -1   -1    0    0    0  501  0.00000000000E+00  0.00000000000E+00 -0.11823243752E+04  0.11823243753E+04  0.50400001928E-02 0.  1.
    10030    2    1    2    0    0  0.00000000000E+00  0.00000000000E+00  0.39241621624E+03  0.27570649668E+04  0.27289955559E+04 0.  0.
        1    1    3    3  502    0  0.89570543781E+03 -0.10154653313E+04  0.25963392766E+02  0.13543013579E+04  0.50400001928E-02 0. -1.
       -1    1    3    3    0  502 -0.89570543781E+03  0.10154653313E+04  0.36645282348E+03  0.14027636088E+04  0.50400001928E-02 0.  1.
</event>
<event>
 5   0  0.2540684E-05  0.2708518E+04  0.7818609E-02  0.8332247E-01
       -2   -1    0    0    0  501  0.00000000000E+00  0.00000000000E+00  0.97366807494E+03  0.97366807495E+03  0.25500000920E-02 0. -1.
        2   -1    0    0  501    0  0.00000000000E+00  0.00000000000E+00 -0.18836160526E+04  0.18836160526E+04  0.25500000920E-02 0.  1.
    10030    2    1    2    0    0  0.00000000000E+00  0.00000000000E+00 -0.90994797762E+03  0.28572841275E+04  0.27085175398E+04 0.  0.
        2    1    3    3  502    0 -0.87175604994E+01 -0.28173126230E+03  0.94238153996E+03  0.98363177403E+03  0.25500000920E-02 0. -1.
       -2    1    3    3    0  502  0.87175604994E+01  0.28173126230E+03 -0.18523295176E+04  0.18736523535E+04  0.25500000920E-02 0.  1.
</event>
<event>
 5   0  0.2641216E-05  0.2572897E+04  0.7818609E-02  0.8377466E-01
       -2   -1    0    0    0  501  0.00000000000E+00  0.00000000000E+00  0.18085384319E+04  0.18085384319E+04  0.25500000920E-02 0. -1.
        2   -1    0    0  501    0  0.00000000000E+00  0.00000000000E+00 -0.91507549994E+03  0.91507549995E+03  0.25500000920E-02 0.  1.
    10030    2    1    2    0    0  0.00000000000E+00  0.00000000000E+00  0.89346293200E+03  0.27236139319E+04  0.25728965854E+04 0.  0.
        5    1    3    3  502    0  0.80428313323E+03 -0.10038807074E+04  0.46442230450E+03  0.13676103246E+04  0.46999998093E+01 0. -1.
       -5    1    3    3    0  502 -0.80428313323E+03  0.10038807074E+04  0.42904062750E+03  0.13560036073E+04  0.46999998093E+01 0.  1.
</event>
<event>
 5   0  0.1005265E-05  0.2766524E+04  0.7818609E-02  0.8313737E-01
        1   -1    0    0  501    0  0.00000000000E+00  0.00000000000E+00  0.17006618234E+04  0.17006618234E+04  0.50400001928E-02 0.  1.
       -1   -1    0    0    0  501  0.00000000000E+00  0.00000000000E+00 -0.11250991553E+04  0.11250991553E+04  0.50400001928E-02 0. -1.
    10030    2    1    2    0    0  0.00000000000E+00  0.00000000000E+00  0.57556266805E+03  0.28257609787E+04  0.27665235810E+04 0.  0.
        3    1    3    3  502    0 -0.27490681930E+03  0.17934723416E+03 -0.10847450996E+04  0.11333186361E+04  0.10100000352E+00 0. -1.
       -3    1    3    3    0  502  0.27490681930E+03 -0.17934723416E+03  0.16603077676E+04  0.16924423426E+04  0.10100000352E+00 0.  1.
</event>
<event>
 5   0  0.1041909E-05  0.2696657E+04  0.7818609E-02  0.8336091E-01
        1   -1    0    0  501    0  0.00000000000E+00  0.00000000000E+00  0.19449044753E+04  0.19449044753E+04  0.50400001928E-02 0. -1.
       -1   -1    0    0    0  501  0.00000000000E+00  0.00000000000E+00 -0.93474472119E+03  0.93474472120E+03  0.50400001928E-02 0.  1.
    10030    2    1    2    0    0  0.00000000000E+00  0.00000000000E+00  0.10101597541E+04  0.28796491965E+04  0.26966565903E+04 0.  0.
        5    1    3    3  502    0 -0.81306976932E+03  0.82794118117E+03 -0.22809543433E+03  0.11826320926E+04  0.46999998093E+01 0.  1.
       -5    1    3    3    0  502  0.81306976932E+03 -0.82794118117E+03  0.12382551884E+04  0.16970171039E+04  0.46999998093E+01 0. -1.
</event>
<event>
 5   0  0.2540684E-05  0.2741792E+04  0.7818609E-02  0.8321571E-01
       -2   -1    0    0    0  501  0.00000000000E+00  0.00000000000E+00  0.17109928529E+04  0.17109928529E+04  0.25500000920E-02 0. -1.
        2   -1    0    0  501    0  0.00000000000E+00  0.00000000000E+00 -0.10984003616E+04  0.10984003616E+04  0.25500000920E-02 0.  1.
    10030    2    1    2    0    0  0.00000000000E+00  0.00000000000E+00  0.61259249132E+03  0.28093932145E+04  0.27417915080E+04 0.  0.
        2    1    3    3  502    0 -0.62492463125E+02 -0.13683361892E+04  0.36340125263E+03  0.14171484415E+04  0.25500000920E-02 0. -1.
       -2    1    3    3    0  502  0.62492463125E+02  0.13683361892E+04  0.24919123868E+03  0.13922447731E+04  0.25500000920E-02 0.  1.
</event>
<event>
 5   0  0.1036691E-05  0.2670017E+04  0.7818609E-02  0.8344799E-01
       -1   -1    0    0    0  501  0.00000000000E+00  0.00000000000E+00  0.19747023878E+04  0.19747023879E+04  0.50400001928E-02 0. -1.
        1   -1    0    0  501    0  0.00000000000E+00  0.00000000000E+00 -0.90254001164E+03  0.90254001166E+03  0.50400001928E-02 0.  1.
    10030    2    1    2    0    0  0.00000000000E+00  0.00000000000E+00  0.10721623762E+04  0.28772423995E+04  0.26700171656E+04 0.  0.
        4    1    3    3  502    0  0.51876795933E+02 -0.21184874940E+03 -0.88320992659E+03  0.90974308566E+03  0.12699999809E+01 0.  1.
       -4    1    3    3    0  502 -0.51876795933E+02  0.21184874940E+03  0.19553723028E+04  0.19674993139E+04  0.12699999809E+01 0. -1.
</event>
<event>
 5   0  0.2615843E-05  0.2601779E+04  0.7818609E-02  0.8367597E-01
       -2   -1    0    0    0  501  0.00000000000E+00  0.00000000000E+00  0.88537726471E+03  0.88537726472E+03  0.25500000920E-02 0. -1.
        2   -1    0    0  501    0  0.00000000000E+00  0.00000000000E+00 -0.19114043020E+04  0.19114043020E+04  0.25500000920E-02 0.  1.
    10030    2    1    2    0    0  0.00000000000E+00  0.00000000000E+00 -0.10260270372E+04  0.27967815667E+04  0.26017793239E+04 0.  0.
        3    1    3    3  502    0  0.10149251306E+02 -0.10701870851E+04  0.28194820860E+03  0.11067511947E+04  0.10100000352E+00 0. -1.
       -3    1    3    3    0  502 -0.10149251306E+02  0.10701870851E+04 -0.13079752458E+04  0.16900303720E+04  0.10100000352E+00 0.  1.
</event>
<event>
 5   0  0.2641216E-05  0.2521017E+04  0.7818609E-02  0.8395536E-01
        2   -1    0    0  501    0  0.00000000000E+00  0.00000000000E+00  0.10488202296E+04  0.10488202296E+04  0.25500000920E-02 0.  1.
       -2   -1    0    0    0  501  0.00000000000E+00  0.00000000000E+00 -0.15149225228E+04  0.15149225228E+04  0.25500000920E-02 0. -1.
    10030    2    1    2    0    0  0.00000000000E+00  0.00000000000E+00 -0.46610229324E+03  0.25637427524E+04  0.25210167696E+04 0.  0.
        5    1    3    3  502    0 -0.19006335249E+03  0.82210201926E+03 -0.11853420980E+04  0.14550030197E+04  0.46999998093E+01 0. -1.
       -5    1    3    3    0  502  0.19006335249E+03 -0.82210201926E+03  0.71923980476E+03  0.11087397327E+04  0.46999998093E+01 0.  1.
</event>
<event>
 5   0  0.2516518E-05  0.2685525E+04  0.7818609E-02  0.8339717E-01
       -2   -1    0    0    0  501  0.00000000000E+00  0.00000000000E+00  0.86403637081E+03  0.86403637082E+03  0.25500000920E-02 0.  1.
        2   -1    0    0  501    0  0.00000000000E+00  0.00000000000E+00 -0.20867304965E+04  0.20867304965E+04  0.25500000920E-02 0. -1.
    10030    2    1    2    0    0  0.00000000000E+00  0.00000000000E+00 -0.12226941257E+04  0.29507668673E+04  0.26855249357E+04 0.  0.
        4    1    3    3  502    0  0.21557693505E+03 -0.12368402143E+04 -0.11345752560E+04  0.16921908153E+04  0.12699999809E+01 0. -1.
       -4    1    3    3    0  502 -0.21557693505E+03  0.12368402143E+04 -0.88118869630E+02  0.12585760520E+04  0.12699999809E+01 0.  1.
</event>
<event>
 5   0  0.1036691E-05  0.2675647E+04  0.7818609E-02  0.8342950E-01
        1   -1    0    0  501    0  0.00000000000E+00  0.00000000000E+00  0.31230409416E+04  0.31230409416E+04  0.50400001928E-02 0. -1.
       -1   -1    0    0    0  501  0.00000000000E+00  0.00000000000E+00 -0.57308635929E+03  0.57308635932E+03  0.50400001928E-02 0.  1.
    10030    2    1    2    0    0  0.00000000000E+00  0.00000000000E+00  0.25499545823E+04  0.36961273010E+04  0.26756473334E+04 0.  0.
        4    1    3    3  502    0  0.35780530211E+03  0.12884664331E+04  0.12197185870E+04  0.18099407249E+04  0.12699999809E+01 0. -1.
       -4    1    3    3    0  502 -0.35780530211E+03 -0.12884664331E+04  0.13302359954E+04  0.18861865760E+04  0.12699999809E+01 0.  1.
</event>
<event>
 5   0  0.2540232E-05  0.2807346E+04  0.7818609E-02  0.8300991E-01
       -2   -1    0    0    0  501  0.00000000000E+00  0.00000000000E+00  0.13286539986E+04  0.13286539986E+04  0.25500000920E-02 0.  1.
        2   -1    0    0  501    0  0.00000000000E+00  0.00000000000E+00 -0.14829273543E+04  0.14829273543E+04  0.25500000920E-02 0. -1.
    10030    2    1    2    0    0  0.00000000000E+00  0.00000000000E+00 -0.15427335578E+03  0.28115813529E+04  0.28073456210E+04 0.  0.
        1    1    3    3  502    0 -0.74315390609E+03  0.10190279344E+04 -0.69418453041E+03  0.14396485062E+04  0.50400001928E-02 0. -1.
       -1    1    3    3    0  502  0.74315390609E+03 -0.10190279344E+04  0.53991117463E+03  0.13719328467E+04  0.50400001928E-02 0.  1.
</event>
<event>
 5   0  0.1036691E-05  0.2355339E+04  0.7818609E-02  0.8456416E-01
        1   -1    0    0  501    0  0.00000000000E+00  0.00000000000E+00  0.19940917294E+04  0.19940917294E+04  0.50400001928E-02 0. -1.
       -1   -1    0    0    0  501  0.00000000000E+00  0.00000000000E+00 -0.69550744158E+03  0.69550744160E+03  0.50400001928E-02 0.  1.
    10030    2    1    2    0    0  0.00000000000E+00  0.00000000000E+00  0.12985842878E+04  0.26895991710E+04  0.23553391577E+04 0.  0.
        4    1    3    3  502    0  0.40541919901E+03 -0.56265511004E+03  0.17361888379E+04  0.18695718209E+04  0.12699999809E+01 0. -1.
       -4    1    3    3    0  502 -0.40541919901E+03  0.56265511004E+03 -0.43760455007E+03  0.82002735011E+03  0.12699999809E+01 0.  1.
</event>
<event>
 5   0  0.2516518E-05  0.2869692E+04  0.7818609E-02  0.8281952E-01
        2   -1    0    0  501    0  0.00000000000E+00  0.00000000000E+00  0.78765089606E+03  0.78765089606E+03  0.25500000920E-02 0.  1.
       -2   -1    0    0    0  501  0.00000000000E+00  0.00000000000E+00 -0.26138275463E+04  0.26138275463E+04  0.25500000920E-02 0. -1.
    10030    2    1    2    0    0  0.00000000000E+00  0.00000000000E+00 -0.18261766503E+04  0.34014784424E+04  0.28696923940E+04 0.  0.
        4    1    3    3  502    0 -0.35447897031E+03  0.41846840892E+03  0.65851576839E+03  0.85698061808E+03  0.12699999809E+01 0.  1.
       -4    1    3    3    0  502  0.35447897031E+03 -0.41846840892E+03 -0.24846924187E+04  0.25444978243E+04  0.12699999809E+01 0. -1.
</event>
<event>
 5   0  0.1096672E-05  0.2587857E+04  0.7818609E-02  0.8372338E-01
        1   -1    0    0  501    0  0.00000000000E+00  0.00000000000E+00  0.14889539359E+04  0.14889539359E+04  0.50400001928E-02 0. -1.
       -1   -1    0    0    0  501  0.00000000000E+00  0.00000000000E+00 -0.11244475566E+04  0.11244475566E+04  0.50400001928E-02 0.  1.
    10030    2    1    2    0    0  0.00000000000E+00  0.00000000000E+00  0.36450637925E+03  0.26134014925E+04  0.25878567311E+04 0.  0.
        1    1    3    3  502    0 -0.26633408049E+03 -0.91064465061E+03  0.10707348657E+04  0.14306224780E+04  0.50400001928E-02 0. -1.
       -1    1    3    3    0  502  0.26633408049E+03  0.91064465061E+03 -0.70622848641E+03  0.11827790145E+04  0.50400001928E-02 0.  1.
</event>
<event>
 5   0  0.2641216E-05  0.2679157E+04  0.7818609E-02  0.8341800E-01
        2   -1    0    0  501    0  0.00000000000E+00  0.00000000000E+00  0.13632793270E+04  0.13632793270E+04  0.25500000920E-02 0. -1.
       -2   -1    0    0    0  501  0.00000000000E+00  0.00000000000E+00 -0.13162897210E+04  0.13162897210E+04  0.25500000920E-02 0.  1.
    10030    2    1    2    0    0  0.00000000000E+00  0.00000000000E+00  0.46989606033E+02  0.26795690480E+04  0.26791570055E+04 0.  0.
        5    1    3    3  502    0  0.71515528805E+03  0.81938517266E+03  0.80566963508E+03  0.13535009413E+04  0.46999998093E+01 0. -1.
       -5    1    3    3    0  502 -0.71515528805E+03 -0.81938517266E+03 -0.75868002905E+03  0.13260681067E+04  0.46999998093E+01 0.  1.
</event>
<event>
 5   0  0.2641216E-05  0.2404421E+04  0.7818609E-02  0.8437850E-01
        2   -1    0    0  501    0  0.00000000000E+00  0.00000000000E+00  0.16071581862E+04  0.16071581862E+04  0.25500000920E-02 0.  1.
       -2   -1    0    0    0  501  0.00000000000E+00  0.00000000000E+00 -0.89929540886E+03  0.89929540887E+03  0.25500000920E-02 0. -1.
    10030    2    1    2    0    0  0.00000000000E+00  0.00000000000E+00  0.70786277730E+03  0.25064535950E+04  0.24044209100E+04 0.  0.
        5    1    3    3  502    0 -0.11077998622E+04  0.33741780402E+03  0.17406198147E+02  0.11581866753E+04  0.46999998093E+01 0. -1.
       -5    1    3    3    0  502  0.11077998622E+04 -0.33741780402E+03  0.69045657915E+03  0.13482669197E+04  0.46999998093E+01 0.  1.
</event>
<event>
 5   0  0.2540684E-05  0.2706237E+04  0.7818609E-02  0.8332984E-01
        2   -1    0    0  501    0  0.00000000000E+00  0.00000000000E+00  0.20294701649E+04  0.20294701649E+04  0.25500000920E-02 0. -1.
       -2   -1    0    0    0  501  0.00000000000E+00  0.00000000000E+00 -0.90217097052E+03  0.90217097052E+03  0.25500000920E-02 0.  1.
    10030    2    1    2    0    0  0.00000000000E+00  0.00000000000E+00  0.11272991943E+04  0.29316411354E+04  0.27062365516E+04 0.  0.
        2    1    3    3  502    0 -0.81293600883E+03  0.82188043985E+03  0.13254862416E+04  0.17587683726E+04  0.25500000920E-02 0. -1.
       -2    1    3    3    0  502  0.81293600883E+03 -0.82188043985E+03 -0.19818704729E+03  0.11728727627E+04  0.25500000920E-02 0.  1.
</event>
<event>
 5   0  0.2540684E-05  0.2454174E+04  0.7818609E-02  0.8419496E-01
        2   -1    0    0  501    0  0.00000000000E+00  0.00000000000E+00  0.19616770611E+04  0.19616770611E+04  0.25500000920E-02 0. -1.
       -2   -1    0    0    0  501  0.00000000000E+00  0.00000000000E+00 -0.76757899108E+03  0.76757899108E+03  0.25500000920E-02 0.  1.
    10030    2    1    2    0    0  0.00000000000E+00  0.00000000000E+00  0.11940980700E+04  0.27292560521E+04  0.24541736690E+04 0.  0.
        2    1    3    3  502    0  0.46216600666E+03 -0.10082893123E+04  0.11807597939E+04  0.16200118660E+04  0.25500000920E-02 0. -1.
       -2    1    3    3    0  502 -0.46216600666E+03  0.10082893123E+04  0.13338276094E+02  0.11092441862E+04  0.25500000920E-02 0.  1.
</event>
<event>
 5   0  0.2540232E-05  0.2674245E+04  0.7818609E-02  0.8343410E-01
       -2   -1    0    0    0  501  0.00000000000E+00  0.00000000000E+00  0.13148237256E+04  0.13148237256E+04  0.25500000920E-02 0.  1.
        2   -1    0    0  501    0  0.00000000000E+00  0.00000000000E+00 -0.13597998404E+04  0.13597998404E+04  0.25500000920E-02 0. -1.
    10030    2    1    2    0    0  0.00000000000E+00  0.00000000000E+00 -0.44976114828E+02  0.26746235660E+04  0.26742453831E+04 0.  0.
        1    1    3    3  502    0 -0.46872431970E+03  0.66084688474E+03 -0.10863470899E+04  0.13552014953E+04  0.50400001928E-02 0. -1.
       -1    1    3    3    0  502  0.46872431970E+03 -0.66084688474E+03  0.10413709751E+04  0.13194220707E+04  0.50400001928E-02 0.  1.
</event>
<event>
 5   0  0.1005265E-05  0.2675354E+04  0.7818609E-02  0.8343046E-01
        1   -1    0    0  501    0  0.00000000000E+00  0.00000000000E+00  0.16211001229E+04  0.16211001229E+04  0.50400001928E-02 0.  1.
       -1   -1    0    0    0  501  0.00000000000E+00  0.00000000000E+00 -0.11038055283E+04  0.11038055283E+04  0.50400001928E-02 0. -1.
    10030    2    1    2    0    0  0.00000000000E+00  0.00000000000E+00  0.51729459452E+03  0.27249056512E+04  0.26753536421E+04 0.  0.
        3    1    3    3  502    0 -0.74625529036E+03  0.11096563447E+04  0.29311346846E+03  0.13689958646E+04  0.10100000352E+00 0.  1.
       -3    1    3    3    0  502  0.74625529036E+03 -0.11096563447E+04  0.22418112606E+03  0.13559097866E+04  0.10100000352E+00 0. -1.
</event>
<event>
 5   0  0.1005265E-05  0.2691438E+04  0.7818609E-02  0.8337788E-01
       -1   -1    0    0    0  501  0.00000000000E+00  0.00000000000E+00  0.97600003704E+03  0.97600003706E+03  0.50400001928E-02 0. -1.
        1   -1    0    0  501    0  0.00000000000E+00  0.00000000000E+00 -0.18554909598E+04  0.18554909599E+04  0.50400001928E-02 0.  1.
    10030    2    1    2    0    0  0.00000000000E+00  0.00000000000E+00 -0.87949092281E+03  0.28314909969E+04  0.26914377166E+04 0.  0.
        3    1    3    3  502    0  0.12260895107E+04 -0.28062788208E+03 -0.94308944647E+03  0.15720894411E+04  0.10100000352E+00 0.  1.
       -3    1    3    3    0  502 -0.12260895107E+04  0.28062788208E+03  0.63598523658E+02  0.12594015558E+04  0.10100000352E+00 0. -1.
</event>
<event>
 5   0  0.2615843E-05  0.2647985E+04  0.7818609E-02  0.8352082E-01
        2   -1    0    0  501    0  0.00000000000E+00  0.00000000000E+00  0.10867594595E+04  0.10867594595E+04  0.25500000920E-02 0. -1.
       -2   -1    0    0    0  501  0.00000000000E+00  0.00000000000E+00 -0.16130124088E+04  0.16130124088E+04  0.25500000920E-02 0.  1.
    10030    2    1    2    0    0  0.00000000000E+00  0.00000000000E+00 -0.52625294927E+03  0.26997718683E+04  0.26479852670E+04 0.  0.
        3    1    3    3  502    0  0.90619171813E+03  0.37850806556E+03  0.64221756297E+03  0.11734117752E+04  0.10100000352E+00 0. -1.
       -3    1    3    3    0  502 -0.90619171813E+03 -0.37850806556E+03 -0.11684705122E+04  0.15263600931E+04  0.10100000352E+00 0.  1.
</event>
<event>
 5   0  0.1096672E-05  0.2681720E+04  0.7818609E-02  0.8340961E-01
        1   -1    0    0  501    0  0.00000000000E+00  0.00000000000E+00  0.14736833096E+04  0.14736833096E+04  0.50400001928E-02 0. -1.
       -1   -1    0    0    0  501  0.00000000000E+00  0.00000000000E+00 -0.12200084330E+04  0.12200084330E+04  0.50400001928E-02 0.  1.
    10030    2    1    2    0    0  0.00000000000E+00  0.00000000000E+00  0.25367487659E+03  0.26936917426E+04  0.26817203920E+04 0.  0.
        1    1    3    3  502    0 -0.81723506360E+03  0.94872059042E+03 -0.35484696876E+03  0.13014838759E+04  0.50400001928E-02 0.  1.
       -1    1    3    3    0  502  0.81723506360E+03 -0.94872059042E+03  0.60852184535E+03  0.13922078667E+04  0.50400001928E-02 0. -1.
</event>
<event>
 5   0  0.2540684E-05  0.2676035E+04  0.7818609E-02  0.8342823E-01
        2   -1    0    0  501    0  0.00000000000E+00  0.00000000000E+00  0.22394817814E+04  0.22394817814E+04  0.25500000920E-02 0.  1.
       -2   -1    0    0    0  501  0.00000000000E+00  0.00000000000E+00 -0.79942205656E+03  0.79942205656E+03  0.25500000920E-02 0. -1.
    10030    2    1    2    0    0  0.00000000000E+00  0.00000000000E+00  0.14400597249E+04  0.30389038380E+04  0.26760352250E+04 0.  0.
        2    1    3    3  502    0 -0.88687691561E+03  0.63748497314E+03 -0.15765941643E+03  0.11035371521E+04  0.25500000920E-02 0. -1.
       -2    1    3    3    0  502  0.88687691561E+03 -0.63748497314E+03  0.15977191413E+04  0.19353666859E+04  0.25500000920E-02 0.  1.
</event>
<event>
 5   0  0.1036691E-05  0.2656117E+04  0.7818609E-02  0.8349386E-01
       -1   -1    0    0    0  501  0.00000000000E+00  0.00000000000E+00  0.72020996254E+03  0.72020996256E+03  0.50400001928E-02 0. -1.
        1   -1    0    0  501    0  0.00000000000E+00  0.00000000000E+00 -0.24489232466E+04  0.24489232466E+04  0.50400001928E-02 0.  1.
    10030    2    1    2    0    0  0.00000000000E+00  0.00000000000E+00 -0.17287132841E+04  0.31691332092E+04  0.26561166539E+04 0.  0.
        4    1    3    3  502    0 -0.32211172058E+02  0.12961222868E+04 -0.12076151730E+04  0.17718088387E+04  0.12699999809E+01 0.  1.
       -4    1    3    3    0  502  0.32211172058E+02 -0.12961222868E+04 -0.52109811109E+03  0.13973243705E+04  0.12699999809E+01 0. -1.
</event>
<event>
 5   0  0.1096672E-05  0.2433448E+04  0.7818609E-02  0.8427086E-01
       -1   -1    0    0    0  501  0.00000000000E+00  0.00000000000E+00  0.82804982933E+03  0.82804982934E+03  0.50400001928E-02 0.  1.
        1   -1    0    0  501    0  0.00000000000E+00  0.00000000000E+00 -0.17878362971E+04  0.17878362971E+04  0.50400001928E-02 0. -1.
    10030    2    1    2    0    0  0.00000000000E+00  0.00000000000E+00 -0.95978646781E+03  0.26158861265E+04  0.24334482043E+04 0.  0.
        1    1    3    3  502    0 -0.85875323364E+03 -0.25830115167E+03 -0.13638834483E+04  0.16322851043E+04  0.50400001928E-02 0. -1.
       -1    1    3    3    0  502  0.85875323364E+03  0.25830115167E+03  0.40409698044E+03  0.98360102220E+03  0.50400001928E-02 0.  1.
</event>
<event>
 5   0  0.9971923E-06  0.2648401E+04  0.7818609E-02  0.8351944E-01
       -1   -1    0    0    0  501  0.00000000000E+00  0.00000000000E+00  0.99455345822E+03  0.99455345823E+03  0.50400001928E-02 0. -1.
        1   -1    0    0  501    0  0.00000000000E+00  0.00000000000E+00 -0.17631102842E+04  0.17631102842E+04  0.50400001928E-02 0.  1.
    10030    2    1    2    0    0  0.00000000000E+00  0.00000000000E+00 -0.76855682599E+03  0.27576637424E+04  0.26484013521E+04 0.  0.
        2    1    3    3  502    0 -0.41455056762E+03  0.10971038273E+04 -0.10244759608E+04  0.15572539855E+04  0.25500000920E-02 0.  1.
       -2    1    3    3    0  502  0.41455056762E+03 -0.10971038273E+04  0.25591913483E+03  0.12004097570E+04  0.25500000920E-02 0. -1.
</event>
<event>
 5   0  0.1005265E-05  0.2346855E+04  0.7818609E-02  0.8459673E-01
       -1   -1    0    0    0  501  0.00000000000E+00  0.00000000000E+00  0.92734179778E+03  0.92734179779E+03  0.50400001928E-02 0. -1.
        1   -1    0    0  501    0  0.00000000000E+00  0.00000000000E+00 -0.14848161957E+04  0.14848161957E+04  0.50400001928E-02 0.  1.
    10030    2    1    2    0    0  0.00000000000E+00  0.00000000000E+00 -0.55747439792E+03  0.24121579935E+04  0.23468550192E+04 0.  0.
        3    1    3    3  502    0  0.72292320324E+03 -0.51545666749E+03 -0.10673003355E+04  0.13883240076E+04  0.10100000352E+00 0.  1.
       -3    1    3    3    0  502 -0.72292320324E+03  0.51545666749E+03  0.50982593754E+03  0.10238339859E+04  0.10100000352E+00 0. -1.
</event>
<event>
 5   0  0.2516518E-05  0.2018688E+04  0.7818609E-02  0.8597933E-01
        2   -1    0    0  501    0  0.00000000000E+00  0.00000000000E+00  0.93802788072E+03  0.93802788073E+03  0.25500000920E-02 0.  1.
       -2   -1    0    0    0  501  0.00000000000E+00  0.00000000000E+00 -0.10860816357E+04  0.10860816357E+04  0.25500000920E-02 0. -1.
    10030    2    1    2    0    0  0.00000000000E+00  0.00000000000E+00 -0.14805375497E+03  0.20241095164E+04  0.20186875489E+04 0.  0.
        4    1    3    3  502    0 -0.96241187453E+02 -0.86288032576E+03  0.44208703822E+03  0.97430353843E+03  0.12699999809E+01 0.  1.
       -4    1    3    3    0  502  0.96241187453E+02  0.86288032576E+03 -0.59014079319E+03  0.10498059780E+04  0.12699999809E+01 0. -1.
</event>
<event>
 5   0  0.2516518E-05  0.2557453E+04  0.7818609E-02  0.8382799E-01
        2   -1    0    0  501    0  0.00000000000E+00  0.00000000000E+00  0.12025651136E+04  0.12025651136E+04  0.25500000920E-02 0. -1.
       -2   -1    0    0    0  501  0.00000000000E+00  0.00000000000E+00 -0.13597114025E+04  0.13597114025E+04  0.25500000920E-02 0.  1.
    10030    2    1    2    0    0  0.00000000000E+00  0.00000000000E+00 -0.15714628890E+03  0.25622765162E+04  0.25574530278E+04 0.  0.
        4    1    3    3  502    0  0.92396151832E+03 -0.10661131664E+03  0.80061770135E+03  0.12272168418E+04  0.12699999809E+01 0.  1.
       -4    1    3    3    0  502 -0.92396151832E+03  0.10661131664E+03 -0.95776399026E+03  0.13350596744E+04  0.12699999809E+01 0. -1.
</event>
<event>
 5   0  0.9971923E-06  0.2650238E+04  0.7818609E-02  0.8351334E-01
       -1   -1    0    0    0  501  0.00000000000E+00  0.00000000000E+00  0.12503709940E+04  0.12503709941E+04  0.50400001928E-02 0.  1.
        1   -1    0    0  501    0  0.00000000000E+00  0.00000000000E+00 -0.14043353859E+04  0.14043353859E+04  0.50400001928E-02 0. -1.
    10030    2    1    2    0    0  0.00000000000E+00  0.00000000000E+00 -0.15396439189E+03  0.26547063800E+04  0.26502379006E+04 0.  0.
        2    1    3    3  502    0 -0.95009420377E+03  0.80675012158E+03 -0.52764684448E+03  0.13534902834E+04  0.25500000920E-02 0. -1.
       -2    1    3    3    0  502  0.95009420377E+03 -0.80675012158E+03  0.37368245259E+03  0.13012160966E+04  0.25500000920E-02 0.  1.
</event>
<event>
 5   0  0.2516518E-05  0.2674645E+04  0.7818609E-02  0.8343279E-01
        2   -1    0    0  501    0  0.00000000000E+00  0.00000000000E+00  0.15137596832E+04  0.15137596832E+04  0.25500000920E-02 0.  1.
       -2   -1    0    0    0  501  0.00000000000E+00  0.00000000000E+00 -0.11814504682E+04  0.11814504682E+04  0.25500000920E-02 0. -1.
    10030    2    1    2    0    0  0.00000000000E+00  0.00000000000E+00  0.33230921500E+03  0.26952101513E+04  0.26746454616E+04 0.  0.
        4    1    3    3  502    0 -0.12740131112E+04  0.34765080389E+03  0.37863118624E+03  0.13738026340E+04  0.12699999809E+01 0.  1.
       -4    1    3    3    0  502  0.12740131112E+04 -0.34765080389E+03 -0.46321971245E+02  0.13214075174E+04  0.12699999809E+01 0. -1.
</event>
<event>
 5   0  0.2540232E-05  0.2707231E+04  0.7818609E-02  0.8332662E-01
       -2   -1    0    0    0  501  0.00000000000E+00  0.00000000000E+00  0.10630987452E+04  0.10630987452E+04  0.25500000920E-02 0.  1.
        2   -1    0    0  501    0  0.00000000000E+00  0.00000000000E+00 -0.17235232069E+04  0.17235232069E+04  0.25500000920E-02 0. -1.
    10030    2    1    2    0    0  0.00000000000E+00  0.00000000000E+00 -0.66042446164E+03  0.27866219521E+04  0.27072313227E+04 0.  0.
        1    1    3    3  502    0  0.89542921675E+03  0.91136431244E+03 -0.79042195346E+03  0.15023798643E+04  0.50400001928E-02 0. -1.
       -1    1    3    3    0  502 -0.89542921675E+03 -0.91136431244E+03  0.12999749181E+03  0.12842420878E+04  0.50400001928E-02 0.  1.
</event>
<event>
 5   0  0.2516518E-05  0.2108091E+04  0.7818609E-02  0.8557688E-01
        2   -1    0    0  501    0  0.00000000000E+00  0.00000000000E+00  0.86788016583E+03  0.86788016583E+03  0.25500000920E-02 0. -1.
       -2   -1    0    0    0  501  0.00000000000E+00  0.00000000000E+00 -0.12801440458E+04  0.12801440458E+04  0.25500000920E-02 0.  1.
    10030    2    1    2    0    0  0.00000000000E+00  0.00000000000E+00 -0.41226387996E+03  0.21480242116E+04  0.21080907255E+04 0.  0.
        4    1    3    3  502    0 -0.63383259614E+03  0.80720422183E+03 -0.45086413382E+03  0.11209828258E+04  0.12699999809E+01 0.  1.
       -4    1    3    3    0  502  0.63383259614E+03 -0.80720422183E+03  0.38600253867E+02  0.10270413858E+04  0.12699999809E+01 0. -1.
</event>
<event>
 5   0  0.1005265E-05  0.2696210E+04  0.7818609E-02  0.8336236E-01
        1   -1    0    0  501    0  0.00000000000E+00  0.00000000000E+00  0.54553929735E+03  0.54553929738E+03  0.50400001928E-02 0.  1.
       -1   -1    0    0    0  501  0.00000000000E+00  0.00000000000E+00 -0.33313578407E+04  0.33313578407E+04  0.50400001928E-02 0. -1.
    10030    2    1    2    0    0  0.00000000000E+00  0.00000000000E+00 -0.27858185433E+04  0.38768971381E+04  0.26962096474E+04 0.  0.
        3    1    3    3  502    0 -0.66011764690E+03  0.11588141190E+03  0.28901275017E+03  0.72987135122E+03  0.10100000352E+00 0.  1.
       -3    1    3    3    0  502  0.66011764690E+03 -0.11588141190E+03 -0.30748312935E+04  0.31470257868E+04  0.10100000352E+00 0. -1.
</event>
<event>
 5   0  0.2641216E-05  0.2680822E+04  0.7818609E-02  0.8341254E-01
       -2   -1    0    0    0  501  0.00000000000E+00  0.00000000000E+00  0.87468503227E+03  0.87468503227E+03  0.25500000920E-02 0. -1.
        2   -1    0    0  501    0  0.00000000000E+00  0.00000000000E+00 -0.20541129052E+04  0.20541129052E+04  0.25500000920E-02 0.  1.
    10030    2    1    2    0    0  0.00000000000E+00  0.00000000000E+00 -0.11794278729E+04  0.29287979374E+04  0.26808221222E+04 0.  0.
        5    1    3    3  502    0 -0.19751314930E+03  0.11646574951E+04 -0.12817427392E+04  0.17430791905E+04  0.46999998093E+01 0.  1.
       -5    1    3    3    0  502  0.19751314930E+03 -0.11646574951E+04  0.10231486628E+03  0.11857187469E+04  0.46999998093E+01 0. -1.
</event>
<event>
 5   0  0.1041909E-05  0.2591819E+04  0.7818609E-02  0.8370986E-01
       -1   -1    0    0    0  501  0.00000000000E+00  0.00000000000E+00  0.13286185298E+04  0.13286185298E+04  0.50400001928E-02 0.  1.
        1   -1    0    0  501    0  0.00000000000E+00  0.00000000000E+00 -0.12640052899E+04  0.12640052899E+04  0.50400001928E-02 0. -1.
    10030    2    1    2    0    0  0.00000000000E+00  0.00000000000E+00  0.64613239934E+02  0.25926238197E+04  0.25918185506E+04 0.  0.
        5    1    3    3  502    0 -0.11475873172E+04  0.60103079376E+03 -0.18228043362E+01  0.12954613380E+04  0.46999998093E+01 0. -1.
       -5    1    3    3    0  502  0.11475873172E+04 -0.60103079376E+03  0.66436044270E+02  0.12971624816E+04  0.46999998093E+01 0.  1.
</event>
<event>
 5   0  0.1005265E-05  0.2695278E+04  0.7818609E-02  0.8336539E-01
        1   -1    0    0  501    0  0.00000000000E+00  0.00000000000E+00  0.17279534749E+04  0.17279534749E+04  0.50400001928E-02 0.  1.
       -1   -1    0    0    0  501  0.00000000000E+00  0.00000000000E+00 -0.10510297877E+04  0.10510297877E+04  0.50400001928E-02 0. -1.
    10030    2    1    2    0    0  0.00000000000E+00  0.00000000000E+00  0.67692368723E+03  0.27789832626E+04  0.26952777771E+04 0.  0.
        3    1    3    3  502    0  0.28455009402E+02 -0.11837895357E+04  0.10018432188E+04  0.15510825889E+04  0.10100000352E+00 0.  1.
       -3    1    3    3    0  502 -0.28455009402E+02  0.11837895357E+04 -0.32491953154E+03  0.12279006737E+04  0.10100000352E+00 0. -1.
</event>
<event>
 5   0  0.2615843E-05  0.2664146E+04  0.7818609E-02  0.8346733E-01
        2   -1    0    0  501    0  0.00000000000E+00  0.00000000000E+00  0.19243195321E+04  0.19243195321E+04  0.25500000920E-02 0. -1.
       -2   -1    0    0    0  501  0.00000000000E+00  0.00000000000E+00 -0.92210175329E+03  0.92210175329E+03  0.25500000920E-02 0.  1.
    10030    2    1    2    0    0  0.00000000000E+00  0.00000000000E+00  0.10022177788E+04  0.28464212854E+04  0.26641459528E+04 0.  0.
        3    1    3    3  502    0 -0.13035892291E+04 -0.26474625968E+03  0.57652847893E+03  0.14497656906E+04  0.10100000352E+00 0. -1.
       -3    1    3    3    0  502  0.13035892291E+04  0.26474625968E+03  0.42568929986E+03  0.13966555948E+04  0.10100000352E+00 0.  1.
</event>
<event>
 5   0  0.1096672E-05  0.2850507E+04  0.7818609E-02  0.8287757E-01
        1   -1    0    0  501    0  0.00000000000E+00  0.00000000000E+00  0.18994609138E+04  0.18994609138E+04  0.50400001928E-02 0.  1.
       -1   -1    0    0    0  501  0.00000000000E+00  0.00000000000E+00 -0.10694339056E+04  0.10694339056E+04  0.50400001928E-02 0. -1.
    10030    2    1    2    0    0  0.00000000000E+00  0.00000000000E+00  0.83002700821E+03  0.29688948194E+04  0.28505072556E+04 0.  0.
        1    1    3    3  502    0 -0.71016376365E+03 -0.95940664598E+03  0.12261752764E+04  0.17112274811E+04  0.50400001928E-02 0.  1.
       -1    1    3    3    0  502  0.71016376365E+03  0.95940664598E+03 -0.39614826816E+03  0.12576673383E+04  0.50400001928E-02 0. -1.
</event>
<event>
 5   0  0.1036691E-05  0.2683223E+04  0.7818609E-02  0.8340469E-01
        1   -1    0    0  501    0  0.00000000000E+00  0.00000000000E+00  0.82008323283E+03  0.82008323284E+03  0.50400001928E-02 0.  1.
       -1   -1    0    0    0  501  0.00000000000E+00  0.00000000000E+00 -0.21948033567E+04  0.21948033567E+04  0.50400001928E-02 0. -1.
    10030    2    1    2    0    0  0.00000000000E+00  0.00000000000E+00 -0.13747201239E+04  0.30148865895E+04  0.26832230114E+04 0.  0.
        4    1    3    3  502    0 -0.68906796851E+03  0.83751618110E+03  0.19998444277E+03  0.11028342618E+04  0.12699999809E+01 0.  1.
       -4    1    3    3    0  502  0.68906796851E+03 -0.83751618110E+03 -0.15747045666E+04  0.19120523277E+04  0.12699999809E+01 0. -1.
</event>
<event>
 5   0  0.1041909E-05  0.2571230E+04  0.7818609E-02  0.8378040E-01
        1   -1    0    0  501    0  0.00000000000E+00  0.00000000000E+00  0.19025456215E+04  0.19025456215E+04  0.50400001928E-02 0.  1.
       -1   -1    0    0    0  501  0.00000000000E+00  0.00000000000E+00 -0.86873396988E+03  0.86873396990E+03  0.50400001928E-02 0. -1.
    10030    2    1    2    0    0  0.00000000000E+00  0.00000000000E+00  0.10338116516E+04  0.27712795914E+04  0.25712300641E+04 0.  0.
        5    1    3    3  502    0  0.54727172472E+03  0.11242864273E+04  0.83891039264E+03  0.15057619494E+04  0.46999998093E+01 0.  1.
       -5    1    3    3    0  502 -0.54727172472E+03 -0.11242864273E+04  0.19490125893E+03  0.12655176420E+04  0.46999998093E+01 0. -1.
</event>
<event>
 5   0  0.1036691E-05  0.2822797E+04  0.7818609E-02  0.8296226E-01
       -1   -1    0    0    0  501  0.00000000000E+00  0.00000000000E+00  0.14624177400E+04  0.14624177400E+04  0.50400001928E-02 0.  1.
        1   -1    0    0  501    0  0.00000000000E+00  0.00000000000E+00 -0.13621591070E+04  0.13621591071E+04  0.50400001928E-02 0. -1.
    10030    2    1    2    0    0  0.00000000000E+00  0.00000000000E+00  0.10025863296E+03  0.28245768471E+04  0.28227969413E+04 0.  0.
        4    1    3    3  502    0  0.65665871048E+03 -0.40770837755E+03 -0.11315544587E+04  0.13703444417E+04  0.12699999809E+01 0. -1.
       -4    1    3    3    0  502 -0.65665871048E+03  0.40770837755E+03  0.12318130916E+04  0.14542324053E+04  0.12699999809E+01 0.  1.
</event>
<event>
 5   0  0.1096672E-05  0.2647680E+04  0.7818609E-02  0.8352184E-01
        1   -1    0    0  501    0  0.00000000000E+00  0.00000000000E+00  0.82299576749E+03  0.82299576750E+03  0.50400001928E-02 0. -1.
       -1   -1    0    0    0  501  0.00000000000E+00  0.00000000000E+00 -0.21294785261E+04  0.21294785261E+04  0.50400001928E-02 0.  1.
    10030    2    1    2    0    0  0.00000000000E+00  0.00000000000E+00 -0.13064827586E+04  0.29524742936E+04  0.26476795984E+04 0.  0.
        1    1    3    3  502    0  0.43857823228E+03 -0.72982334295E+03 -0.17836202867E+04  0.19764347460E+04  0.50400001928E-02 0.  1.
       -1    1    3    3    0  502 -0.43857823228E+03  0.72982334295E+03  0.47713752815E+03  0.97603954763E+03  0.50400001928E-02 0. -1.
</event>
<event>
 5   0  0.2516518E-05  0.2642991E+04  0.7818609E-02  0.8353743E-01
        2   -1    0    0  501    0  0.00000000000E+00  0.00000000000E+00  0.13940785482E+04  0.13940785482E+04  0.25500000920E-02 0.  1.
       -2   -1    0    0    0  501  0.00000000000E+00  0.00000000000E+00 -0.12526910856E+04  0.12526910856E+04  0.25500000920E-02 0. -1.
    10030    2    1    2    0    0  0.00000000000E+00  0.00000000000E+00  0.14138746262E+03  0.26467696338E+04  0.26429905561E+04 0.  0.
        4    1    3    3  502    0  0.42028903484E+03 -0.12385265859E+04  0.26005980045E+03  0.13335005397E+04  0.12699999809E+01 0.  1.
       -4    1    3    3    0  502 -0.42028903484E+03  0.12385265859E+04 -0.11867233783E+03  0.13132690941E+04  0.12699999809E+01 0. -1.
</event>
<event>
 5   0  0.1036691E-05  0.2183317E+04  0.7818609E-02  0.8525404E-01
       -1   -1    0    0    0  501  0.00000000000E+00  0.00000000000E+00  0.93032473896E+03  0.93032473897E+03  0.50400001928E-02 0. -1.
        1   -1    0    0  501    0  0.00000000000E+00  0.00000000000E+00 -0.12809701977E+04  0.12809701977E+04  0.50400001928E-02 0.  1.
    10030    2    1    2    0    0  0.00000000000E+00  0.00000000000E+00 -0.35064545874E+03  0.22112949367E+04  0.21833169855E+04 0.  0.
        4    1    3    3  502    0  0.53999060664E+02 -0.95930081761E+03  0.34952889942E+03  0.10224216457E+04  0.12699999809E+01 0. -1.
       -4    1    3    3    0  502 -0.53999060664E+02  0.95930081761E+03 -0.70017435815E+03  0.11888732910E+04  0.12699999809E+01 0.  1.
</event>
<event>
 5   0  0.1096672E-05  0.2639461E+04  0.7818609E-02  0.8354920E-01
       -1   -1    0    0    0  501  0.00000000000E+00  0.00000000000E+00  0.70379116804E+03  0.70379116806E+03  0.50400001928E-02 0.  1.
        1   -1    0    0  501    0  0.00000000000E+00  0.00000000000E+00 -0.24747229521E+04  0.24747229521E+04  0.50400001928E-02 0. -1.
    10030    2    1    2    0    0  0.00000000000E+00  0.00000000000E+00 -0.17709317840E+04  0.31785141201E+04  0.26394606700E+04 0.  0.
        1    1    3    3  502    0 -0.10316219988E+04  0.56038605900E+03 -0.15951308835E+03  0.11847872842E+04  0.50400001928E-02 0.  1.
       -1    1    3    3    0  502  0.10316219988E+04 -0.56038605900E+03 -0.16114186957E+04  0.19937268359E+04  0.50400001928E-02 0. -1.
</event>
<event>
 5   0  0.1005265E-05  0.2642186E+04  0.7818609E-02  0.8354011E-01
        1   -1    0    0  501    0  0.00000000000E+00  0.00000000000E+00  0.14112111219E+04  0.14112111219E+04  0.50400001928E-02 0.  1.
       -1   -1    0    0    0  501  0.00000000000E+00  0.00000000000E+00 -0.12367300581E+04  0.12367300581E+04  0.50400001928E-02 0. -1.
    10030    2    1    2    0    0  0.00000000000E+00  0.00000000000E+00  0.17448106385E+03  0.26479411800E+04  0.26421863771E+04 0.  0.
        3    1    3    3  502    0  0.67047266833E+03 -0.75478488161E+03 -0.76670301745E+03  0.12677015988E+04  0.10100000352E+00 0. -1.
       -3    1    3    3    0  502 -0.67047266833E+03  0.75478488161E+03  0.94118408130E+03  0.13802395812E+04  0.10100000352E+00 0.  1.
</event>
<event>
 5   0  0.1005265E-05  0.2744280E+04  0.7818609E-02  0.8320779E-01
       -1   -1    0    0    0  501  0.00000000000E+00  0.00000000000E+00  0.14317283684E+04  0.14317283684E+04  0.50400001928E-02 0. -1.
        1   -1    0    0  501    0  0.00000000000E+00  0.00000000000E+00 -0.13150319914E+04  0.13150319914E+04  0.50400001928E-02 0.  1.
    10030    2    1    2    0    0  0.00000000000E+00  0.00000000000E+00  0.11669637701E+03  0.27467603598E+04  0.27442803118E+04 0.  0.
        3    1    3    3  502    0  0.62278558592E+03  0.14625760264E+03 -0.11566332537E+04  0.13217615769E+04  0.10100000352E+00 0.  1.
       -3    1    3    3    0  502 -0.62278558592E+03 -0.14625760264E+03  0.12733296307E+04  0.14249987828E+04  0.10100000352E+00 0. -1.
</event>
<event>
 5   0  0.2516518E-05  0.2714009E+04  0.7818609E-02  0.8330474E-01
       -2   -1    0    0    0  501  0.00000000000E+00  0.00000000000E+00  0.57757720216E+03  0.57757720216E+03  0.25500000920E-02 0. -1.
        2   -1    0    0  501    0  0.00000000000E+00  0.00000000000E+00 -0.31882520977E+04  0.31882520978E+04  0.25500000920E-02 0.  1.
    10030    2    1    2    0    0  0.00000000000E+00  0.00000000000E+00 -0.26106748956E+04  0.37658292999E+04  0.27140093783E+04 0.  0.
        4    1    3    3  502    0  0.91711310138E+02  0.96918052132E+03  0.64227906622E+01  0.97353208085E+03  0.12699999809E+01 0. -1.
       -4    1    3    3    0  502 -0.91711310138E+02 -0.96918052132E+03 -0.26170976863E+04  0.27922972191E+04  0.12699999809E+01 0.  1.
</event>
<event>
 5   0  0.9971923E-06  0.2708043E+04  0.7818609E-02  0.8332400E-01
       -1   -1    0    0    0  501  0.00000000000E+00  0.00000000000E+00  0.12007851285E+04  0.12007851285E+04  0.50400001928E-02 0.  1.
        1   -1    0    0  501    0  0.00000000000E+00  0.00000000000E+00 -0.15268129712E+04  0.15268129712E+04  0.50400001928E-02 0. -1.
    10030    2    1    2    0    0  0.00000000000E+00  0.00000000000E+00 -0.32602784275E+03  0.27275980997E+04  0.27080430645E+04 0.  0.
        2    1    3    3  502    0 -0.11683129036E+04 -0.17159097752E+03 -0.83035076822E+03  0.14435653441E+04  0.25500000920E-02 0. -1.
       -2    1    3    3    0  502  0.11683129036E+04  0.17159097752E+03  0.50432292547E+03  0.12840327556E+04  0.25500000920E-02 0.  1.
</event>
<event>
 5   0  0.1036691E-05  0.2082244E+04  0.7818609E-02  0.8569106E-01
        1   -1    0    0  501    0  0.00000000000E+00  0.00000000000E+00  0.20129538518E+04  0.20129538518E+04  0.50400001928E-02 0.  1.
       -1   -1    0    0    0  501  0.00000000000E+00  0.00000000000E+00 -0.53847969622E+03  0.53847969625E+03  0.50400001928E-02 0. -1.
    10030    2    1    2    0    0  0.00000000000E+00  0.00000000000E+00  0.14744741555E+04  0.25514335480E+04  0.20822437693E+04 0.  0.
        4    1    3    3  502    0  0.58650584077E+03 -0.34627260593E+03  0.17020926637E+04  0.18333070849E+04  0.12699999809E+01 0.  1.
       -4    1    3    3    0  502 -0.58650584077E+03  0.34627260593E+03 -0.22761850815E+03  0.71812646311E+03  0.12699999809E+01 0. -1.
</event>
<event>
 5   0  0.2516518E-05  0.2699866E+04  0.7818609E-02  0.8335049E-01
       -2   -1    0    0    0  501  0.00000000000E+00  0.00000000000E+00  0.11332067352E+04  0.11332067352E+04  0.25500000920E-02 0. -1.
        2   -1    0    0  501    0  0.00000000000E+00  0.00000000000E+00 -0.16081079830E+04  0.16081079830E+04  0.25500000920E-02 0.  1.
    10030    2    1    2    0    0  0.00000000000E+00  0.00000000000E+00 -0.47490124779E+03  0.27413147183E+04  0.26998657725E+04 0.  0.
        4    1    3    3  502    0 -0.32731349359E+03  0.92438920143E+03  0.70452467437E+03  0.12074709721E+04  0.12699999809E+01 0. -1.
       -4    1    3    3    0  502  0.32731349359E+03 -0.92438920143E+03 -0.11794259222E+04  0.15338437461E+04  0.12699999809E+01 0.  1.
</event>
<event>
 5   0  0.2641216E-05  0.2688356E+04  0.7818609E-02  0.8338793E-01
        2   -1    0    0  501    0  0.00000000000E+00  0.00000000000E+00  0.14256579172E+04  0.14256579172E+04  0.25500000920E-02 0. -1.
       -2   -1    0    0    0  501  0.00000000000E+00  0.00000000000E+00 -0.12673547729E+04  0.12673547729E+04  0.25500000920E-02 0.  1.
    10030    2    1    2    0    0  0.00000000000E+00  0.00000000000E+00  0.15830314437E+03  0.26930126901E+04  0.26883559034E+04 0.  0.
        5    1    3    3  502    0 -0.33489838199E+02  0.34485888189E+03 -0.12218448509E+04  0.12700299789E+04  0.46999998093E+01 0.  1.
       -5    1    3    3    0  502  0.33489838199E+02 -0.34485888189E+03  0.13801479952E+04  0.14229827112E+04  0.46999998093E+01 0. -1.
</event>
<event>
 5   0  0.1036691E-05  0.2852419E+04  0.7818609E-02  0.8287177E-01
       -1   -1    0    0    0  501  0.00000000000E+00  0.00000000000E+00  0.90869738816E+03  0.90869738817E+03  0.50400001928E-02 0.  1.
        1   -1    0    0  501    0  0.00000000000E+00  0.00000000000E+00 -0.22384497891E+04  0.22384497891E+04  0.50400001928E-02 0. -1.
    10030    2    1    2    0    0  0.00000000000E+00  0.00000000000E+00 -0.13297524009E+04  0.31471471772E+04  0.28524189572E+04 0.  0.
        4    1    3    3  502    0  0.11907711270E+04 -0.77148247447E+03 -0.50517660193E+03  0.15060963108E+04  0.12699999809E+01 0.  1.
       -4    1    3    3    0  502 -0.11907711270E+04  0.77148247447E+03 -0.82457579897E+03  0.16410508665E+04  0.12699999809E+01 0. -1.
</event>
<event>
 5   0  0.2516518E-05  0.2671643E+04  0.7818609E-02  0.8344265E-01
       -2   -1    0    0    0  501  0.00000000000E+00  0.00000000000E+00  0.11330197592E+04  0.11330197592E+04  0.25500000920E-02 0.  1.
        2   -1    0    0  501    0  0.00000000000E+00  0.00000000000E+00 -0.15749226793E+04  0.15749226793E+04  0.25500000920E-02 0. -1.
    10030    2    1    2    0    0  0.00000000000E+00  0.00000000000E+00 -0.44190292009E+03  0.27079424385E+04  0.26716425770E+04 0.  0.
        4    1    3    3  502    0  0.60686575957E+03 -0.10254430740E+04  0.39107166015E+03  0.12540965690E+04  0.12699999809E+01 0. -1.
       -4    1    3    3    0  502 -0.60686575957E+03  0.10254430740E+04 -0.83297458024E+03  0.14538458695E+04  0.12699999809E+01 0.  1.
</event>
<event>
 5   0  0.2615843E-05  0.2625782E+04  0.7818609E-02  0.8359496E-01
        2   -1    0    0  501    0  0.00000000000E+00  0.00000000000E+00  0.81188406134E+03  0.81188406135E+03  0.25500000920E-02 0. -1.
       -2   -1    0    0    0  501  0.00000000000E+00  0.00000000000E+00 -0.21230653332E+04  0.21230653332E+04  0.25500000920E-02 0.  1.
    10030    2    1    2    0    0  0.00000000000E+00  0.00000000000E+00 -0.13111812719E+04  0.29349493945E+04  0.26257820970E+04 0.  0.
        3    1    3    3  502    0  0.10274429473E+04  0.54253221023E+02  0.25597000024E+03  0.10602372722E+04  0.10100000352E+00 0. -1.
       -3    1    3    3    0  502 -0.10274429473E+04 -0.54253221023E+02 -0.15671512721E+04  0.18747121224E+04  0.10100000352E+00 0.  1.
</event>
<event>
 5   0  0.1041909E-05  0.2676681E+04  0.7818609E-02  0.8342611E-01
       -1   -1    0    0    0  501  0.00000000000E+00  0.00000000000E+00  0.13075765442E+04  0.13075765442E+04  0.50400001928E-02 0. -1.
        1   -1    0    0  501    0  0.00000000000E+00  0.00000000000E+00 -0.13698284818E+04  0.13698284818E+04  0.50400001928E-02 0.  1.
    10030    2    1    2    0    0  0.00000000000E+00  0.00000000000E+00 -0.62251937572E+02  0.26774050261E+04  0.26766812230E+04 0.  0.
        5    1    3    3  502    0 -0.20516222541E+03 -0.13143429562E+04  0.11569436556E+03  0.13352888157E+04  0.46999998093E+01 0.  1.
       -5    1    3    3    0  502  0.20516222541E+03  0.13143429562E+04 -0.17794630313E+03  0.13421162103E+04  0.46999998093E+01 0. -1.
</event>
<event>
 5   0  0.2540684E-05  0.2386998E+04  0.7818609E-02  0.8444388E-01
       -2   -1    0    0    0  501  0.00000000000E+00  0.00000000000E+00  0.58463699894E+03  0.58463699894E+03  0.25500000920E-02 0. -1.
        2   -1    0    0  501    0  0.00000000000E+00  0.00000000000E+00 -0.24364510845E+04  0.24364510845E+04  0.25500000920E-02 0.  1.
    10030    2    1    2    0    0  0.00000000000E+00  0.00000000000E+00 -0.18518140856E+04  0.30210880835E+04  0.23869976541E+04 0.  0.
        2    1    3    3  502    0  0.11209555597E+04 -0.21897573320E+02 -0.14437680624E+04  0.18279734923E+04  0.25500000920E-02 0.  1.
       -2    1    3    3    0  502 -0.11209555597E+04  0.21897573320E+02 -0.40804602314E+03  0.11931145911E+04  0.25500000920E-02 0. -1.
</event>
<event>
 5   0  0.1041909E-05  0.2727262E+04  0.7818609E-02  0.8326213E-01
        1   -1    0    0  501    0  0.00000000000E+00  0.00000000000E+00  0.23255737436E+04  0.23255737437E+04  0.50400001928E-02 0.  1.
       -1   -1    0    0    0  501  0.00000000000E+00  0.00000000000E+00 -0.79958324970E+03  0.79958324972E+03  0.50400001928E-02 0. -1.
    10030    2    1    2    0    0  0.00000000000E+00  0.00000000000E+00  0.15259904939E+04  0.31251569934E+04  0.27272622253E+04 0.  0.
        5    1    3    3  502    0  0.11059554632E+04 -0.64475764516E+03  0.22476855674E+03  0.12997664797E+04  0.46999998093E+01 0. -1.
       -5    1    3    3    0  502 -0.11059554632E+04  0.64475764516E+03  0.13012219372E+04  0.18253905137E+04  0.46999998093E+01 0.  1.
</event>
<event>
 5   0  0.2540684E-05  0.2670565E+04  0.7818609E-02  0.8344619E-01
        2   -1    0    0  501    0  0.00000000000E+00  0.00000000000E+00  0.19342389496E+04  0.19342389496E+04  0.25500000920E-02 0. -1.
       -2   -1    0    0    0  501  0.00000000000E+00  0.00000000000E+00 -0.92179902894E+03  0.92179902894E+03  0.25500000920E-02 0.  1.
    10030    2    1    2    0    0  0.00000000000E+00  0.00000000000E+00  0.10124399207E+04  0.28560379785E+04  0.26705651728E+04 0.  0.
        2    1    3    3  502    0 -0.12542969095E+04  0.19352646813E+03  0.62344609371E+02  0.12706691471E+04  0.25500000920E-02 0.  1.
       -2    1    3    3    0  502  0.12542969095E+04 -0.19352646813E+03  0.95009531129E+03  0.15853688314E+04  0.25500000920E-02 0. -1.
</event>
<event>
 5   0  0.1005265E-05  0.2640888E+04  0.7818609E-02  0.8354444E-01
       -1   -1    0    0    0  501  0.00000000000E+00  0.00000000000E+00  0.12631592325E+04  0.12631592325E+04  0.50400001928E-02 0.  1.
        1   -1    0    0  501    0  0.00000000000E+00  0.00000000000E+00 -0.13803270106E+04  0.13803270106E+04  0.50400001928E-02 0. -1.
    10030    2    1    2    0    0  0.00000000000E+00  0.00000000000E+00 -0.11716777816E+03  0.26434862431E+04  0.26408883410E+04 0.  0.
        3    1    3    3  502    0 -0.38448803209E+03 -0.65260424594E+03  0.10240758894E+04  0.12737561721E+04  0.10100000352E+00 0.  1.
       -3    1    3    3    0  502  0.38448803209E+03  0.65260424594E+03 -0.11412436675E+04  0.13697300710E+04  0.10100000352E+00 0. -1.
</event>
<event>
 5   0  0.2615843E-05  0.2804144E+04  0.7818609E-02  0.8301983E-01
       -2   -1    0    0    0  501  0.00000000000E+00  0.00000000000E+00  0.14122929797E+04  0.14122929797E+04  0.25500000920E-02 0. -1.
        2   -1    0    0  501    0  0.00000000000E+00  0.00000000000E+00 -0.13919251164E+04  0.13919251164E+04  0.25500000920E-02 0.  1.
    10030    2    1    2    0    0  0.00000000000E+00  0.00000000000E+00  0.20367863269E+02  0.28042180961E+04  0.28041441263E+04 0.  0.
        3    1    3    3  502    0  0.38982618882E+03 -0.50778597542E+03 -0.12372442616E+04  0.13930486091E+04  0.10100000352E+00 0.  1.
       -3    1    3    3    0  502 -0.38982618882E+03  0.50778597542E+03  0.12576121249E+04  0.14111694870E+04  0.10100000352E+00 0. -1.
</event>
<event>
 5   0  0.9971923E-06  0.2680645E+04  0.7818609E-02  0.8341313E-01
       -1   -1    0    0    0  501  0.00000000000E+00  0.00000000000E+00  0.16764871587E+04  0.16764871587E+04  0.50400001928E-02 0.  1.
        1   -1    0    0  501    0  0.00000000000E+00  0.00000000000E+00 -0.10715642757E+04  0.10715642757E+04  0.50400001928E-02 0. -1.
    10030    2    1    2    0    0  0.00000000000E+00  0.00000000000E+00  0.60492288293E+03  0.27480514344E+04  0.26806445105E+04 0.  0.
        2    1    3    3  502    0 -0.53709761781E+03  0.10484288615E+04  0.95790315101E+03  0.15183067461E+04  0.25500000920E-02 0.  1.
       -2    1    3    3    0  502  0.53709761781E+03 -0.10484288615E+04 -0.35298026807E+03  0.12297446883E+04  0.25500000920E-02 0. -1.
</event>
<event>
 5   0  0.1096672E-05  0.2637762E+04  0.7818609E-02  0.8355486E-01
       -1   -1    0    0    0  501  0.00000000000E+00  0.00000000000E+00  0.10294926965E+04  0.10294926965E+04  0.50400001928E-02 0.  1.
        1   -1    0    0  501    0  0.00000000000E+00  0.00000000000E+00 -0.16896154318E+04  0.16896154318E+04  0.50400001928E-02 0. -1.
    10030    2    1    2    0    0  0.00000000000E+00  0.00000000000E+00 -0.66012273536E+03  0.27191081283E+04  0.26377617383E+04 0.  0.
        1    1    3    3  502    0  0.20364122414E+03 -0.28751518338E+03  0.98008291480E+03  0.10414879974E+04  0.50400001928E-02 0.  1.
       -1    1    3    3    0  502 -0.20364122414E+03  0.28751518338E+03 -0.16402056502E+04  0.16776201309E+04  0.50400001928E-02 0. -1.
</event>
<event>
 5   0  0.2540684E-05  0.2770702E+04  0.7818609E-02  0.8312422E-01
        2   -1    0    0  501    0  0.00000000000E+00  0.00000000000E+00  0.20109758849E+04  0.20109758849E+04  0.25500000920E-02 0.  1.
       -2   -1    0    0    0  501  0.00000000000E+00  0.00000000000E+00 -0.95436134574E+03  0.95436134574E+03  0.25500000920E-02 0. -1.
    10030    2    1    2    0    0  0.00000000000E+00  0.00000000000E+00  0.10566145391E+04  0.29653372306E+04  0.27707021866E+04 0.  0.
        2    1    3    3  502    0 -0.33254688538E+03 -0.12704979055E+04  0.56371429656E+02  0.13145075492E+04  0.25500000920E-02 0. -1.
       -2    1    3    3    0  502  0.33254688538E+03  0.12704979055E+04  0.10002431095E+04  0.16508296814E+04  0.25500000920E-02 0.  1.
</event>
<event>
 5   0  0.1005265E-05  0.2664055E+04  0.7818609E-02  0.8346763E-01
        1   -1    0    0  501    0  0.00000000000E+00  0.00000000000E+00  0.17022263557E+04  0.17022263557E+04  0.50400001928E-02 0.  1.
       -1   -1    0    0    0  501  0.00000000000E+00  0.00000000000E+00 -0.10423389875E+04  0.10423389875E+04  0.50400001928E-02 0. -1.
    10030    2    1    2    0    0  0.00000000000E+00  0.00000000000E+00  0.65988736818E+03  0.27445653432E+04  0.26640547262E+04 0.  0.
        3    1    3    3  502    0 -0.16196375516E+03 -0.15850486085E+03  0.16822205404E+04  0.16974162735E+04  0.10100000352E+00 0.  1.
       -3    1    3    3    0  502  0.16196375516E+03  0.15850486085E+03 -0.10223331722E+04  0.10471490697E+04  0.10100000352E+00 0. -1.
</event>
<event>
 5   0  0.2516518E-05  0.2699980E+04  0.7818609E-02  0.8335011E-01
       -2   -1    0    0    0  501  0.00000000000E+00  0.00000000000E+00  0.12708391936E+04  0.12708391937E+04  0.25500000920E-02 0. -1.
        2   -1    0    0  501    0  0.00000000000E+00  0.00000000000E+00 -0.14340709309E+04  0.14340709309E+04  0.25500000920E-02 0.  1.
    10030    2    1    2    0    0  0.00000000000E+00  0.00000000000E+00 -0.16323173729E+03  0.27049101246E+04  0.26999804040E+04 0.  0.
        4    1    3    3  502    0  0.79246586667E+03  0.10245928753E+04  0.29944584023E+03  0.13294593390E+04  0.12699999809E+01 0. -1.
       -4    1    3    3    0  502 -0.79246586667E+03 -0.10245928753E+04 -0.46267757753E+03  0.13754507856E+04  0.12699999809E+01 0.  1.
</event>
<event>
 5   0  0.2615843E-05  0.2627372E+04  0.7818609E-02  0.8358963E-01
       -2   -1    0    0    0  501  0.00000000000E+00  0.00000000000E+00  0.10831190448E+04  0.10831190449E+04  0.25500000920E-02 0.  1.
        2   -1    0    0  501    0  0.00000000000E+00  0.00000000000E+00 -0.15933345031E+04  0.15933345031E+04  0.25500000920E-02 0. -1.
    10030    2    1    2    0    0  0.00000000000E+00  0.00000000000E+00 -0.51021545824E+03  0.26764535479E+04  0.26273720293E+04 0.  0.
        3    1    3    3  502    0  0.15350180595E+03 -0.21750277701E+03 -0.15655687402E+04  0.15880414834E+04  0.10100000352E+00 0. -1.
       -3    1    3    3    0  502 -0.15350180595E+03  0.21750277701E+03  0.10553532819E+04  0.10884120646E+04  0.10100000352E+00 0.  1.
</event>
<event>
 5   0  0.2641216E-05  0.2267091E+04  0.7818609E-02  0.8491011E-01
       -2   -1    0    0    0  501  0.00000000000E+00  0.00000000000E+00  0.47530978575E+03  0.47530978576E+03  0.25500000920E-02 0. -1.
        2   -1    0    0  501    0  0.00000000000E+00  0.00000000000E+00 -0.27033419068E+04  0.27033419068E+04  0.25500000920E-02 0.  1.
    10030    2    1    2    0    0  0.00000000000E+00  0.00000000000E+00 -0.22280321210E+04  0.31786516926E+04  0.22670905254E+04 0.  0.
        5    1    3    3  502    0  0.26464603459E+03  0.71190111836E+03 -0.22938197172E+04  0.24162929688E+04  0.46999998093E+01 0.  1.
       -5    1    3    3    0  502 -0.26464603459E+03 -0.71190111836E+03  0.65787596144E+02  0.76235872380E+03  0.46999998093E+01 0. -1.
</event>
<event>
 5   0  0.1036691E-05  0.2751546E+04  0.7818609E-02  0.8318471E-01
        1   -1    0    0  501    0  0.00000000000E+00  0.00000000000E+00  0.23712381769E+04  0.23712381769E+04  0.50400001928E-02 0. -1.
       -1   -1    0    0    0  501  0.00000000000E+00  0.00000000000E+00 -0.79821199445E+03  0.79821199446E+03  0.50400001928E-02 0.  1.
    10030    2    1    2    0    0  0.00000000000E+00  0.00000000000E+00  0.15730261824E+04  0.31694501713E+04  0.27515455689E+04 0.  0.
        4    1    3    3  502    0  0.50274383916E+03  0.83574179583E+03 -0.33118649405E+03  0.10300008854E+04  0.12699999809E+01 0.  1.
       -4    1    3    3    0  502 -0.50274383916E+03 -0.83574179583E+03  0.19042126765E+04  0.21394492860E+04  0.12699999809E+01 0. -1.
</event>
<event>
 5   0  0.1005265E-05  0.1909873E+04  0.7818609E-02  0.8649958E-01
       -1   -1    0    0    0  501  0.00000000000E+00  0.00000000000E+00  0.11217285779E+04  0.11217285779E+04  0.50400001928E-02 0. -1.
        1   -1    0    0  501    0  0.00000000000E+00  0.00000000000E+00 -0.81294489261E+03  0.81294489262E+03  0.50400001928E-02 0.  1.
    10030    2    1    2    0    0  0.00000000000E+00  0.00000000000E+00  0.30878368525E+03  0.19346734705E+04  0.19098727898E+04 0.  0.
        3    1    3    3  502    0 -0.75317867348E+03 -0.92693142135E+02  0.74160319381E+03  0.10610586412E+04  0.10100000352E+00 0. -1.
       -3    1    3    3    0  502  0.75317867348E+03  0.92693142135E+02 -0.43281950856E+03  0.87361482930E+03  0.10100000352E+00 0.  1.
</event>
<event>
 5   0  0.1041909E-05  0.2690725E+04  0.7818609E-02  0.8338021E-01
       -1   -1    0    0    0  501  0.00000000000E+00  0.00000000000E+00  0.78816188627E+03  0.78816188629E+03  0.50400001928E-02 0. -1.
        1   -1    0    0  501    0  0.00000000000E+00  0.00000000000E+00 -0.22964831700E+04  0.22964831700E+04  0.50400001928E-02 0.  1.
    10030    2    1    2    0    0  0.00000000000E+00  0.00000000000E+00 -0.15083212837E+04  0.30846450563E+04  0.26907251863E+04 0.  0.
        5    1    3    3  502    0  0.68625640071E+03  0.32982868909E+03  0.51738341431E+03  0.92056640122E+03  0.46999998093E+01 0. -1.
       -5    1    3    3    0  502 -0.68625640071E+03 -0.32982868909E+03 -0.20257046980E+04  0.21640786550E+04  0.46999998093E+01 0.  1.
</event>
<event>
 5   0  0.2516518E-05  0.2653804E+04  0.7818609E-02  0.8350152E-01
        2   -1    0    0  501    0  0.00000000000E+00  0.00000000000E+00  0.12640141368E+04  0.12640141368E+04  0.25500000920E-02 0. -1.
       -2   -1    0    0    0  501  0.00000000000E+00  0.00000000000E+00 -0.13929184486E+04  0.13929184486E+04  0.25500000920E-02 0.  1.
    10030    2    1    2    0    0  0.00000000000E+00  0.00000000000E+00 -0.12890431183E+03  0.26569325853E+04  0.26538037685E+04 0.  0.
        4    1    3    3  502    0  0.10612663886E+04  0.48522115808E+03  0.56791034289E+03  0.12977864579E+04  0.12699999809E+01 0. -1.
       -4    1    3    3    0  502 -0.10612663886E+04 -0.48522115808E+03 -0.69681465473E+03  0.13591461275E+04  0.12699999809E+01 0.  1.
</event>
<event>
 5   0  0.2516518E-05  0.2172856E+04  0.7818609E-02  0.8529812E-01
        2   -1    0    0  501    0  0.00000000000E+00  0.00000000000E+00  0.11450406467E+04  0.11450406467E+04  0.25500000920E-02 0. -1.
       -2   -1    0    0    0  501  0.00000000000E+00  0.00000000000E+00 -0.10308152694E+04  0.10308152694E+04  0.25500000920E-02 0.  1.
    10030    2    1    2    0    0  0.00000000000E+00  0.00000000000E+00  0.11422537738E+03  0.21758559161E+04  0.21728556167E+04 0.  0.
        4    1    3    3  502    0  0.71690468775E+03 -0.65267711805E+03  0.54807941404E+03  0.11137021185E+04  0.12699999809E+01 0. -1.
       -4    1    3    3    0  502 -0.71690468775E+03  0.65267711805E+03 -0.43385403666E+03  0.10621537976E+04  0.12699999809E+01 0.  1.
</event>
<event>
 5   0  0.2641216E-05  0.2377769E+04  0.7818609E-02  0.8447874E-01
       -2   -1    0    0    0  501  0.00000000000E+00  0.00000000000E+00  0.81061837868E+03  0.81061837868E+03  0.25500000920E-02 0.  1.
        2   -1    0    0  501    0  0.00000000000E+00  0.00000000000E+00 -0.17436649312E+04  0.17436649313E+04  0.25500000920E-02 0. -1.
    10030    2    1    2    0    0  0.00000000000E+00  0.00000000000E+00 -0.93304655257E+03  0.25542833099E+04  0.23777694081E+04 0.  0.
        5    1    3    3  502    0  0.44800401424E+03  0.75217109192E+03  0.39752227044E+03  0.96151702730E+03  0.46999998093E+01 0.  1.
       -5    1    3    3    0  502 -0.44800401424E+03 -0.75217109192E+03 -0.13305688230E+04  0.15927662826E+04  0.46999998093E+01 0. -1.
</event>
<event>
 5   0  0.2516518E-05  0.2711013E+04  0.7818609E-02  0.8331440E-01
        2   -1    0    0  501    0  0.00000000000E+00  0.00000000000E+00  0.15111680273E+04  0.15111680273E+04  0.25500000920E-02 0.  1.
       -2   -1    0    0    0  501  0.00000000000E+00  0.00000000000E+00 -0.12158794832E+04  0.12158794832E+04  0.25500000920E-02 0. -1.
    10030    2    1    2    0    0  0.00000000000E+00  0.00000000000E+00  0.29528854415E+03  0.27270475105E+04  0.27110132424E+04 0.  0.
        4    1    3    3  502    0  0.13302759111E+04  0.24338298500E+03  0.54754671579E+02  0.13534655385E+04  0.12699999809E+01 0.  1.
       -4    1    3    3    0  502 -0.13302759111E+04 -0.24338298500E+03  0.24053387257E+03  0.13735819720E+04  0.12699999809E+01 0. -1.
</event>
<event>
 5   0  0.2540684E-05  0.2689059E+04  0.7818609E-02  0.8338564E-01
        2   -1    0    0  501    0  0.00000000000E+00  0.00000000000E+00  0.16649340523E+04  0.16649340523E+04  0.25500000920E-02 0.  1.
       -2   -1    0    0    0  501  0.00000000000E+00  0.00000000000E+00 -0.10857848251E+04  0.10857848251E+04  0.25500000920E-02 0. -1.
    10030    2    1    2    0    0  0.00000000000E+00  0.00000000000E+00  0.57914922725E+03  0.27507188774E+04  0.26890594109E+04 0.  0.
        2    1    3    3  502    0  0.12772105281E+03 -0.59072374936E+03 -0.93900316121E+03  0.11166889236E+04  0.25500000920E-02 0. -1.
       -2    1    3    3    0  502 -0.12772105281E+03  0.59072374936E+03  0.15181523885E+04  0.16340299538E+04  0.25500000920E-02 0.  1.
</event>
<event>
 5   0  0.2641216E-05  0.2718436E+04  0.7818609E-02  0.8329048E-01
       -2   -1    0    0    0  501  0.00000000000E+00  0.00000000000E+00  0.11610823717E+04  0.11610823717E+04  0.25500000920E-02 0.  1.
        2   -1    0    0  501    0  0.00000000000E+00  0.00000000000E+00 -0.15911651689E+04  0.15911651689E+04  0.25500000920E-02 0. -1.
    10030    2    1    2    0    0  0.00000000000E+00  0.00000000000E+00 -0.43008279726E+03  0.27522475406E+04  0.27184361887E+04 0.  0.
        5    1    3    3  502    0  0.21908649907E+03 -0.14369770138E+03 -0.15653479518E+04  0.15871308149E+04  0.46999998093E+01 0. -1.
       -5    1    3    3    0  502 -0.21908649907E+03  0.14369770138E+03  0.11352651545E+04  0.11651167257E+04  0.46999998093E+01 0.  1.
</event>
<event>
 5   0  0.2641216E-05  0.2705740E+04  0.7818609E-02  0.8333145E-01
       -2   -1    0    0    0  501  0.00000000000E+00  0.00000000000E+00  0.89490614303E+03  0.89490614303E+03  0.25500000920E-02 0.  1.
        2   -1    0    0  501    0  0.00000000000E+00  0.00000000000E+00 -0.20451945775E+04  0.20451945775E+04  0.25500000920E-02 0. -1.
    10030    2    1    2    0    0  0.00000000000E+00  0.00000000000E+00 -0.11502884345E+04  0.29401007205E+04  0.27057399662E+04 0.  0.
        5    1    3    3  502    0 -0.58115061615E+03 -0.52663581559E+03 -0.17729648042E+04  0.19386870836E+04  0.46999998093E+01 0. -1.
       -5    1    3    3    0  502  0.58115061615E+03  0.52663581559E+03  0.62267636975E+03  0.10014136370E+04  0.46999998093E+01 0.  1.
</event>
<event>
 5   0  0.9971923E-06  0.2707038E+04  0.7818609E-02  0.8332725E-01
       -1   -1    0    0    0  501  0.00000000000E+00  0.00000000000E+00  0.63419265589E+03  0.63419265591E+03  0.50400001928E-02 0. -1.
        1   -1    0    0  501    0  0.00000000000E+00  0.00000000000E+00 -0.28887340318E+04  0.28887340319E+04  0.50400001928E-02 0.  1.
    10030    2    1    2    0    0  0.00000000000E+00  0.00000000000E+00 -0.22545413760E+04  0.35229266878E+04  0.27070381659E+04 0.  0.
        2    1    3    3  502    0  0.73888798105E+03  0.67187793081E+03 -0.23162065724E+04  0.25223378617E+04  0.25500000920E-02 0.  1.
       -2    1    3    3    0  502 -0.73888798105E+03 -0.67187793081E+03  0.61665196433E+02  0.10005888261E+04  0.25500000920E-02 0. -1.
</event>
<event>
 5   0  0.9971923E-06  0.1817787E+04  0.7818609E-02  0.8696898E-01
       -1   -1    0    0    0  501  0.00000000000E+00  0.00000000000E+00  0.70158565174E+03  0.70158565176E+03  0.50400001928E-02 0.  1.
        1   -1    0    0  501    0  0.00000000000E+00  0.00000000000E+00 -0.11774572111E+04  0.11774572111E+04  0.50400001928E-02 0. -1.
    10030    2    1    2    0    0  0.00000000000E+00  0.00000000000E+00 -0.47587155938E+03  0.18790428629E+04  0.18177866595E+04 0.  0.
        2    1    3    3  502    0  0.88795938349E+02 -0.40061540572E+03 -0.10762578237E+04  0.11518282533E+04  0.25500000920E-02 0. -1.
       -2    1    3    3    0  502 -0.88795938349E+02  0.40061540572E+03  0.60038626435E+03  0.72721460959E+03  0.25500000920E-02 0.  1.
</event>
<event>
 5   0  0.9971923E-06  0.2728172E+04  0.7818609E-02  0.8325922E-01
       -1   -1    0    0    0  501  0.00000000000E+00  0.00000000000E+00  0.17601167982E+04  0.17601167982E+04  0.50400001928E-02 0.  1.
        1   -1    0    0  501    0  0.00000000000E+00  0.00000000000E+00 -0.10571628812E+04  0.10571628812E+04  0.50400001928E-02 0. -1.
    10030    2    1    2    0    0  0.00000000000E+00  0.00000000000E+00  0.70295391701E+03  0.28172796794E+04  0.27281716556E+04 0.  0.
        2    1    3    3  502    0  0.19808861117E+03 -0.11116812408E+04  0.11417542801E+04  0.16058259916E+04  0.25500000920E-02 0. -1.
       -2    1    3    3    0  502 -0.19808861117E+03  0.11116812408E+04 -0.43880036309E+03  0.12114536878E+04  0.25500000920E-02 0.  1.
</event>
<event>
 5   0  0.1041909E-05  0.2531279E+04  0.7818609E-02  0.8391926E-01
       -1   -1    0    0    0  501  0.00000000000E+00  0.00000000000E+00  0.82501706339E+03  0.82501706341E+03  0.50400001928E-02 0.  1.
        1   -1    0    0  501    0  0.00000000000E+00  0.00000000000E+00 -0.19415882129E+04  0.19415882129E+04  0.50400001928E-02 0. -1.
    10030    2    1    2    0    0  0.00000000000E+00  0.00000000000E+00 -0.11165711495E+04  0.27666052763E+04  0.25312790488E+04 0.  0.
        5    1    3    3  502    0 -0.10917436610E+04 -0.30434759949E+03 -0.11739373237E+04  0.16317728435E+04  0.46999998093E+01 0. -1.
       -5    1    3    3    0  502  0.10917436610E+04  0.30434759949E+03  0.57366174171E+02  0.11348324329E+04  0.46999998093E+01 0.  1.
</event>
<event>
 5   0  0.2615843E-05  0.2700190E+04  0.7818609E-02  0.8334943E-01
       -2   -1    0    0    0  501  0.00000000000E+00  0.00000000000E+00  0.12265301175E+04  0.12265301175E+04  0.25500000920E-02 0. -1.
        2   -1    0    0  501    0  0.00000000000E+00  0.00000000000E+00 -0.14861081762E+04  0.14861081762E+04  0.25500000920E-02 0.  1.
    10030    2    1    2    0    0  0.00000000000E+00  0.00000000000E+00 -0.25957805872E+03  0.27126382937E+04  0.27001899459E+04 0.  0.
        3    1    3    3  502    0 -0.46437279569E+03  0.11765004912E+04 -0.60415328092E+03  0.14017120589E+04  0.10100000352E+00 0. -1.
       -3    1    3    3    0  502  0.46437279569E+03 -0.11765004912E+04  0.34457522220E+03  0.13109262348E+04  0.10100000352E+00 0.  1.
</event>
<event>
 5   0  0.1096672E-05  0.2742112E+04  0.7818609E-02  0.8321469E-01
       -1   -1    0    0    0  501  0.00000000000E+00  0.00000000000E+00  0.14554643127E+04  0.14554643127E+04  0.50400001928E-02 0.  1.
        1   -1    0    0  501    0  0.00000000000E+00  0.00000000000E+00 -0.12915433255E+04  0.12915433255E+04  0.50400001928E-02 0. -1.
    10030    2    1    2    0    0  0.00000000000E+00  0.00000000000E+00  0.16392098715E+03  0.27470076382E+04  0.27421124839E+04 0.  0.
        1    1    3    3  502    0 -0.41568949789E+03 -0.38568404398E+03 -0.11685648877E+04  0.12988817642E+04  0.50400001928E-02 0. -1.
       -1    1    3    3    0  502  0.41568949789E+03  0.38568404398E+03  0.13324858749E+04  0.14481258741E+04  0.50400001928E-02 0.  1.
</event>
<event>
 5   0  0.9971923E-06  0.2716760E+04  0.7818609E-02  0.8329587E-01
        1   -1    0    0  501    0  0.00000000000E+00  0.00000000000E+00  0.14645360132E+04  0.14645360132E+04  0.50400001928E-02 0. -1.
       -1   -1    0    0    0  501  0.00000000000E+00  0.00000000000E+00 -0.12599185838E+04  0.12599185838E+04  0.50400001928E-02 0.  1.
    10030    2    1    2    0    0  0.00000000000E+00  0.00000000000E+00  0.20461742940E+03  0.27244545969E+04  0.27167599376E+04 0.  0.
        2    1    3    3  502    0 -0.97983636111E+03 -0.34558230558E+02 -0.84052569250E+03  0.12914166661E+04  0.25500000920E-02 0.  1.
       -2    1    3    3    0  502  0.97983636111E+03  0.34558230558E+02  0.10451431219E+04  0.14330379308E+04  0.25500000920E-02 0. -1.
</event>
<event>
 5   0  0.1041909E-05  0.2634630E+04  0.7818609E-02  0.8356533E-01
       -1   -1    0    0    0  501  0.00000000000E+00  0.00000000000E+00  0.56626132501E+03  0.56626132503E+03  0.50400001928E-02 0.  1.
        1   -1    0    0  501    0  0.00000000000E+00  0.00000000000E+00 -0.30645187879E+04  0.30645187879E+04  0.50400001928E-02 0. -1.
    10030    2    1    2    0    0  0.00000000000E+00  0.00000000000E+00 -0.24982574629E+04  0.36307801129E+04  0.26346297420E+04 0.  0.
        5    1    3    3  502    0  0.21204871587E+03  0.75492073952E+03 -0.27078490227E+04  0.28191024104E+04  0.46999998093E+01 0. -1.
       -5    1    3    3    0  502 -0.21204871587E+03 -0.75492073952E+03  0.20959155977E+03  0.81167770253E+03  0.46999998093E+01 0.  1.
</event>
<event>
 5   0  0.2540684E-05  0.2702134E+04  0.7818609E-02  0.8334313E-01
        2   -1    0    0  501    0  0.00000000000E+00  0.00000000000E+00  0.14212884441E+04  0.14212884441E+04  0.25500000920E-02 0. -1.
       -2   -1    0    0    0  501  0.00000000000E+00  0.00000000000E+00 -0.12843145784E+04  0.12843145784E+04  0.25500000920E-02 0.  1.
    10030    2    1    2    0    0  0.00000000000E+00  0.00000000000E+00  0.13697386569E+03  0.27056030226E+04  0.27021335785E+04 0.  0.
        2    1    3    3  502    0 -0.31129923397E+03  0.94844657799E+03  0.98010819618E+03  0.13989532518E+04  0.25500000920E-02 0. -1.
       -2    1    3    3    0  502  0.31129923397E+03 -0.94844657799E+03 -0.84313433049E+03  0.13066497708E+04  0.25500000920E-02 0.  1.
</event>
<event>
 5   0  0.2516518E-05  0.2426229E+04  0.7818609E-02  0.8429749E-01
        2   -1    0    0  501    0  0.00000000000E+00  0.00000000000E+00  0.81544689958E+03  0.81544689959E+03  0.25500000920E-02 0. -1.
       -2   -1    0    0    0  501  0.00000000000E+00  0.00000000000E+00 -0.18047115390E+04  0.18047115390E+04  0.25500000920E-02 0.  1.
    10030    2    1    2    0    0  0.00000000000E+00  0.00000000000E+00 -0.98926463937E+03  0.26201584385E+04  0.24262287024E+04 0.  0.
        4    1    3    3  502    0 -0.67266854062E+03  0.67302235019E+03 -0.13072416620E+04  0.16168872642E+04  0.12699999809E+01 0.  1.
       -4    1    3    3    0  502  0.67266854062E+03 -0.67302235019E+03  0.31797702264E+03  0.10032711743E+04  0.12699999809E+01 0. -1.
</event>
<event>
 5   0  0.1005265E-05  0.2704911E+04  0.7818609E-02  0.8333413E-01
       -1   -1    0    0    0  501  0.00000000000E+00  0.00000000000E+00  0.89074422397E+03  0.89074422398E+03  0.50400001928E-02 0.  1.
        1   -1    0    0  501    0  0.00000000000E+00  0.00000000000E+00 -0.20534913947E+04  0.20534913947E+04  0.50400001928E-02 0. -1.
    10030    2    1    2    0    0  0.00000000000E+00  0.00000000000E+00 -0.11627471707E+04  0.29442356187E+04  0.27049107925E+04 0.  0.
        3    1    3    3  502    0 -0.19572485786E+03  0.95855725159E+03  0.43505460992E+03  0.10707066584E+04  0.10100000352E+00 0.  1.
       -3    1    3    3    0  502  0.19572485786E+03 -0.95855725159E+03 -0.15978017807E+04  0.18735289603E+04  0.10100000352E+00 0. -1.
</event>
<event>
 5   0  0.2540684E-05  0.2311951E+04  0.7818609E-02  0.8473224E-01
       -2   -1    0    0    0  501  0.00000000000E+00  0.00000000000E+00  0.76020187429E+03  0.76020187429E+03  0.25500000920E-02 0.  1.
        2   -1    0    0  501    0  0.00000000000E+00  0.00000000000E+00 -0.17577957505E+04  0.17577957505E+04  0.25500000920E-02 0. -1.
    10030    2    1    2    0    0  0.00000000000E+00  0.00000000000E+00 -0.99759387624E+03  0.25179976248E+04  0.23119512315E+04 0.  0.
        2    1    3    3  502    0  0.32354817288E+03  0.66242898597E+03 -0.14685342306E+04  0.16431945618E+04  0.25500000920E-02 0.  1.
       -2    1    3    3    0  502 -0.32354817288E+03 -0.66242898597E+03  0.47094035436E+03  0.87480306298E+03  0.25500000920E-02 0. -1.
</event>
<event>
 5   0  0.1041909E-05  0.2333660E+04  0.7818609E-02  0.8464766E-01
       -1   -1    0    0    0  501  0.00000000000E+00  0.00000000000E+00  0.87760472768E+03  0.87760472770E+03  0.50400001928E-02 0. -1.
        1   -1    0    0  501    0  0.00000000000E+00  0.00000000000E+00 -0.15513730703E+04  0.15513730703E+04  0.50400001928E-02 0.  1.
    10030    2    1    2    0    0  0.00000000000E+00  0.00000000000E+00 -0.67376834261E+03  0.24289777980E+04  0.23336600789E+04 0.  0.
        5    1    3    3  502    0 -0.93465840497E+03 -0.62904295190E+03 -0.20856419685E+02  0.11268267167E+04  0.46999998093E+01 0.  1.
       -5    1    3    3    0  502  0.93465840497E+03  0.62904295190E+03 -0.65291192292E+03  0.13021510813E+04  0.46999998093E+01 0. -1.
</event>
<event>
 5   0  0.1036691E-05  0.2633343E+04  0.7818609E-02  0.8356963E-01
       -1   -1    0    0    0  501  0.00000000000E+00  0.00000000000E+00  0.61932420496E+03  0.61932420498E+03  0.50400001928E-02 0.  1.
        1   -1    0    0  501    0  0.00000000000E+00  0.00000000000E+00 -0.27992194963E+04  0.27992194963E+04  0.50400001928E-02 0. -1.
    10030    2    1    2    0    0  0.00000000000E+00  0.00000000000E+00 -0.21798952913E+04  0.34185437013E+04  0.26333434179E+04 0.  0.
        4    1    3    3  502    0  0.10964889982E+04  0.33639556169E+03 -0.25046549969E+03  0.11739611052E+04  0.12699999809E+01 0. -1.
       -4    1    3    3    0  502 -0.10964889982E+04 -0.33639556169E+03 -0.19294297917E+04  0.22445825961E+04  0.12699999809E+01 0.  1.
</event>
<event>
 5   0  0.9971923E-06  0.2373752E+04  0.7818609E-02  0.8449396E-01
        1   -1    0    0  501    0  0.00000000000E+00  0.00000000000E+00  0.23065492533E+04  0.23065492533E+04  0.50400001928E-02 0. -1.
       -1   -1    0    0    0  501  0.00000000000E+00  0.00000000000E+00 -0.61072833143E+03  0.61072833146E+03  0.50400001928E-02 0.  1.
    10030    2    1    2    0    0  0.00000000000E+00  0.00000000000E+00  0.16958209219E+04  0.29172775848E+04  0.23737522844E+04 0.  0.
        2    1    3    3  502    0  0.51144386486E+03  0.81066323913E+03  0.17081259862E+04  0.19586842775E+04  0.25500000920E-02 0. -1.
       -2    1    3    3    0  502 -0.51144386486E+03 -0.81066323913E+03 -0.12305064292E+02  0.95859330730E+03  0.25500000920E-02 0.  1.
</event>
<event>
 5   0  0.1041909E-05  0.2653050E+04  0.7818609E-02  0.8350401E-01
       -1   -1    0    0    0  501  0.00000000000E+00  0.00000000000E+00  0.20780803891E+04  0.20780803891E+04  0.50400001928E-02 0.  1.
        1   -1    0    0  501    0  0.00000000000E+00  0.00000000000E+00 -0.84677611574E+03  0.84677611576E+03  0.50400001928E-02 0. -1.
    10030    2    1    2    0    0  0.00000000000E+00  0.00000000000E+00  0.12313042734E+04  0.29248565049E+04  0.26530501994E+04 0.  0.
        5    1    3    3  502    0 -0.16485363260E+02 -0.13242470738E+04  0.53209344019E+03  0.14272517643E+04  0.46999998093E+01 0.  1.
       -5    1    3    3    0  502  0.16485363260E+02  0.13242470738E+04  0.69921083320E+03  0.14976047406E+04  0.46999998093E+01 0. -1.
</event>
<event>
 5   0  0.1096672E-05  0.2655512E+04  0.7818609E-02  0.8349586E-01
        1   -1    0    0  501    0  0.00000000000E+00  0.00000000000E+00  0.14730678961E+04  0.14730678961E+04  0.50400001928E-02 0. -1.
       -1   -1    0    0    0  501  0.00000000000E+00  0.00000000000E+00 -0.11967782082E+04  0.11967782082E+04  0.50400001928E-02 0.  1.
    10030    2    1    2    0    0  0.00000000000E+00  0.00000000000E+00  0.27628968785E+03  0.26698461043E+04  0.26555116699E+04 0.  0.
        1    1    3    3  502    0 -0.43999663811E+03  0.58701876739E+03 -0.97451212348E+03  0.12197794693E+04  0.50400001928E-02 0.  1.
       -1    1    3    3    0  502  0.43999663811E+03 -0.58701876739E+03  0.12508018113E+04  0.14500666350E+04  0.50400001928E-02 0. -1.
</event>
<event>
 5   0  0.2615843E-05  0.2688128E+04  0.7818609E-02  0.8338867E-01
        2   -1    0    0  501    0  0.00000000000E+00  0.00000000000E+00  0.21349270265E+04  0.21349270265E+04  0.25500000920E-02 0. -1.
       -2   -1    0    0    0  501  0.00000000000E+00  0.00000000000E+00 -0.84616870824E+03  0.84616870824E+03  0.25500000920E-02 0.  1.
    10030    2    1    2    0    0  0.00000000000E+00  0.00000000000E+00  0.12887583182E+04  0.29810957347E+04  0.26881283036E+04 0.  0.
        3    1    3    3  502    0  0.10582436936E+04 -0.76818740571E+03  0.98890948188E+03  0.16394918661E+04  0.10100000352E+00 0.  1.
       -3    1    3    3    0  502 -0.10582436936E+04  0.76818740571E+03  0.29984883633E+03  0.13416038686E+04  0.10100000352E+00 0. -1.
</event>
<event>
 5   0  0.2615843E-05  0.2682154E+04  0.7818609E-02  0.8340819E-01
       -2   -1    0    0    0  501  0.00000000000E+00  0.00000000000E+00  0.10089606339E+04  0.10089606339E+04  0.25500000920E-02 0. -1.
        2   -1    0    0  501    0  0.00000000000E+00  0.00000000000E+00 -0.17825152488E+04  0.17825152488E+04  0.25500000920E-02 0.  1.
    10030    2    1    2    0    0  0.00000000000E+00  0.00000000000E+00 -0.77355461486E+03  0.27914758827E+04  0.26821541458E+04 0.  0.
        3    1    3    3  502    0 -0.73899391948E+03 -0.75609208714E+03 -0.12454510143E+04  0.16336876986E+04  0.10100000352E+00 0.  1.
       -3    1    3    3    0  502  0.73899391948E+03  0.75609208714E+03  0.47189639949E+03  0.11577881841E+04  0.10100000352E+00 0. -1.
</event>
<event>
 5   0  0.1041909E-05  0.2659269E+04  0.7818609E-02  0.8348343E-01
       -1   -1    0    0    0  501  0.00000000000E+00  0.00000000000E+00  0.15213181817E+04  0.15213181817E+04  0.50400001928E-02 0.  1.
        1   -1    0    0  501    0  0.00000000000E+00  0.00000000000E+00 -0.11621027412E+04  0.11621027412E+04  0.50400001928E-02 0. -1.
    10030    2    1    2    0    0  0.00000000000E+00  0.00000000000E+00  0.35921544049E+03  0.26834209228E+04  0.26592690944E+04 0.  0.
        5    1    3    3  502    0  0.35426086699E+03  0.77429169205E+03 -0.85088084076E+03  0.12037643795E+04  0.46999998093E+01 0. -1.
       -5    1    3    3    0  502 -0.35426086699E+03 -0.77429169205E+03  0.12100962813E+04  0.14796565433E+04  0.46999998093E+01 0.  1.
</event>
<event>
 5   0  0.1005265E-05  0.2746064E+04  0.7818609E-02  0.8320212E-01
       -1   -1    0    0    0  501  0.00000000000E+00  0.00000000000E+00  0.11269684397E+04  0.11269684397E+04  0.50400001928E-02 0.  1.
        1   -1    0    0  501    0  0.00000000000E+00  0.00000000000E+00 -0.16728215910E+04  0.16728215910E+04  0.50400001928E-02 0. -1.
    10030    2    1    2    0    0  0.00000000000E+00  0.00000000000E+00 -0.54585315134E+03  0.27997900307E+04  0.27460641932E+04 0.  0.
        3    1    3    3  502    0  0.85745105187E+03  0.75485097578E+03  0.50368114423E+03  0.12484858859E+04  0.10100000352E+00 0.  1.
       -3    1    3    3    0  502 -0.85745105187E+03 -0.75485097578E+03 -0.10495342956E+04  0.15513041448E+04  0.10100000352E+00 0. -1.
</event>
<event>
 5   0  0.1005265E-05  0.2867752E+04  0.7818609E-02  0.8282537E-01
        1   -1    0    0  501    0  0.00000000000E+00  0.00000000000E+00  0.17829309424E+04  0.17829309424E+04  0.50400001928E-02 0.  1.
       -1   -1    0    0    0  501  0.00000000000E+00  0.00000000000E+00 -0.11531574661E+04  0.11531574661E+04  0.50400001928E-02 0. -1.
    10030    2    1    2    0    0  0.00000000000E+00  0.00000000000E+00  0.62977347630E+03  0.29360884085E+04  0.28677518218E+04 0.  0.
        3    1    3    3  502    0  0.88853725365E+03  0.42035616875E+03 -0.75392554386E+03  0.12387903356E+04  0.10100000352E+00 0. -1.
       -3    1    3    3    0  502 -0.88853725365E+03 -0.42035616875E+03  0.13836990202E+04  0.16972980729E+04  0.10100000352E+00 0.  1.
</event>
<event>
 5   0  0.2540684E-05  0.2614102E+04  0.7818609E-02  0.8363427E-01
        2   -1    0    0  501    0  0.00000000000E+00  0.00000000000E+00  0.16243003601E+04  0.16243003601E+04  0.25500000920E-02 0. -1.
       -2   -1    0    0    0  501  0.00000000000E+00  0.00000000000E+00 -0.10517648522E+04  0.10517648522E+04  0.25500000920E-02 0.  1.
    10030    2    1    2    0    0  0.00000000000E+00  0.00000000000E+00  0.57253550794E+03  0.26760652122E+04  0.26141017793E+04 0.  0.
        2    1    3    3  502    0 -0.54750926578E+03 -0.32441298205E+03 -0.88244657315E+03  0.10879899510E+04  0.25500000920E-02 0.  1.
       -2    1    3    3    0  502  0.54750926578E+03  0.32441298205E+03  0.14549820811E+04  0.15880752612E+04  0.25500000920E-02 0. -1.
</event>
<event>
 5   0  0.2540684E-05  0.2680050E+04  0.7818609E-02  0.8341507E-01
       -2   -1    0    0    0  501  0.00000000000E+00  0.00000000000E+00  0.87139332234E+03  0.87139332234E+03  0.25500000920E-02 0.  1.
        2   -1    0    0  501    0  0.00000000000E+00  0.00000000000E+00 -0.20606849104E+04  0.20606849104E+04  0.25500000920E-02 0. -1.
    10030    2    1    2    0    0  0.00000000000E+00  0.00000000000E+00 -0.11892915881E+04  0.29320782328E+04  0.26800500521E+04 0.  0.
        2    1    3    3  502    0 -0.21286516252E+03 -0.79852467408E+03  0.55940358976E+03  0.99794068400E+03  0.25500000920E-02 0.  1.
       -2    1    3    3    0  502  0.21286516252E+03  0.79852467408E+03 -0.17486951779E+04  0.19341375488E+04  0.25500000920E-02 0. -1.
</event>
<event>
 5   0  0.1036691E-05  0.2735581E+04  0.7818609E-02  0.8323552E-01
       -1   -1    0    0    0  501  0.00000000000E+00  0.00000000000E+00  0.15209011353E+04  0.15209011353E+04  0.50400001928E-02 0.  1.
        1   -1    0    0  501    0  0.00000000000E+00  0.00000000000E+00 -0.12300936223E+04  0.12300936223E+04  0.50400001928E-02 0. -1.
    10030    2    1    2    0    0  0.00000000000E+00  0.00000000000E+00  0.29080751300E+03  0.27509947575E+04  0.27355809522E+04 0.  0.
        4    1    3    3  502    0  0.10901164108E+04 -0.68613819010E+03 -0.31730811342E+03  0.13265841310E+04  0.12699999809E+01 0. -1.
       -4    1    3    3    0  502 -0.10901164108E+04  0.68613819010E+03  0.60811562641E+03  0.14244106265E+04  0.12699999809E+01 0.  1.
</event>
<event>
 5   0  0.2540232E-05  0.2701911E+04  0.7818609E-02  0.8334385E-01
        2   -1    0    0  501    0  0.00000000000E+00  0.00000000000E+00  0.16045553403E+04  0.16045553403E+04  0.25500000920E-02 0. -1.
       -2   -1    0    0    0  501  0.00000000000E+00  0.00000000000E+00 -0.11374367738E+04  0.11374367738E+04  0.25500000920E-02 0.  1.
    10030    2    1    2    0    0  0.00000000000E+00  0.00000000000E+00  0.46711856653E+03  0.27419921141E+04  0.27019106200E+04 0.  0.
        1    1    3    3  502    0 -0.11336228850E+04  0.16105563732E+03 -0.49404271947E+03  0.12470436931E+04  0.50400001928E-02 0.  1.
       -1    1    3    3    0  502  0.11336228850E+04 -0.16105563732E+03  0.96116128601E+03  0.14949484210E+04  0.50400001928E-02 0. -1.
</event>
<event>
 5   0  0.8740500E-06  0.2680381E+04  0.7818609E-02  0.8341399E-01
        3   -1    0    0  501    0  0.00000000000E+00  0.00000000000E+00  0.18486869489E+04  0.18486869517E+04  0.10100000352E+00 0. -1.
       -3   -1    0    0    0  501  0.00000000000E+00  0.00000000000E+00 -0.97155996377E+03  0.97155996902E+03  0.10100000352E+00 0.  1.
    10030    2    1    2    0    0  0.00000000000E+00  0.00000000000E+00  0.87712698512E+03  0.28202469207E+04  0.26803807464E+04 0.  0.
        5    1    3    3  502    0 -0.47548980184E+03  0.82430148240E+03  0.14314820311E+04  0.17189317557E+04  0.46999998093E+01 0. -1.
       -5    1    3    3    0  502  0.47548980184E+03 -0.82430148240E+03 -0.55435504596E+03  0.11013151649E+04  0.46999998093E+01 0.  1.
</event>
<event>
 5   0  0.2641216E-05  0.2784739E+04  0.7818609E-02  0.8308022E-01
        2   -1    0    0  501    0  0.00000000000E+00  0.00000000000E+00  0.20424891622E+04  0.20424891622E+04  0.25500000920E-02 0. -1.
       -2   -1    0    0    0  501  0.00000000000E+00  0.00000000000E+00 -0.94918160875E+03  0.94918160875E+03  0.25500000920E-02 0.  1.
    10030    2    1    2    0    0  0.00000000000E+00  0.00000000000E+00  0.10933075535E+04  0.29916707710E+04  0.27847392329E+04 0.  0.
        5    1    3    3  502    0  0.12413071777E+03 -0.13434831583E+04  0.91618430245E+03  0.16308804977E+04  0.46999998093E+01 0. -1.
       -5    1    3    3    0  502 -0.12413071777E+03  0.13434831583E+04  0.17712325102E+03  0.13607902733E+04  0.46999998093E+01 0.  1.
</event>
<event>
 5   0  0.2641216E-05  0.2660710E+04  0.7818609E-02  0.8347867E-01
        2   -1    0    0  501    0  0.00000000000E+00  0.00000000000E+00  0.16085413803E+04  0.16085413803E+04  0.25500000920E-02 0. -1.
       -2   -1    0    0    0  501  0.00000000000E+00  0.00000000000E+00 -0.11002791267E+04  0.11002791267E+04  0.25500000920E-02 0.  1.
    10030    2    1    2    0    0  0.00000000000E+00  0.00000000000E+00  0.50826225358E+03  0.27088205070E+04  0.26607100595E+04 0.  0.
        5    1    3    3  502    0  0.33080665441E+03  0.26046263621E+03 -0.10306496284E+04  0.11133438705E+04  0.46999998093E+01 0.  1.
       -5    1    3    3    0  502 -0.33080665441E+03 -0.26046263621E+03  0.15389118819E+04  0.15954766366E+04  0.46999998093E+01 0. -1.
</event>
<event>
 5   0  0.2540684E-05  0.2755688E+04  0.7818609E-02  0.8317159E-01
        2   -1    0    0  501    0  0.00000000000E+00  0.00000000000E+00  0.11724392539E+04  0.11724392539E+04  0.25500000920E-02 0. -1.
       -2   -1    0    0    0  501  0.00000000000E+00  0.00000000000E+00 -0.16192340318E+04  0.16192340318E+04  0.25500000920E-02 0.  1.
    10030    2    1    2    0    0  0.00000000000E+00  0.00000000000E+00 -0.44679477787E+03  0.27916732857E+04  0.27556876021E+04 0.  0.
        2    1    3    3  502    0  0.27367409578E+03  0.49603771320E+03  0.10489908686E+04  0.11921966138E+04  0.25500000920E-02 0. -1.
       -2    1    3    3    0  502 -0.27367409578E+03 -0.49603771320E+03 -0.14957856465E+04  0.15994766719E+04  0.25500000920E-02 0.  1.
</event>
<event>
 5   0  0.1041909E-05  0.2663094E+04  0.7818609E-02  0.8347080E-01
       -1   -1    0    0    0  501  0.00000000000E+00  0.00000000000E+00  0.14092909002E+04  0.14092909002E+04  0.50400001928E-02 0. -1.
        1   -1    0    0  501    0  0.00000000000E+00  0.00000000000E+00 -0.12580915361E+04  0.12580915361E+04  0.50400001928E-02 0.  1.
    10030    2    1    2    0    0  0.00000000000E+00  0.00000000000E+00  0.15119936413E+03  0.26673824363E+04  0.26630936547E+04 0.  0.
        5    1    3    3  502    0  0.57499690139E+03  0.59297134063E+03 -0.97047606600E+03  0.12743948886E+04  0.46999998093E+01 0.  1.
       -5    1    3    3    0  502 -0.57499690139E+03 -0.59297134063E+03  0.11216754301E+04  0.13929875477E+04  0.46999998093E+01 0. -1.
</event>
<event>
 5   0  0.2615843E-05  0.2660412E+04  0.7818609E-02  0.8347965E-01
        2   -1    0    0  501    0  0.00000000000E+00  0.00000000000E+00  0.11426471566E+04  0.11426471566E+04  0.25500000920E-02 0.  1.
       -2   -1    0    0    0  501  0.00000000000E+00  0.00000000000E+00 -0.15485515219E+04  0.15485515219E+04  0.25500000920E-02 0. -1.
    10030    2    1    2    0    0  0.00000000000E+00  0.00000000000E+00 -0.40590436531E+03  0.26911986785E+04  0.26604119932E+04 0.  0.
        3    1    3    3  502    0 -0.89991755360E+02  0.11829206992E+04 -0.81161951313E+03  0.14374025675E+04  0.10100000352E+00 0. -1.
       -3    1    3    3    0  502  0.89991755360E+02 -0.11829206992E+04  0.40571514783E+03  0.12537961110E+04  0.10100000352E+00 0.  1.
</event>
<event>
 5   0  0.1005265E-05  0.2227104E+04  0.7818609E-02  0.8507231E-01
        1   -1    0    0  501    0  0.00000000000E+00  0.00000000000E+00  0.10227849310E+04  0.10227849310E+04  0.50400001928E-02 0. -1.
       -1   -1    0    0    0  501  0.00000000000E+00  0.00000000000E+00 -0.12123737981E+04  0.12123737981E+04  0.50400001928E-02 0.  1.
    10030    2    1    2    0    0  0.00000000000E+00  0.00000000000E+00 -0.18958886705E+03  0.22351587291E+04  0.22271036361E+04 0.  0.
        3    1    3    3  502    0  0.42549874633E+03 -0.35713949668E+03 -0.10633756039E+04  0.11997355910E+04  0.10100000352E+00 0.  1.
       -3    1    3    3    0  502 -0.42549874633E+03  0.35713949668E+03  0.87378673683E+03  0.10354231381E+04  0.10100000352E+00 0. -1.
</event>
<event>
 5   0  0.2516518E-05  0.2673670E+04  0.7818609E-02  0.8343599E-01
        2   -1    0    0  501    0  0.00000000000E+00  0.00000000000E+00  0.14941656496E+04  0.14941656496E+04  0.25500000920E-02 0. -1.
       -2   -1    0    0    0  501  0.00000000000E+00  0.00000000000E+00 -0.11960710543E+04  0.11960710543E+04  0.25500000920E-02 0.  1.
    10030    2    1    2    0    0  0.00000000000E+00  0.00000000000E+00  0.29809459534E+03  0.26902367039E+04  0.26736703490E+04 0.  0.
        4    1    3    3  502    0  0.97518417846E+03  0.88138288699E+03 -0.95991299176E+02  0.13179665845E+04  0.12699999809E+01 0.  1.
       -4    1    3    3    0  502 -0.97518417846E+03 -0.88138288699E+03  0.39408589451E+03  0.13722701194E+04  0.12699999809E+01 0. -1.
</event>
<event>
 5   0  0.9971923E-06  0.2280172E+04  0.7818609E-02  0.8485780E-01
        1   -1    0    0  501    0  0.00000000000E+00  0.00000000000E+00  0.19911137047E+04  0.19911137047E+04  0.50400001928E-02 0.  1.
       -1   -1    0    0    0  501  0.00000000000E+00  0.00000000000E+00 -0.65279855610E+03  0.65279855612E+03  0.50400001928E-02 0. -1.
    10030    2    1    2    0    0  0.00000000000E+00  0.00000000000E+00  0.13383151486E+04  0.26439122608E+04  0.22801720562E+04 0.  0.
        2    1    3    3  502    0  0.24852531203E+03 -0.97819699831E+03  0.12839913193E+04  0.16331772428E+04  0.25500000920E-02 0.  1.
       -2    1    3    3    0  502 -0.24852531203E+03  0.97819699831E+03  0.54323829250E+02  0.10107350180E+04  0.25500000920E-02 0. -1.
</event>
<event>
 5   0  0.1096672E-05  0.1670380E+04  0.7818609E-02  0.8778441E-01
       -1   -1    0    0    0  501  0.00000000000E+00  0.00000000000E+00  0.11813607097E+04  0.11813607097E+04  0.50400001928E-02 0. -1.
        1   -1    0    0  501    0  0.00000000000E+00  0.00000000000E+00 -0.59045650583E+03  0.59045650585E+03  0.50400001928E-02 0.  1.
    10030    2    1    2    0    0  0.00000000000E+00  0.00000000000E+00  0.59090420390E+03  0.17718172156E+04  0.16703797374E+04 0.  0.
        1    1    3    3  502    0 -0.51446600273E+03 -0.22142147434E+03  0.95262321979E+03  0.11050763486E+04  0.50400001928E-02 0. -1.
       -1    1    3    3    0  502  0.51446600273E+03  0.22142147434E+03 -0.36171901589E+03  0.66674086701E+03  0.50400001928E-02 0.  1.
</event>
<event>
 5   0  0.2641216E-05  0.2670979E+04  0.7818609E-02  0.8344483E-01
       -2   -1    0    0    0  501  0.00000000000E+00  0.00000000000E+00  0.76415110261E+03  0.76415110262E+03  0.25500000920E-02 0.  1.
        2   -1    0    0  501    0  0.00000000000E+00  0.00000000000E+00 -0.23340042011E+04  0.23340042011E+04  0.25500000920E-02 0. -1.
    10030    2    1    2    0    0  0.00000000000E+00  0.00000000000E+00 -0.15698530985E+04  0.30981553037E+04  0.26709787598E+04 0.  0.
        5    1    3    3  502    0 -0.95166166730E+03  0.46229086088E+03  0.16035590288E+03  0.10700976005E+04  0.46999998093E+01 0.  1.
       -5    1    3    3    0  502  0.95166166730E+03 -0.46229086088E+03 -0.17302090014E+04  0.20280577032E+04  0.46999998093E+01 0. -1.
</event>
<event>
 5   0  0.1041909E-05  0.2659874E+04  0.7818609E-02  0.8348143E-01
       -1   -1    0    0    0  501  0.00000000000E+00  0.00000000000E+00  0.12736939235E+04  0.12736939236E+04  0.50400001928E-02 0.  1.
        1   -1    0    0  501    0  0.00000000000E+00  0.00000000000E+00 -0.13886635775E+04  0.13886635775E+04  0.50400001928E-02 0. -1.
    10030    2    1    2    0    0  0.00000000000E+00  0.00000000000E+00 -0.11496965391E+03  0.26623575010E+04  0.26598739523E+04 0.  0.
        5    1    3    3  502    0  0.10888682033E+04  0.57833100501E+03 -0.55655799779E+03  0.13527304278E+04  0.46999998093E+01 0. -1.
       -5    1    3    3    0  502 -0.10888682033E+04 -0.57833100501E+03  0.44158834387E+03  0.13096270732E+04  0.46999998093E+01 0.  1.
</event>
<event>
 5   0  0.2615843E-05  0.2687567E+04  0.7818609E-02  0.8339050E-01
       -2   -1    0    0    0  501  0.00000000000E+00  0.00000000000E+00  0.71627881154E+03  0.71627881155E+03  0.25500000920E-02 0. -1.
        2   -1    0    0  501    0  0.00000000000E+00  0.00000000000E+00 -0.25210210400E+04  0.25210210400E+04  0.25500000920E-02 0.  1.
    10030    2    1    2    0    0  0.00000000000E+00  0.00000000000E+00 -0.18047422284E+04  0.32372998515E+04  0.26875668955E+04 0.  0.
        3    1    3    3  502    0 -0.11433183217E+02 -0.10475602632E+03  0.71129416162E+03  0.71905767313E+03  0.10100000352E+00 0. -1.
       -3    1    3    3    0  502  0.11433183217E+02  0.10475602632E+03 -0.25160363901E+04  0.25182421784E+04  0.10100000352E+00 0.  1.
</event>
<event>
 5   0  0.2540232E-05  0.2653414E+04  0.7818609E-02  0.8350281E-01
       -2   -1    0    0    0  501  0.00000000000E+00  0.00000000000E+00  0.85925562194E+03  0.85925562195E+03  0.25500000920E-02 0.  1.
        2   -1    0    0  501    0  0.00000000000E+00  0.00000000000E+00 -0.20484613879E+04  0.20484613879E+04  0.25500000920E-02 0. -1.
    10030    2    1    2    0    0  0.00000000000E+00  0.00000000000E+00 -0.11892057659E+04  0.29077170098E+04  0.26534143769E+04 0.  0.
        1    1    3    3  502    0  0.49346539338E+03 -0.74028526551E+03 -0.16731127749E+04  0.18949503229E+04  0.50400001928E-02 0. -1.
       -1    1    3    3    0  502 -0.49346539338E+03  0.74028526551E+03  0.48390700894E+03  0.10127666869E+04  0.50400001928E-02 0.  1.
</event>
<event>
 5   0  0.9971923E-06  0.2653810E+04  0.7818609E-02  0.8350149E-01
        1   -1    0    0  501    0  0.00000000000E+00  0.00000000000E+00  0.10446032700E+04  0.10446032700E+04  0.50400001928E-02 0.  1.
       -1   -1    0    0    0  501  0.00000000000E+00  0.00000000000E+00 -0.16854984546E+04  0.16854984546E+04  0.50400001928E-02 0. -1.
    10030    2    1    2    0    0  0.00000000000E+00  0.00000000000E+00 -0.64089518460E+03  0.27301017246E+04  0.26538102398E+04 0.  0.
        2    1    3    3  502    0  0.21070592976E+03  0.58234889657E+03 -0.15277041760E+04  0.16484560278E+04  0.25500000920E-02 0. -1.
       -2    1    3    3    0  502 -0.21070592976E+03 -0.58234889657E+03  0.88680899138E+03  0.10816456968E+04  0.25500000920E-02 0.  1.
</event>
<event>
 5   0  0.9971923E-06  0.2697229E+04  0.7818609E-02  0.8335905E-01
        1   -1    0    0  501    0  0.00000000000E+00  0.00000000000E+00  0.12504429794E+04  0.12504429794E+04  0.50400001928E-02 0.  1.
       -1   -1    0    0    0  501  0.00000000000E+00  0.00000000000E+00 -0.14544937565E+04  0.14544937565E+04  0.50400001928E-02 0. -1.
    10030    2    1    2    0    0  0.00000000000E+00  0.00000000000E+00 -0.20405077717E+03  0.27049367359E+04  0.26972293239E+04 0.  0.
        2    1    3    3  502    0 -0.46215766951E+02  0.52031396436E+03 -0.13489201373E+04  0.14465296593E+04  0.25500000920E-02 0. -1.
       -2    1    3    3    0  502  0.46215766951E+02 -0.52031396436E+03  0.11448693601E+04  0.12584070766E+04  0.25500000920E-02 0.  1.
</event>
<event>
 5   0  0.2615843E-05  0.2666373E+04  0.7818609E-02  0.8345999E-01
        2   -1    0    0  501    0  0.00000000000E+00  0.00000000000E+00  0.18044138789E+04  0.18044138789E+04  0.25500000920E-02 0. -1.
       -2   -1    0    0    0  501  0.00000000000E+00  0.00000000000E+00 -0.98502134483E+03  0.98502134483E+03  0.25500000920E-02 0.  1.
    10030    2    1    2    0    0  0.00000000000E+00  0.00000000000E+00  0.81939253407E+03  0.27894352237E+04  0.26663729564E+04 0.  0.
        3    1    3    3  502    0 -0.32182223740E+03  0.11802051253E+04  0.96418964669E+03  0.15575992345E+04  0.10100000352E+00 0. -1.
       -3    1    3    3    0  502  0.32182223740E+03 -0.11802051253E+04 -0.14479711262E+03  0.12318359892E+04  0.10100000352E+00 0.  1.
</event>
<event>
 5   0  0.2615843E-05  0.2581707E+04  0.7818609E-02  0.8374441E-01
        2   -1    0    0  501    0  0.00000000000E+00  0.00000000000E+00  0.15919864765E+04  0.15919864765E+04  0.25500000920E-02 0.  1.
       -2   -1    0    0    0  501  0.00000000000E+00  0.00000000000E+00 -0.10466816840E+04  0.10466816840E+04  0.25500000920E-02 0. -1.
    10030    2    1    2    0    0  0.00000000000E+00  0.00000000000E+00  0.54530479257E+03  0.26386681605E+04  0.25817072538E+04 0.  0.
        3    1    3    3  502    0  0.53958835858E+03 -0.10356310341E+04 -0.28959002533E+03  0.12031415663E+04  0.10100000352E+00 0. -1.
       -3    1    3    3    0  502 -0.53958835858E+03  0.10356310341E+04  0.83489481790E+03  0.14355265942E+04  0.10100000352E+00 0.  1.
</event>
<event>
 5   0  0.1036691E-05  0.2540044E+04  0.7818609E-02  0.8388857E-01
       -1   -1    0    0    0  501  0.00000000000E+00  0.00000000000E+00  0.94771310928E+03  0.94771310929E+03  0.50400001928E-02 0. -1.
        1   -1    0    0  501    0  0.00000000000E+00  0.00000000000E+00 -0.17019455688E+04  0.17019455688E+04  0.50400001928E-02 0.  1.
    10030    2    1    2    0    0  0.00000000000E+00  0.00000000000E+00 -0.75423245954E+03  0.26496586781E+04  0.25400441940E+04 0.  0.
        4    1    3    3  502    0 -0.10006199619E+04 -0.85043262546E+02  0.43392006987E+03  0.10939656780E+04  0.12699999809E+01 0. -1.
       -4    1    3    3    0  502  0.10006199619E+04  0.85043262546E+02 -0.11881525294E+04  0.15556930001E+04  0.12699999809E+01 0.  1.
</event>
<event>
 5   0  0.1036691E-05  0.2682068E+04  0.7818609E-02  0.8340847E-01
        1   -1    0    0  501    0  0.00000000000E+00  0.00000000000E+00  0.13209889699E+04  0.13209889699E+04  0.50400001928E-02 0.  1.
       -1   -1    0    0    0  501  0.00000000000E+00  0.00000000000E+00 -0.13613829486E+04  0.13613829486E+04  0.50400001928E-02 0. -1.
    10030    2    1    2    0    0  0.00000000000E+00  0.00000000000E+00 -0.40393978671E+02  0.26823719185E+04  0.26820677537E+04 0.  0.
        4    1    3    3  502    0 -0.58705341365E+03  0.51946298516E+03 -0.11083905758E+04  0.13575731232E+04  0.12699999809E+01 0. -1.
       -4    1    3    3    0  502  0.58705341365E+03 -0.51946298516E+03  0.10679965972E+04  0.13247987952E+04  0.12699999809E+01 0.  1.
</event>
<event>
 5   0  0.1096672E-05  0.2005163E+04  0.7818609E-02  0.8604211E-01
        1   -1    0    0  501    0  0.00000000000E+00  0.00000000000E+00  0.96766032889E+03  0.96766032890E+03  0.50400001928E-02 0. -1.
       -1   -1    0    0    0  501  0.00000000000E+00  0.00000000000E+00 -0.10387627767E+04  0.10387627767E+04  0.50400001928E-02 0.  1.
    10030    2    1    2    0    0  0.00000000000E+00  0.00000000000E+00 -0.71102447811E+02  0.20064231056E+04  0.20051628664E+04 0.  0.
        1    1    3    3  502    0  0.33809080872E+02 -0.84063515056E+03  0.51009785372E+03  0.98387516012E+03  0.50400001928E-02 0. -1.
       -1    1    3    3    0  502 -0.33809080872E+02  0.84063515056E+03 -0.58120030153E+03  0.10225479455E+04  0.50400001928E-02 0.  1.
</event>
<event>
 5   0  0.1096672E-05  0.2700510E+04  0.7818609E-02  0.8334840E-01
        1   -1    0    0  501    0  0.00000000000E+00  0.00000000000E+00  0.18593438003E+04  0.18593438003E+04  0.50400001928E-02 0.  1.
       -1   -1    0    0    0  501  0.00000000000E+00  0.00000000000E+00 -0.98055461138E+03  0.98055461139E+03  0.50400001928E-02 0. -1.
    10030    2    1    2    0    0  0.00000000000E+00  0.00000000000E+00  0.87878918895E+03  0.28398984117E+04  0.27005096834E+04 0.  0.
        1    1    3    3  502    0  0.43213614801E+03  0.12657894024E+04  0.63393973791E+03  0.14801500103E+04  0.50400001928E-02 0.  1.
       -1    1    3    3    0  502 -0.43213614801E+03 -0.12657894024E+04  0.24484945104E+03  0.13597484015E+04  0.50400001928E-02 0. -1.
</event>
<event>
 5   0  0.9971923E-06  0.2727641E+04  0.7818609E-02  0.8326092E-01
        1   -1    0    0  501    0  0.00000000000E+00  0.00000000000E+00  0.19916046593E+04  0.19916046594E+04  0.50400001928E-02 0.  1.
       -1   -1    0    0    0  501  0.00000000000E+00  0.00000000000E+00 -0.93392361591E+03  0.93392361593E+03  0.50400001928E-02 0. -1.
    10030    2    1    2    0    0  0.00000000000E+00  0.00000000000E+00  0.10576810434E+04  0.29255282753E+04  0.27276411970E+04 0.  0.
        2    1    3    3  502    0 -0.11048386466E+04 -0.79930548208E+03  0.50611523121E+03  0.14545481484E+04  0.25500000920E-02 0. -1.
       -2    1    3    3    0  502  0.11048386466E+04  0.79930548208E+03  0.55156581222E+03  0.14709801269E+04  0.25500000920E-02 0.  1.
</event>
<event>
 5   0  0.1041909E-05  0.2657650E+04  0.7818609E-02  0.8348878E-01
        1   -1    0    0  501    0  0.00000000000E+00  0.00000000000E+00  0.96794592896E+03  0.96794592898E+03  0.50400001928E-02 0.  1.
       -1   -1    0    0    0  501  0.00000000000E+00  0.00000000000E+00 -0.18242511112E+04  0.18242511112E+04  0.50400001928E-02 0. -1.
    10030    2    1    2    0    0  0.00000000000E+00  0.00000000000E+00 -0.85630518223E+03  0.27921970402E+04  0.26576504183E+04 0.  0.
        5    1    3    3  502    0 -0.17864288315E+03  0.35203835027E+03  0.90490531888E+03  0.98727909219E+03  0.46999998093E+01 0.  1.
       -5    1    3    3    0  502  0.17864288315E+03 -0.35203835027E+03 -0.17612105011E+04  0.18049179480E+04  0.46999998093E+01 0. -1.
</event>
<event>
 5   0  0.9971923E-06  0.2574991E+04  0.7818609E-02  0.8376746E-01
       -1   -1    0    0    0  501  0.00000000000E+00  0.00000000000E+00  0.89306560679E+03  0.89306560680E+03  0.50400001928E-02 0. -1.
        1   -1    0    0  501    0  0.00000000000E+00  0.00000000000E+00 -0.18561283669E+04  0.18561283669E+04  0.50400001928E-02 0.  1.
    10030    2    1    2    0    0  0.00000000000E+00  0.00000000000E+00 -0.96306276015E+03  0.27491939738E+04  0.25749908010E+04 0.  0.
        2    1    3    3  502    0  0.68565715353E+03 -0.63485098240E+03 -0.14271618189E+04  0.17058582472E+04  0.25500000920E-02 0.  1.
       -2    1    3    3    0  502 -0.68565715353E+03  0.63485098240E+03  0.46409905876E+03  0.10433357266E+04  0.25500000920E-02 0. -1.
</event>
<event>
 5   0  0.2540232E-05  0.2726644E+04  0.7818609E-02  0.8326411E-01
        2   -1    0    0  501    0  0.00000000000E+00  0.00000000000E+00  0.21294608913E+04  0.21294608913E+04  0.25500000920E-02 0. -1.
       -2   -1    0    0    0  501  0.00000000000E+00  0.00000000000E+00 -0.87282509780E+03  0.87282509780E+03  0.25500000920E-02 0.  1.
    10030    2    1    2    0    0  0.00000000000E+00  0.00000000000E+00  0.12566357935E+04  0.30022859891E+04  0.27266440257E+04 0.  0.
        1    1    3    3  502    0  0.42109841097E+03  0.57819585599E+03 -0.64961910320E+03  0.96625012231E+03  0.50400001928E-02 0.  1.
       -1    1    3    3    0  502 -0.42109841097E+03 -0.57819585599E+03  0.19062548968E+04  0.20360358668E+04  0.50400001928E-02 0. -1.
</event>
<event>
 5   0  0.2540232E-05  0.2721422E+04  0.7818609E-02  0.8328088E-01
        2   -1    0    0  501    0  0.00000000000E+00  0.00000000000E+00  0.20136102354E+04  0.20136102354E+04  0.25500000920E-02 0. -1.
       -2   -1    0    0    0  501  0.00000000000E+00  0.00000000000E+00 -0.91950962810E+03  0.91950962810E+03  0.25500000920E-02 0.  1.
    10030    2    1    2    0    0  0.00000000000E+00  0.00000000000E+00  0.10941006073E+04  0.29331198635E+04  0.27214216863E+04 0.  0.
        1    1    3    3  502    0 -0.12557394008E+04 -0.83454609947E+02 -0.10582517045E+02  0.12585539735E+04  0.50400001928E-02 0.  1.
       -1    1    3    3    0  502  0.12557394008E+04  0.83454609947E+02  0.11046831243E+04  0.16745658900E+04  0.50400001928E-02 0. -1.
</event>
<event>
 5   0  0.2540684E-05  0.2705015E+04  0.7818609E-02  0.8333380E-01
        2   -1    0    0  501    0  0.00000000000E+00  0.00000000000E+00  0.20534985131E+04  0.20534985131E+04  0.25500000920E-02 0.  1.
       -2   -1    0    0    0  501  0.00000000000E+00  0.00000000000E+00 -0.89080985775E+03  0.89080985775E+03  0.25500000920E-02 0. -1.
    10030    2    1    2    0    0  0.00000000000E+00  0.00000000000E+00  0.11626886554E+04  0.29443083709E+04  0.27050151337E+04 0.  0.
        2    1    3    3  502    0  0.65638099731E+03  0.69568596247E+03  0.16222140268E+04  0.18831870116E+04  0.25500000920E-02 0.  1.
       -2    1    3    3    0  502 -0.65638099731E+03 -0.69568596247E+03 -0.45952537144E+03  0.10611213592E+04  0.25500000920E-02 0. -1.
</event>
<event>
 5   0  0.1036691E-05  0.2621313E+04  0.7818609E-02  0.8360997E-01
        1   -1    0    0  501    0  0.00000000000E+00  0.00000000000E+00  0.15667031414E+04  0.15667031414E+04  0.50400001928E-02 0. -1.
       -1   -1    0    0    0  501  0.00000000000E+00  0.00000000000E+00 -0.10964558207E+04  0.10964558207E+04  0.50400001928E-02 0.  1.
    10030    2    1    2    0    0  0.00000000000E+00  0.00000000000E+00  0.47024732075E+03  0.26631589621E+04  0.26213132424E+04 0.  0.
        4    1    3    3  502    0 -0.63911108634E+03 -0.67679480668E+03  0.11725146056E+04  0.14970992967E+04  0.12699999809E+01 0. -1.
       -4    1    3    3    0  502  0.63911108634E+03  0.67679480668E+03 -0.70226728485E+03  0.11660596654E+04  0.12699999809E+01 0.  1.
</event>
<event>
 5   0  0.1036691E-05  0.2768981E+04  0.7818609E-02  0.8312964E-01
       -1   -1    0    0    0  501  0.00000000000E+00  0.00000000000E+00  0.11422289632E+04  0.11422289632E+04  0.50400001928E-02 0. -1.
        1   -1    0    0  501    0  0.00000000000E+00  0.00000000000E+00 -0.16781340006E+04  0.16781340006E+04  0.50400001928E-02 0.  1.
    10030    2    1    2    0    0  0.00000000000E+00  0.00000000000E+00 -0.53590503737E+03  0.28203629639E+04  0.27689805053E+04 0.  0.
        4    1    3    3  502    0 -0.37295875502E+03 -0.12140740698E+04 -0.82930333652E+03  0.15168453174E+04  0.12699999809E+01 0.  1.
       -4    1    3    3    0  502  0.37295875502E+03  0.12140740698E+04  0.29339829915E+03  0.13035176465E+04  0.12699999809E+01 0. -1.
</event>
<event>
 5   0  0.1096672E-05  0.2631391E+04  0.7818609E-02  0.8357616E-01
       -1   -1    0    0    0  501  0.00000000000E+00  0.00000000000E+00  0.21890874775E+04  0.21890874775E+04  0.50400001928E-02 0. -1.
        1   -1    0    0  501    0  0.00000000000E+00  0.00000000000E+00 -0.79076547418E+03  0.79076547419E+03  0.50400001928E-02 0.  1.
    10030    2    1    2    0    0  0.00000000000E+00  0.00000000000E+00  0.13983220033E+04  0.29798529517E+04  0.26313911128E+04 0.  0.
        1    1    3    3  502    0 -0.39020014263E+03  0.43682050627E+03  0.20333029800E+04  0.21159842425E+04  0.50400001928E-02 0. -1.
       -1    1    3    3    0  502  0.39020014263E+03 -0.43682050627E+03 -0.63498097666E+03  0.86386870921E+03  0.50400001928E-02 0.  1.
</event>
<event>
 5   0  0.9971923E-06  0.2709494E+04  0.7818609E-02  0.8331931E-01
       -1   -1    0    0    0  501  0.00000000000E+00  0.00000000000E+00  0.19872129232E+04  0.19872129232E+04  0.50400001928E-02 0. -1.
        1   -1    0    0  501    0  0.00000000000E+00  0.00000000000E+00 -0.92357442883E+03  0.92357442884E+03  0.50400001928E-02 0.  1.
    10030    2    1    2    0    0  0.00000000000E+00  0.00000000000E+00  0.10636384944E+04  0.29107873521E+04  0.27094937096E+04 0.  0.
        2    1    3    3  502    0  0.46504030610E+03  0.41957061572E+03 -0.75868985889E+03  0.98382533504E+03  0.25500000920E-02 0.  1.
       -2    1    3    3    0  502 -0.46504030610E+03 -0.41957061572E+03  0.18223283533E+04  0.19269620170E+04  0.25500000920E-02 0. -1.
</event>
<event>
 5   0  0.9971923E-06  0.2370868E+04  0.7818609E-02  0.8450491E-01
        1   -1    0    0  501    0  0.00000000000E+00  0.00000000000E+00  0.26759594248E+04  0.26759594248E+04  0.50400001928E-02 0.  1.
       -1   -1    0    0    0  501  0.00000000000E+00  0.00000000000E+00 -0.52514021324E+03  0.52514021327E+03  0.50400001928E-02 0. -1.
    10030    2    1    2    0    0  0.00000000000E+00  0.00000000000E+00  0.21508192115E+04  0.32010996381E+04  0.23708681136E+04 0.  0.
        2    1    3    3  502    0  0.24606422537E+03  0.11068521985E+04  0.60850381343E+03  0.12868357640E+04  0.25500000920E-02 0.  1.
       -2    1    3    3    0  502 -0.24606422537E+03 -0.11068521985E+04  0.15423153981E+04  0.19142638741E+04  0.25500000920E-02 0. -1.
</event>
<event>
 5   0  0.2615843E-05  0.2130957E+04  0.7818609E-02  0.8547728E-01
       -2   -1    0    0    0  501  0.00000000000E+00  0.00000000000E+00  0.11635705091E+04  0.11635705091E+04  0.25500000920E-02 0. -1.
        2   -1    0    0  501    0  0.00000000000E+00  0.00000000000E+00 -0.97565550552E+03  0.97565550552E+03  0.25500000920E-02 0.  1.
    10030    2    1    2    0    0  0.00000000000E+00  0.00000000000E+00  0.18791500354E+03  0.21392260146E+04  0.21309565676E+04 0.  0.
        3    1    3    3  502    0 -0.98300236399E+02 -0.11252203342E+03 -0.96508651577E+03  0.97658391221E+03  0.10100000352E+00 0.  1.
       -3    1    3    3    0  502  0.98300236399E+02  0.11252203342E+03  0.11530015193E+04  0.11626421024E+04  0.10100000352E+00 0. -1.
</event>
<event>
 5   0  0.2540232E-05  0.1808183E+04  0.7818609E-02  0.8701960E-01
       -2   -1    0    0    0  501  0.00000000000E+00  0.00000000000E+00  0.66178794029E+03  0.66178794030E+03  0.25500000920E-02 0.  1.
        2   -1    0    0  501    0  0.00000000000E+00  0.00000000000E+00 -0.12351112007E+04  0.12351112007E+04  0.25500000920E-02 0. -1.
    10030    2    1    2    0    0  0.00000000000E+00  0.00000000000E+00 -0.57332326039E+03  0.18968991410E+04  0.18081832844E+04 0.  0.
        1    1    3    3  502    0 -0.52398153244E+03  0.34620166596E+03  0.39560839891E+03  0.74223867129E+03  0.50400001928E-02 0.  1.
       -1    1    3    3    0  502  0.52398153244E+03 -0.34620166596E+03 -0.96893165930E+03  0.11546604697E+04  0.50400001928E-02 0. -1.
</event>
<event>
 5   0  0.2615843E-05  0.3099402E+04  0.7818609E-02  0.8215902E-01
        2   -1    0    0  501    0  0.00000000000E+00  0.00000000000E+00  0.12798082476E+04  0.12798082476E+04  0.25500000920E-02 0. -1.
       -2   -1    0    0    0  501  0.00000000000E+00  0.00000000000E+00 -0.18765103208E+04  0.18765103208E+04  0.25500000920E-02 0.  1.
    10030    2    1    2    0    0  0.00000000000E+00  0.00000000000E+00 -0.59670207318E+03  0.31563185684E+04  0.30994021264E+04 0.  0.
        3    1    3    3  502    0 -0.91040203798E+02 -0.15201552559E+04 -0.60025104915E+01  0.15228907909E+04  0.10100000352E+00 0. -1.
       -3    1    3    3    0  502  0.91040203798E+02  0.15201552559E+04 -0.59069956269E+03  0.16334277775E+04  0.10100000352E+00 0.  1.
</event>
<event>
 5   0  0.1096672E-05  0.2717352E+04  0.7818609E-02  0.8329397E-01
        1   -1    0    0  501    0  0.00000000000E+00  0.00000000000E+00  0.14560707046E+04  0.14560707046E+04  0.50400001928E-02 0.  1.
       -1   -1    0    0    0  501  0.00000000000E+00  0.00000000000E+00 -0.12677959544E+04  0.12677959544E+04  0.50400001928E-02 0. -1.
    10030    2    1    2    0    0  0.00000000000E+00  0.00000000000E+00  0.18827475014E+03  0.27238666590E+04  0.27173520557E+04 0.  0.
        1    1    3    3  502    0 -0.12878422801E+04  0.39571118453E+03 -0.81998051036E+02  0.13497587786E+04  0.50400001928E-02 0.  1.
       -1    1    3    3    0  502  0.12878422801E+04 -0.39571118453E+03  0.27027280117E+03  0.13741078804E+04  0.50400001928E-02 0. -1.
</event>
<event>
 5   0  0.2540684E-05  0.2544519E+04  0.7818609E-02  0.8387295E-01
       -2   -1    0    0    0  501  0.00000000000E+00  0.00000000000E+00  0.81667376636E+03  0.81667376636E+03  0.25500000920E-02 0.  1.
        2   -1    0    0  501    0  0.00000000000E+00  0.00000000000E+00 -0.19819957611E+04  0.19819957611E+04  0.25500000920E-02 0. -1.
    10030    2    1    2    0    0  0.00000000000E+00  0.00000000000E+00 -0.11653219947E+04  0.27986695275E+04  0.25445187703E+04 0.  0.
        2    1    3    3  502    0  0.21555336896E+03  0.11864321902E+04 -0.10288380568E+04  0.15851158771E+04  0.25500000920E-02 0.  1.
       -2    1    3    3    0  502 -0.21555336896E+03 -0.11864321902E+04 -0.13648393795E+03  0.12135536503E+04  0.25500000920E-02 0. -1.
</event>
<event>
 5   0  0.2540684E-05  0.2708203E+04  0.7818609E-02  0.8332348E-01
        2   -1    0    0  501    0  0.00000000000E+00  0.00000000000E+00  0.21221023782E+04  0.21221023782E+04  0.25500000920E-02 0.  1.
       -2   -1    0    0    0  501  0.00000000000E+00  0.00000000000E+00 -0.86404458555E+03  0.86404458555E+03  0.25500000920E-02 0. -1.
    10030    2    1    2    0    0  0.00000000000E+00  0.00000000000E+00  0.12580577926E+04  0.29861469637E+04  0.27082031459E+04 0.  0.
        2    1    3    3  502    0  0.76591128363E+03 -0.36983845642E+03  0.17908217246E+04  0.19825344959E+04  0.25500000920E-02 0.  1.
       -2    1    3    3    0  502 -0.76591128363E+03  0.36983845642E+03 -0.53276393199E+03  0.10036124678E+04  0.25500000920E-02 0. -1.
</event>
<event>
 5   0  0.1096672E-05  0.2741010E+04  0.7818609E-02  0.8321820E-01
       -1   -1    0    0    0  501  0.00000000000E+00  0.00000000000E+00  0.12234064918E+04  0.12234064918E+04  0.50400001928E-02 0.  1.
        1   -1    0    0  501    0  0.00000000000E+00  0.00000000000E+00 -0.15352897239E+04  0.15352897239E+04  0.50400001928E-02 0. -1.
    10030    2    1    2    0    0  0.00000000000E+00  0.00000000000E+00 -0.31188323210E+03  0.27586962158E+04  0.27410096060E+04 0.  0.
        1    1    3    3  502    0 -0.89203760529E+03 -0.78661173413E+03 -0.84136044025E+03  0.14568378427E+04  0.50400001928E-02 0. -1.
       -1    1    3    3    0  502  0.89203760529E+03  0.78661173413E+03  0.52947720814E+03  0.13018583731E+04  0.50400001928E-02 0.  1.
</event>
<event>
 5   0  0.1036691E-05  0.2725992E+04  0.7818609E-02  0.8326621E-01
        1   -1    0    0  501    0  0.00000000000E+00  0.00000000000E+00  0.14628128271E+04  0.14628128272E+04  0.50400001928E-02 0.  1.
       -1   -1    0    0    0  501  0.00000000000E+00  0.00000000000E+00 -0.12699900326E+04  0.12699900326E+04  0.50400001928E-02 0. -1.
    10030    2    1    2    0    0  0.00000000000E+00  0.00000000000E+00  0.19282279458E+03  0.27328028597E+04  0.27259917168E+04 0.  0.
        4    1    3    3  502    0 -0.58723529374E+03  0.16241352128E+02  0.13293815698E+04  0.14533981020E+04  0.12699999809E+01 0.  1.
       -4    1    3    3    0  502  0.58723529374E+03 -0.16241352128E+02 -0.11365587752E+04  0.12794047578E+04  0.12699999809E+01 0. -1.
</event>
<event>
 5   0  0.1041909E-05  0.2114343E+04  0.7818609E-02  0.8554951E-01
       -1   -1    0    0    0  501  0.00000000000E+00  0.00000000000E+00  0.99046112741E+03  0.99046112742E+03  0.50400001928E-02 0. -1.
        1   -1    0    0  501    0  0.00000000000E+00  0.00000000000E+00 -0.11283747681E+04  0.11283747681E+04  0.50400001928E-02 0.  1.
    10030    2    1    2    0    0  0.00000000000E+00  0.00000000000E+00 -0.13791364066E+03  0.21188358955E+04  0.21143427773E+04 0.  0.
        5    1    3    3  502    0 -0.46286979859E+03  0.94133944108E+03 -0.20046396795E+03  0.10679776619E+04  0.46999998093E+01 0. -1.
       -5    1    3    3    0  502  0.46286979859E+03 -0.94133944108E+03  0.62550327295E+02  0.10508582336E+04  0.46999998093E+01 0.  1.
</event>
<event>
 5   0  0.2516518E-05  0.1842749E+04  0.7818609E-02  0.8683891E-01
       -2   -1    0    0    0  501  0.00000000000E+00  0.00000000000E+00  0.72669586308E+03  0.72669586309E+03  0.25500000920E-02 0. -1.
        2   -1    0    0  501    0  0.00000000000E+00  0.00000000000E+00 -0.11682065913E+04  0.11682065913E+04  0.25500000920E-02 0.  1.
    10030    2    1    2    0    0  0.00000000000E+00  0.00000000000E+00 -0.44151072819E+03  0.18949024544E+04  0.18427489217E+04 0.  0.
        4    1    3    3  502    0 -0.94765788526E+02 -0.54541207781E+03  0.53661850077E+03  0.77098373366E+03  0.12699999809E+01 0. -1.
       -4    1    3    3    0  502  0.94765788526E+02  0.54541207781E+03 -0.97812922896E+03  0.11239187207E+04  0.12699999809E+01 0.  1.
</event>
<event>
 5   0  0.1041909E-05  0.2712658E+04  0.7818609E-02  0.8330910E-01
        1   -1    0    0  501    0  0.00000000000E+00  0.00000000000E+00  0.14372393177E+04  0.14372393177E+04  0.50400001928E-02 0. -1.
       -1   -1    0    0    0  501  0.00000000000E+00  0.00000000000E+00 -0.12799731555E+04  0.12799731555E+04  0.50400001928E-02 0.  1.
    10030    2    1    2    0    0  0.00000000000E+00  0.00000000000E+00  0.15726616216E+03  0.27172124732E+04  0.27126575491E+04 0.  0.
        5    1    3    3  502    0  0.13031281077E+04  0.13368379161E+03 -0.27351296231E+03  0.13382248136E+04  0.46999998093E+01 0.  1.
       -5    1    3    3    0  502 -0.13031281077E+04 -0.13368379161E+03  0.43077912447E+03  0.13789876596E+04  0.46999998093E+01 0. -1.
</event>
<event>
 5   0  0.2540232E-05  0.2487814E+04  0.7818609E-02  0.8407340E-01
        2   -1    0    0  501    0  0.00000000000E+00  0.00000000000E+00  0.12256108936E+04  0.12256108936E+04  0.25500000920E-02 0.  1.
       -2   -1    0    0    0  501  0.00000000000E+00  0.00000000000E+00 -0.12624761698E+04  0.12624761698E+04  0.25500000920E-02 0. -1.
    10030    2    1    2    0    0  0.00000000000E+00  0.00000000000E+00 -0.36865276157E+02  0.24880870634E+04  0.24878139372E+04 0.  0.
        1    1    3    3  502    0 -0.57474436648E+03 -0.83468879400E+02  0.10816910382E+04  0.12277433130E+04  0.50400001928E-02 0.  1.
       -1    1    3    3    0  502  0.57474436648E+03  0.83468879400E+02 -0.11185563143E+04  0.12603437503E+04  0.50400001928E-02 0. -1.
</event>
<event>
 5   0  0.1041909E-05  0.2692455E+04  0.7818609E-02  0.8337457E-01
        1   -1    0    0  501    0  0.00000000000E+00  0.00000000000E+00  0.15377728242E+04  0.15377728242E+04  0.50400001928E-02 0. -1.
       -1   -1    0    0    0  501  0.00000000000E+00  0.00000000000E+00 -0.11785407225E+04  0.11785407225E+04  0.50400001928E-02 0.  1.
    10030    2    1    2    0    0  0.00000000000E+00  0.00000000000E+00  0.35923210169E+03  0.27163135467E+04  0.26924545643E+04 0.  0.
        5    1    3    3  502    0  0.80100933852E+03  0.38803990840E+03 -0.83934141647E+03  0.12233997852E+04  0.46999998093E+01 0.  1.
       -5    1    3    3    0  502 -0.80100933852E+03 -0.38803990840E+03  0.11985735182E+04  0.14929137615E+04  0.46999998093E+01 0. -1.
</event>
<event>
 5   0  0.1005265E-05  0.2626013E+04  0.7818609E-02  0.8359419E-01
        1   -1    0    0  501    0  0.00000000000E+00  0.00000000000E+00  0.14237480941E+04  0.14237480941E+04  0.50400001928E-02 0.  1.
       -1   -1    0    0    0  501  0.00000000000E+00  0.00000000000E+00 -0.12108783511E+04  0.12108783511E+04  0.50400001928E-02 0. -1.
    10030    2    1    2    0    0  0.00000000000E+00  0.00000000000E+00  0.21286974305E+03  0.26346264452E+04  0.26260127529E+04 0.  0.
        3    1    3    3  502    0  0.85799797640E+03  0.57905551410E+03 -0.70400183416E+03  0.12518324203E+04  0.10100000352E+00 0. -1.
       -3    1    3    3    0  502 -0.85799797640E+03 -0.57905551410E+03  0.91687157720E+03  0.13827940249E+04  0.10100000352E+00 0.  1.
</event>
<event>
 5   0  0.1005265E-05  0.1938829E+04  0.7818609E-02  0.8635767E-01
        1   -1    0    0  501    0  0.00000000000E+00  0.00000000000E+00  0.15032167805E+04  0.15032167805E+04  0.50400001928E-02 0.  1.
       -1   -1    0    0    0  501  0.00000000000E+00  0.00000000000E+00 -0.62516871289E+03  0.62516871291E+03  0.50400001928E-02 0. -1.
    10030    2    1    2    0    0  0.00000000000E+00  0.00000000000E+00  0.87804806756E+03  0.21283854934E+04  0.19388286153E+04 0.  0.
        3    1    3    3  502    0 -0.17122114352E+03 -0.90305249271E+03  0.77727864705E+03  0.12037369272E+04  0.10100000352E+00 0. -1.
       -3    1    3    3    0  502  0.17122114352E+03  0.90305249271E+03  0.10076942051E+03  0.92464856615E+03  0.10100000352E+00 0.  1.
</event>
<event>
 5   0  0.1041909E-05  0.2747860E+04  0.7818609E-02  0.8319641E-01
       -1   -1    0    0    0  501  0.00000000000E+00  0.00000000000E+00  0.12254704422E+04  0.12254704422E+04  0.50400001928E-02 0.  1.
        1   -1    0    0  501    0  0.00000000000E+00  0.00000000000E+00 -0.15403741608E+04  0.15403741608E+04  0.50400001928E-02 0. -1.
    10030    2    1    2    0    0  0.00000000000E+00  0.00000000000E+00 -0.31490371856E+03  0.27658446030E+04  0.27478595335E+04 0.  0.
        5    1    3    3  502    0  0.88989169946E+03 -0.10247054896E+04 -0.37270274333E+03  0.14074295727E+04  0.46999998093E+01 0. -1.
       -5    1    3    3    0  502 -0.88989169946E+03  0.10247054896E+04  0.57799024776E+02  0.13584150303E+04  0.46999998093E+01 0.  1.
</event>
<event>
 5   0  0.2516518E-05  0.2700613E+04  0.7818609E-02  0.8334806E-01
       -2   -1    0    0    0  501  0.00000000000E+00  0.00000000000E+00  0.85572497656E+03  0.85572497657E+03  0.25500000920E-02 0. -1.
        2   -1    0    0  501    0  0.00000000000E+00  0.00000000000E+00 -0.21307396818E+04  0.21307396818E+04  0.25500000920E-02 0.  1.
    10030    2    1    2    0    0  0.00000000000E+00  0.00000000000E+00 -0.12750147053E+04  0.29864646584E+04  0.27006126448E+04 0.  0.
        4    1    3    3  502    0 -0.24938807995E+03  0.82359177700E+03 -0.17882408776E+04  0.19845162833E+04  0.12699999809E+01 0.  1.
       -4    1    3    3    0  502  0.24938807995E+03 -0.82359177700E+03  0.51322617230E+03  0.10019483751E+04  0.12699999809E+01 0. -1.
</event>
<event>
 5   0  0.2615843E-05  0.2637672E+04  0.7818609E-02  0.8355516E-01
       -2   -1    0    0    0  501  0.00000000000E+00  0.00000000000E+00  0.14482270115E+04  0.14482270115E+04  0.25500000920E-02 0. -1.
        2   -1    0    0  501    0  0.00000000000E+00  0.00000000000E+00 -0.12010057359E+04  0.12010057359E+04  0.25500000920E-02 0.  1.
    10030    2    1    2    0    0  0.00000000000E+00  0.00000000000E+00  0.24722127561E+03  0.26492327474E+04  0.26376724192E+04 0.  0.
        3    1    3    3  502    0 -0.48168769147E+02 -0.13080699840E+04  0.28544293010E+03  0.13397182502E+04  0.10100000352E+00 0. -1.
       -3    1    3    3    0  502  0.48168769147E+02  0.13080699840E+04 -0.38221654483E+02  0.13095144972E+04  0.10100000352E+00 0.  1.
</event>
<event>
 5   0  0.2540684E-05  0.2572991E+04  0.7818609E-02  0.8377434E-01
        2   -1    0    0  501    0  0.00000000000E+00  0.00000000000E+00  0.20518039299E+04  0.20518039299E+04  0.25500000920E-02 0.  1.
       -2   -1    0    0    0  501  0.00000000000E+00  0.00000000000E+00 -0.80664203802E+03  0.80664203802E+03  0.25500000920E-02 0. -1.
    10030    2    1    2    0    0  0.00000000000E+00  0.00000000000E+00  0.12451618918E+04  0.28584459679E+04  0.25729914913E+04 0.  0.
        2    1    3    3  502    0  0.11357752587E+04  0.47170260685E+03  0.20308789165E+03  0.12464884593E+04  0.25500000920E-02 0.  1.
       -2    1    3    3    0  502 -0.11357752587E+04 -0.47170260685E+03  0.10420740002E+04  0.16119575086E+04  0.25500000920E-02 0. -1.
</event>
<event>
 5   0  0.2540232E-05  0.2703392E+04  0.7818609E-02  0.8333905E-01
       -2   -1    0    0    0  501  0.00000000000E+00  0.00000000000E+00  0.12013630502E+04  0.12013630502E+04  0.25500000920E-02 0.  1.
        2   -1    0    0  501    0  0.00000000000E+00  0.00000000000E+00 -0.15208411536E+04  0.15208411536E+04  0.25500000920E-02 0. -1.
    10030    2    1    2    0    0  0.00000000000E+00  0.00000000000E+00 -0.31947810337E+03  0.27222042038E+04  0.27033922151E+04 0.  0.
        1    1    3    3  502    0 -0.12508454825E+04  0.40638834662E+03  0.15438760211E+03  0.13242361727E+04  0.50400001928E-02 0. -1.
       -1    1    3    3    0  502  0.12508454825E+04 -0.40638834662E+03 -0.47386570548E+03  0.13979680312E+04  0.50400001928E-02 0.  1.
</event>
<event>
 5   0  0.2641216E-05  0.2519757E+04  0.7818609E-02  0.8395981E-01
       -2   -1    0    0    0  501  0.00000000000E+00  0.00000000000E+00  0.15752633129E+04  0.15752633129E+04  0.25500000920E-02 0. -1.
        2   -1    0    0  501    0  0.00000000000E+00  0.00000000000E+00 -0.10076368586E+04  0.10076368586E+04  0.25500000920E-02 0.  1.
    10030    2    1    2    0    0  0.00000000000E+00  0.00000000000E+00  0.56762645429E+03  0.25829001715E+04  0.25197566359E+04 0.  0.
        5    1    3    3  502    0  0.34064229060E+03 -0.29514895670E+03  0.14897820634E+04  0.15564776784E+04  0.46999998093E+01 0. -1.
       -5    1    3    3    0  502 -0.34064229060E+03  0.29514895670E+03 -0.92215560915E+03  0.10264224931E+04  0.46999998093E+01 0.  1.
</event>
<event>
 5   0  0.2615843E-05  0.2582869E+04  0.7818609E-02  0.8374043E-01
       -2   -1    0    0    0  501  0.00000000000E+00  0.00000000000E+00  0.78816138745E+03  0.78816138745E+03  0.25500000920E-02 0.  1.
        2   -1    0    0  501    0  0.00000000000E+00  0.00000000000E+00 -0.21160687414E+04  0.21160687414E+04  0.25500000920E-02 0. -1.
    10030    2    1    2    0    0  0.00000000000E+00  0.00000000000E+00 -0.13279073539E+04  0.29042301288E+04  0.25828694703E+04 0.  0.
        3    1    3    3  502    0 -0.10060640886E+04 -0.16078296045E+03 -0.15562839038E+04  0.18601171227E+04  0.10100000352E+00 0. -1.
       -3    1    3    3    0  502  0.10060640886E+04  0.16078296045E+03  0.22837654989E+03  0.10441130061E+04  0.10100000352E+00 0.  1.
</event>
<event>
 5   0  0.1096672E-05  0.2722248E+04  0.7818609E-02  0.8327822E-01
       -1   -1    0    0    0  501  0.00000000000E+00  0.00000000000E+00  0.17596174215E+04  0.17596174215E+04  0.50400001928E-02 0.  1.
        1   -1    0    0  501    0  0.00000000000E+00  0.00000000000E+00 -0.10528753850E+04  0.10528753850E+04  0.50400001928E-02 0. -1.
    10030    2    1    2    0    0  0.00000000000E+00  0.00000000000E+00  0.70674203650E+03  0.28124928065E+04  0.27222475054E+04 0.  0.
        1    1    3    3  502    0 -0.12809252256E+04  0.14445652603E+03 -0.98177148311E+02  0.12927783545E+04  0.50400001928E-02 0. -1.
       -1    1    3    3    0  502  0.12809252256E+04 -0.14445652603E+03  0.80491918481E+03  0.15197144520E+04  0.50400001928E-02 0.  1.
</event>
<event>
 5   0  0.1005265E-05  0.2689463E+04  0.7818609E-02  0.8338432E-01
        1   -1    0    0  501    0  0.00000000000E+00  0.00000000000E+00  0.29255790838E+04  0.29255790838E+04  0.50400001928E-02 0.  1.
       -1   -1    0    0    0  501  0.00000000000E+00  0.00000000000E+00 -0.61810092944E+03  0.61810092946E+03  0.50400001928E-02 0. -1.
    10030    2    1    2    0    0  0.00000000000E+00  0.00000000000E+00  0.23074781544E+04  0.35436800133E+04  0.26894632557E+04 0.  0.
        3    1    3    3  502    0 -0.54162512854E+03  0.98996944277E+03  0.19007079927E+03  0.11443444396E+04  0.10100000352E+00 0. -1.
       -3    1    3    3    0  502  0.54162512854E+03 -0.98996944277E+03  0.21174073551E+04  0.23993355737E+04  0.10100000352E+00 0.  1.
</event>
<event>
 5   0  0.1041909E-05  0.2639051E+04  0.7818609E-02  0.8355056E-01
        1   -1    0    0  501    0  0.00000000000E+00  0.00000000000E+00  0.15516428088E+04  0.15516428088E+04  0.50400001928E-02 0. -1.
       -1   -1    0    0    0  501  0.00000000000E+00  0.00000000000E+00 -0.11221317128E+04  0.11221317128E+04  0.50400001928E-02 0.  1.
    10030    2    1    2    0    0  0.00000000000E+00  0.00000000000E+00  0.42951109601E+03  0.26737745216E+04  0.26390510436E+04 0.  0.
        5    1    3    3  502    0 -0.56635337482E+03 -0.52541681734E+03 -0.86904203832E+03  0.11627876554E+04  0.46999998093E+01 0.  1.
       -5    1    3    3    0  502  0.56635337482E+03  0.52541681734E+03  0.12985531343E+04  0.15109868662E+04  0.46999998093E+01 0. -1.
</event>
<event>
 5   0  0.1005265E-05  0.2699175E+04  0.7818609E-02  0.8335273E-01
        1   -1    0    0  501    0  0.00000000000E+00  0.00000000000E+00  0.16567708976E+04  0.16567708976E+04  0.50400001928E-02 0. -1.
       -1   -1    0    0    0  501  0.00000000000E+00  0.00000000000E+00 -0.10993589688E+04  0.10993589688E+04  0.50400001928E-02 0.  1.
    10030    2    1    2    0    0  0.00000000000E+00  0.00000000000E+00  0.55741192883E+03  0.27561298664E+04  0.26991746483E+04 0.  0.
        3    1    3    3  502    0  0.66903366862E+03 -0.57712314955E+03 -0.76297156363E+03  0.11673914496E+04  0.10100000352E+00 0.  1.
       -3    1    3    3    0  502 -0.66903366862E+03  0.57712314955E+03  0.13203834925E+04  0.15887384168E+04  0.10100000352E+00 0. -1.
</event>
<event>
 5   0  0.2540684E-05  0.2666735E+04  0.7818609E-02  0.8345880E-01
       -2   -1    0    0    0  501  0.00000000000E+00  0.00000000000E+00  0.11955319242E+04  0.11955319242E+04  0.25500000920E-02 0. -1.
        2   -1    0    0  501    0  0.00000000000E+00  0.00000000000E+00 -0.14870941679E+04  0.14870941679E+04  0.25500000920E-02 0.  1.
    10030    2    1    2    0    0  0.00000000000E+00  0.00000000000E+00 -0.29156224368E+03  0.26826260921E+04  0.26667347465E+04 0.  0.
        2    1    3    3  502    0  0.47436674068E+03  0.14015905758E+03  0.10998221959E+04  0.12059341726E+04  0.25500000920E-02 0. -1.
       -2    1    3    3    0  502 -0.47436674068E+03 -0.14015905758E+03 -0.13913844396E+04  0.14766919194E+04  0.25500000920E-02 0.  1.
</event>
<event>
 5   0  0.2615843E-05  0.1759827E+04  0.7818609E-02  0.8727960E-01
        2   -1    0    0  501    0  0.00000000000E+00  0.00000000000E+00  0.10268328199E+04  0.10268328199E+04  0.25500000920E-02 0.  1.
       -2   -1    0    0    0  501  0.00000000000E+00  0.00000000000E+00 -0.75401510091E+03  0.75401510092E+03  0.25500000920E-02 0. -1.
    10030    2    1    2    0    0  0.00000000000E+00  0.00000000000E+00  0.27281771899E+03  0.17808479208E+04  0.17598266418E+04 0.  0.
        3    1    3    3  502    0  0.80457260734E+03 -0.18863110121E+03  0.44222507553E+03  0.93727359957E+03  0.10100000352E+00 0. -1.
       -3    1    3    3    0  502 -0.80457260734E+03  0.18863110121E+03 -0.16940735654E+03  0.84357432125E+03  0.10100000352E+00 0.  1.
</event>
<event>
 5   0  0.1005265E-05  0.2688444E+04  0.7818609E-02  0.8338764E-01
       -1   -1    0    0    0  501  0.00000000000E+00  0.00000000000E+00  0.67258673886E+03  0.67258673888E+03  0.50400001928E-02 0. -1.
        1   -1    0    0  501    0  0.00000000000E+00  0.00000000000E+00 -0.26865422981E+04  0.26865422981E+04  0.50400001928E-02 0.  1.
    10030    2    1    2    0    0  0.00000000000E+00  0.00000000000E+00 -0.20139555592E+04  0.33591290370E+04  0.26884439538E+04 0.  0.
        3    1    3    3  502    0  0.58422165920E+03  0.10786693358E+04 -0.16937204607E+04  0.20912989964E+04  0.10100000352E+00 0. -1.
       -3    1    3    3    0  502 -0.58422165920E+03 -0.10786693358E+04 -0.32023509849E+03  0.12678300405E+04  0.10100000352E+00 0.  1.
</event>
<event>
 5   0  0.9971923E-06  0.2675673E+04  0.7818609E-02  0.8342942E-01
        1   -1    0    0  501    0  0.00000000000E+00  0.00000000000E+00  0.14500661606E+04  0.14500661606E+04  0.50400001928E-02 0. -1.
       -1   -1    0    0    0  501  0.00000000000E+00  0.00000000000E+00 -0.12342928273E+04  0.12342928273E+04  0.50400001928E-02 0.  1.
    10030    2    1    2    0    0  0.00000000000E+00  0.00000000000E+00  0.21577333336E+03  0.26843589879E+04  0.26756728209E+04 0.  0.
        2    1    3    3  502    0  0.12523302768E+04 -0.23767340239E+03  0.51539057928E+03  0.13749353504E+04  0.25500000920E-02 0. -1.
       -2    1    3    3    0  502 -0.12523302768E+04  0.23767340239E+03 -0.29961724592E+03  0.13094236375E+04  0.25500000920E-02 0.  1.
</event>
<event>
 5   0  0.2540684E-05  0.2778147E+04  0.7818609E-02  0.8310085E-01
       -2   -1    0    0    0  501  0.00000000000E+00  0.00000000000E+00  0.12458843854E+04  0.12458843854E+04  0.25500000920E-02 0. -1.
        2   -1    0    0  501    0  0.00000000000E+00  0.00000000000E+00 -0.15487195928E+04  0.15487195928E+04  0.25500000920E-02 0.  1.
    10030    2    1    2    0    0  0.00000000000E+00  0.00000000000E+00 -0.30283520739E+03  0.27946039782E+04  0.27781472661E+04 0.  0.
        2    1    3    3  502    0 -0.13423261541E+04  0.23059550999E+03  0.12316779197E+03  0.13675467444E+04  0.25500000920E-02 0.  1.
       -2    1    3    3    0  502  0.13423261541E+04 -0.23059550999E+03 -0.42600299936E+03  0.14270572338E+04  0.25500000920E-02 0. -1.
</event>
<event>
 5   0  0.1036691E-05  0.2694795E+04  0.7818609E-02  0.8336696E-01
       -1   -1    0    0    0  501  0.00000000000E+00  0.00000000000E+00  0.15606129184E+04  0.15606129184E+04  0.50400001928E-02 0. -1.
        1   -1    0    0  501    0  0.00000000000E+00  0.00000000000E+00 -0.11633120478E+04  0.11633120478E+04  0.50400001928E-02 0.  1.
    10030    2    1    2    0    0  0.00000000000E+00  0.00000000000E+00  0.39730087066E+03  0.27239249662E+04  0.26947948419E+04 0.  0.
        4    1    3    3  502    0  0.10716224837E+04 -0.68322135099E+03  0.65105080839E+03  0.14279478037E+04  0.12699999809E+01 0. -1.
       -4    1    3    3    0  502 -0.10716224837E+04  0.68322135099E+03 -0.25374993773E+03  0.12959771626E+04  0.12699999809E+01 0.  1.
</event>
<event>
 5   0  0.2540232E-05  0.2336769E+04  0.7818609E-02  0.8463563E-01
       -2   -1    0    0    0  501  0.00000000000E+00  0.00000000000E+00  0.95051656509E+03  0.95051656509E+03  0.25500000920E-02 0. -1.
        2   -1    0    0  501    0  0.00000000000E+00  0.00000000000E+00 -0.14361900392E+04  0.14361900392E+04  0.25500000920E-02 0.  1.
    10030    2    1    2    0    0  0.00000000000E+00  0.00000000000E+00 -0.48567347410E+03  0.23867066043E+04  0.23367690711E+04 0.  0.
        1    1    3    3  502    0 -0.62930716659E+03 -0.24836882078E+03  0.73009977805E+03  0.99536941232E+03  0.50400001928E-02 0. -1.
       -1    1    3    3    0  502  0.62930716659E+03  0.24836882078E+03 -0.12157732521E+04  0.13913371920E+04  0.50400001928E-02 0.  1.
</event>
<event>
 5   0  0.1036691E-05  0.2718978E+04  0.7818609E-02  0.8328873E-01
        1   -1    0    0  501    0  0.00000000000E+00  0.00000000000E+00  0.17452950714E+04  0.17452950714E+04  0.50400001928E-02 0.  1.
       -1   -1    0    0    0  501  0.00000000000E+00  0.00000000000E+00 -0.10589672197E+04  0.10589672197E+04  0.50400001928E-02 0. -1.
    10030    2    1    2    0    0  0.00000000000E+00  0.00000000000E+00  0.68632785171E+03  0.28042622911E+04  0.27189779472E+04 0.  0.
        4    1    3    3  502    0  0.13472608709E+04  0.14431213543E+03  0.45741217570E+03  0.14300927796E+04  0.12699999809E+01 0.  1.
       -4    1    3    3    0  502 -0.13472608709E+04 -0.14431213543E+03  0.22891567601E+03  0.13741695115E+04  0.12699999809E+01 0. -1.
</event>
<event>
 5   0  0.1005265E-05  0.2547923E+04  0.7818609E-02  0.8386109E-01
        1   -1    0    0  501    0  0.00000000000E+00  0.00000000000E+00  0.16711529064E+04  0.16711529064E+04  0.50400001928E-02 0.  1.
       -1   -1    0    0    0  501  0.00000000000E+00  0.00000000000E+00 -0.97117291054E+03  0.97117291055E+03  0.50400001928E-02 0. -1.
    10030    2    1    2    0    0  0.00000000000E+00  0.00000000000E+00  0.69997999585E+03  0.26423258169E+04  0.25479234149E+04 0.  0.
        3    1    3    3  502    0  0.41742853100E+02 -0.96458486532E+03 -0.51195575223E+03  0.10928243823E+04  0.10100000352E+00 0. -1.
       -3    1    3    3    0  502 -0.41742853100E+02  0.96458486532E+03  0.12119357481E+04  0.15495014346E+04  0.10100000352E+00 0.  1.
</event>
<event>
 5   0  0.9971923E-06  0.2708594E+04  0.7818609E-02  0.8332222E-01
       -1   -1    0    0    0  501  0.00000000000E+00  0.00000000000E+00  0.13181981533E+04  0.13181981533E+04  0.50400001928E-02 0.  1.
        1   -1    0    0  501    0  0.00000000000E+00  0.00000000000E+00 -0.13913846030E+04  0.13913846030E+04  0.50400001928E-02 0. -1.
    10030    2    1    2    0    0  0.00000000000E+00  0.00000000000E+00 -0.73186449718E+02  0.27095827563E+04  0.27085941846E+04 0.  0.
        2    1    3    3  502    0  0.10340795138E+04  0.66043555174E+03  0.53687428037E+03  0.13393018897E+04  0.25500000920E-02 0. -1.
       -2    1    3    3    0  502 -0.10340795138E+04 -0.66043555174E+03 -0.61006073008E+03  0.13702808666E+04  0.25500000920E-02 0.  1.
</event>
<event>
 5   0  0.2540232E-05  0.2655298E+04  0.7818609E-02  0.8349657E-01
       -2   -1    0    0    0  501  0.00000000000E+00  0.00000000000E+00  0.78073688803E+03  0.78073688803E+03  0.25500000920E-02 0.  1.
        2   -1    0    0  501    0  0.00000000000E+00  0.00000000000E+00 -0.22576777783E+04  0.22576777784E+04  0.25500000920E-02 0. -1.
    10030    2    1    2    0    0  0.00000000000E+00  0.00000000000E+00 -0.14769408903E+04  0.30384146664E+04  0.26552983432E+04 0.  0.
        1    1    3    3  502    0 -0.11887720211E+04 -0.44131994564E+02 -0.14130407628E+04  0.18471087538E+04  0.50400001928E-02 0. -1.
       -1    1    3    3    0  502  0.11887720211E+04  0.44131994564E+02 -0.63900127555E+02  0.11913059126E+04  0.50400001928E-02 0.  1.
</event>
<event>
 5   0  0.2641216E-05  0.2594615E+04  0.7818609E-02  0.8370033E-01
       -2   -1    0    0    0  501  0.00000000000E+00  0.00000000000E+00  0.85884681366E+03  0.85884681367E+03  0.25500000920E-02 0.  1.
        2   -1    0    0  501    0  0.00000000000E+00  0.00000000000E+00 -0.19596120740E+04  0.19596120740E+04  0.25500000920E-02 0. -1.
    10030    2    1    2    0    0  0.00000000000E+00  0.00000000000E+00 -0.11007652604E+04  0.28184588877E+04  0.25946148738E+04 0.  0.
        5    1    3    3  502    0 -0.12567624209E+04 -0.18180069108E+03 -0.83876951975E+03  0.15218605952E+04  0.46999998093E+01 0.  1.
       -5    1    3    3    0  502  0.12567624209E+04  0.18180069108E+03 -0.26199574061E+03  0.12965982925E+04  0.46999998093E+01 0. -1.
</event>
<event>
 5   0  0.1041909E-05  0.2696293E+04  0.7818609E-02  0.8336209E-01
        1   -1    0    0  501    0  0.00000000000E+00  0.00000000000E+00  0.22729500463E+04  0.22729500464E+04  0.50400001928E-02 0.  1.
       -1   -1    0    0    0  501  0.00000000000E+00  0.00000000000E+00 -0.79962094111E+03  0.79962094113E+03  0.50400001928E-02 0. -1.
    10030    2    1    2    0    0  0.00000000000E+00  0.00000000000E+00  0.14733291052E+04  0.30725709875E+04  0.26962926067E+04 0.  0.
        5    1    3    3  502    0  0.12174320095E+04  0.23884668664E+03  0.13378134959E+04  0.18245425392E+04  0.46999998093E+01 0.  1.
       -5    1    3    3    0  502 -0.12174320095E+04 -0.23884668664E+03  0.13551560931E+03  0.12480284483E+04  0.46999998093E+01 0. -1.
</event>
<event>
 5   0  0.2516518E-05  0.1896144E+04  0.7818609E-02  0.8656778E-01
       -2   -1    0    0    0  501  0.00000000000E+00  0.00000000000E+00  0.45644258711E+03  0.45644258712E+03  0.25500000920E-02 0. -1.
        2   -1    0    0  501    0  0.00000000000E+00  0.00000000000E+00 -0.19692305112E+04  0.19692305112E+04  0.25500000920E-02 0.  1.
    10030    2    1    2    0    0  0.00000000000E+00  0.00000000000E+00 -0.15127879241E+04  0.24256730983E+04  0.18961441603E+04 0.  0.
        4    1    3    3  502    0 -0.68587176507E+03  0.15476326479E+03  0.57190474601E+02  0.70543894813E+03  0.12699999809E+01 0. -1.
       -4    1    3    3    0  502  0.68587176507E+03 -0.15476326479E+03 -0.15699783987E+04  0.17202341502E+04  0.12699999809E+01 0.  1.
</event>
<event>
 5   0  0.1096672E-05  0.2631329E+04  0.7818609E-02  0.8357637E-01
       -1   -1    0    0    0  501  0.00000000000E+00  0.00000000000E+00  0.14055613784E+04  0.14055613784E+04  0.50400001928E-02 0. -1.
        1   -1    0    0  501    0  0.00000000000E+00  0.00000000000E+00 -0.12315175130E+04  0.12315175131E+04  0.50400001928E-02 0.  1.
    10030    2    1    2    0    0  0.00000000000E+00  0.00000000000E+00  0.17404386535E+03  0.26370788915E+04  0.26313292863E+04 0.  0.
        1    1    3    3  502    0 -0.34113252201E+03 -0.59244910712E+03  0.12135805186E+04  0.13928908849E+04  0.50400001928E-02 0. -1.
       -1    1    3    3    0  502  0.34113252201E+03  0.59244910712E+03 -0.10395366533E+04  0.12441880065E+04  0.50400001928E-02 0.  1.
</event>
<event>
 5   0  0.1041909E-05  0.2716935E+04  0.7818609E-02  0.8329531E-01
        1   -1    0    0  501    0  0.00000000000E+00  0.00000000000E+00  0.11302752117E+04  0.11302752117E+04  0.50400001928E-02 0.  1.
       -1   -1    0    0    0  501  0.00000000000E+00  0.00000000000E+00 -0.16327303223E+04  0.16327303223E+04  0.50400001928E-02 0. -1.
    10030    2    1    2    0    0  0.00000000000E+00  0.00000000000E+00 -0.50245511057E+03  0.27630055340E+04  0.27169354874E+04 0.  0.
        5    1    3    3  502    0  0.12030569436E+04  0.62865923295E+03 -0.30555702760E+03  0.13913826317E+04  0.46999998093E+01 0. -1.
       -5    1    3    3    0  502 -0.12030569436E+04 -0.62865923295E+03 -0.19689808297E+03  0.13716229022E+04  0.46999998093E+01 0.  1.
</event>
<event>
 5   0  0.9971923E-06  0.2704179E+04  0.7818609E-02  0.8333650E-01
       -1   -1    0    0    0  501  0.00000000000E+00  0.00000000000E+00  0.14941026140E+04  0.14941026141E+04  0.50400001928E-02 0. -1.
        1   -1    0    0  501    0  0.00000000000E+00  0.00000000000E+00 -0.12235750050E+04  0.12235750050E+04  0.50400001928E-02 0.  1.
    10030    2    1    2    0    0  0.00000000000E+00  0.00000000000E+00  0.27052760906E+03  0.27176776190E+04  0.27041794419E+04 0.  0.
        2    1    3    3  502    0  0.24287669820E+03 -0.22164228012E+03  0.14533102750E+04  0.14900419948E+04  0.25500000920E-02 0. -1.
       -2    1    3    3    0  502 -0.24287669820E+03  0.22164228012E+03 -0.11827826660E+04  0.12276356242E+04  0.25500000920E-02 0.  1.
</event>
<event>
 5   0  0.9971923E-06  0.2628811E+04  0.7818609E-02  0.8358480E-01
        1   -1    0    0  501    0  0.00000000000E+00  0.00000000000E+00  0.17993404004E+04  0.17993404004E+04  0.50400001928E-02 0. -1.
       -1   -1    0    0    0  501  0.00000000000E+00  0.00000000000E+00 -0.96016423243E+03  0.96016423245E+03  0.50400001928E-02 0.  1.
    10030    2    1    2    0    0  0.00000000000E+00  0.00000000000E+00  0.83917616795E+03  0.27595046328E+04  0.26288113622E+04 0.  0.
        2    1    3    3  502    0 -0.51253681668E+03 -0.27329876658E+03 -0.81813141051E+03  0.10033569699E+04  0.25500000920E-02 0.  1.
       -2    1    3    3    0  502  0.51253681668E+03  0.27329876658E+03  0.16573075785E+04  0.17561476629E+04  0.25500000920E-02 0. -1.
</event>
<event>
 5   0  0.1041909E-05  0.2718725E+04  0.7818609E-02  0.8328955E-01
       -1   -1    0    0    0  501  0.00000000000E+00  0.00000000000E+00  0.89899333027E+03  0.89899333029E+03  0.50400001928E-02 0.  1.
        1   -1    0    0  501    0  0.00000000000E+00  0.00000000000E+00 -0.20554840783E+04  0.20554840783E+04  0.50400001928E-02 0. -1.
    10030    2    1    2    0    0  0.00000000000E+00  0.00000000000E+00 -0.11564907481E+04  0.29544774086E+04  0.27187250519E+04 0.  0.
        5    1    3    3  502    0  0.10681951783E+04 -0.74305313544E+03 -0.10056371186E+04  0.16445354983E+04  0.46999998093E+01 0. -1.
       -5    1    3    3    0  502 -0.10681951783E+04  0.74305313544E+03 -0.15085362950E+03  0.13099419103E+04  0.46999998093E+01 0.  1.
</event>
<event>
 5   0  0.1041909E-05  0.2726188E+04  0.7818609E-02  0.8326558E-01
        1   -1    0    0  501    0  0.00000000000E+00  0.00000000000E+00  0.14140971254E+04  0.14140971254E+04  0.50400001928E-02 0.  1.
       -1   -1    0    0    0  501  0.00000000000E+00  0.00000000000E+00 -0.13139300120E+04  0.13139300120E+04  0.50400001928E-02 0. -1.
    10030    2    1    2    0    0  0.00000000000E+00  0.00000000000E+00  0.10016711336E+03  0.27280271374E+04  0.27261875599E+04 0.  0.
        5    1    3    3  502    0 -0.10372137876E+04  0.23473198819E+03 -0.80318814669E+03  0.13326833219E+04  0.46999998093E+01 0. -1.
       -5    1    3    3    0  502  0.10372137876E+04 -0.23473198819E+03  0.90335526005E+03  0.13953438155E+04  0.46999998093E+01 0.  1.
</event>
<event>
 5   0  0.9971923E-06  0.2764325E+04  0.7818609E-02  0.8314430E-01
        1   -1    0    0  501    0  0.00000000000E+00  0.00000000000E+00  0.15708061662E+04  0.15708061662E+04  0.50400001928E-02 0. -1.
       -1   -1    0    0    0  501  0.00000000000E+00  0.00000000000E+00 -0.12161741215E+04  0.12161741215E+04  0.50400001928E-02 0.  1.
    10030    2    1    2    0    0  0.00000000000E+00  0.00000000000E+00  0.35463204476E+03  0.27869802877E+04  0.27643254579E+04 0.  0.
        2    1    3    3  502    0  0.21740478444E+03  0.10927539796E+03  0.15490428229E+04  0.15680368682E+04  0.25500000920E-02 0. -1.
       -2    1    3    3    0  502 -0.21740478444E+03 -0.10927539796E+03 -0.11944107782E+04  0.12189434195E+04  0.25500000920E-02 0.  1.
</event>
<event>
 5   0  0.9971923E-06  0.2734036E+04  0.7818609E-02  0.8324045E-01
       -1   -1    0    0    0  501  0.00000000000E+00  0.00000000000E+00  0.89371140343E+03  0.89371140344E+03  0.50400001928E-02 0.  1.
        1   -1    0    0  501    0  0.00000000000E+00  0.00000000000E+00 -0.20909864862E+04  0.20909864862E+04  0.50400001928E-02 0. -1.
    10030    2    1    2    0    0  0.00000000000E+00  0.00000000000E+00 -0.11972750828E+04  0.29846978897E+04  0.27340361864E+04 0.  0.
        2    1    3    3  502    0 -0.98350374785E+03  0.41680182231E+03 -0.15299229041E+04  0.18659226870E+04  0.25500000920E-02 0. -1.
       -2    1    3    3    0  502  0.98350374785E+03 -0.41680182231E+03  0.33264782135E+03  0.11187752027E+04  0.25500000920E-02 0.  1.
</event>
<event>
 5   0  0.8740500E-06  0.1695420E+04  0.7818609E-02  0.8763981E-01
       -4   -1    0    0    0  501  0.00000000000E+00  0.00000000000E+00  0.71497224036E+03  0.71497336830E+03  0.12699999809E+01 0. -1.
        4   -1    0    0  501    0  0.00000000000E+00  0.00000000000E+00 -0.10050882849E+04  0.10050890872E+04  0.12699999809E+01 0.  1.
    10030    2    1    2    0    0  0.00000000000E+00  0.00000000000E+00 -0.29011604449E+03  0.17200624555E+04  0.16954195739E+04 0.  0.
        5    1    3    3  502    0  0.24890570255E+03 -0.29778720114E+03  0.61952620682E+03  0.73107186846E+03  0.46999998093E+01 0. -1.
       -5    1    3    3    0  502 -0.24890570255E+03  0.29778720114E+03 -0.90964225131E+03  0.98899058706E+03  0.46999998093E+01 0.  1.
</event>
<event>
 5   0  0.2540232E-05  0.2778430E+04  0.7818609E-02  0.8309996E-01
       -2   -1    0    0    0  501  0.00000000000E+00  0.00000000000E+00  0.11211775663E+04  0.11211775663E+04  0.25500000920E-02 0.  1.
        2   -1    0    0  501    0  0.00000000000E+00  0.00000000000E+00 -0.17213317920E+04  0.17213317920E+04  0.25500000920E-02 0. -1.
    10030    2    1    2    0    0  0.00000000000E+00  0.00000000000E+00 -0.60015422573E+03  0.28425093583E+04  0.27784301966E+04 0.  0.
        1    1    3    3  502    0  0.81035605283E+01  0.95382974189E+02  0.11177993728E+04  0.11218908224E+04  0.50400001928E-02 0.  1.
       -1    1    3    3    0  502 -0.81035605283E+01 -0.95382974189E+02 -0.17179535985E+04  0.17206185359E+04  0.50400001928E-02 0. -1.
</event>
<event>
 5   0  0.1041909E-05  0.2710770E+04  0.7818609E-02  0.8331519E-01
       -1   -1    0    0    0  501  0.00000000000E+00  0.00000000000E+00  0.11216823666E+04  0.11216823667E+04  0.50400001928E-02 0. -1.
        1   -1    0    0  501    0  0.00000000000E+00  0.00000000000E+00 -0.16377794212E+04  0.16377794212E+04  0.50400001928E-02 0.  1.
    10030    2    1    2    0    0  0.00000000000E+00  0.00000000000E+00 -0.51609705453E+03  0.27594617878E+04  0.27107698517E+04 0.  0.
        5    1    3    3  502    0  0.17638739721E+03  0.82948943416E+03  0.81824200381E+03  0.11784342587E+04  0.46999998093E+01 0. -1.
       -5    1    3    3    0  502 -0.17638739721E+03 -0.82948943416E+03 -0.13343390583E+04  0.15810275291E+04  0.46999998093E+01 0.  1.
</event>
<event>
 5   0  0.9971923E-06  0.2525778E+04  0.7818609E-02  0.8393859E-01
       -1   -1    0    0    0  501  0.00000000000E+00  0.00000000000E+00  0.13965590547E+04  0.13965590547E+04  0.50400001928E-02 0. -1.
        1   -1    0    0  501    0  0.00000000000E+00  0.00000000000E+00 -0.11420128547E+04  0.11420128547E+04  0.50400001928E-02 0.  1.
    10030    2    1    2    0    0  0.00000000000E+00  0.00000000000E+00  0.25454619998E+03  0.25385719094E+04  0.25257778151E+04 0.  0.
        2    1    3    3  502    0 -0.38041994606E+03  0.62731359190E+03  0.11604132257E+04  0.13728803780E+04  0.25500000920E-02 0. -1.
       -2    1    3    3    0  502  0.38041994606E+03 -0.62731359190E+03 -0.90586702573E+03  0.11656915313E+04  0.25500000920E-02 0.  1.
</event>
<event>
 5   0  0.1096672E-05  0.2911065E+04  0.7818609E-02  0.8269593E-01
        1   -1    0    0  501    0  0.00000000000E+00  0.00000000000E+00  0.84533341556E+03  0.84533341558E+03  0.50400001928E-02 0.  1.
       -1   -1    0    0    0  501  0.00000000000E+00  0.00000000000E+00 -0.25061999864E+04  0.25061999864E+04  0.50400001928E-02 0. -1.
    10030    2    1    2    0    0  0.00000000000E+00  0.00000000000E+00 -0.16608665708E+04  0.33515334019E+04  0.29110648186E+04 0.  0.
        1    1    3    3  502    0  0.35153894821E+03 -0.11792004400E+04 -0.17255570884E+04  0.21193490923E+04  0.50400001928E-02 0. -1.
       -1    1    3    3    0  502 -0.35153894821E+03  0.11792004400E+04  0.64690517557E+02  0.12321843096E+04  0.50400001928E-02 0.  1.
</event>
<event>
 5   0  0.2641216E-05  0.2687188E+04  0.7818609E-02  0.8339174E-01
       -2   -1    0    0    0  501  0.00000000000E+00  0.00000000000E+00  0.72076390597E+03  0.72076390597E+03  0.25500000920E-02 0. -1.
        2   -1    0    0  501    0  0.00000000000E+00  0.00000000000E+00 -0.25046275293E+04  0.25046275293E+04  0.25500000920E-02 0.  1.
    10030    2    1    2    0    0  0.00000000000E+00  0.00000000000E+00 -0.17838636233E+04  0.32253914352E+04  0.26871882115E+04 0.  0.
        5    1    3    3  502    0  0.64438475096E+02 -0.11832843724E+04 -0.16519205233E+04  0.20330218219E+04  0.46999998093E+01 0.  1.
       -5    1    3    3    0  502 -0.64438475096E+02  0.11832843724E+04 -0.13194310003E+03  0.11923696133E+04  0.46999998093E+01 0. -1.
</event>
<event>
 5   0  0.2641216E-05  0.2689851E+04  0.7818609E-02  0.8338305E-01
        2   -1    0    0  501    0  0.00000000000E+00  0.00000000000E+00  0.31301556251E+04  0.31301556251E+04  0.25500000920E-02 0.  1.
       -2   -1    0    0    0  501  0.00000000000E+00  0.00000000000E+00 -0.57787053919E+03  0.57787053919E+03  0.25500000920E-02 0. -1.
    10030    2    1    2    0    0  0.00000000000E+00  0.00000000000E+00  0.25522850859E+04  0.37080261642E+04  0.26898510879E+04 0.  0.
        5    1    3    3  502    0 -0.96893370701E+03 -0.80855592398E+03  0.19171304664E+04  0.22952138301E+04  0.46999998093E+01 0.  1.
       -5    1    3    3    0  502  0.96893370701E+03  0.80855592398E+03  0.63515461944E+03  0.14128123341E+04  0.46999998093E+01 0. -1.
</event>
<event>
 5   0  0.2516518E-05  0.2944265E+04  0.7818609E-02  0.8259828E-01
       -2   -1    0    0    0  501  0.00000000000E+00  0.00000000000E+00  0.10820088635E+04  0.10820088635E+04  0.25500000920E-02 0.  1.
        2   -1    0    0  501    0  0.00000000000E+00  0.00000000000E+00 -0.20029172891E+04  0.20029172891E+04  0.25500000920E-02 0. -1.
    10030    2    1    2    0    0  0.00000000000E+00  0.00000000000E+00 -0.92090842564E+03  0.30849261526E+04  0.29442651101E+04 0.  0.
        4    1    3    3  502    0  0.60946209830E+03 -0.25592767723E+03 -0.18386779680E+04  0.19538887655E+04  0.12699999809E+01 0. -1.
       -4    1    3    3    0  502 -0.60946209830E+03  0.25592767723E+03  0.91776954231E+03  0.11310373871E+04  0.12699999809E+01 0.  1.
</event>
<event>
 5   0  0.1041909E-05  0.2617859E+04  0.7818609E-02  0.8362160E-01
       -1   -1    0    0    0  501  0.00000000000E+00  0.00000000000E+00  0.94718415610E+03  0.94718415611E+03  0.50400001928E-02 0. -1.
        1   -1    0    0  501    0  0.00000000000E+00  0.00000000000E+00 -0.18088310650E+04  0.18088310650E+04  0.50400001928E-02 0.  1.
    10030    2    1    2    0    0  0.00000000000E+00  0.00000000000E+00 -0.86164690889E+03  0.27560152211E+04  0.26178587631E+04 0.  0.
        5    1    3    3  502    0  0.78608171953E+03  0.50950354980E+02 -0.15313398779E+04  0.17220755849E+04  0.46999998093E+01 0.  1.
       -5    1    3    3    0  502 -0.78608171953E+03 -0.50950354980E+02  0.66969296905E+03  0.10339396362E+04  0.46999998093E+01 0. -1.
</event>
<event>
 5   0  0.2540684E-05  0.2713086E+04  0.7818609E-02  0.8330771E-01
        2   -1    0    0  501    0  0.00000000000E+00  0.00000000000E+00  0.16436045679E+04  0.16436045679E+04  0.25500000920E-02 0. -1.
       -2   -1    0    0    0  501  0.00000000000E+00  0.00000000000E+00 -0.11196178737E+04  0.11196178737E+04  0.25500000920E-02 0.  1.
    10030    2    1    2    0    0  0.00000000000E+00  0.00000000000E+00  0.52398669416E+03  0.27632224416E+04  0.27130861037E+04 0.  0.
        2    1    3    3  502    0  0.43327977114E+03  0.12291769462E+04 -0.12126051920E+03  0.13089352309E+04  0.25500000920E-02 0.  1.
       -2    1    3    3    0  502 -0.43327977114E+03 -0.12291769462E+04  0.64524721335E+03  0.14542872108E+04  0.25500000920E-02 0. -1.
</event>
<event>
 5   0  0.9971923E-06  0.2724981E+04  0.7818609E-02  0.8326945E-01
        1   -1    0    0  501    0  0.00000000000E+00  0.00000000000E+00  0.11977132965E+04  0.11977132965E+04  0.50400001928E-02 0.  1.
       -1   -1    0    0    0  501  0.00000000000E+00  0.00000000000E+00 -0.15499367719E+04  0.15499367719E+04  0.50400001928E-02 0. -1.
    10030    2    1    2    0    0  0.00000000000E+00  0.00000000000E+00 -0.35222347540E+03  0.27476500683E+04  0.27249806461E+04 0.  0.
        2    1    3    3  502    0  0.15798453997E+03 -0.87556054974E+03 -0.12165947058E+04  0.15072053839E+04  0.25500000920E-02 0. -1.
       -2    1    3    3    0  502 -0.15798453997E+03  0.87556054974E+03  0.86437123040E+03  0.12404446844E+04  0.25500000920E-02 0.  1.
</event>
<event>
 5   0  0.2540684E-05  0.2722239E+04  0.7818609E-02  0.8327825E-01
        2   -1    0    0  501    0  0.00000000000E+00  0.00000000000E+00  0.14195913887E+04  0.14195913887E+04  0.25500000920E-02 0.  1.
       -2   -1    0    0    0  501  0.00000000000E+00  0.00000000000E+00 -0.13050556863E+04  0.13050556863E+04  0.25500000920E-02 0. -1.
    10030    2    1    2    0    0  0.00000000000E+00  0.00000000000E+00  0.11453570243E+03  0.27246470750E+04  0.27222386479E+04 0.  0.
        2    1    3    3  502    0 -0.76669005416E+03 -0.64107471668E+03  0.98212832813E+03  0.14012018000E+04  0.25500000920E-02 0.  1.
       -2    1    3    3    0  502  0.76669005416E+03  0.64107471668E+03 -0.86759262570E+03  0.13234452749E+04  0.25500000920E-02 0. -1.
</event>
<event>
 5   0  0.1041909E-05  0.2719726E+04  0.7818609E-02  0.8328633E-01
        1   -1    0    0  501    0  0.00000000000E+00  0.00000000000E+00  0.14196582773E+04  0.14196582773E+04  0.50400001928E-02 0.  1.
       -1   -1    0    0    0  501  0.00000000000E+00  0.00000000000E+00 -0.13025865327E+04  0.13025865327E+04  0.50400001928E-02 0. -1.
    10030    2    1    2    0    0  0.00000000000E+00  0.00000000000E+00  0.11707174464E+03  0.27222448101E+04  0.27197262753E+04 0.  0.
        5    1    3    3  502    0 -0.54302588596E+03 -0.82495175926E+03 -0.87709342644E+03  0.13208851149E+04  0.46999998093E+01 0. -1.
       -5    1    3    3    0  502  0.54302588596E+03  0.82495175926E+03  0.99416517108E+03  0.14013596952E+04  0.46999998093E+01 0.  1.
</event>
<event>
 5   0  0.2516518E-05  0.2699779E+04  0.7818609E-02  0.8335077E-01
       -2   -1    0    0    0  501  0.00000000000E+00  0.00000000000E+00  0.75798387966E+03  0.75798387966E+03  0.25500000920E-02 0. -1.
        2   -1    0    0  501    0  0.00000000000E+00  0.00000000000E+00 -0.24040107765E+04  0.24040107765E+04  0.25500000920E-02 0.  1.
    10030    2    1    2    0    0  0.00000000000E+00  0.00000000000E+00 -0.16460268968E+04  0.31619946561E+04  0.26997788169E+04 0.  0.
        4    1    3    3  502    0  0.67941089774E+02  0.13209205010E+04 -0.11389194839E+04  0.17454472680E+04  0.12699999809E+01 0. -1.
       -4    1    3    3    0  502 -0.67941089774E+02 -0.13209205010E+04 -0.50710741290E+03  0.14165473881E+04  0.12699999809E+01 0.  1.
</event>
<event>
 5   0  0.1096672E-05  0.2743613E+04  0.7818609E-02  0.8320991E-01
       -1   -1    0    0    0  501  0.00000000000E+00  0.00000000000E+00  0.72674235916E+03  0.72674235917E+03  0.50400001928E-02 0.  1.
        1   -1    0    0  501    0  0.00000000000E+00  0.00000000000E+00 -0.25894363352E+04  0.25894363352E+04  0.50400001928E-02 0. -1.
    10030    2    1    2    0    0  0.00000000000E+00  0.00000000000E+00 -0.18626939760E+04  0.33161786943E+04  0.27436129983E+04 0.  0.
        1    1    3    3  502    0  0.75424530299E+03 -0.73168408776E+03 -0.19971936563E+04  0.22567742648E+04  0.50400001928E-02 0. -1.
       -1    1    3    3    0  502 -0.75424530299E+03  0.73168408776E+03  0.13449968029E+03  0.10594044296E+04  0.50400001928E-02 0.  1.
</event>
<event>
 5   0  0.1041909E-05  0.2604008E+04  0.7818609E-02  0.8366841E-01
        1   -1    0    0  501    0  0.00000000000E+00  0.00000000000E+00  0.65045861331E+03  0.65045861333E+03  0.50400001928E-02 0.  1.
       -1   -1    0    0    0  501  0.00000000000E+00  0.00000000000E+00 -0.26061831952E+04  0.26061831952E+04  0.50400001928E-02 0. -1.
    10030    2    1    2    0    0  0.00000000000E+00  0.00000000000E+00 -0.19557245819E+04  0.32566418085E+04  0.26040079164E+04 0.  0.
        5    1    3    3  502    0 -0.25724091007E+03 -0.76189158873E+03  0.30275778741E+03  0.85926482916E+03  0.46999998093E+01 0.  1.
       -5    1    3    3    0  502  0.25724091007E+03  0.76189158873E+03 -0.22584823693E+04  0.23973769794E+04  0.46999998093E+01 0. -1.
</event>
<event>
 5   0  0.1096672E-05  0.1655337E+04  0.7818609E-02  0.8787255E-01
       -1   -1    0    0    0  501  0.00000000000E+00  0.00000000000E+00  0.80061764822E+03  0.80061764823E+03  0.50400001928E-02 0. -1.
        1   -1    0    0  501    0  0.00000000000E+00  0.00000000000E+00 -0.85563342803E+03  0.85563342804E+03  0.50400001928E-02 0.  1.
    10030    2    1    2    0    0  0.00000000000E+00  0.00000000000E+00 -0.55015779809E+02  0.16562510763E+04  0.16553370931E+04 0.  0.
        1    1    3    3  502    0  0.73725892605E+03 -0.33682944901E+03 -0.19502321244E+03  0.83368990349E+03  0.50400001928E-02 0. -1.
       -1    1    3    3    0  502 -0.73725892605E+03  0.33682944901E+03  0.14000743263E+03  0.82256117279E+03  0.50400001928E-02 0.  1.
</event>
<event>
 5   0  0.2540684E-05  0.2671757E+04  0.7818609E-02  0.8344227E-01
        2   -1    0    0  501    0  0.00000000000E+00  0.00000000000E+00  0.11219971060E+04  0.11219971060E+04  0.25500000920E-02 0. -1.
       -2   -1    0    0    0  501  0.00000000000E+00  0.00000000000E+00 -0.15905311820E+04  0.15905311820E+04  0.25500000920E-02 0.  1.
    10030    2    1    2    0    0  0.00000000000E+00  0.00000000000E+00 -0.46853407604E+03  0.27125282880E+04  0.26717570123E+04 0.  0.
        2    1    3    3  502    0  0.50545687363E+03  0.79867000015E+02  0.10185433528E+04  0.11398666371E+04  0.25500000920E-02 0. -1.
       -2    1    3    3    0  502 -0.50545687363E+03 -0.79867000015E+02 -0.14870774288E+04  0.15726616509E+04  0.25500000920E-02 0.  1.
</event>
<event>
 5   0  0.2540232E-05  0.2714897E+04  0.7818609E-02  0.8330187E-01
        2   -1    0    0  501    0  0.00000000000E+00  0.00000000000E+00  0.19246738583E+04  0.19246738583E+04  0.25500000920E-02 0.  1.
       -2   -1    0    0    0  501  0.00000000000E+00  0.00000000000E+00 -0.95739186468E+03  0.95739186468E+03  0.25500000920E-02 0. -1.
    10030    2    1    2    0    0  0.00000000000E+00  0.00000000000E+00  0.96728199358E+03  0.28820657229E+04  0.27148974891E+04 0.  0.
        1    1    3    3  502    0  0.20824169453E+03  0.27591073355E+03  0.18771674989E+04  0.19087297229E+04  0.50400001928E-02 0.  1.
       -1    1    3    3    0  502 -0.20824169453E+03 -0.27591073355E+03 -0.90988550529E+03  0.97333600004E+03  0.50400001928E-02 0. -1.
</event>
<event>
 5   0  0.1041909E-05  0.2721932E+04  0.7818609E-02  0.8327924E-01
        1   -1    0    0  501    0  0.00000000000E+00  0.00000000000E+00  0.15874419444E+04  0.15874419444E+04  0.50400001928E-02 0. -1.
       -1   -1    0    0    0  501  0.00000000000E+00  0.00000000000E+00 -0.11668004145E+04  0.11668004145E+04  0.50400001928E-02 0.  1.
    10030    2    1    2    0    0  0.00000000000E+00  0.00000000000E+00  0.42064152995E+03  0.27542423589E+04  0.27219316073E+04 0.  0.
        5    1    3    3  502    0  0.24513705713E+02  0.37035825776E+03 -0.11145882278E+04  0.11747745181E+04  0.46999998093E+01 0.  1.
       -5    1    3    3    0  502 -0.24513705713E+02 -0.37035825776E+03  0.15352297578E+04  0.15794678408E+04  0.46999998093E+01 0. -1.
</event>
<event>
 5   0  0.2641216E-05  0.2707805E+04  0.7818609E-02  0.8332477E-01
        2   -1    0    0  501    0  0.00000000000E+00  0.00000000000E+00  0.16790094456E+04  0.16790094456E+04  0.25500000920E-02 0. -1.
       -2   -1    0    0    0  501  0.00000000000E+00  0.00000000000E+00 -0.10917457880E+04  0.10917457880E+04  0.25500000920E-02 0.  1.
    10030    2    1    2    0    0  0.00000000000E+00  0.00000000000E+00  0.58726365761E+03  0.27707552336E+04  0.27078046387E+04 0.  0.
        5    1    3    3  502    0  0.64594404319E+03  0.78570704462E+03 -0.62070188426E+03  0.11915838980E+04  0.46999998093E+01 0.  1.
       -5    1    3    3    0  502 -0.64594404319E+03 -0.78570704462E+03  0.12079655419E+04  0.15791713356E+04  0.46999998093E+01 0. -1.
</event>
<event>
 5   0  0.2641216E-05  0.2677890E+04  0.7818609E-02  0.8342215E-01
        2   -1    0    0  501    0  0.00000000000E+00  0.00000000000E+00  0.15797207587E+04  0.15797207587E+04  0.25500000920E-02 0.  1.
       -2   -1    0    0    0  501  0.00000000000E+00  0.00000000000E+00 -0.11348678947E+04  0.11348678947E+04  0.25500000920E-02 0. -1.
    10030    2    1    2    0    0  0.00000000000E+00  0.00000000000E+00  0.44485286398E+03  0.27145886533E+04  0.26778904918E+04 0.  0.
        5    1    3    3  502    0 -0.12260140582E+04 -0.17930419350E+03 -0.29196405954E+03  0.12729986515E+04  0.46999998093E+01 0.  1.
       -5    1    3    3    0  502  0.12260140582E+04  0.17930419350E+03  0.73681692352E+03  0.14415900018E+04  0.46999998093E+01 0. -1.
</event>
<event>
 5   0  0.2641216E-05  0.1889705E+04  0.7818609E-02  0.8659998E-01
       -2   -1    0    0    0  501  0.00000000000E+00  0.00000000000E+00  0.40544935642E+03  0.40544935643E+03  0.25500000920E-02 0. -1.
        2   -1    0    0  501    0  0.00000000000E+00  0.00000000000E+00 -0.22018694762E+04  0.22018694762E+04  0.25500000920E-02 0.  1.
    10030    2    1    2    0    0  0.00000000000E+00  0.00000000000E+00 -0.17964201198E+04  0.26073188326E+04  0.18897053337E+04 0.  0.
        5    1    3    3  502    0  0.61966424612E+03  0.57387979240E+03 -0.14826158545E+04  0.17063099531E+04  0.46999998093E+01 0. -1.
       -5    1    3    3    0  502 -0.61966424612E+03 -0.57387979240E+03 -0.31380426524E+03  0.90100887949E+03  0.46999998093E+01 0.  1.
</event>
<event>
 5   0  0.1096672E-05  0.2704780E+04  0.7818609E-02  0.8333456E-01
       -1   -1    0    0    0  501  0.00000000000E+00  0.00000000000E+00  0.85570751307E+03  0.85570751308E+03  0.50400001928E-02 0.  1.
        1   -1    0    0  501    0  0.00000000000E+00  0.00000000000E+00 -0.21373649858E+04  0.21373649858E+04  0.50400001928E-02 0. -1.
    10030    2    1    2    0    0  0.00000000000E+00  0.00000000000E+00 -0.12816574727E+04  0.29930724989E+04  0.27047804174E+04 0.  0.
        1    1    3    3  502    0 -0.96317563213E+03  0.63718928298E+03  0.13791374734E+03  0.11630725181E+04  0.50400001928E-02 0. -1.
       -1    1    3    3    0  502  0.96317563213E+03 -0.63718928298E+03 -0.14195712200E+04  0.18299999807E+04  0.50400001928E-02 0.  1.
</event>
<event>
 5   0  0.2516518E-05  0.2546026E+04  0.7818609E-02  0.8386770E-01
       -2   -1    0    0    0  501  0.00000000000E+00  0.00000000000E+00  0.10101799771E+04  0.10101799771E+04  0.25500000920E-02 0.  1.
        2   -1    0    0  501    0  0.00000000000E+00  0.00000000000E+00 -0.16042305441E+04  0.16042305441E+04  0.25500000920E-02 0. -1.
    10030    2    1    2    0    0  0.00000000000E+00  0.00000000000E+00 -0.59405056706E+03  0.26144105212E+04  0.25460255885E+04 0.  0.
        4    1    3    3  502    0 -0.11375006049E+04  0.35667991046E+03  0.16154741770E+03  0.12030076333E+04  0.12699999809E+01 0.  1.
       -4    1    3    3    0  502  0.11375006049E+04 -0.35667991046E+03 -0.75559798476E+03  0.14114028880E+04  0.12699999809E+01 0. -1.
</event>
<event>
 5   0  0.1096672E-05  0.2697509E+04  0.7818609E-02  0.8335814E-01
        1   -1    0    0  501    0  0.00000000000E+00  0.00000000000E+00  0.12625976790E+04  0.12625976791E+04  0.50400001928E-02 0. -1.
       -1   -1    0    0    0  501  0.00000000000E+00  0.00000000000E+00 -0.14407902888E+04  0.14407902888E+04  0.50400001928E-02 0.  1.
    10030    2    1    2    0    0  0.00000000000E+00  0.00000000000E+00 -0.17819260979E+03  0.27033879679E+04  0.26975088320E+04 0.  0.
        1    1    3    3  502    0 -0.18817968396E+03 -0.65669146405E+03  0.10764014498E+04  0.12748707203E+04  0.50400001928E-02 0. -1.
       -1    1    3    3    0  502  0.18817968396E+03  0.65669146405E+03 -0.12545940596E+04  0.14285172476E+04  0.50400001928E-02 0.  1.
</event>
<event>
 5   0  0.1005265E-05  0.2674898E+04  0.7818609E-02  0.8343196E-01
        1   -1    0    0  501    0  0.00000000000E+00  0.00000000000E+00  0.20783672149E+04  0.20783672149E+04  0.50400001928E-02 0. -1.
       -1   -1    0    0    0  501  0.00000000000E+00  0.00000000000E+00 -0.86066136355E+03  0.86066136356E+03  0.50400001928E-02 0.  1.
    10030    2    1    2    0    0  0.00000000000E+00  0.00000000000E+00  0.12177058514E+04  0.29390285785E+04  0.26748983989E+04 0.  0.
        3    1    3    3  502    0  0.26601611975E+03  0.10134958895E+04 -0.30438238731E+03  0.10911402944E+04  0.10100000352E+00 0.  1.
       -3    1    3    3    0  502 -0.26601611975E+03 -0.10134958895E+04  0.15220882387E+04  0.18478882841E+04  0.10100000352E+00 0. -1.
</event>
<event>
 5   0  0.9971923E-06  0.2063748E+04  0.7818609E-02  0.8577383E-01
        1   -1    0    0  501    0  0.00000000000E+00  0.00000000000E+00  0.23193039915E+04  0.23193039915E+04  0.50400001928E-02 0. -1.
       -1   -1    0    0    0  501  0.00000000000E+00  0.00000000000E+00 -0.45908765046E+03  0.45908765048E+03  0.50400001928E-02 0.  1.
    10030    2    1    2    0    0  0.00000000000E+00  0.00000000000E+00  0.18602163410E+04  0.27783916420E+04  0.20637478724E+04 0.  0.
        2    1    3    3  502    0 -0.39905321147E+03 -0.81909246423E+03  0.15821990587E+04  0.18257901829E+04  0.25500000920E-02 0. -1.
       -2    1    3    3    0  502  0.39905321147E+03  0.81909246423E+03  0.27801728229E+03  0.95260145906E+03  0.25500000920E-02 0.  1.
</event>
<event>
 5   0  0.2516518E-05  0.2729008E+04  0.7818609E-02  0.8325654E-01
        2   -1    0    0  501    0  0.00000000000E+00  0.00000000000E+00  0.21855688109E+04  0.21855688110E+04  0.25500000920E-02 0.  1.
       -2   -1    0    0    0  501  0.00000000000E+00  0.00000000000E+00 -0.85189338456E+03  0.85189338456E+03  0.25500000920E-02 0. -1.
    10030    2    1    2    0    0  0.00000000000E+00  0.00000000000E+00  0.13336754264E+04  0.30374621955E+04  0.27290083265E+04 0.  0.
        4    1    3    3  502    0 -0.66907885695E+03  0.33745646750E+03 -0.60236866640E+03  0.96145359090E+03  0.12699999809E+01 0. -1.
       -4    1    3    3    0  502  0.66907885695E+03 -0.33745646750E+03  0.19360440928E+04  0.20760086046E+04  0.12699999809E+01 0.  1.
</event>
<event>
 5   0  0.1036691E-05  0.3416227E+04  0.7818609E-02  0.8133935E-01
        1   -1    0    0  501    0  0.00000000000E+00  0.00000000000E+00  0.12166977233E+04  0.12166977233E+04  0.50400001928E-02 0.  1.
       -1   -1    0    0    0  501  0.00000000000E+00  0.00000000000E+00 -0.23980093042E+04  0.23980093042E+04  0.50400001928E-02 0. -1.
    10030    2    1    2    0    0  0.00000000000E+00  0.00000000000E+00 -0.11813115809E+04  0.36147070275E+04  0.34162274286E+04 0.  0.
        4    1    3    3  502    0 -0.31353712565E+03 -0.70497004507E+03  0.10218130772E+04  0.12803873910E+04  0.12699999809E+01 0.  1.
       -4    1    3    3    0  502  0.31353712565E+03  0.70497004507E+03 -0.22031246580E+04  0.23343196365E+04  0.12699999809E+01 0. -1.
</event>
<event>
 5   0  0.1005265E-05  0.2272042E+04  0.7818609E-02  0.8489027E-01
        1   -1    0    0  501    0  0.00000000000E+00  0.00000000000E+00  0.17249736736E+04  0.17249736737E+04  0.50400001928E-02 0. -1.
       -1   -1    0    0    0  501  0.00000000000E+00  0.00000000000E+00 -0.74815256561E+03  0.74815256563E+03  0.50400001928E-02 0.  1.
    10030    2    1    2    0    0  0.00000000000E+00  0.00000000000E+00  0.97682110804E+03  0.24731262393E+04  0.22720417950E+04 0.  0.
        3    1    3    3  502    0  0.87166502551E+02 -0.47491594739E+03 -0.63089764873E+03  0.79446523500E+03  0.10100000352E+00 0.  1.
       -3    1    3    3    0  502 -0.87166502551E+02  0.47491594739E+03  0.16077187568E+04  0.16786610043E+04  0.10100000352E+00 0. -1.
</event>
<event>
 5   0  0.2540232E-05  0.2758845E+04  0.7818609E-02  0.8316160E-01
       -2   -1    0    0    0  501  0.00000000000E+00  0.00000000000E+00  0.93562371231E+03  0.93562371231E+03  0.25500000920E-02 0. -1.
        2   -1    0    0  501    0  0.00000000000E+00  0.00000000000E+00 -0.20337311642E+04  0.20337311642E+04  0.25500000920E-02 0.  1.
    10030    2    1    2    0    0  0.00000000000E+00  0.00000000000E+00 -0.10981074519E+04  0.29693548765E+04  0.27588454844E+04 0.  0.
        1    1    3    3  502    0  0.16162145001E+03 -0.82374925218E+03 -0.17271624974E+04  0.19203579395E+04  0.50400001928E-02 0.  1.
       -1    1    3    3    0  502 -0.16162145001E+03  0.82374925218E+03  0.62905504547E+03  0.10489969370E+04  0.50400001928E-02 0. -1.
</event>
<event>
 5   0  0.2641216E-05  0.2677487E+04  0.7818609E-02  0.8342347E-01
        2   -1    0    0  501    0  0.00000000000E+00  0.00000000000E+00  0.12582504641E+04  0.12582504641E+04  0.25500000920E-02 0. -1.
       -2   -1    0    0    0  501  0.00000000000E+00  0.00000000000E+00 -0.14243863028E+04  0.14243863028E+04  0.25500000920E-02 0.  1.
    10030    2    1    2    0    0  0.00000000000E+00  0.00000000000E+00 -0.16613583864E+03  0.26826367669E+04  0.26774874241E+04 0.  0.
        5    1    3    3  502    0 -0.11525837395E+04 -0.13366657344E+03 -0.75210704572E+03  0.13827520124E+04  0.46999998093E+01 0.  1.
       -5    1    3    3    0  502  0.11525837395E+04  0.13366657344E+03  0.58597120708E+03  0.12998847545E+04  0.46999998093E+01 0. -1.
</event>
<event>
 5   0  0.1036691E-05  0.2748518E+04  0.7818609E-02  0.8319432E-01
        1   -1    0    0  501    0  0.00000000000E+00  0.00000000000E+00  0.28257912107E+04  0.28257912107E+04  0.50400001928E-02 0.  1.
       -1   -1    0    0    0  501  0.00000000000E+00  0.00000000000E+00 -0.66833967160E+03  0.66833967162E+03  0.50400001928E-02 0. -1.
    10030    2    1    2    0    0  0.00000000000E+00  0.00000000000E+00  0.21574515391E+04  0.34941308823E+04  0.27485184153E+04 0.  0.
        4    1    3    3  502    0  0.40029075344E+03  0.11756796367E+04  0.18266559454E+04  0.22088750194E+04  0.12699999809E+01 0. -1.
       -4    1    3    3    0  502 -0.40029075344E+03 -0.11756796367E+04  0.33079559372E+03  0.12852558629E+04  0.12699999809E+01 0.  1.
</event>
<event>
 5   0  0.2516518E-05  0.2663810E+04  0.7818609E-02  0.8346844E-01
       -2   -1    0    0    0  501  0.00000000000E+00  0.00000000000E+00  0.95608984183E+03  0.95608984184E+03  0.25500000920E-02 0. -1.
        2   -1    0    0  501    0  0.00000000000E+00  0.00000000000E+00 -0.18554435871E+04  0.18554435871E+04  0.25500000920E-02 0.  1.
    10030    2    1    2    0    0  0.00000000000E+00  0.00000000000E+00 -0.89935374523E+03  0.28115334289E+04  0.26638098774E+04 0.  0.
        4    1    3    3  502    0  0.77152349977E+03 -0.79685036263E+03 -0.12279637685E+04  0.16547252463E+04  0.12699999809E+01 0. -1.
       -4    1    3    3    0  502 -0.77152349977E+03  0.79685036263E+03  0.32861002322E+03  0.11568081826E+04  0.12699999809E+01 0.  1.
</event>
<event>
 5   0  0.2540684E-05  0.2677985E+04  0.7818609E-02  0.8342184E-01
        2   -1    0    0  501    0  0.00000000000E+00  0.00000000000E+00  0.12438481664E+04  0.12438481664E+04  0.25500000920E-02 0.  1.
       -2   -1    0    0    0  501  0.00000000000E+00  0.00000000000E+00 -0.14414141910E+04  0.14414141910E+04  0.25500000920E-02 0. -1.
    10030    2    1    2    0    0  0.00000000000E+00  0.00000000000E+00 -0.19756602459E+03  0.26852623574E+04  0.26779846143E+04 0.  0.
        2    1    3    3  502    0  0.41640450677E+03  0.12701959333E+03  0.11709020940E+04  0.12492151152E+04  0.25500000920E-02 0.  1.
       -2    1    3    3    0  502 -0.41640450677E+03 -0.12701959333E+03 -0.13684681186E+04  0.14360472422E+04  0.25500000920E-02 0. -1.
</event>
<event>
 5   0  0.1096672E-05  0.2566954E+04  0.7818609E-02  0.8379513E-01
       -1   -1    0    0    0  501  0.00000000000E+00  0.00000000000E+00  0.11802590523E+04  0.11802590523E+04  0.50400001928E-02 0. -1.
        1   -1    0    0  501    0  0.00000000000E+00  0.00000000000E+00 -0.13957221911E+04  0.13957221911E+04  0.50400001928E-02 0.  1.
    10030    2    1    2    0    0  0.00000000000E+00  0.00000000000E+00 -0.21546313886E+03  0.25759812434E+04  0.25669544215E+04 0.  0.
        1    1    3    3  502    0  0.23646836717E+02 -0.10708482867E+04 -0.81735226273E+03  0.13473455189E+04  0.50400001928E-02 0.  1.
       -1    1    3    3    0  502 -0.23646836717E+02  0.10708482867E+04  0.60188912387E+03  0.12286357245E+04  0.50400001928E-02 0. -1.
</event>
<event>
 5   0  0.2540684E-05  0.2703266E+04  0.7818609E-02  0.8333946E-01
       -2   -1    0    0    0  501  0.00000000000E+00  0.00000000000E+00  0.12368732241E+04  0.12368732241E+04  0.25500000920E-02 0. -1.
        2   -1    0    0  501    0  0.00000000000E+00  0.00000000000E+00 -0.14770399146E+04  0.14770399146E+04  0.25500000920E-02 0.  1.
    10030    2    1    2    0    0  0.00000000000E+00  0.00000000000E+00 -0.24016669051E+03  0.27139131388E+04  0.27032655226E+04 0.  0.
        2    1    3    3  502    0  0.11086566545E+04 -0.49125599471E+03 -0.71947692399E+03  0.14099996716E+04  0.25500000920E-02 0. -1.
       -2    1    3    3    0  502 -0.11086566545E+04  0.49125599471E+03  0.47931023348E+03  0.13039134671E+04  0.25500000920E-02 0.  1.
</event>
<event>
 5   0  0.9971923E-06  0.2156976E+04  0.7818609E-02  0.8536552E-01
        1   -1    0    0  501    0  0.00000000000E+00  0.00000000000E+00  0.17175803319E+04  0.17175803319E+04  0.50400001928E-02 0. -1.
       -1   -1    0    0    0  501  0.00000000000E+00  0.00000000000E+00 -0.67719494654E+03  0.67719494656E+03  0.50400001928E-02 0.  1.
    10030    2    1    2    0    0  0.00000000000E+00  0.00000000000E+00  0.10403853853E+04  0.23947752785E+04  0.21569763291E+04 0.  0.
        2    1    3    3  502    0 -0.83753201747E+03 -0.19076911035E+03 -0.20384121041E+03  0.88283858820E+03  0.25500000920E-02 0.  1.
       -2    1    3    3    0  502  0.83753201747E+03  0.19076911035E+03  0.12442265958E+04  0.15119366903E+04  0.25500000920E-02 0. -1.
</event>
<event>
 5   0  0.1036691E-05  0.2737564E+04  0.7818609E-02  0.8322919E-01
        1   -1    0    0  501    0  0.00000000000E+00  0.00000000000E+00  0.16246755160E+04  0.16246755160E+04  0.50400001928E-02 0. -1.
       -1   -1    0    0    0  501  0.00000000000E+00  0.00000000000E+00 -0.11531927249E+04  0.11531927249E+04  0.50400001928E-02 0.  1.
    10030    2    1    2    0    0  0.00000000000E+00  0.00000000000E+00  0.47148279115E+03  0.27778682409E+04  0.27375638699E+04 0.  0.
        4    1    3    3  502    0  0.10492027323E+04 -0.77531870312E+03 -0.18462444562E+03  0.13175861504E+04  0.12699999809E+01 0. -1.
       -4    1    3    3    0  502 -0.10492027323E+04  0.77531870312E+03  0.65610723676E+03  0.14602820905E+04  0.12699999809E+01 0.  1.
</event>
<event>
 5   0  0.2540232E-05  0.1699740E+04  0.7818609E-02  0.8761513E-01
       -2   -1    0    0    0  501  0.00000000000E+00  0.00000000000E+00  0.12172002025E+04  0.12172002025E+04  0.25500000920E-02 0. -1.
        2   -1    0    0  501    0  0.00000000000E+00  0.00000000000E+00 -0.59339365095E+03  0.59339365095E+03  0.25500000920E-02 0.  1.
    10030    2    1    2    0    0  0.00000000000E+00  0.00000000000E+00  0.62380655157E+03  0.18105938535E+04  0.16997398296E+04 0.  0.
        1    1    3    3  502    0 -0.11138533737E+03  0.68065038923E+03  0.84086455024E+03  0.10875407292E+04  0.50400001928E-02 0. -1.
       -1    1    3    3    0  502  0.11138533737E+03 -0.68065038923E+03 -0.21705799867E+03  0.72305312430E+03  0.50400001928E-02 0.  1.
</event>
<event>
 5   0  0.2540684E-05  0.2691476E+04  0.7818609E-02  0.8337776E-01
        2   -1    0    0  501    0  0.00000000000E+00  0.00000000000E+00  0.16851477634E+04  0.16851477634E+04  0.25500000920E-02 0.  1.
       -2   -1    0    0    0  501  0.00000000000E+00  0.00000000000E+00 -0.10746897510E+04  0.10746897510E+04  0.25500000920E-02 0. -1.
    10030    2    1    2    0    0  0.00000000000E+00  0.00000000000E+00  0.61045801239E+03  0.27598375145E+04  0.26914761975E+04 0.  0.
        2    1    3    3  502    0 -0.24790364243E+03 -0.12459209027E+04 -0.15016359865E+03  0.12791888907E+04  0.25500000920E-02 0. -1.
       -2    1    3    3    0  502  0.24790364243E+03  0.12459209027E+04  0.76062161104E+03  0.14806486237E+04  0.25500000920E-02 0.  1.
</event>
<event>
 5   0  0.1096672E-05  0.2157210E+04  0.7818609E-02  0.8536452E-01
       -1   -1    0    0    0  501  0.00000000000E+00  0.00000000000E+00  0.56906880075E+03  0.56906880077E+03  0.50400001928E-02 0. -1.
        1   -1    0    0  501    0  0.00000000000E+00  0.00000000000E+00 -0.20443729263E+04  0.20443729263E+04  0.50400001928E-02 0.  1.
    10030    2    1    2    0    0  0.00000000000E+00  0.00000000000E+00 -0.14753041255E+04  0.26134417270E+04  0.21572100959E+04 0.  0.
        1    1    3    3  502    0  0.29061637918E+03  0.91429082547E+03 -0.13348611717E+04  0.16438491236E+04  0.50400001928E-02 0.  1.
       -1    1    3    3    0  502 -0.29061637918E+03 -0.91429082547E+03 -0.14044295383E+03  0.96959260346E+03  0.50400001928E-02 0. -1.
</event>
<event>
 5   0  0.9971923E-06  0.2734025E+04  0.7818609E-02  0.8324049E-01
        1   -1    0    0  501    0  0.00000000000E+00  0.00000000000E+00  0.18626730418E+04  0.18626730418E+04  0.50400001928E-02 0.  1.
       -1   -1    0    0    0  501  0.00000000000E+00  0.00000000000E+00 -0.10032483854E+04  0.10032483854E+04  0.50400001928E-02 0. -1.
    10030    2    1    2    0    0  0.00000000000E+00  0.00000000000E+00  0.85942465640E+03  0.28659214271E+04  0.27340253997E+04 0.  0.
        2    1    3    3  502    0  0.13130485221E+03  0.56789010603E+03  0.17258858516E+04  0.18216536744E+04  0.25500000920E-02 0.  1.
       -2    1    3    3    0  502 -0.13130485221E+03 -0.56789010603E+03 -0.86646119515E+03  0.10442677528E+04  0.25500000920E-02 0. -1.
</event>
<event>
 5   0  0.2540232E-05  0.2709941E+04  0.7818609E-02  0.8331787E-01
       -2   -1    0    0    0  501  0.00000000000E+00  0.00000000000E+00  0.11415632703E+04  0.11415632703E+04  0.25500000920E-02 0. -1.
        2   -1    0    0  501    0  0.00000000000E+00  0.00000000000E+00 -0.16082730379E+04  0.16082730379E+04  0.25500000920E-02 0.  1.
    10030    2    1    2    0    0  0.00000000000E+00  0.00000000000E+00 -0.46670976762E+03  0.27498363081E+04  0.27099412751E+04 0.  0.
        1    1    3    3  502    0  0.96647293273E+03 -0.94370740231E+03 -0.34118231914E+03  0.13932189224E+04  0.50400001928E-02 0.  1.
       -1    1    3    3    0  502 -0.96647293273E+03  0.94370740231E+03 -0.12552744848E+03  0.13566173857E+04  0.50400001928E-02 0. -1.
</event>
<event>
 5   0  0.9971923E-06  0.2703751E+04  0.7818609E-02  0.8333789E-01
       -1   -1    0    0    0  501  0.00000000000E+00  0.00000000000E+00  0.10891954347E+04  0.10891954347E+04  0.50400001928E-02 0.  1.
        1   -1    0    0  501    0  0.00000000000E+00  0.00000000000E+00 -0.16779055041E+04  0.16779055041E+04  0.50400001928E-02 0. -1.
    10030    2    1    2    0    0  0.00000000000E+00  0.00000000000E+00 -0.58871006942E+03  0.27671009388E+04  0.27037507391E+04 0.  0.
        2    1    3    3  502    0  0.59375622408E+03  0.65668848926E+03  0.75123876738E+03  0.11610968569E+04  0.25500000920E-02 0.  1.
       -2    1    3    3    0  502 -0.59375622408E+03 -0.65668848926E+03 -0.13399488368E+04  0.16060040818E+04  0.25500000920E-02 0. -1.
</event>
<event>
 5   0  0.1005265E-05  0.2666978E+04  0.7818609E-02  0.8345800E-01
       -1   -1    0    0    0  501  0.00000000000E+00  0.00000000000E+00  0.10990116436E+04  0.10990116436E+04  0.50400001928E-02 0.  1.
        1   -1    0    0  501    0  0.00000000000E+00  0.00000000000E+00 -0.16179927178E+04  0.16179927178E+04  0.50400001928E-02 0. -1.
    10030    2    1    2    0    0  0.00000000000E+00  0.00000000000E+00 -0.51898107420E+03  0.27170043614E+04  0.26669779422E+04 0.  0.
        3    1    3    3  502    0 -0.14204847446E+03  0.12365530160E+04 -0.74695486930E+03  0.14516138320E+04  0.10100000352E+00 0. -1.
       -3    1    3    3    0  502  0.14204847446E+03 -0.12365530160E+04  0.22797379510E+03  0.12653905294E+04  0.10100000352E+00 0.  1.
</event>
<event>
 5   0  0.2516518E-05  0.2671727E+04  0.7818609E-02  0.8344237E-01
       -2   -1    0    0    0  501  0.00000000000E+00  0.00000000000E+00  0.91185772078E+03  0.91185772078E+03  0.25500000920E-02 0. -1.
        2   -1    0    0  501    0  0.00000000000E+00  0.00000000000E+00 -0.19570286642E+04  0.19570286642E+04  0.25500000920E-02 0.  1.
    10030    2    1    2    0    0  0.00000000000E+00  0.00000000000E+00 -0.10451709434E+04  0.28688863850E+04  0.26717273044E+04 0.  0.
        4    1    3    3  502    0  0.58772220458E+03 -0.48227846050E+03 -0.17020598629E+04  0.18641403630E+04  0.12699999809E+01 0.  1.
       -4    1    3    3    0  502 -0.58772220458E+03  0.48227846050E+03  0.65688891949E+03  0.10047460220E+04  0.12699999809E+01 0. -1.
</event>
<event>
 5   0  0.2516518E-05  0.2618597E+04  0.7818609E-02  0.8361912E-01
       -2   -1    0    0    0  501  0.00000000000E+00  0.00000000000E+00  0.88044770976E+03  0.88044770976E+03  0.25500000920E-02 0. -1.
        2   -1    0    0  501    0  0.00000000000E+00  0.00000000000E+00 -0.19470344934E+04  0.19470344934E+04  0.25500000920E-02 0.  1.
    10030    2    1    2    0    0  0.00000000000E+00  0.00000000000E+00 -0.10665867836E+04  0.28274822031E+04  0.26185966169E+04 0.  0.
        4    1    3    3  502    0  0.46355075239E+03  0.54991518469E+03  0.64804336051E+03  0.96811560280E+03  0.12699999809E+01 0. -1.
       -4    1    3    3    0  502 -0.46355075239E+03 -0.54991518469E+03 -0.17146301441E+04  0.18593666003E+04  0.12699999809E+01 0.  1.
</event>
<event>
 5   0  0.2516518E-05  0.2694382E+04  0.7818609E-02  0.8336830E-01
        2   -1    0    0  501    0  0.00000000000E+00  0.00000000000E+00  0.29775264361E+04  0.29775264361E+04  0.25500000920E-02 0.  1.
       -2   -1    0    0    0  501  0.00000000000E+00  0.00000000000E+00 -0.60954055027E+03  0.60954055027E+03  0.25500000920E-02 0. -1.
    10030    2    1    2    0    0  0.00000000000E+00  0.00000000000E+00  0.23679858858E+04  0.35870669863E+04  0.26943816376E+04 0.  0.
        4    1    3    3  502    0  0.11541084885E+04  0.50374516217E+03  0.54663442105E+03  0.13727841763E+04  0.12699999809E+01 0. -1.
       -4    1    3    3    0  502 -0.11541084885E+04 -0.50374516217E+03  0.18213514648E+04  0.22142828100E+04  0.12699999809E+01 0.  1.
</event>
<event>
 5   0  0.2615843E-05  0.2660245E+04  0.7818609E-02  0.8348020E-01
        2   -1    0    0  501    0  0.00000000000E+00  0.00000000000E+00  0.17694221852E+04  0.17694221852E+04  0.25500000920E-02 0.  1.
       -2   -1    0    0    0  501  0.00000000000E+00  0.00000000000E+00 -0.99988911974E+03  0.99988911974E+03  0.25500000920E-02 0. -1.
    10030    2    1    2    0    0  0.00000000000E+00  0.00000000000E+00  0.76953306549E+03  0.27693113050E+04  0.26602450949E+04 0.  0.
        3    1    3    3  502    0 -0.12809238530E+04 -0.11810178733E+03  0.73703655539E+03  0.14825440444E+04  0.10100000352E+00 0. -1.
       -3    1    3    3    0  502  0.12809238530E+04  0.11810178733E+03  0.32496510105E+02  0.12867672606E+04  0.10100000352E+00 0.  1.
</event>
<event>
 5   0  0.1096672E-05  0.2695657E+04  0.7818609E-02  0.8336416E-01
        1   -1    0    0  501    0  0.00000000000E+00  0.00000000000E+00  0.21809942473E+04  0.21809942473E+04  0.50400001928E-02 0.  1.
       -1   -1    0    0    0  501  0.00000000000E+00  0.00000000000E+00 -0.83294168333E+03  0.83294168335E+03  0.50400001928E-02 0. -1.
    10030    2    1    2    0    0  0.00000000000E+00  0.00000000000E+00  0.13480525640E+04  0.30139359307E+04  0.26956565210E+04 0.  0.
        1    1    3    3  502    0 -0.24242767960E+03  0.12215701232E+04  0.12502792194E+04  0.17647104216E+04  0.50400001928E-02 0.  1.
       -1    1    3    3    0  502  0.24242767960E+03 -0.12215701232E+04  0.97773344639E+02  0.12492255091E+04  0.50400001928E-02 0. -1.
</event>
<event>
 5   0  0.2540684E-05  0.2313380E+04  0.7818609E-02  0.8472664E-01
        2   -1    0    0  501    0  0.00000000000E+00  0.00000000000E+00  0.17000842989E+04  0.17000842989E+04  0.25500000920E-02 0. -1.
       -2   -1    0    0    0  501  0.00000000000E+00  0.00000000000E+00 -0.78697993666E+03  0.78697993666E+03  0.25500000920E-02 0.  1.
    10030    2    1    2    0    0  0.00000000000E+00  0.00000000000E+00  0.91310436225E+03  0.24870642356E+04  0.23133804131E+04 0.  0.
        2    1    3    3  502    0 -0.48355263377E+03  0.10503078986E+04  0.48990390633E+03  0.12557769184E+04  0.25500000920E-02 0.  1.
       -2    1    3    3    0  502  0.48355263377E+03 -0.10503078986E+04  0.42320045592E+03  0.12312873171E+04  0.25500000920E-02 0. -1.
</event>
<event>
 5   0  0.2540232E-05  0.2705384E+04  0.7818609E-02  0.8333260E-01
        2   -1    0    0  501    0  0.00000000000E+00  0.00000000000E+00  0.12243429941E+04  0.12243429941E+04  0.25500000920E-02 0.  1.
       -2   -1    0    0    0  501  0.00000000000E+00  0.00000000000E+00 -0.14944957296E+04  0.14944957296E+04  0.25500000920E-02 0. -1.
    10030    2    1    2    0    0  0.00000000000E+00  0.00000000000E+00 -0.27015273548E+03  0.27188387236E+04  0.27053837999E+04 0.  0.
        1    1    3    3  502    0 -0.93533228383E+03  0.24398004023E+03 -0.10860396436E+04  0.14539101928E+04  0.50400001928E-02 0. -1.
       -1    1    3    3    0  502  0.93533228383E+03 -0.24398004023E+03  0.81588690815E+03  0.12649285308E+04  0.50400001928E-02 0.  1.
</event>
<event>
 5   0  0.9971923E-06  0.2666766E+04  0.7818609E-02  0.8345869E-01
       -1   -1    0    0    0  501  0.00000000000E+00  0.00000000000E+00  0.13628991472E+04  0.13628991472E+04  0.50400001928E-02 0.  1.
        1   -1    0    0  501    0  0.00000000000E+00  0.00000000000E+00 -0.13045063815E+04  0.13045063815E+04  0.50400001928E-02 0. -1.
    10030    2    1    2    0    0  0.00000000000E+00  0.00000000000E+00  0.58392765706E+02  0.26674055287E+04  0.26667663076E+04 0.  0.
        2    1    3    3  502    0 -0.32737069191E+03  0.45011689094E+03  0.12411525512E+04  0.13602339655E+04  0.25500000920E-02 0.  1.
       -2    1    3    3    0  502  0.32737069191E+03 -0.45011689094E+03 -0.11827597855E+04  0.13071715632E+04  0.25500000920E-02 0. -1.
</event>
<event>
 5   0  0.9971923E-06  0.2711584E+04  0.7818609E-02  0.8331256E-01
        1   -1    0    0  501    0  0.00000000000E+00  0.00000000000E+00  0.13419629051E+04  0.13419629051E+04  0.50400001928E-02 0.  1.
       -1   -1    0    0    0  501  0.00000000000E+00  0.00000000000E+00 -0.13697633943E+04  0.13697633943E+04  0.50400001928E-02 0. -1.
    10030    2    1    2    0    0  0.00000000000E+00  0.00000000000E+00 -0.27800489178E+02  0.27117262994E+04  0.27115837910E+04 0.  0.
        2    1    3    3  502    0  0.15993372525E+03  0.16844870915E+03 -0.13497166412E+04  0.13695578759E+04  0.25500000920E-02 0. -1.
       -2    1    3    3    0  502 -0.15993372525E+03 -0.16844870915E+03  0.13219161520E+04  0.13421684235E+04  0.25500000920E-02 0.  1.
</event>
<event>
 5   0  0.2516518E-05  0.2933452E+04  0.7818609E-02  0.8262994E-01
        2   -1    0    0  501    0  0.00000000000E+00  0.00000000000E+00  0.14190278298E+04  0.14190278298E+04  0.25500000920E-02 0.  1.
       -2   -1    0    0    0  501  0.00000000000E+00  0.00000000000E+00 -0.15160272529E+04  0.15160272529E+04  0.25500000920E-02 0. -1.
    10030    2    1    2    0    0  0.00000000000E+00  0.00000000000E+00 -0.96999423168E+02  0.29350550827E+04  0.29334517979E+04 0.  0.
        4    1    3    3  502    0  0.53569790876E+03  0.80976410527E+03 -0.11484608808E+04  0.15038797037E+04  0.12699999809E+01 0. -1.
       -4    1    3    3    0  502 -0.53569790876E+03 -0.80976410527E+03  0.10514614576E+04  0.14311753790E+04  0.12699999809E+01 0.  1.
</event>
<event>
 5   0  0.2516518E-05  0.2458632E+04  0.7818609E-02  0.8417873E-01
        2   -1    0    0  501    0  0.00000000000E+00  0.00000000000E+00  0.21124474648E+04  0.21124474648E+04  0.25500000920E-02 0. -1.
       -2   -1    0    0    0  501  0.00000000000E+00  0.00000000000E+00 -0.71538742183E+03  0.71538742183E+03  0.25500000920E-02 0.  1.
    10030    2    1    2    0    0  0.00000000000E+00  0.00000000000E+00  0.13970600430E+04  0.28278348867E+04  0.24586324212E+04 0.  0.
        4    1    3    3  502    0  0.89089957409E+03  0.48175216368E+03  0.14998824213E+04  0.18098165898E+04  0.12699999809E+01 0. -1.
       -4    1    3    3    0  502 -0.89089957409E+03 -0.48175216368E+03 -0.10282237826E+03  0.10180182968E+04  0.12699999809E+01 0.  1.
</event>
<event>
 5   0  0.2516518E-05  0.2948452E+04  0.7818609E-02  0.8258606E-01
        2   -1    0    0  501    0  0.00000000000E+00  0.00000000000E+00  0.12721258593E+04  0.12721258593E+04  0.25500000920E-02 0. -1.
       -2   -1    0    0    0  501  0.00000000000E+00  0.00000000000E+00 -0.17084334425E+04  0.17084334425E+04  0.25500000920E-02 0.  1.
    10030    2    1    2    0    0  0.00000000000E+00  0.00000000000E+00 -0.43630758324E+03  0.29805593018E+04  0.29484520420E+04 0.  0.
        4    1    3    3  502    0 -0.97373623046E+03 -0.10941021881E+04 -0.38766674518E+03  0.15150937141E+04  0.12699999809E+01 0.  1.
       -4    1    3    3    0  502  0.97373623046E+03  0.10941021881E+04 -0.48640838060E+02  0.14654655876E+04  0.12699999809E+01 0. -1.
</event>
<event>
 5   0  0.1005265E-05  0.2698977E+04  0.7818609E-02  0.8335337E-01
       -1   -1    0    0    0  501  0.00000000000E+00  0.00000000000E+00  0.10087461744E+04  0.10087461744E+04  0.50400001928E-02 0.  1.
        1   -1    0    0  501    0  0.00000000000E+00  0.00000000000E+00 -0.18053300338E+04  0.18053300338E+04  0.50400001928E-02 0. -1.
    10030    2    1    2    0    0  0.00000000000E+00  0.00000000000E+00 -0.79658385942E+03  0.28140762082E+04  0.26989774101E+04 0.  0.
        3    1    3    3  502    0 -0.62959154928E+03  0.78282919841E+03  0.54119613540E+03  0.11410961134E+04  0.10100000352E+00 0.  1.
       -3    1    3    3    0  502  0.62959154928E+03 -0.78282919841E+03 -0.13377799948E+04  0.16729800948E+04  0.10100000352E+00 0. -1.
</event>
<event>
 5   0  0.1041909E-05  0.2653053E+04  0.7818609E-02  0.8350400E-01
       -1   -1    0    0    0  501  0.00000000000E+00  0.00000000000E+00  0.14049008499E+04  0.14049008499E+04  0.50400001928E-02 0. -1.
        1   -1    0    0  501    0  0.00000000000E+00  0.00000000000E+00 -0.12525243144E+04  0.12525243144E+04  0.50400001928E-02 0.  1.
    10030    2    1    2    0    0  0.00000000000E+00  0.00000000000E+00  0.15237653548E+03  0.26574251642E+04  0.26530529386E+04 0.  0.
        5    1    3    3  502    0 -0.28701706368E+03 -0.93711538714E+03  0.97157773359E+03  0.13800541388E+04  0.46999998093E+01 0. -1.
       -5    1    3    3    0  502  0.28701706368E+03  0.93711538714E+03 -0.81920119810E+03  0.12773710254E+04  0.46999998093E+01 0.  1.
</event>
<event>
 5   0  0.2540684E-05  0.2687484E+04  0.7818609E-02  0.8339078E-01
       -2   -1    0    0    0  501  0.00000000000E+00  0.00000000000E+00  0.10622656720E+04  0.10622656720E+04  0.25500000920E-02 0. -1.
        2   -1    0    0  501    0  0.00000000000E+00  0.00000000000E+00 -0.16998027752E+04  0.16998027752E+04  0.25500000920E-02 0.  1.
    10030    2    1    2    0    0  0.00000000000E+00  0.00000000000E+00 -0.63753710323E+03  0.27620684472E+04  0.26874836835E+04 0.  0.
        2    1    3    3  502    0 -0.29537320251E+03 -0.10759834664E+04  0.45078170625E+03  0.12034076182E+04  0.25500000920E-02 0. -1.
       -2    1    3    3    0  502  0.29537320251E+03  0.10759834664E+04 -0.10883188095E+04  0.15586608290E+04  0.25500000920E-02 0.  1.
</event>
<event>
 5   0  0.9971923E-06  0.2591854E+04  0.7818609E-02  0.8370973E-01
        1   -1    0    0  501    0  0.00000000000E+00  0.00000000000E+00  0.16825483826E+04  0.16825483826E+04  0.50400001928E-02 0.  1.
       -1   -1    0    0    0  501  0.00000000000E+00  0.00000000000E+00 -0.99814485250E+03  0.99814485252E+03  0.50400001928E-02 0. -1.
    10030    2    1    2    0    0  0.00000000000E+00  0.00000000000E+00  0.68440353007E+03  0.26806932351E+04  0.25918541681E+04 0.  0.
        2    1    3    3  502    0  0.67109037231E+03  0.98441689525E+03  0.86956917482E+03  0.14749879529E+04  0.25500000920E-02 0.  1.
       -2    1    3    3    0  502 -0.67109037231E+03 -0.98441689525E+03 -0.18516564475E+03  0.12057052822E+04  0.25500000920E-02 0. -1.
</event>
<event>
 5   0  0.9971923E-06  0.2670556E+04  0.7818609E-02  0.8344622E-01
        1   -1    0    0  501    0  0.00000000000E+00  0.00000000000E+00  0.13392472357E+04  0.13392472358E+04  0.50400001928E-02 0. -1.
       -1   -1    0    0    0  501  0.00000000000E+00  0.00000000000E+00 -0.13313205883E+04  0.13313205883E+04  0.50400001928E-02 0.  1.
    10030    2    1    2    0    0  0.00000000000E+00  0.00000000000E+00  0.79266474699E+01  0.26705678240E+04  0.26705560603E+04 0.  0.
        2    1    3    3  502    0 -0.48909054852E+03  0.93558151763E+03 -0.81362518277E+03  0.13328571862E+04  0.25500000920E-02 0.  1.
       -2    1    3    3    0  502  0.48909054852E+03 -0.93558151763E+03  0.82155183024E+03  0.13377106378E+04  0.25500000920E-02 0. -1.
</event>
<event>
 5   0  0.1096672E-05  0.2453088E+04  0.7818609E-02  0.8419891E-01
        1   -1    0    0  501    0  0.00000000000E+00  0.00000000000E+00  0.15948325385E+04  0.15948325385E+04  0.50400001928E-02 0.  1.
       -1   -1    0    0    0  501  0.00000000000E+00  0.00000000000E+00 -0.94330303111E+03  0.94330303112E+03  0.50400001928E-02 0. -1.
    10030    2    1    2    0    0  0.00000000000E+00  0.00000000000E+00  0.65152950743E+03  0.25381355697E+04  0.24530881499E+04 0.  0.
        1    1    3    3  502    0  0.67400230252E+02 -0.89728483358E+03  0.11881774837E+04  0.14904457711E+04  0.50400001928E-02 0.  1.
       -1    1    3    3    0  502 -0.67400230252E+02  0.89728483358E+03 -0.53664797629E+03  0.10476897986E+04  0.50400001928E-02 0. -1.
</event>
<event>
 5   0  0.2540684E-05  0.2477344E+04  0.7818609E-02  0.8411102E-01
        2   -1    0    0  501    0  0.00000000000E+00  0.00000000000E+00  0.15270160680E+04  0.15270160680E+04  0.25500000920E-02 0. -1.
       -2   -1    0    0    0  501  0.00000000000E+00  0.00000000000E+00 -0.10047755665E+04  0.10047755665E+04  0.25500000920E-02 0.  1.
    10030    2    1    2    0    0  0.00000000000E+00  0.00000000000E+00  0.52224050153E+03  0.25317916345E+04  0.24773440897E+04 0.  0.
        2    1    3    3  502    0  0.10184522300E+04 -0.50581131904E+03 -0.24081401442E+03  0.11623602818E+04  0.25500000920E-02 0.  1.
       -2    1    3    3    0  502 -0.10184522300E+04  0.50581131904E+03  0.76305451595E+03  0.13694313526E+04  0.25500000920E-02 0. -1.
</event>
<event>
 5   0  0.2516518E-05  0.2184033E+04  0.7818609E-02  0.8525103E-01
       -2   -1    0    0    0  501  0.00000000000E+00  0.00000000000E+00  0.39762182852E+03  0.39762182853E+03  0.25500000920E-02 0.  1.
        2   -1    0    0  501    0  0.00000000000E+00  0.00000000000E+00 -0.29990811148E+04  0.29990811148E+04  0.25500000920E-02 0. -1.
    10030    2    1    2    0    0  0.00000000000E+00  0.00000000000E+00 -0.26014592863E+04  0.33967029434E+04  0.21840330737E+04 0.  0.
        4    1    3    3  502    0  0.53958165299E+03 -0.86674304662E+03 -0.19032868721E+04  0.21598366604E+04  0.12699999809E+01 0. -1.
       -4    1    3    3    0  502 -0.53958165299E+03  0.86674304662E+03 -0.69817241418E+03  0.12368662830E+04  0.12699999809E+01 0.  1.
</event>
<event>
 5   0  0.1096672E-05  0.2692667E+04  0.7818609E-02  0.8337388E-01
       -1   -1    0    0    0  501  0.00000000000E+00  0.00000000000E+00  0.16271709650E+04  0.16271709651E+04  0.50400001928E-02 0.  1.
        1   -1    0    0  501    0  0.00000000000E+00  0.00000000000E+00 -0.11139666582E+04  0.11139666583E+04  0.50400001928E-02 0. -1.
    10030    2    1    2    0    0  0.00000000000E+00  0.00000000000E+00  0.51320430679E+03  0.27411376233E+04  0.26926672296E+04 0.  0.
        1    1    3    3  502    0  0.14283294432E+03 -0.72181664286E+03 -0.89116560053E+03  0.11556801649E+04  0.50400001928E-02 0. -1.
       -1    1    3    3    0  502 -0.14283294432E+03  0.72181664286E+03  0.14043699073E+04  0.15854574584E+04  0.50400001928E-02 0.  1.
</event>
<event>
 5   0  0.2540232E-05  0.2696388E+04  0.7818609E-02  0.8336178E-01
        2   -1    0    0  501    0  0.00000000000E+00  0.00000000000E+00  0.15476104154E+04  0.15476104154E+04  0.25500000920E-02 0. -1.
       -2   -1    0    0    0  501  0.00000000000E+00  0.00000000000E+00 -0.11744728651E+04  0.11744728651E+04  0.25500000920E-02 0.  1.
    10030    2    1    2    0    0  0.00000000000E+00  0.00000000000E+00  0.37313755028E+03  0.27220832805E+04  0.26963875379E+04 0.  0.
        1    1    3    3  502    0  0.62050964090E+02 -0.12954316089E+04  0.55836235132E+03  0.14120063353E+04  0.50400001928E-02 0. -1.
       -1    1    3    3    0  502 -0.62050964090E+02  0.12954316089E+04 -0.18522480104E+03  0.13100769452E+04  0.50400001928E-02 0.  1.
</event>
<event>
 5   0  0.9971923E-06  0.2707663E+04  0.7818609E-02  0.8332523E-01
        1   -1    0    0  501    0  0.00000000000E+00  0.00000000000E+00  0.22952762204E+04  0.22952762204E+04  0.50400001928E-02 0.  1.
       -1   -1    0    0    0  501  0.00000000000E+00  0.00000000000E+00 -0.79853554886E+03  0.79853554887E+03  0.50400001928E-02 0. -1.
    10030    2    1    2    0    0  0.00000000000E+00  0.00000000000E+00  0.14967406715E+04  0.30938117693E+04  0.27076629454E+04 0.  0.
        2    1    3    3  502    0 -0.67928030394E+03 -0.11572939788E+04  0.54362699748E+03  0.14478540662E+04  0.25500000920E-02 0.  1.
       -2    1    3    3    0  502  0.67928030394E+03  0.11572939788E+04  0.95311367403E+03  0.16459577031E+04  0.25500000920E-02 0. -1.
</event>
<event>
 5   0  0.1096672E-05  0.2599362E+04  0.7818609E-02  0.8368418E-01
       -1   -1    0    0    0  501  0.00000000000E+00  0.00000000000E+00  0.20535932805E+04  0.20535932805E+04  0.50400001928E-02 0.  1.
        1   -1    0    0  501    0  0.00000000000E+00  0.00000000000E+00 -0.82254416331E+03  0.82254416333E+03  0.50400001928E-02 0. -1.
    10030    2    1    2    0    0  0.00000000000E+00  0.00000000000E+00  0.12310491172E+04  0.28761374438E+04  0.25993623577E+04 0.  0.
        1    1    3    3  502    0 -0.15243806698E+03  0.12903918545E+04  0.64726070038E+03  0.14516524779E+04  0.50400001928E-02 0. -1.
       -1    1    3    3    0  502  0.15243806698E+03 -0.12903918545E+04  0.58378841680E+03  0.14244849659E+04  0.50400001928E-02 0.  1.
</event>
<event>
 5   0  0.1096672E-05  0.1728983E+04  0.7818609E-02  0.8745005E-01
        1   -1    0    0  501    0  0.00000000000E+00  0.00000000000E+00  0.16611072386E+04  0.16611072386E+04  0.50400001928E-02 0. -1.
       -1   -1    0    0    0  501  0.00000000000E+00  0.00000000000E+00 -0.44990801841E+03  0.44990801844E+03  0.50400001928E-02 0.  1.
    10030    2    1    2    0    0  0.00000000000E+00  0.00000000000E+00  0.12111992202E+04  0.21110152571E+04  0.17289828989E+04 0.  0.
        1    1    3    3  502    0 -0.40856127173E+03 -0.35761311537E+03  0.14269476925E+04  0.15267577314E+04  0.50400001928E-02 0. -1.
       -1    1    3    3    0  502  0.40856127173E+03  0.35761311537E+03 -0.21574847229E+03  0.58425752572E+03  0.50400001928E-02 0.  1.
</event>
<event>
 5   0  0.1096672E-05  0.2753859E+04  0.7818609E-02  0.8317738E-01
        1   -1    0    0  501    0  0.00000000000E+00  0.00000000000E+00  0.21615022981E+04  0.21615022981E+04  0.50400001928E-02 0.  1.
       -1   -1    0    0    0  501  0.00000000000E+00  0.00000000000E+00 -0.87713741373E+03  0.87713741374E+03  0.50400001928E-02 0. -1.
    10030    2    1    2    0    0  0.00000000000E+00  0.00000000000E+00  0.12843648844E+04  0.30386397118E+04  0.27538587731E+04 0.  0.
        1    1    3    3  502    0 -0.23845648952E+03 -0.12650658124E+04  0.11812546598E+04  0.17471735971E+04  0.50400001928E-02 0.  1.
       -1    1    3    3    0  502  0.23845648952E+03  0.12650658124E+04  0.10311022457E+03  0.12914661147E+04  0.50400001928E-02 0. -1.
</event>
<event>
 5   0  0.1096672E-05  0.2054722E+04  0.7818609E-02  0.8581455E-01
        1   -1    0    0  501    0  0.00000000000E+00  0.00000000000E+00  0.17067501199E+04  0.17067501199E+04  0.50400001928E-02 0. -1.
       -1   -1    0    0    0  501  0.00000000000E+00  0.00000000000E+00 -0.61840956732E+03  0.61840956734E+03  0.50400001928E-02 0.  1.
    10030    2    1    2    0    0  0.00000000000E+00  0.00000000000E+00  0.10883405525E+04  0.23251596872E+04  0.20547219794E+04 0.  0.
        1    1    3    3  502    0  0.20897891864E+03 -0.14289613474E+03 -0.58255905377E+03  0.63519016437E+03  0.50400001928E-02 0.  1.
       -1    1    3    3    0  502 -0.20897891864E+03  0.14289613474E+03  0.16708996063E+04  0.16899695228E+04  0.50400001928E-02 0. -1.
</event>
<event>
 5   0  0.9971923E-06  0.2811618E+04  0.7818609E-02  0.8299670E-01
        1   -1    0    0  501    0  0.00000000000E+00  0.00000000000E+00  0.14431092108E+04  0.14431092108E+04  0.50400001928E-02 0. -1.
       -1   -1    0    0    0  501  0.00000000000E+00  0.00000000000E+00 -0.13694730201E+04  0.13694730201E+04  0.50400001928E-02 0.  1.
    10030    2    1    2    0    0  0.00000000000E+00  0.00000000000E+00  0.73636190729E+02  0.28125822309E+04  0.28116181314E+04 0.  0.
        2    1    3    3  502    0  0.12908458417E+03 -0.32973955563E+03  0.13977654453E+04  0.14419220661E+04  0.25500000920E-02 0. -1.
       -2    1    3    3    0  502 -0.12908458417E+03  0.32973955563E+03 -0.13241292546E+04  0.13706601648E+04  0.25500000920E-02 0.  1.
</event>
<event>
 5   0  0.1036691E-05  0.2657615E+04  0.7818609E-02  0.8348890E-01
       -1   -1    0    0    0  501  0.00000000000E+00  0.00000000000E+00  0.14443350767E+04  0.14443350767E+04  0.50400001928E-02 0.  1.
        1   -1    0    0  501    0  0.00000000000E+00  0.00000000000E+00 -0.12225208353E+04  0.12225208353E+04  0.50400001928E-02 0. -1.
    10030    2    1    2    0    0  0.00000000000E+00  0.00000000000E+00  0.22181424141E+03  0.26668559120E+04  0.26576152651E+04 0.  0.
        4    1    3    3  502    0 -0.26738294638E+03 -0.93721812541E+02 -0.11918560368E+04  0.12250713627E+04  0.12699999809E+01 0. -1.
       -4    1    3    3    0  502  0.26738294638E+03  0.93721812541E+02  0.14136702782E+04  0.14417845493E+04  0.12699999809E+01 0.  1.
</event>
<event>
 5   0  0.2540684E-05  0.2721851E+04  0.7818609E-02  0.8327950E-01
       -2   -1    0    0    0  501  0.00000000000E+00  0.00000000000E+00  0.10315632280E+04  0.10315632280E+04  0.25500000920E-02 0. -1.
        2   -1    0    0  501    0  0.00000000000E+00  0.00000000000E+00 -0.17954475290E+04  0.17954475290E+04  0.25500000920E-02 0.  1.
    10030    2    1    2    0    0  0.00000000000E+00  0.00000000000E+00 -0.76388430103E+03  0.28270107570E+04  0.27218505827E+04 0.  0.
        2    1    3    3  502    0 -0.12507508074E+03 -0.13427287223E+04 -0.57219526626E+03  0.14649135197E+04  0.25500000920E-02 0. -1.
       -2    1    3    3    0  502  0.12507508074E+03  0.13427287223E+04 -0.19168903476E+03  0.13620972372E+04  0.25500000920E-02 0.  1.
</event>
<event>
 5   0  0.9971923E-06  0.2683473E+04  0.7818609E-02  0.8340387E-01
        1   -1    0    0  501    0  0.00000000000E+00  0.00000000000E+00  0.14171820519E+04  0.14171820520E+04  0.50400001928E-02 0. -1.
       -1   -1    0    0    0  501  0.00000000000E+00  0.00000000000E+00 -0.12703072436E+04  0.12703072436E+04  0.50400001928E-02 0.  1.
    10030    2    1    2    0    0  0.00000000000E+00  0.00000000000E+00  0.14687480836E+03  0.26874892955E+04  0.26834728440E+04 0.  0.
        2    1    3    3  502    0 -0.50134765967E+02  0.10861890793E+03 -0.12649553794E+04  0.12705997300E+04  0.25500000920E-02 0.  1.
       -2    1    3    3    0  502  0.50134765967E+02 -0.10861890793E+03  0.14118301878E+04  0.14168895656E+04  0.25500000920E-02 0. -1.
</event>
<event>
 5   0  0.1041909E-05  0.2705077E+04  0.7818609E-02  0.8333359E-01
       -1   -1    0    0    0  501  0.00000000000E+00  0.00000000000E+00  0.10822697960E+04  0.10822697960E+04  0.50400001928E-02 0. -1.
        1   -1    0    0  501    0  0.00000000000E+00  0.00000000000E+00 -0.16903001728E+04  0.16903001728E+04  0.50400001928E-02 0.  1.
    10030    2    1    2    0    0  0.00000000000E+00  0.00000000000E+00 -0.60803037672E+03  0.27725699688E+04  0.27050773174E+04 0.  0.
        5    1    3    3  502    0  0.56693481550E+03 -0.11532138929E+04 -0.73646817030E+03  0.14811228253E+04  0.46999998093E+01 0.  1.
       -5    1    3    3    0  502 -0.56693481550E+03  0.11532138929E+04  0.12843779358E+03  0.12914471435E+04  0.46999998093E+01 0. -1.
</event>
<event>
 5   0  0.2540232E-05  0.2668180E+04  0.7818609E-02  0.8345404E-01
       -2   -1    0    0    0  501  0.00000000000E+00  0.00000000000E+00  0.11669819224E+04  0.11669819224E+04  0.25500000920E-02 0.  1.
        2   -1    0    0  501    0  0.00000000000E+00  0.00000000000E+00 -0.15251268801E+04  0.15251268801E+04  0.25500000920E-02 0. -1.
    10030    2    1    2    0    0  0.00000000000E+00  0.00000000000E+00 -0.35814495769E+03  0.26921088026E+04  0.26681795281E+04 0.  0.
        1    1    3    3  502    0 -0.11192651546E+03  0.54514409117E+03 -0.14024173698E+04  0.15088022084E+04  0.50400001928E-02 0. -1.
       -1    1    3    3    0  502  0.11192651546E+03 -0.54514409117E+03  0.10442724121E+04  0.11833065941E+04  0.50400001928E-02 0.  1.
</event>
<event>
 5   0  0.2540232E-05  0.2676732E+04  0.7818609E-02  0.8342594E-01
       -2   -1    0    0    0  501  0.00000000000E+00  0.00000000000E+00  0.63948689286E+03  0.63948689286E+03  0.25500000920E-02 0. -1.
        2   -1    0    0  501    0  0.00000000000E+00  0.00000000000E+00 -0.28010319789E+04  0.28010319789E+04  0.25500000920E-02 0.  1.
    10030    2    1    2    0    0  0.00000000000E+00  0.00000000000E+00 -0.21615450861E+04  0.34405188718E+04  0.26767317662E+04 0.  0.
        1    1    3    3  502    0  0.11861146221E+04 -0.58636699787E+03 -0.13395357264E+04  0.18828303469E+04  0.50400001928E-02 0.  1.
       -1    1    3    3    0  502 -0.11861146221E+04  0.58636699787E+03 -0.82200935969E+03  0.15576885249E+04  0.50400001928E-02 0. -1.
</event>
<event>
 5   0  0.2540684E-05  0.2713148E+04  0.7818609E-02  0.8330751E-01
       -2   -1    0    0    0  501  0.00000000000E+00  0.00000000000E+00  0.79560413911E+03  0.79560413911E+03  0.25500000920E-02 0. -1.
        2   -1    0    0  501    0  0.00000000000E+00  0.00000000000E+00 -0.23130767235E+04  0.23130767235E+04  0.25500000920E-02 0.  1.
    10030    2    1    2    0    0  0.00000000000E+00  0.00000000000E+00 -0.15174725844E+04  0.31086808626E+04  0.27131482933E+04 0.  0.
        2    1    3    3  502    0  0.61579841936E+02 -0.13478386776E+04 -0.59737904927E+03  0.14755754492E+04  0.25500000920E-02 0. -1.
       -2    1    3    3    0  502 -0.61579841936E+02  0.13478386776E+04 -0.92009353515E+03  0.16331054134E+04  0.25500000920E-02 0.  1.
</event>
<event>
 5   0  0.2641216E-05  0.2815764E+04  0.7818609E-02  0.8298391E-01
        2   -1    0    0  501    0  0.00000000000E+00  0.00000000000E+00  0.20153650643E+04  0.20153650643E+04  0.25500000920E-02 0.  1.
       -2   -1    0    0    0  501  0.00000000000E+00  0.00000000000E+00 -0.98351009366E+03  0.98351009367E+03  0.25500000920E-02 0. -1.
    10030    2    1    2    0    0  0.00000000000E+00  0.00000000000E+00  0.10318549707E+04  0.29988751580E+04  0.28157641117E+04 0.  0.
        5    1    3    3  502    0  0.94739515271E+03  0.91126812022E+03 -0.20981754591E+02  0.13146974885E+04  0.46999998093E+01 0. -1.
       -5    1    3    3    0  502 -0.94739515271E+03 -0.91126812022E+03  0.10528367253E+04  0.16841776695E+04  0.46999998093E+01 0.  1.
</event>
<event>
 5   0  0.1036691E-05  0.2663495E+04  0.7818609E-02  0.8346948E-01
        1   -1    0    0  501    0  0.00000000000E+00  0.00000000000E+00  0.15158087462E+04  0.15158087462E+04  0.50400001928E-02 0.  1.
       -1   -1    0    0    0  501  0.00000000000E+00  0.00000000000E+00 -0.11700367175E+04  0.11700367176E+04  0.50400001928E-02 0. -1.
    10030    2    1    2    0    0  0.00000000000E+00  0.00000000000E+00  0.34577202863E+03  0.26858454637E+04  0.26634953650E+04 0.  0.
        4    1    3    3  502    0 -0.30766346731E+03  0.32473932082E+03  0.14377792525E+04  0.15057633371E+04  0.12699999809E+01 0.  1.
       -4    1    3    3    0  502  0.30766346731E+03 -0.32473932082E+03 -0.10920072239E+04  0.11800821266E+04  0.12699999809E+01 0. -1.
</event>
<event>
 5   0  0.2540232E-05  0.2709227E+04  0.7818609E-02  0.8332017E-01
       -2   -1    0    0    0  501  0.00000000000E+00  0.00000000000E+00  0.11943129682E+04  0.11943129682E+04  0.25500000920E-02 0. -1.
        2   -1    0    0  501    0  0.00000000000E+00  0.00000000000E+00 -0.15364295266E+04  0.15364295266E+04  0.25500000920E-02 0.  1.
    10030    2    1    2    0    0  0.00000000000E+00  0.00000000000E+00 -0.34211655840E+03  0.27307424949E+04  0.27092269808E+04 0.  0.
        1    1    3    3  502    0  0.13222251739E+04  0.25427052350E+02  0.12461715482E+03  0.13283280396E+04  0.50400001928E-02 0. -1.
       -1    1    3    3    0  502 -0.13222251739E+04 -0.25427052350E+02 -0.46673371322E+03  0.14024144553E+04  0.50400001928E-02 0.  1.
</event>
<event>
 5   0  0.1096672E-05  0.2723868E+04  0.7818609E-02  0.8327302E-01
        1   -1    0    0  501    0  0.00000000000E+00  0.00000000000E+00  0.19463153502E+04  0.19463153502E+04  0.50400001928E-02 0. -1.
       -1   -1    0    0    0  501  0.00000000000E+00  0.00000000000E+00 -0.95301304783E+03  0.95301304784E+03  0.50400001928E-02 0.  1.
    10030    2    1    2    0    0  0.00000000000E+00  0.00000000000E+00  0.99330230239E+03  0.28993283981E+04  0.27238677824E+04 0.  0.
        1    1    3    3  502    0  0.11012401797E+04 -0.71468641569E+03  0.11087220509E+03  0.13174973442E+04  0.50400001928E-02 0.  1.
       -1    1    3    3    0  502 -0.11012401797E+04  0.71468641569E+03  0.88243009730E+03  0.15818310538E+04  0.50400001928E-02 0. -1.
</event>
<event>
 5   0  0.9971923E-06  0.2565098E+04  0.7818609E-02  0.8380154E-01
       -1   -1    0    0    0  501  0.00000000000E+00  0.00000000000E+00  0.79999038447E+03  0.79999038448E+03  0.50400001928E-02 0.  1.
        1   -1    0    0  501    0  0.00000000000E+00  0.00000000000E+00 -0.20561892768E+04  0.20561892768E+04  0.50400001928E-02 0. -1.
    10030    2    1    2    0    0  0.00000000000E+00  0.00000000000E+00 -0.12561988923E+04  0.28561796613E+04  0.25650977760E+04 0.  0.
        2    1    3    3  502    0 -0.57019352453E+03  0.73870990069E+03 -0.16077819929E+04  0.18589717344E+04  0.25500000920E-02 0. -1.
       -2    1    3    3    0  502  0.57019352453E+03 -0.73870990069E+03  0.35158310054E+03  0.99720792686E+03  0.25500000920E-02 0.  1.
</event>
<event>
 5   0  0.1096672E-05  0.1871701E+04  0.7818609E-02  0.8669072E-01
        1   -1    0    0  501    0  0.00000000000E+00  0.00000000000E+00  0.98518452831E+03  0.98518452832E+03  0.50400001928E-02 0.  1.
       -1   -1    0    0    0  501  0.00000000000E+00  0.00000000000E+00 -0.88898708912E+03  0.88898708913E+03  0.50400001928E-02 0. -1.
    10030    2    1    2    0    0  0.00000000000E+00  0.00000000000E+00  0.96197439191E+02  0.18741716175E+04  0.18717011792E+04 0.  0.
        1    1    3    3  502    0 -0.28082470649E+03  0.76946311081E+03  0.50133323616E+03  0.96034941994E+03  0.50400001928E-02 0.  1.
       -1    1    3    3    0  502  0.28082470649E+03 -0.76946311081E+03 -0.40513579697E+03  0.91382219752E+03  0.50400001928E-02 0. -1.
</event>
<event>
 5   0  0.1041909E-05  0.2609867E+04  0.7818609E-02  0.8364857E-01
        1   -1    0    0  501    0  0.00000000000E+00  0.00000000000E+00  0.73806706919E+03  0.73806706920E+03  0.50400001928E-02 0. -1.
       -1   -1    0    0    0  501  0.00000000000E+00  0.00000000000E+00 -0.23071779536E+04  0.23071779536E+04  0.50400001928E-02 0.  1.
    10030    2    1    2    0    0  0.00000000000E+00  0.00000000000E+00 -0.15691108844E+04  0.30452450228E+04  0.26098674835E+04 0.  0.
        5    1    3    3  502    0 -0.88157310309E+03 -0.78389905990E+03 -0.13368216633E+03  0.11872497142E+04  0.46999998093E+01 0. -1.
       -5    1    3    3    0  502  0.88157310309E+03  0.78389905990E+03 -0.14354287181E+04  0.18579953086E+04  0.46999998093E+01 0.  1.
</event>
<event>
 5   0  0.9971923E-06  0.3396915E+04  0.7818609E-02  0.8138664E-01
       -1   -1    0    0    0  501  0.00000000000E+00  0.00000000000E+00  0.19762651110E+04  0.19762651110E+04  0.50400001928E-02 0.  1.
        1   -1    0    0  501    0  0.00000000000E+00  0.00000000000E+00 -0.14597021769E+04  0.14597021769E+04  0.50400001928E-02 0. -1.
    10030    2    1    2    0    0  0.00000000000E+00  0.00000000000E+00  0.51656293408E+03  0.34359672880E+04  0.33969153565E+04 0.  0.
        2    1    3    3  502    0 -0.64756167087E+03  0.65946639154E+02  0.18450974970E+04  0.19565453868E+04  0.25500000920E-02 0.  1.
       -2    1    3    3    0  502  0.64756167087E+03 -0.65946639154E+02 -0.13285345630E+04  0.14794219012E+04  0.25500000920E-02 0. -1.
</event>
<event>
 5   0  0.2540232E-05  0.2660553E+04  0.7818609E-02  0.8347919E-01
       -2   -1    0    0    0  501  0.00000000000E+00  0.00000000000E+00  0.14364205209E+04  0.14364205209E+04  0.25500000920E-02 0.  1.
        2   -1    0    0  501    0  0.00000000000E+00  0.00000000000E+00 -0.12319761452E+04  0.12319761452E+04  0.25500000920E-02 0. -1.
    10030    2    1    2    0    0  0.00000000000E+00  0.00000000000E+00  0.20444437566E+03  0.26683966661E+04  0.26605531878E+04 0.  0.
        1    1    3    3  502    0 -0.11323888814E+04 -0.40132656598E+03  0.67510505471E+03  0.13780908628E+04  0.50400001928E-02 0.  1.
       -1    1    3    3    0  502  0.11323888814E+04  0.40132656598E+03 -0.47066067905E+03  0.12903058033E+04  0.50400001928E-02 0. -1.
</event>
<event>
 5   0  0.2615843E-05  0.2682629E+04  0.7818609E-02  0.8340663E-01
        2   -1    0    0  501    0  0.00000000000E+00  0.00000000000E+00  0.14707122564E+04  0.14707122564E+04  0.25500000920E-02 0.  1.
       -2   -1    0    0    0  501  0.00000000000E+00  0.00000000000E+00 -0.12233013134E+04  0.12233013134E+04  0.25500000920E-02 0. -1.
    10030    2    1    2    0    0  0.00000000000E+00  0.00000000000E+00  0.24741094306E+03  0.26940135698E+04  0.26826287368E+04 0.  0.
        3    1    3    3  502    0  0.76169307666E+03  0.79432426755E+03 -0.64635831828E+03  0.12762862026E+04  0.10100000352E+00 0. -1.
       -3    1    3    3    0  502 -0.76169307666E+03 -0.79432426755E+03  0.89376926134E+03  0.14177273672E+04  0.10100000352E+00 0.  1.
</event>
<event>
 5   0  0.1096672E-05  0.2707964E+04  0.7818609E-02  0.8332426E-01
        1   -1    0    0  501    0  0.00000000000E+00  0.00000000000E+00  0.82243768651E+03  0.82243768653E+03  0.50400001928E-02 0. -1.
       -1   -1    0    0    0  501  0.00000000000E+00  0.00000000000E+00 -0.22290650926E+04  0.22290650926E+04  0.50400001928E-02 0.  1.
    10030    2    1    2    0    0  0.00000000000E+00  0.00000000000E+00 -0.14066274061E+04  0.30515027791E+04  0.27079639125E+04 0.  0.
        1    1    3    3  502    0 -0.13038606466E+04 -0.11003380552E+03 -0.31116053798E+03  0.13449836075E+04  0.50400001928E-02 0. -1.
       -1    1    3    3    0  502  0.13038606466E+04  0.11003380552E+03 -0.10954668681E+04  0.17065191716E+04  0.50400001928E-02 0.  1.
</event>
<event>
 5   0  0.9971923E-06  0.2933074E+04  0.7818609E-02  0.8263105E-01
       -1   -1    0    0    0  501  0.00000000000E+00  0.00000000000E+00  0.11198113734E+04  0.11198113734E+04  0.50400001928E-02 0.  1.
        1   -1    0    0  501    0  0.00000000000E+00  0.00000000000E+00 -0.19206184877E+04  0.19206184877E+04  0.50400001928E-02 0. -1.
    10030    2    1    2    0    0  0.00000000000E+00  0.00000000000E+00 -0.80080711430E+03  0.30404298611E+04  0.29330737642E+04 0.  0.
        2    1    3    3  502    0 -0.54429543981E+03 -0.96098715777E+01  0.10111957479E+04  0.11484192248E+04  0.25500000920E-02 0.  1.
       -2    1    3    3    0  502  0.54429543981E+03  0.96098715777E+01 -0.18120028622E+04  0.18920106363E+04  0.25500000920E-02 0. -1.
</event>
<event>
 5   0  0.1096672E-05  0.2690415E+04  0.7818609E-02  0.8338122E-01
        1   -1    0    0  501    0  0.00000000000E+00  0.00000000000E+00  0.13316911508E+04  0.13316911508E+04  0.50400001928E-02 0. -1.
       -1   -1    0    0    0  501  0.00000000000E+00  0.00000000000E+00 -0.13588612055E+04  0.13588612055E+04  0.50400001928E-02 0.  1.
    10030    2    1    2    0    0  0.00000000000E+00  0.00000000000E+00 -0.27170054716E+02  0.26905523563E+04  0.26904151668E+04 0.  0.
        1    1    3    3  502    0  0.13304944824E+04  0.18414023699E+03  0.60312231638E+02  0.13445299401E+04  0.50400001928E-02 0. -1.
       -1    1    3    3    0  502 -0.13304944824E+04 -0.18414023699E+03 -0.87482286354E+02  0.13460224162E+04  0.50400001928E-02 0.  1.
</event>
<event>
 5   0  0.9971923E-06  0.2755942E+04  0.7818609E-02  0.8317079E-01
        1   -1    0    0  501    0  0.00000000000E+00  0.00000000000E+00  0.12212956711E+04  0.12212956711E+04  0.50400001928E-02 0.  1.
       -1   -1    0    0    0  501  0.00000000000E+00  0.00000000000E+00 -0.15547459667E+04  0.15547459667E+04  0.50400001928E-02 0. -1.
    10030    2    1    2    0    0  0.00000000000E+00  0.00000000000E+00 -0.33345029565E+03  0.27760416378E+04  0.27559423207E+04 0.  0.
        2    1    3    3  502    0 -0.59009846838E+03  0.11674899640E+04 -0.60296039650E+03  0.14404201672E+04  0.25500000920E-02 0.  1.
       -2    1    3    3    0  502  0.59009846838E+03 -0.11674899640E+04  0.26951010085E+03  0.13356214706E+04  0.25500000920E-02 0. -1.
</event>
<event>
 5   0  0.1005265E-05  0.1755998E+04  0.7818609E-02  0.8730056E-01
       -1   -1    0    0    0  501  0.00000000000E+00  0.00000000000E+00  0.13801599772E+04  0.13801599773E+04  0.50400001928E-02 0.  1.
        1   -1    0    0  501    0  0.00000000000E+00  0.00000000000E+00 -0.55854567745E+03  0.55854567747E+03  0.50400001928E-02 0. -1.
    10030    2    1    2    0    0  0.00000000000E+00  0.00000000000E+00  0.82161429980E+03  0.19387056547E+04  0.17559981657E+04 0.  0.
        3    1    3    3  502    0 -0.74575469052E+03 -0.46287779024E+03  0.38670772971E+03  0.95913960691E+03  0.10100000352E+00 0.  1.
       -3    1    3    3    0  502  0.74575469052E+03  0.46287779024E+03  0.43490657009E+03  0.97956604782E+03  0.10100000352E+00 0. -1.
</event>
<event>
 5   0  0.2540232E-05  0.2713224E+04  0.7818609E-02  0.8330727E-01
       -2   -1    0    0    0  501  0.00000000000E+00  0.00000000000E+00  0.12200456167E+04  0.12200456167E+04  0.25500000920E-02 0. -1.
        2   -1    0    0  501    0  0.00000000000E+00  0.00000000000E+00 -0.15084654080E+04  0.15084654080E+04  0.25500000920E-02 0.  1.
    10030    2    1    2    0    0  0.00000000000E+00  0.00000000000E+00 -0.28841979130E+03  0.27285110248E+04  0.27132243616E+04 0.  0.
        1    1    3    3  502    0 -0.62119055339E+03 -0.28808123054E+03  0.10335109486E+04  0.12397634370E+04  0.50400001928E-02 0. -1.
       -1    1    3    3    0  502  0.62119055339E+03  0.28808123054E+03 -0.13219307399E+04  0.14887475877E+04  0.50400001928E-02 0.  1.
</event>
<event>
 5   0  0.1041909E-05  0.2720874E+04  0.7818609E-02  0.8328264E-01
       -1   -1    0    0    0  501  0.00000000000E+00  0.00000000000E+00  0.14018563748E+04  0.14018563748E+04  0.50400001928E-02 0. -1.
        1   -1    0    0  501    0  0.00000000000E+00  0.00000000000E+00 -0.13202416892E+04  0.13202416892E+04  0.50400001928E-02 0.  1.
    10030    2    1    2    0    0  0.00000000000E+00  0.00000000000E+00  0.81614685664E+02  0.27220980640E+04  0.27208742921E+04 0.  0.
        5    1    3    3  502    0  0.78841793772E+03  0.11026063464E+04  0.15671944911E+03  0.13645243404E+04  0.46999998093E+01 0. -1.
       -5    1    3    3    0  502 -0.78841793772E+03 -0.11026063464E+04 -0.75104763446E+02  0.13575737237E+04  0.46999998093E+01 0.  1.
</event>
<event>
 5   0  0.2540684E-05  0.2677501E+04  0.7818609E-02  0.8342342E-01
       -2   -1    0    0    0  501  0.00000000000E+00  0.00000000000E+00  0.90148403093E+03  0.90148403093E+03  0.25500000920E-02 0.  1.
        2   -1    0    0  501    0  0.00000000000E+00  0.00000000000E+00 -0.19881136989E+04  0.19881136989E+04  0.25500000920E-02 0. -1.
    10030    2    1    2    0    0  0.00000000000E+00  0.00000000000E+00 -0.10866296680E+04  0.28895977299E+04  0.26775008880E+04 0.  0.
        2    1    3    3  502    0  0.13221267789E+04 -0.16144464516E+03 -0.39784425472E+03  0.13900948327E+04  0.25500000920E-02 0.  1.
       -2    1    3    3    0  502 -0.13221267789E+04  0.16144464516E+03 -0.68878541329E+03  0.14995028971E+04  0.25500000920E-02 0. -1.
</event>
<event>
 5   0  0.9971923E-06  0.1882408E+04  0.7818609E-02  0.8663663E-01
        1   -1    0    0  501    0  0.00000000000E+00  0.00000000000E+00  0.15979607486E+04  0.15979607486E+04  0.50400001928E-02 0. -1.
       -1   -1    0    0    0  501  0.00000000000E+00  0.00000000000E+00 -0.55437230598E+03  0.55437230601E+03  0.50400001928E-02 0.  1.
    10030    2    1    2    0    0  0.00000000000E+00  0.00000000000E+00  0.10435884426E+04  0.21523330546E+04  0.18824082289E+04 0.  0.
        2    1    3    3  502    0 -0.27691933190E+03  0.59774725857E+03 -0.24681710934E+03  0.70349469577E+03  0.25500000920E-02 0.  1.
       -2    1    3    3    0  502  0.27691933190E+03 -0.59774725857E+03  0.12904055519E+04  0.14488383588E+04  0.25500000920E-02 0. -1.
</event>
<event>
 5   0  0.2615843E-05  0.2672472E+04  0.7818609E-02  0.8343992E-01
       -2   -1    0    0    0  501  0.00000000000E+00  0.00000000000E+00  0.11754987585E+04  0.11754987585E+04  0.25500000920E-02 0. -1.
        2   -1    0    0  501    0  0.00000000000E+00  0.00000000000E+00 -0.15189525280E+04  0.15189525280E+04  0.25500000920E-02 0.  1.
    10030    2    1    2    0    0  0.00000000000E+00  0.00000000000E+00 -0.34345376957E+03  0.26944512865E+04  0.26724721221E+04 0.  0.
        3    1    3    3  502    0 -0.31872042862E+03  0.85286172141E+03  0.81436129251E+03  0.12215318876E+04  0.10100000352E+00 0. -1.
       -3    1    3    3    0  502  0.31872042862E+03 -0.85286172141E+03 -0.11578150621E+04  0.14729193989E+04  0.10100000352E+00 0.  1.
</event>
<event>
 5   0  0.1096672E-05  0.2793470E+04  0.7818609E-02  0.8305298E-01
        1   -1    0    0  501    0  0.00000000000E+00  0.00000000000E+00  0.14803581562E+04  0.14803581562E+04  0.50400001928E-02 0.  1.
       -1   -1    0    0    0  501  0.00000000000E+00  0.00000000000E+00 -0.13178358059E+04  0.13178358059E+04  0.50400001928E-02 0. -1.
    10030    2    1    2    0    0  0.00000000000E+00  0.00000000000E+00  0.16252235027E+03  0.27981939621E+04  0.27934702316E+04 0.  0.
        1    1    3    3  502    0  0.94295022645E+03 -0.36142801364E+03 -0.88529726278E+03  0.13429581461E+04  0.50400001928E-02 0. -1.
       -1    1    3    3    0  502 -0.94295022645E+03  0.36142801364E+03  0.10478196131E+04  0.14552358160E+04  0.50400001928E-02 0.  1.
</event>
<event>
 5   0  0.2615843E-05  0.2726131E+04  0.7818609E-02  0.8326576E-01
        2   -1    0    0  501    0  0.00000000000E+00  0.00000000000E+00  0.17038511096E+04  0.17038511096E+04  0.25500000920E-02 0. -1.
       -2   -1    0    0    0  501  0.00000000000E+00  0.00000000000E+00 -0.10904398283E+04  0.10904398283E+04  0.25500000920E-02 0.  1.
    10030    2    1    2    0    0  0.00000000000E+00  0.00000000000E+00  0.61341128130E+03  0.27942909380E+04  0.27261306730E+04 0.  0.
        3    1    3    3  502    0 -0.13053373491E+04  0.28668331677E+03  0.58146404084E+03  0.14574612722E+04  0.10100000352E+00 0. -1.
       -3    1    3    3    0  502  0.13053373491E+04 -0.28668331677E+03  0.31947240464E+02  0.13368296658E+04  0.10100000352E+00 0.  1.
</event>
<event>
 5   0  0.1005265E-05  0.2710536E+04  0.7818609E-02  0.8331595E-01
        1   -1    0    0  501    0  0.00000000000E+00  0.00000000000E+00  0.15478661230E+04  0.15478661230E+04  0.50400001928E-02 0. -1.
       -1   -1    0    0    0  501  0.00000000000E+00  0.00000000000E+00 -0.11866344239E+04  0.11866344239E+04  0.50400001928E-02 0.  1.
    10030    2    1    2    0    0  0.00000000000E+00  0.00000000000E+00  0.36123169909E+03  0.27345005469E+04  0.27105359065E+04 0.  0.
        3    1    3    3  502    0 -0.39158147965E+03 -0.90839382152E+03  0.11152166945E+04  0.14907124726E+04  0.10100000352E+00 0. -1.
       -3    1    3    3    0  502  0.39158147965E+03  0.90839382152E+03 -0.75398499537E+03  0.12437880742E+04  0.10100000352E+00 0.  1.
</event>
<event>
 5   0  0.1041909E-05  0.2671327E+04  0.7818609E-02  0.8344369E-01
        1   -1    0    0  501    0  0.00000000000E+00  0.00000000000E+00  0.71144119054E+03  0.71144119056E+03  0.50400001928E-02 0.  1.
       -1   -1    0    0    0  501  0.00000000000E+00  0.00000000000E+00 -0.25075820977E+04  0.25075820977E+04  0.50400001928E-02 0. -1.
    10030    2    1    2    0    0  0.00000000000E+00  0.00000000000E+00 -0.17961409072E+04  0.32190232883E+04  0.26713271556E+04 0.  0.
        5    1    3    3  502    0  0.10779988497E+04  0.63887286775E+03 -0.34096821329E+03  0.12986614161E+04  0.46999998093E+01 0.  1.
       -5    1    3    3    0  502 -0.10779988497E+04 -0.63887286775E+03 -0.14551726939E+04  0.19203618722E+04  0.46999998093E+01 0. -1.
</event>
<event>
 5   0  0.1005265E-05  0.2699751E+04  0.7818609E-02  0.8335086E-01
       -1   -1    0    0    0  501  0.00000000000E+00  0.00000000000E+00  0.94987998365E+03  0.94987998367E+03  0.50400001928E-02 0. -1.
        1   -1    0    0  501    0  0.00000000000E+00  0.00000000000E+00 -0.19183099920E+04  0.19183099920E+04  0.50400001928E-02 0.  1.
    10030    2    1    2    0    0  0.00000000000E+00  0.00000000000E+00 -0.96843000835E+03  0.28681899757E+04  0.26997512951E+04 0.  0.
        3    1    3    3  502    0 -0.21613120721E+03  0.68899423946E+03  0.72744047824E+03  0.10249855708E+04  0.10100000352E+00 0. -1.
       -3    1    3    3    0  502  0.21613120721E+03 -0.68899423946E+03 -0.16958704866E+04  0.18432044049E+04  0.10100000352E+00 0.  1.
</event>
<event>
 5   0  0.2641216E-05  0.2646620E+04  0.7818609E-02  0.8352536E-01
        2   -1    0    0  501    0  0.00000000000E+00  0.00000000000E+00  0.21806233728E+04  0.21806233728E+04  0.25500000920E-02 0.  1.
       -2   -1    0    0    0  501  0.00000000000E+00  0.00000000000E+00 -0.80304959553E+03  0.80304959553E+03  0.25500000920E-02 0. -1.
    10030    2    1    2    0    0  0.00000000000E+00  0.00000000000E+00  0.13775737773E+04  0.29836729683E+04  0.26466195174E+04 0.  0.
        5    1    3    3  502    0  0.33419200486E+03  0.70045007509E+03 -0.51953931865E+03  0.93394742755E+03  0.46999998093E+01 0. -1.
       -5    1    3    3    0  502 -0.33419200486E+03 -0.70045007509E+03  0.18971130959E+04  0.20497255408E+04  0.46999998093E+01 0.  1.
</event>
<event>
 5   0  0.2540232E-05  0.2712280E+04  0.7818609E-02  0.8331032E-01
       -2   -1    0    0    0  501  0.00000000000E+00  0.00000000000E+00  0.12205541629E+04  0.12205541629E+04  0.25500000920E-02 0.  1.
        2   -1    0    0  501    0  0.00000000000E+00  0.00000000000E+00 -0.15067872868E+04  0.15067872868E+04  0.25500000920E-02 0. -1.
    10030    2    1    2    0    0  0.00000000000E+00  0.00000000000E+00 -0.28623312386E+03  0.27273414497E+04  0.27122798496E+04 0.  0.
        1    1    3    3  502    0 -0.74799055922E+03 -0.11030922679E+04 -0.39513366569E+03  0.13901197941E+04  0.50400001928E-02 0. -1.
       -1    1    3    3    0  502  0.74799055922E+03  0.11030922679E+04  0.10890054183E+03  0.13372216556E+04  0.50400001928E-02 0.  1.
</event>
<event>
 5   0  0.2540232E-05  0.2712386E+04  0.7818609E-02  0.8330997E-01
        2   -1    0    0  501    0  0.00000000000E+00  0.00000000000E+00  0.10165813609E+04  0.10165813609E+04  0.25500000920E-02 0. -1.
       -2   -1    0    0    0  501  0.00000000000E+00  0.00000000000E+00 -0.18092597295E+04  0.18092597295E+04  0.25500000920E-02 0.  1.
    10030    2    1    2    0    0  0.00000000000E+00  0.00000000000E+00 -0.79267836861E+03  0.28258410905E+04  0.27123861953E+04 0.  0.
        1    1    3    3  502    0  0.11447867112E+04  0.24852264781E+02 -0.11534449316E+04  0.16252967297E+04  0.50400001928E-02 0.  1.
       -1    1    3    3    0  502 -0.11447867112E+04 -0.24852264781E+02  0.36076656298E+03  0.12005443608E+04  0.50400001928E-02 0. -1.
</event>
<event>
 5   0  0.9971923E-06  0.2642740E+04  0.7818609E-02  0.8353827E-01
        1   -1    0    0  501    0  0.00000000000E+00  0.00000000000E+00  0.21489304101E+04  0.21489304101E+04  0.50400001928E-02 0. -1.
       -1   -1    0    0    0  501  0.00000000000E+00  0.00000000000E+00 -0.81250573996E+03  0.81250573998E+03  0.50400001928E-02 0.  1.
    10030    2    1    2    0    0  0.00000000000E+00  0.00000000000E+00  0.13364246702E+04  0.29614361501E+04  0.26427397095E+04 0.  0.
        2    1    3    3  502    0  0.45933597939E+03 -0.71057871025E+03 -0.46912442946E+03  0.96746543904E+03  0.25500000920E-02 0.  1.
       -2    1    3    3    0  502 -0.45933597939E+03  0.71057871025E+03  0.18055490996E+04  0.19939707111E+04  0.25500000920E-02 0. -1.
</event>
<event>
 5   0  0.8740500E-06  0.2666749E+04  0.7818609E-02  0.8345875E-01
       -4   -1    0    0    0  501  0.00000000000E+00  0.00000000000E+00  0.85881758131E+03  0.85881852033E+03  0.12699999809E+01 0.  1.
        4   -1    0    0  501    0  0.00000000000E+00  0.00000000000E+00 -0.20701544810E+04  0.20701548706E+04  0.12699999809E+01 0. -1.
    10030    2    1    2    0    0  0.00000000000E+00  0.00000000000E+00 -0.12113368997E+04  0.29289733909E+04  0.26667485896E+04 0.  0.
        1    1    3    3  502    0 -0.64931390721E+02 -0.43847797040E+03  0.77552756643E+03  0.89326481087E+03  0.50400001928E-02 0.  1.
       -1    1    3    3    0  502  0.64931390721E+02  0.43847797040E+03 -0.19868644662E+04  0.20357085801E+04  0.50400001928E-02 0. -1.
</event>
<event>
 5   0  0.2540684E-05  0.2739280E+04  0.7818609E-02  0.8322371E-01
       -2   -1    0    0    0  501  0.00000000000E+00  0.00000000000E+00  0.20227488029E+04  0.20227488029E+04  0.25500000920E-02 0.  1.
        2   -1    0    0  501    0  0.00000000000E+00  0.00000000000E+00 -0.92740807967E+03  0.92740807967E+03  0.25500000920E-02 0. -1.
    10030    2    1    2    0    0  0.00000000000E+00  0.00000000000E+00  0.10953407232E+04  0.29501568826E+04  0.27392798929E+04 0.  0.
        2    1    3    3  502    0  0.13343351622E+04  0.29290215161E+03  0.65358538844E+03  0.15144028049E+04  0.25500000920E-02 0. -1.
       -2    1    3    3    0  502 -0.13343351622E+04 -0.29290215161E+03  0.44175533478E+03  0.14357540776E+04  0.25500000920E-02 0.  1.
</event>
<event>
 5   0  0.1041909E-05  0.2812483E+04  0.7818609E-02  0.8299403E-01
        1   -1    0    0  501    0  0.00000000000E+00  0.00000000000E+00  0.23846732030E+04  0.23846732030E+04  0.50400001928E-02 0.  1.
       -1   -1    0    0    0  501  0.00000000000E+00  0.00000000000E+00 -0.82926038393E+03  0.82926038394E+03  0.50400001928E-02 0. -1.
    10030    2    1    2    0    0  0.00000000000E+00  0.00000000000E+00  0.15554128191E+04  0.32139335869E+04  0.28124829001E+04 0.  0.
        5    1    3    3  502    0  0.22232713748E+03 -0.11349579108E+04 -0.13643764205E+03  0.11645583436E+04  0.46999998093E+01 0. -1.
       -5    1    3    3    0  502 -0.22232713748E+03  0.11349579108E+04  0.16918504611E+04  0.20493752434E+04  0.46999998093E+01 0.  1.
</event>
<event>
 5   0  0.1036691E-05  0.2382797E+04  0.7818609E-02  0.8445972E-01
        1   -1    0    0  501    0  0.00000000000E+00  0.00000000000E+00  0.14486182284E+04  0.14486182285E+04  0.50400001928E-02 0.  1.
       -1   -1    0    0    0  501  0.00000000000E+00  0.00000000000E+00 -0.97985156063E+03  0.97985156064E+03  0.50400001928E-02 0. -1.
    10030    2    1    2    0    0  0.00000000000E+00  0.00000000000E+00  0.46876666782E+03  0.24284697891E+04  0.23827973745E+04 0.  0.
        4    1    3    3  502    0 -0.26272631032E+03  0.61322828466E+03 -0.77163116621E+03  0.10200442700E+04  0.12699999809E+01 0. -1.
       -4    1    3    3    0  502  0.26272631032E+03 -0.61322828466E+03  0.12403978340E+04  0.14084255191E+04  0.12699999809E+01 0.  1.
</event>
<event>
 5   0  0.1005265E-05  0.2704258E+04  0.7818609E-02  0.8333625E-01
       -1   -1    0    0    0  501  0.00000000000E+00  0.00000000000E+00  0.15677661781E+04  0.15677661781E+04  0.50400001928E-02 0.  1.
        1   -1    0    0  501    0  0.00000000000E+00  0.00000000000E+00 -0.11661517199E+04  0.11661517200E+04  0.50400001928E-02 0. -1.
    10030    2    1    2    0    0  0.00000000000E+00  0.00000000000E+00  0.40161445811E+03  0.27339178980E+04  0.27042582902E+04 0.  0.
        3    1    3    3  502    0  0.75795160331E+03  0.63827764274E+03  0.11308778997E+04  0.15035869833E+04  0.10100000352E+00 0.  1.
       -3    1    3    3    0  502 -0.75795160331E+03 -0.63827764274E+03 -0.72926344161E+03  0.12303309147E+04  0.10100000352E+00 0. -1.
</event>
<event>
 5   0  0.1041909E-05  0.2592837E+04  0.7818609E-02  0.8370638E-01
       -1   -1    0    0    0  501  0.00000000000E+00  0.00000000000E+00  0.12134062159E+04  0.12134062159E+04  0.50400001928E-02 0. -1.
        1   -1    0    0  501    0  0.00000000000E+00  0.00000000000E+00 -0.13851102552E+04  0.13851102552E+04  0.50400001928E-02 0.  1.
    10030    2    1    2    0    0  0.00000000000E+00  0.00000000000E+00 -0.17170403931E+03  0.25985164711E+04  0.25928373596E+04 0.  0.
        5    1    3    3  502    0 -0.10050603554E+04 -0.39480373284E+03  0.63311947321E+03  0.12517502398E+04  0.46999998093E+01 0. -1.
       -5    1    3    3    0  502  0.10050603554E+04  0.39480373284E+03 -0.80482351252E+03  0.13467662313E+04  0.46999998093E+01 0.  1.
</event>
<event>
 5   0  0.2540684E-05  0.2698328E+04  0.7818609E-02  0.8335548E-01
        2   -1    0    0  501    0  0.00000000000E+00  0.00000000000E+00  0.16188833159E+04  0.16188833159E+04  0.25500000920E-02 0.  1.
       -2   -1    0    0    0  501  0.00000000000E+00  0.00000000000E+00 -0.11243823138E+04  0.11243823138E+04  0.25500000920E-02 0. -1.
    10030    2    1    2    0    0  0.00000000000E+00  0.00000000000E+00  0.49450100206E+03  0.27432656297E+04  0.26983281999E+04 0.  0.
        2    1    3    3  502    0  0.69232652998E+03  0.11578465392E+04  0.22908861166E+03  0.13683589531E+04  0.25500000920E-02 0.  1.
       -2    1    3    3    0  502 -0.69232652998E+03 -0.11578465392E+04  0.26541239039E+03  0.13749066766E+04  0.25500000920E-02 0. -1.
</event>
<event>
 5   0  0.2540684E-05  0.2697509E+04  0.7818609E-02  0.8335814E-01
       -2   -1    0    0    0  501  0.00000000000E+00  0.00000000000E+00  0.90261893626E+03  0.90261893626E+03  0.25500000920E-02 0.  1.
        2   -1    0    0  501    0  0.00000000000E+00  0.00000000000E+00 -0.20154001091E+04  0.20154001091E+04  0.25500000920E-02 0. -1.
    10030    2    1    2    0    0  0.00000000000E+00  0.00000000000E+00 -0.11127811729E+04  0.29180190454E+04  0.26975087045E+04 0.  0.
        2    1    3    3  502    0 -0.49637415572E+02 -0.10671933889E+04  0.33417785950E+03  0.11193928909E+04  0.25500000920E-02 0.  1.
       -2    1    3    3    0  502  0.49637415572E+02  0.10671933889E+04 -0.14469590324E+04  0.17986261545E+04  0.25500000920E-02 0. -1.
</event>
<event>
 5   0  0.1036691E-05  0.2711303E+04  0.7818609E-02  0.8331347E-01
       -1   -1    0    0    0  501  0.00000000000E+00  0.00000000000E+00  0.83676112691E+03  0.83676112692E+03  0.50400001928E-02 0.  1.
        1   -1    0    0  501    0  0.00000000000E+00  0.00000000000E+00 -0.21963157188E+04  0.21963157188E+04  0.50400001928E-02 0. -1.
    10030    2    1    2    0    0  0.00000000000E+00  0.00000000000E+00 -0.13595545919E+04  0.30330768457E+04  0.27113034621E+04 0.  0.
        4    1    3    3  502    0 -0.98426138190E+03  0.22070217308E+03 -0.16929752653E+04  0.19706970287E+04  0.12699999809E+01 0. -1.
       -4    1    3    3    0  502  0.98426138190E+03 -0.22070217308E+03  0.33342067347E+03  0.10623798170E+04  0.12699999809E+01 0.  1.
</event>
<event>
 5   0  0.1096672E-05  0.2615645E+04  0.7818609E-02  0.8362906E-01
       -1   -1    0    0    0  501  0.00000000000E+00  0.00000000000E+00  0.13569961738E+04  0.13569961738E+04  0.50400001928E-02 0. -1.
        1   -1    0    0  501    0  0.00000000000E+00  0.00000000000E+00 -0.12604306082E+04  0.12604306082E+04  0.50400001928E-02 0.  1.
    10030    2    1    2    0    0  0.00000000000E+00  0.00000000000E+00  0.96565565593E+02  0.26174267820E+04  0.26156448633E+04 0.  0.
        1    1    3    3  502    0  0.45369088990E+03  0.23767781138E+03  0.12524617690E+04  0.13531395525E+04  0.50400001928E-02 0. -1.
       -1    1    3    3    0  502 -0.45369088990E+03 -0.23767781138E+03 -0.11558962034E+04  0.12642872295E+04  0.50400001928E-02 0.  1.
</event>
<event>
 5   0  0.1096672E-05  0.2747300E+04  0.7818609E-02  0.8319819E-01
       -1   -1    0    0    0  501  0.00000000000E+00  0.00000000000E+00  0.65748599636E+03  0.65748599638E+03  0.50400001928E-02 0.  1.
        1   -1    0    0  501    0  0.00000000000E+00  0.00000000000E+00 -0.28698932674E+04  0.28698932674E+04  0.50400001928E-02 0. -1.
    10030    2    1    2    0    0  0.00000000000E+00  0.00000000000E+00 -0.22124072710E+04  0.35273792638E+04  0.27473002271E+04 0.  0.
        1    1    3    3  502    0 -0.26834579039E+03  0.54462873507E+03  0.47585525270E+03  0.77140660085E+03  0.50400001928E-02 0.  1.
       -1    1    3    3    0  502  0.26834579039E+03 -0.54462873507E+03 -0.26882625237E+04  0.27559726629E+04  0.50400001928E-02 0. -1.
</event>
<event>
 5   0  0.1041909E-05  0.2696571E+04  0.7818609E-02  0.8336118E-01
       -1   -1    0    0    0  501  0.00000000000E+00  0.00000000000E+00  0.23874581580E+04  0.23874581580E+04  0.50400001928E-02 0. -1.
        1   -1    0    0  501    0  0.00000000000E+00  0.00000000000E+00 -0.76142666941E+03  0.76142666943E+03  0.50400001928E-02 0.  1.
    10030    2    1    2    0    0  0.00000000000E+00  0.00000000000E+00  0.16260314886E+04  0.31488848274E+04  0.26965713887E+04 0.  0.
        5    1    3    3  502    0  0.26590418849E+03  0.24028134445E+03 -0.70477761846E+03  0.79067929240E+03  0.46999998093E+01 0.  1.
       -5    1    3    3    0  502 -0.26590418849E+03 -0.24028134445E+03  0.23308091071E+04  0.23582055350E+04  0.46999998093E+01 0. -1.
</event>
<event>
 5   0  0.2516518E-05  0.2668819E+04  0.7818609E-02  0.8345194E-01
        2   -1    0    0  501    0  0.00000000000E+00  0.00000000000E+00  0.13037250428E+04  0.13037250428E+04  0.25500000920E-02 0.  1.
       -2   -1    0    0    0  501  0.00000000000E+00  0.00000000000E+00 -0.13658159964E+04  0.13658159964E+04  0.25500000920E-02 0. -1.
    10030    2    1    2    0    0  0.00000000000E+00  0.00000000000E+00 -0.62090953626E+02  0.26695410393E+04  0.26688188537E+04 0.  0.
        4    1    3    3  502    0 -0.10815159603E+04  0.13866245823E+03  0.73841092345E+03  0.13168737048E+04  0.12699999809E+01 0.  1.
       -4    1    3    3    0  502  0.10815159603E+04 -0.13866245823E+03 -0.80050187708E+03  0.13526673345E+04  0.12699999809E+01 0. -1.
</event>
<event>
 5   0  0.2615843E-05  0.1909700E+04  0.7818609E-02  0.8650043E-01
        2   -1    0    0  501    0  0.00000000000E+00  0.00000000000E+00  0.93990031451E+03  0.93990031451E+03  0.25500000920E-02 0. -1.
       -2   -1    0    0    0  501  0.00000000000E+00  0.00000000000E+00 -0.97003772975E+03  0.97003772975E+03  0.25500000920E-02 0.  1.
    10030    2    1    2    0    0  0.00000000000E+00  0.00000000000E+00 -0.30137415241E+02  0.19099380443E+04  0.19097002564E+04 0.  0.
        3    1    3    3  502    0 -0.34778053400E+03 -0.61357973471E+03  0.62867856304E+03  0.94481116447E+03  0.10100000352E+00 0. -1.
       -3    1    3    3    0  502  0.34778053400E+03  0.61357973471E+03 -0.65881597828E+03  0.96512687980E+03  0.10100000352E+00 0.  1.
</event>
<event>
 5   0  0.2540232E-05  0.2740205E+04  0.7818609E-02  0.8322077E-01
        2   -1    0    0  501    0  0.00000000000E+00  0.00000000000E+00  0.27713416065E+04  0.27713416065E+04  0.25500000920E-02 0. -1.
       -2   -1    0    0    0  501  0.00000000000E+00  0.00000000000E+00 -0.67735432497E+03  0.67735432497E+03  0.25500000920E-02 0.  1.
    10030    2    1    2    0    0  0.00000000000E+00  0.00000000000E+00  0.20939872815E+04  0.34486959315E+04  0.27402045348E+04 0.  0.
        1    1    3    3  502    0 -0.11465486320E+04 -0.72448253872E+03  0.12914627610E+04  0.18727852993E+04  0.50400001928E-02 0. -1.
       -1    1    3    3    0  502  0.11465486320E+04  0.72448253872E+03  0.80252452054E+03  0.15759106321E+04  0.50400001928E-02 0.  1.
</event>
<event>
 5   0  0.2615843E-05  0.2632764E+04  0.7818609E-02  0.8357156E-01
       -2   -1    0    0    0  501  0.00000000000E+00  0.00000000000E+00  0.25614047255E+04  0.25614047255E+04  0.25500000920E-02 0. -1.
        2   -1    0    0  501    0  0.00000000000E+00  0.00000000000E+00 -0.67652777993E+03  0.67652777994E+03  0.25500000920E-02 0.  1.
    10030    2    1    2    0    0  0.00000000000E+00  0.00000000000E+00  0.18848769456E+04  0.32379325055E+04  0.26327639108E+04 0.  0.
        3    1    3    3  502    0  0.14990422419E+03 -0.34766467402E+03 -0.60812231703E+03  0.71634821467E+03  0.10100000352E+00 0.  1.
       -3    1    3    3    0  502 -0.14990422419E+03  0.34766467402E+03  0.24929992626E+04  0.25215842908E+04  0.10100000352E+00 0. -1.
</event>
<event>
 5   0  0.2641216E-05  0.2666927E+04  0.7818609E-02  0.8345817E-01
        2   -1    0    0  501    0  0.00000000000E+00  0.00000000000E+00  0.12773503248E+04  0.12773503248E+04  0.25500000920E-02 0.  1.
       -2   -1    0    0    0  501  0.00000000000E+00  0.00000000000E+00 -0.13920413008E+04  0.13920413008E+04  0.25500000920E-02 0. -1.
    10030    2    1    2    0    0  0.00000000000E+00  0.00000000000E+00 -0.11469097598E+03  0.26693916256E+04  0.26669266264E+04 0.  0.
        5    1    3    3  502    0  0.13587806072E+02  0.68950441172E+03  0.10849811868E+04  0.12856155055E+04  0.46999998093E+01 0.  1.
       -5    1    3    3    0  502 -0.13587806072E+02 -0.68950441172E+03 -0.11996721628E+04  0.13837761201E+04  0.46999998093E+01 0. -1.
</event>
<event>
 5   0  0.8740500E-06  0.2722594E+04  0.7818609E-02  0.8327711E-01
        4   -1    0    0  501    0  0.00000000000E+00  0.00000000000E+00  0.17857287916E+04  0.17857292432E+04  0.12699999809E+01 0.  1.
       -4   -1    0    0    0  501  0.00000000000E+00  0.00000000000E+00 -0.10377433713E+04  0.10377441484E+04  0.12699999809E+01 0. -1.
    10030    2    1    2    0    0  0.00000000000E+00  0.00000000000E+00  0.74798542028E+03  0.28234733916E+04  0.27225943150E+04 0.  0.
        4    1    3    3  502    0 -0.26699099139E+03  0.10276561759E+04  0.12574780645E+04  0.16457867726E+04  0.12699999809E+01 0.  1.
       -4    1    3    3    0  502  0.26699099139E+03 -0.10276561759E+04 -0.50949264417E+03  0.11776866190E+04  0.12699999809E+01 0. -1.
</event>
<event>
 5   0  0.1005265E-05  0.2669064E+04  0.7818609E-02  0.8345113E-01
       -1   -1    0    0    0  501  0.00000000000E+00  0.00000000000E+00  0.78027032541E+03  0.78027032543E+03  0.50400001928E-02 0. -1.
        1   -1    0    0  501    0  0.00000000000E+00  0.00000000000E+00 -0.22825113070E+04  0.22825113070E+04  0.50400001928E-02 0.  1.
    10030    2    1    2    0    0  0.00000000000E+00  0.00000000000E+00 -0.15022409815E+04  0.30627816324E+04  0.26690641358E+04 0.  0.
        3    1    3    3  502    0  0.12928568897E+03  0.85999079861E+03  0.41046315832E+03  0.96165429215E+03  0.10100000352E+00 0. -1.
       -3    1    3    3    0  502 -0.12928568897E+03 -0.85999079861E+03 -0.19127041399E+04  0.21011273402E+04  0.10100000352E+00 0.  1.
</event>
<event>
 5   0  0.2516518E-05  0.2822680E+04  0.7818609E-02  0.8296262E-01
        2   -1    0    0  501    0  0.00000000000E+00  0.00000000000E+00  0.16561326837E+04  0.16561326837E+04  0.25500000920E-02 0.  1.
       -2   -1    0    0    0  501  0.00000000000E+00  0.00000000000E+00 -0.12027298436E+04  0.12027298436E+04  0.25500000920E-02 0. -1.
    10030    2    1    2    0    0  0.00000000000E+00  0.00000000000E+00  0.45340284012E+03  0.28588625274E+04  0.28226797224E+04 0.  0.
        4    1    3    3  502    0  0.45396550775E+03  0.12735952071E+04 -0.18314505605E+03  0.13644314414E+04  0.12699999809E+01 0. -1.
       -4    1    3    3    0  502 -0.45396550775E+03 -0.12735952071E+04  0.63654789616E+03  0.14944310860E+04  0.12699999809E+01 0.  1.
</event>
<event>
 5   0  0.1005265E-05  0.2659191E+04  0.7818609E-02  0.8348369E-01
       -1   -1    0    0    0  501  0.00000000000E+00  0.00000000000E+00  0.20364023201E+04  0.20364023201E+04  0.50400001928E-02 0. -1.
        1   -1    0    0  501    0  0.00000000000E+00  0.00000000000E+00 -0.86811154602E+03  0.86811154604E+03  0.50400001928E-02 0.  1.
    10030    2    1    2    0    0  0.00000000000E+00  0.00000000000E+00  0.11682907741E+04  0.29045138662E+04  0.26591911300E+04 0.  0.
        3    1    3    3  502    0  0.64275502724E+03 -0.42979818466E+03 -0.59729040124E+03  0.97704469611E+03  0.10100000352E+00 0.  1.
       -3    1    3    3    0  502 -0.64275502724E+03  0.42979818466E+03  0.17655811753E+04  0.19274691701E+04  0.10100000352E+00 0. -1.
</event>
<event>
 5   0  0.9971923E-06  0.2559133E+04  0.7818609E-02  0.8382217E-01
        1   -1    0    0  501    0  0.00000000000E+00  0.00000000000E+00  0.86313200035E+03  0.86313200037E+03  0.50400001928E-02 0.  1.
       -1   -1    0    0    0  501  0.00000000000E+00  0.00000000000E+00 -0.18969177540E+04  0.18969177540E+04  0.50400001928E-02 0. -1.
    10030    2    1    2    0    0  0.00000000000E+00  0.00000000000E+00 -0.10337857536E+04  0.27600497543E+04  0.25591329903E+04 0.  0.
        2    1    3    3  502    0 -0.39354411837E+03  0.55794906977E+02 -0.18286463978E+04  0.18713464920E+04  0.25500000920E-02 0. -1.
       -2    1    3    3    0  502  0.39354411837E+03 -0.55794906977E+02  0.79486064423E+03  0.88870326234E+03  0.25500000920E-02 0.  1.
</event>
<event>
 5   0  0.1036691E-05  0.2703244E+04  0.7818609E-02  0.8333953E-01
        1   -1    0    0  501    0  0.00000000000E+00  0.00000000000E+00  0.26820876600E+04  0.26820876600E+04  0.50400001928E-02 0.  1.
       -1   -1    0    0    0  501  0.00000000000E+00  0.00000000000E+00 -0.68114160058E+03  0.68114160060E+03  0.50400001928E-02 0. -1.
    10030    2    1    2    0    0  0.00000000000E+00  0.00000000000E+00  0.20009460595E+04  0.33632292606E+04  0.27032435937E+04 0.  0.
        4    1    3    3  502    0  0.10896861522E+03  0.39492737629E+03  0.26029783028E+04  0.26350217170E+04  0.12699999809E+01 0.  1.
       -4    1    3    3    0  502 -0.10896861522E+03 -0.39492737629E+03 -0.60203224332E+03  0.72820754359E+03  0.12699999809E+01 0. -1.
</event>
<event>
 5   0  0.2516518E-05  0.2674754E+04  0.7818609E-02  0.8343243E-01
       -2   -1    0    0    0  501  0.00000000000E+00  0.00000000000E+00  0.11534401590E+04  0.11534401590E+04  0.25500000920E-02 0. -1.
        2   -1    0    0  501    0  0.00000000000E+00  0.00000000000E+00 -0.15506463030E+04  0.15506463030E+04  0.25500000920E-02 0.  1.
    10030    2    1    2    0    0  0.00000000000E+00  0.00000000000E+00 -0.39720614402E+03  0.27040864619E+04  0.26747543575E+04 0.  0.
        4    1    3    3  502    0  0.12799963557E+03 -0.68710142203E+02  0.11454389047E+04  0.11546154717E+04  0.12699999809E+01 0. -1.
       -4    1    3    3    0  502 -0.12799963557E+03  0.68710142203E+02 -0.15426450487E+04  0.15494709902E+04  0.12699999809E+01 0.  1.
</event>
<event>
 5   0  0.1041909E-05  0.2774274E+04  0.7818609E-02  0.8311300E-01
        1   -1    0    0  501    0  0.00000000000E+00  0.00000000000E+00  0.16700338570E+04  0.16700338570E+04  0.50400001928E-02 0.  1.
       -1   -1    0    0    0  501  0.00000000000E+00  0.00000000000E+00 -0.11521615637E+04  0.11521615637E+04  0.50400001928E-02 0. -1.
    10030    2    1    2    0    0  0.00000000000E+00  0.00000000000E+00  0.51787229331E+03  0.28221954207E+04  0.27742738294E+04 0.  0.
        5    1    3    3  502    0  0.41958083590E+03 -0.15645034657E+03 -0.10766018397E+04  0.11660267579E+04  0.46999998093E+01 0. -1.
       -5    1    3    3    0  502 -0.41958083590E+03  0.15645034657E+03  0.15944741330E+04  0.16561686628E+04  0.46999998093E+01 0.  1.
</event>
<event>
 5   0  0.1041909E-05  0.2686801E+04  0.7818609E-02  0.8339300E-01
        1   -1    0    0  501    0  0.00000000000E+00  0.00000000000E+00  0.13961354629E+04  0.13961354629E+04  0.50400001928E-02 0.  1.
       -1   -1    0    0    0  501  0.00000000000E+00  0.00000000000E+00 -0.12926572815E+04  0.12926572815E+04  0.50400001928E-02 0. -1.
    10030    2    1    2    0    0  0.00000000000E+00  0.00000000000E+00  0.10347818141E+03  0.26887927444E+04  0.26868008278E+04 0.  0.
        5    1    3    3  502    0 -0.35004653557E+03  0.11063548923E+04 -0.62562966091E+03  0.13183278376E+04  0.46999998093E+01 0. -1.
       -5    1    3    3    0  502  0.35004653557E+03 -0.11063548923E+04  0.72910784232E+03  0.13704649067E+04  0.46999998093E+01 0.  1.
</event>
<event>
 5   0  0.1041909E-05  0.2712780E+04  0.7818609E-02  0.8330870E-01
       -1   -1    0    0    0  501  0.00000000000E+00  0.00000000000E+00  0.94075054091E+03  0.94075054092E+03  0.50400001928E-02 0.  1.
        1   -1    0    0  501    0  0.00000000000E+00  0.00000000000E+00 -0.19556661938E+04  0.19556661938E+04  0.50400001928E-02 0. -1.
    10030    2    1    2    0    0  0.00000000000E+00  0.00000000000E+00 -0.10149156529E+04  0.28964167347E+04  0.27127801457E+04 0.  0.
        5    1    3    3  502    0 -0.20995127536E+03 -0.12796691499E+04 -0.93204445449E+03  0.15969851679E+04  0.46999998093E+01 0. -1.
       -5    1    3    3    0  502  0.20995127536E+03  0.12796691499E+04 -0.82871198387E+02  0.12994315668E+04  0.46999998093E+01 0.  1.
</event>
<event>
 5   0  0.2641216E-05  0.2515002E+04  0.7818609E-02  0.8397661E-01
        2   -1    0    0  501    0  0.00000000000E+00  0.00000000000E+00  0.89875473130E+03  0.89875473131E+03  0.25500000920E-02 0.  1.
       -2   -1    0    0    0  501  0.00000000000E+00  0.00000000000E+00 -0.17594436829E+04  0.17594436829E+04  0.25500000920E-02 0. -1.
    10030    2    1    2    0    0  0.00000000000E+00  0.00000000000E+00 -0.86068895155E+03  0.26581984142E+04  0.25150016576E+04 0.  0.
        5    1    3    3  502    0 -0.10233121552E+04  0.69470090927E+02  0.33860347066E+03  0.10801241877E+04  0.46999998093E+01 0.  1.
       -5    1    3    3    0  502  0.10233121552E+04 -0.69470090927E+02 -0.11992924222E+04  0.15780742265E+04  0.46999998093E+01 0. -1.
</event>
<event>
 5   0  0.2540232E-05  0.2858306E+04  0.7818609E-02  0.8285392E-01
       -2   -1    0    0    0  501  0.00000000000E+00  0.00000000000E+00  0.11808427925E+04  0.11808427925E+04  0.25500000920E-02 0.  1.
        2   -1    0    0  501    0  0.00000000000E+00  0.00000000000E+00 -0.17296779292E+04  0.17296779292E+04  0.25500000920E-02 0. -1.
    10030    2    1    2    0    0  0.00000000000E+00  0.00000000000E+00 -0.54883513670E+03  0.29105207217E+04  0.28583055932E+04 0.  0.
        1    1    3    3  502    0  0.13042422938E+04 -0.16686360736E+03 -0.84463510704E+03  0.15627859381E+04  0.50400001928E-02 0. -1.
       -1    1    3    3    0  502 -0.13042422938E+04  0.16686360736E+03  0.29579997034E+03  0.13477347836E+04  0.50400001928E-02 0.  1.
</event>
<event>
 5   0  0.9971923E-06  0.2710918E+04  0.7818609E-02  0.8331471E-01
       -1   -1    0    0    0  501  0.00000000000E+00  0.00000000000E+00  0.13317669834E+04  0.13317669834E+04  0.50400001928E-02 0.  1.
        1   -1    0    0  501    0  0.00000000000E+00  0.00000000000E+00 -0.13795728374E+04  0.13795728375E+04  0.50400001928E-02 0. -1.
    10030    2    1    2    0    0  0.00000000000E+00  0.00000000000E+00 -0.47805854083E+02  0.27113398208E+04  0.27109183360E+04 0.  0.
        2    1    3    3  502    0  0.12407659682E+04 -0.26752688814E+03  0.45177456362E+03  0.13472828508E+04  0.25500000920E-02 0. -1.
       -2    1    3    3    0  502 -0.12407659682E+04  0.26752688814E+03 -0.49958041771E+03  0.13640569700E+04  0.25500000920E-02 0.  1.
</event>
<event>
 5   0  0.2641216E-05  0.2538479E+04  0.7818609E-02  0.8389404E-01
        2   -1    0    0  501    0  0.00000000000E+00  0.00000000000E+00  0.13155708709E+04  0.13155708709E+04  0.25500000920E-02 0. -1.
       -2   -1    0    0    0  501  0.00000000000E+00  0.00000000000E+00 -0.12245396963E+04  0.12245396963E+04  0.25500000920E-02 0.  1.
    10030    2    1    2    0    0  0.00000000000E+00  0.00000000000E+00  0.91031174589E+02  0.25401105672E+04  0.25384788790E+04 0.  0.
        5    1    3    3  502    0 -0.75734302107E+03  0.10168762784E+04 -0.12321631716E+02  0.12679825431E+04  0.46999998093E+01 0.  1.
       -5    1    3    3    0  502  0.75734302107E+03 -0.10168762784E+04  0.10335280631E+03  0.12721280241E+04  0.46999998093E+01 0. -1.
</event>
<event>
 5   0  0.2540232E-05  0.2701602E+04  0.7818609E-02  0.8334485E-01
        2   -1    0    0  501    0  0.00000000000E+00  0.00000000000E+00  0.30969086007E+04  0.30969086007E+04  0.25500000920E-02 0. -1.
       -2   -1    0    0    0  501  0.00000000000E+00  0.00000000000E+00 -0.58918879964E+03  0.58918879965E+03  0.25500000920E-02 0.  1.
    10030    2    1    2    0    0  0.00000000000E+00  0.00000000000E+00  0.25077198011E+04  0.36860974004E+04  0.27016023846E+04 0.  0.
        1    1    3    3  502    0 -0.81801246444E+03 -0.52236300981E+03  0.25357216899E+04  0.27151228323E+04  0.50400001928E-02 0. -1.
       -1    1    3    3    0  502  0.81801246444E+03  0.52236300981E+03 -0.28001888806E+02  0.97097456805E+03  0.50400001928E-02 0.  1.
</event>
<event>
 5   0  0.2540232E-05  0.2578155E+04  0.7818609E-02  0.8375660E-01
        2   -1    0    0  501    0  0.00000000000E+00  0.00000000000E+00  0.10209915361E+04  0.10209915361E+04  0.25500000920E-02 0.  1.
       -2   -1    0    0    0  501  0.00000000000E+00  0.00000000000E+00 -0.16275556651E+04  0.16275556651E+04  0.25500000920E-02 0. -1.
    10030    2    1    2    0    0  0.00000000000E+00  0.00000000000E+00 -0.60656412898E+03  0.26485472012E+04  0.25781548119E+04 0.  0.
        1    1    3    3  502    0  0.86501625650E+03 -0.27005322556E+03  0.63855890790E+03  0.11085753684E+04  0.50400001928E-02 0.  1.
       -1    1    3    3    0  502 -0.86501625650E+03  0.27005322556E+03 -0.12451230369E+04  0.15399718327E+04  0.50400001928E-02 0. -1.
</event>
<event>
 5   0  0.2615843E-05  0.2703957E+04  0.7818609E-02  0.8333722E-01
       -2   -1    0    0    0  501  0.00000000000E+00  0.00000000000E+00  0.16062967864E+04  0.16062967864E+04  0.25500000920E-02 0.  1.
        2   -1    0    0  501    0  0.00000000000E+00  0.00000000000E+00 -0.11379250187E+04  0.11379250187E+04  0.25500000920E-02 0. -1.
    10030    2    1    2    0    0  0.00000000000E+00  0.00000000000E+00  0.46837176776E+03  0.27442218051E+04  0.27039565830E+04 0.  0.
        3    1    3    3  502    0  0.83255028893E+03  0.46359214038E+02  0.13142495700E+04  0.15564514457E+04  0.10100000352E+00 0.  1.
       -3    1    3    3    0  502 -0.83255028893E+03 -0.46359214038E+02 -0.84587780223E+03  0.11877703595E+04  0.10100000352E+00 0. -1.
</event>
<event>
 5   0  0.1036691E-05  0.2764004E+04  0.7818609E-02  0.8314531E-01
       -1   -1    0    0    0  501  0.00000000000E+00  0.00000000000E+00  0.94048457212E+03  0.94048457214E+03  0.50400001928E-02 0.  1.
        1   -1    0    0  501    0  0.00000000000E+00  0.00000000000E+00 -0.20307934673E+04  0.20307934673E+04  0.50400001928E-02 0. -1.
    10030    2    1    2    0    0  0.00000000000E+00  0.00000000000E+00 -0.10903088952E+04  0.29712780395E+04  0.27640042874E+04 0.  0.
        4    1    3    3  502    0 -0.25055213047E+03 -0.14450469811E+03  0.90758293795E+03  0.95255780928E+03  0.12699999809E+01 0.  1.
       -4    1    3    3    0  502  0.25055213047E+03  0.14450469811E+03 -0.19978918331E+04  0.20187202302E+04  0.12699999809E+01 0. -1.
</event>
<event>
 5   0  0.1036691E-05  0.2662064E+04  0.7818609E-02  0.8347420E-01
        1   -1    0    0  501    0  0.00000000000E+00  0.00000000000E+00  0.17565592309E+04  0.17565592309E+04  0.50400001928E-02 0.  1.
       -1   -1    0    0    0  501  0.00000000000E+00  0.00000000000E+00 -0.10085892333E+04  0.10085892333E+04  0.50400001928E-02 0. -1.
    10030    2    1    2    0    0  0.00000000000E+00  0.00000000000E+00  0.74796999764E+03  0.27651484643E+04  0.26620644079E+04 0.  0.
        4    1    3    3  502    0  0.59504423359E+03  0.94619234422E+03 -0.37669478569E+03  0.11795160731E+04  0.12699999809E+01 0.  1.
       -4    1    3    3    0  502 -0.59504423359E+03 -0.94619234422E+03  0.11246647833E+04  0.15856323912E+04  0.12699999809E+01 0. -1.
</event>
<event>
 5   0  0.1096672E-05  0.2720994E+04  0.7818609E-02  0.8328225E-01
        1   -1    0    0  501    0  0.00000000000E+00  0.00000000000E+00  0.11389854867E+04  0.11389854867E+04  0.50400001928E-02 0. -1.
       -1   -1    0    0    0  501  0.00000000000E+00  0.00000000000E+00 -0.16250881749E+04  0.16250881749E+04  0.50400001928E-02 0.  1.
    10030    2    1    2    0    0  0.00000000000E+00  0.00000000000E+00 -0.48610268821E+03  0.27640736616E+04  0.27209938227E+04 0.  0.
        1    1    3    3  502    0 -0.83553489362E+03 -0.88165674123E+03 -0.86554583952E+03  0.14915115716E+04  0.50400001928E-02 0.  1.
       -1    1    3    3    0  502  0.83553489362E+03  0.88165674123E+03  0.37944315132E+03  0.12725620900E+04  0.50400001928E-02 0. -1.
</event>
<event>
 5   0  0.2641216E-05  0.2743773E+04  0.7818609E-02  0.8320940E-01
       -2   -1    0    0    0  501  0.00000000000E+00  0.00000000000E+00  0.12029257786E+04  0.12029257786E+04  0.25500000920E-02 0.  1.
        2   -1    0    0  501    0  0.00000000000E+00  0.00000000000E+00 -0.15645788856E+04  0.15645788856E+04  0.25500000920E-02 0. -1.
    10030    2    1    2    0    0  0.00000000000E+00  0.00000000000E+00 -0.36165310702E+03  0.27675046643E+04  0.27437727852E+04 0.  0.
        5    1    3    3  502    0 -0.30883364455E+03 -0.41837346754E+03 -0.14613090439E+04  0.15510837470E+04  0.46999998093E+01 0. -1.
       -5    1    3    3    0  502  0.30883364455E+03  0.41837346754E+03  0.10996559369E+04  0.12164209173E+04  0.46999998093E+01 0.  1.
</event>
<event>
 5   0  0.1096672E-05  0.2680744E+04  0.7818609E-02  0.8341280E-01
       -1   -1    0    0    0  501  0.00000000000E+00  0.00000000000E+00  0.62865175403E+03  0.62865175405E+03  0.50400001928E-02 0. -1.
        1   -1    0    0  501    0  0.00000000000E+00  0.00000000000E+00 -0.28578574707E+04  0.28578574708E+04  0.50400001928E-02 0.  1.
    10030    2    1    2    0    0  0.00000000000E+00  0.00000000000E+00 -0.22292057167E+04  0.34865092248E+04  0.26807440100E+04 0.  0.
        1    1    3    3  502    0 -0.14264548207E+03 -0.12686641546E+04 -0.16456782864E+04  0.20828138402E+04  0.50400001928E-02 0. -1.
       -1    1    3    3    0  502  0.14264548207E+03  0.12686641546E+04 -0.58352743035E+03  0.14036953846E+04  0.50400001928E-02 0.  1.
</event>
<event>
 5   0  0.2641216E-05  0.2724320E+04  0.7818609E-02  0.8327157E-01
        2   -1    0    0  501    0  0.00000000000E+00  0.00000000000E+00  0.14990239372E+04  0.14990239372E+04  0.25500000920E-02 0.  1.
       -2   -1    0    0    0  501  0.00000000000E+00  0.00000000000E+00 -0.12377918630E+04  0.12377918630E+04  0.25500000920E-02 0. -1.
    10030    2    1    2    0    0  0.00000000000E+00  0.00000000000E+00  0.26123207425E+03  0.27368158002E+04  0.27243198284E+04 0.  0.
        5    1    3    3  502    0 -0.15111581746E+03  0.33341979938E+03  0.14486755971E+04  0.14942181329E+04  0.46999998093E+01 0.  1.
       -5    1    3    3    0  502  0.15111581746E+03 -0.33341979938E+03 -0.11874435229E+04  0.12425976673E+04  0.46999998093E+01 0. -1.
</event>
<event>
 5   0  0.2540232E-05  0.2685817E+04  0.7818609E-02  0.8339622E-01
       -2   -1    0    0    0  501  0.00000000000E+00  0.00000000000E+00  0.12120203409E+04  0.12120203409E+04  0.25500000920E-02 0.  1.
        2   -1    0    0  501    0  0.00000000000E+00  0.00000000000E+00 -0.14879315334E+04  0.14879315334E+04  0.25500000920E-02 0. -1.
    10030    2    1    2    0    0  0.00000000000E+00  0.00000000000E+00 -0.27591119247E+03  0.26999518743E+04  0.26858170335E+04 0.  0.
        1    1    3    3  502    0 -0.45574047068E+03  0.68841668684E+03 -0.12026737998E+04  0.14587807169E+04  0.50400001928E-02 0. -1.
       -1    1    3    3    0  502  0.45574047068E+03 -0.68841668684E+03  0.92676260735E+03  0.12411711573E+04  0.50400001928E-02 0.  1.
</event>
<event>
 5   0  0.2516518E-05  0.2664368E+04  0.7818609E-02  0.8346660E-01
       -2   -1    0    0    0  501  0.00000000000E+00  0.00000000000E+00  0.83856414060E+03  0.83856414060E+03  0.25500000920E-02 0.  1.
        2   -1    0    0  501    0  0.00000000000E+00  0.00000000000E+00 -0.21163729863E+04  0.21163729863E+04  0.25500000920E-02 0. -1.
    10030    2    1    2    0    0  0.00000000000E+00  0.00000000000E+00 -0.12778088457E+04  0.29549371269E+04  0.26643682136E+04 0.  0.
        4    1    3    3  502    0  0.38900665870E+03 -0.12157291507E+04 -0.21602137761E+03  0.12946004777E+04  0.12699999809E+01 0.  1.
       -4    1    3    3    0  502 -0.38900665870E+03  0.12157291507E+04 -0.10617874680E+04  0.16603366492E+04  0.12699999809E+01 0. -1.
</event>
<event>
 5   0  0.2641216E-05  0.2675795E+04  0.7818609E-02  0.8342901E-01
       -2   -1    0    0    0  501  0.00000000000E+00  0.00000000000E+00  0.86749537638E+03  0.86749537638E+03  0.25500000920E-02 0.  1.
        2   -1    0    0  501    0  0.00000000000E+00  0.00000000000E+00 -0.20633774377E+04  0.20633774377E+04  0.25500000920E-02 0. -1.
    10030    2    1    2    0    0  0.00000000000E+00  0.00000000000E+00 -0.11958820613E+04  0.29308728141E+04  0.26757954981E+04 0.  0.
        5    1    3    3  502    0 -0.55595817453E+03  0.86880272173E+03  0.33536595836E+03  0.10846197846E+04  0.46999998093E+01 0.  1.
       -5    1    3    3    0  502  0.55595817453E+03 -0.86880272173E+03 -0.15312480197E+04  0.18462530295E+04  0.46999998093E+01 0. -1.
</event>
<event>
 5   0  0.1036691E-05  0.2650145E+04  0.7818609E-02  0.8351365E-01
        1   -1    0    0  501    0  0.00000000000E+00  0.00000000000E+00  0.18705537385E+04  0.18705537385E+04  0.50400001928E-02 0. -1.
       -1   -1    0    0    0  501  0.00000000000E+00  0.00000000000E+00 -0.93866138847E+03  0.93866138849E+03  0.50400001928E-02 0.  1.
    10030    2    1    2    0    0  0.00000000000E+00  0.00000000000E+00  0.93189234998E+03  0.28092151269E+04  0.26501445767E+04 0.  0.
        4    1    3    3  502    0  0.16205412436E+03 -0.99435528938E+03  0.13783122645E+04  0.17072639784E+04  0.12699999809E+01 0. -1.
       -4    1    3    3    0  502 -0.16205412436E+03  0.99435528938E+03 -0.44641991451E+03  0.11019511485E+04  0.12699999809E+01 0.  1.
</event>
<event>
 5   0  0.2540232E-05  0.2654161E+04  0.7818609E-02  0.8350033E-01
        2   -1    0    0  501    0  0.00000000000E+00  0.00000000000E+00  0.15282192783E+04  0.15282192784E+04  0.25500000920E-02 0. -1.
       -2   -1    0    0    0  501  0.00000000000E+00  0.00000000000E+00 -0.11524149441E+04  0.11524149441E+04  0.25500000920E-02 0.  1.
    10030    2    1    2    0    0  0.00000000000E+00  0.00000000000E+00  0.37580433429E+03  0.26806342224E+04  0.26541610608E+04 0.  0.
        1    1    3    3  502    0  0.85598064093E+03  0.80566333727E+03 -0.43415214384E+03  0.12531098734E+04  0.50400001928E-02 0.  1.
       -1    1    3    3    0  502 -0.85598064093E+03 -0.80566333727E+03  0.80995647813E+03  0.14275243491E+04  0.50400001928E-02 0. -1.
</event>
<event>
 5   0  0.1036691E-05  0.2709950E+04  0.7818609E-02  0.8331784E-01
       -1   -1    0    0    0  501  0.00000000000E+00  0.00000000000E+00  0.97583463992E+03  0.97583463993E+03  0.50400001928E-02 0.  1.
        1   -1    0    0  501    0  0.00000000000E+00  0.00000000000E+00 -0.18814219157E+04  0.18814219157E+04  0.50400001928E-02 0. -1.
    10030    2    1    2    0    0  0.00000000000E+00  0.00000000000E+00 -0.90558727580E+03  0.28572565557E+04  0.27099495772E+04 0.  0.
        4    1    3    3  502    0 -0.68483860937E+03  0.11486440810E+04 -0.22283744798E+03  0.13557452883E+04  0.12699999809E+01 0.  1.
       -4    1    3    3    0  502  0.68483860937E+03 -0.11486440810E+04 -0.68274982782E+03  0.15015112673E+04  0.12699999809E+01 0. -1.
</event>
<event>
 5   0  0.9971923E-06  0.2685925E+04  0.7818609E-02  0.8339586E-01
       -1   -1    0    0    0  501  0.00000000000E+00  0.00000000000E+00  0.83479677788E+03  0.83479677790E+03  0.50400001928E-02 0.  1.
        1   -1    0    0  501    0  0.00000000000E+00  0.00000000000E+00 -0.21604637117E+04  0.21604637118E+04  0.50400001928E-02 0. -1.
    10030    2    1    2    0    0  0.00000000000E+00  0.00000000000E+00 -0.13256669339E+04  0.29952604897E+04  0.26859249024E+04 0.  0.
        2    1    3    3  502    0  0.10837672385E+04 -0.37468989551E+03  0.11667229557E+03  0.11526301964E+04  0.25500000920E-02 0.  1.
       -2    1    3    3    0  502 -0.10837672385E+04  0.37468989551E+03 -0.14423392294E+04  0.18426302933E+04  0.25500000920E-02 0. -1.
</event>
<event>
 5   0  0.9971923E-06  0.2694391E+04  0.7818609E-02  0.8336827E-01
       -1   -1    0    0    0  501  0.00000000000E+00  0.00000000000E+00  0.99550839587E+03  0.99550839589E+03  0.50400001928E-02 0.  1.
        1   -1    0    0  501    0  0.00000000000E+00  0.00000000000E+00 -0.18231238457E+04  0.18231238457E+04  0.50400001928E-02 0. -1.
    10030    2    1    2    0    0  0.00000000000E+00  0.00000000000E+00 -0.82761544983E+03  0.28186322416E+04  0.26943905397E+04 0.  0.
        2    1    3    3  502    0 -0.13606401861E+03 -0.11987805435E+04  0.21328940578E+03  0.12251859366E+04  0.25500000920E-02 0.  1.
       -2    1    3    3    0  502  0.13606401861E+03  0.11987805435E+04 -0.10409048556E+04  0.15934463050E+04  0.25500000920E-02 0. -1.
</event>
<event>
 5   0  0.1096672E-05  0.2615182E+04  0.7818609E-02  0.8363063E-01
       -1   -1    0    0    0  501  0.00000000000E+00  0.00000000000E+00  0.94488475740E+03  0.94488475742E+03  0.50400001928E-02 0. -1.
        1   -1    0    0  501    0  0.00000000000E+00  0.00000000000E+00 -0.18095261856E+04  0.18095261856E+04  0.50400001928E-02 0.  1.
    10030    2    1    2    0    0  0.00000000000E+00  0.00000000000E+00 -0.86464142820E+03  0.27544109430E+04  0.26151816082E+04 0.  0.
        1    1    3    3  502    0 -0.13016596900E+04 -0.36892947040E+02 -0.30719047088E+03  0.13379256420E+04  0.50400001928E-02 0. -1.
       -1    1    3    3    0  502  0.13016596900E+04  0.36892947040E+02 -0.55745095732E+03  0.14164853010E+04  0.50400001928E-02 0.  1.
</event>
<event>
 5   0  0.1036691E-05  0.2692493E+04  0.7818609E-02  0.8337445E-01
       -1   -1    0    0    0  501  0.00000000000E+00  0.00000000000E+00  0.82340654242E+03  0.82340654243E+03  0.50400001928E-02 0. -1.
        1   -1    0    0  501    0  0.00000000000E+00  0.00000000000E+00 -0.22010743047E+04  0.22010743047E+04  0.50400001928E-02 0.  1.
    10030    2    1    2    0    0  0.00000000000E+00  0.00000000000E+00 -0.13776677623E+04  0.30244808471E+04  0.26924925128E+04 0.  0.
        4    1    3    3  502    0 -0.20238646358E+02 -0.37035349628E+03  0.76487885549E+03  0.85006622770E+03  0.12699999809E+01 0. -1.
       -4    1    3    3    0  502  0.20238646358E+02  0.37035349628E+03 -0.21425466178E+04  0.21744146194E+04  0.12699999809E+01 0.  1.
</event>
<event>
 5   0  0.2516518E-05  0.2739724E+04  0.7818609E-02  0.8322230E-01
       -2   -1    0    0    0  501  0.00000000000E+00  0.00000000000E+00  0.13126383382E+04  0.13126383383E+04  0.25500000920E-02 0. -1.
        2   -1    0    0  501    0  0.00000000000E+00  0.00000000000E+00 -0.14295805267E+04  0.14295805267E+04  0.25500000920E-02 0.  1.
    10030    2    1    2    0    0  0.00000000000E+00  0.00000000000E+00 -0.11694218840E+03  0.27422188649E+04  0.27397242247E+04 0.  0.
        4    1    3    3  502    0  0.14663774774E+03 -0.13593545559E+04 -0.14324270081E+03  0.13747245258E+04  0.12699999809E+01 0.  1.
       -4    1    3    3    0  502 -0.14663774774E+03  0.13593545559E+04  0.26300512408E+02  0.13674943391E+04  0.12699999809E+01 0. -1.
</event>
<event>
 5   0  0.2540684E-05  0.2699271E+04  0.7818609E-02  0.8335242E-01
        2   -1    0    0  501    0  0.00000000000E+00  0.00000000000E+00  0.13267294461E+04  0.13267294461E+04  0.25500000920E-02 0.  1.
       -2   -1    0    0    0  501  0.00000000000E+00  0.00000000000E+00 -0.13729368784E+04  0.13729368784E+04  0.25500000920E-02 0. -1.
    10030    2    1    2    0    0  0.00000000000E+00  0.00000000000E+00 -0.46207432302E+02  0.26996663244E+04  0.26992708528E+04 0.  0.
        2    1    3    3  502    0  0.84558023487E+03  0.21692715989E+03  0.10063441565E+04  0.13322131540E+04  0.25500000920E-02 0.  1.
       -2    1    3    3    0  502 -0.84558023487E+03 -0.21692715989E+03 -0.10525515888E+04  0.13674531705E+04  0.25500000920E-02 0. -1.
</event>
<event>
 5   0  0.1041909E-05  0.2715422E+04  0.7818609E-02  0.8330019E-01
        1   -1    0    0  501    0  0.00000000000E+00  0.00000000000E+00  0.15752061629E+04  0.15752061629E+04  0.50400001928E-02 0. -1.
       -1   -1    0    0    0  501  0.00000000000E+00  0.00000000000E+00 -0.11702458612E+04  0.11702458612E+04  0.50400001928E-02 0.  1.
    10030    2    1    2    0    0  0.00000000000E+00  0.00000000000E+00  0.40496030172E+03  0.27454520241E+04  0.27154215089E+04 0.  0.
        5    1    3    3  502    0 -0.55947102888E+03 -0.99631774895E+03 -0.53890934243E+03  0.12633694069E+04  0.46999998093E+01 0.  1.
       -5    1    3    3    0  502  0.55947102888E+03  0.99631774895E+03  0.94386964415E+03  0.14820826172E+04  0.46999998093E+01 0. -1.
</event>
<event>
 5   0  0.2540684E-05  0.2714051E+04  0.7818609E-02  0.8330460E-01
       -2   -1    0    0    0  501  0.00000000000E+00  0.00000000000E+00  0.16558351675E+04  0.16558351675E+04  0.25500000920E-02 0. -1.
        2   -1    0    0  501    0  0.00000000000E+00  0.00000000000E+00 -0.11121385062E+04  0.11121385062E+04  0.25500000920E-02 0.  1.
    10030    2    1    2    0    0  0.00000000000E+00  0.00000000000E+00  0.54369666134E+03  0.27679736737E+04  0.27140508835E+04 0.  0.
        2    1    3    3  502    0 -0.76931116347E+03 -0.87026664338E+03 -0.44374324339E+03  0.12434274257E+04  0.25500000920E-02 0.  1.
       -2    1    3    3    0  502  0.76931116347E+03  0.87026664338E+03  0.98743990473E+03  0.15245462480E+04  0.25500000920E-02 0. -1.
</event>
<event>
 5   0  0.1041909E-05  0.2723756E+04  0.7818609E-02  0.8327338E-01
        1   -1    0    0  501    0  0.00000000000E+00  0.00000000000E+00  0.90552088383E+03  0.90552088384E+03  0.50400001928E-02 0.  1.
       -1   -1    0    0    0  501  0.00000000000E+00  0.00000000000E+00 -0.20482266418E+04  0.20482266418E+04  0.50400001928E-02 0. -1.
    10030    2    1    2    0    0  0.00000000000E+00  0.00000000000E+00 -0.11427057580E+04  0.29537475257E+04  0.27237562292E+04 0.  0.
        5    1    3    3  502    0  0.62576687067E+03 -0.51176830493E+03 -0.17598895981E+04  0.19366787193E+04  0.46999998093E+01 0. -1.
       -5    1    3    3    0  502 -0.62576687067E+03  0.51176830493E+03  0.61718384011E+03  0.10170688064E+04  0.46999998093E+01 0.  1.
</event>
<event>
 5   0  0.2540232E-05  0.2761235E+04  0.7818609E-02  0.8315405E-01
        2   -1    0    0  501    0  0.00000000000E+00  0.00000000000E+00  0.63793465156E+03  0.63793465156E+03  0.25500000920E-02 0.  1.
       -2   -1    0    0    0  501  0.00000000000E+00  0.00000000000E+00 -0.29879317322E+04  0.29879317322E+04  0.25500000920E-02 0. -1.
    10030    2    1    2    0    0  0.00000000000E+00  0.00000000000E+00 -0.23499970807E+04  0.36258663838E+04  0.27612353674E+04 0.  0.
        1    1    3    3  502    0 -0.93473210644E+03 -0.29308820773E+03  0.10251107151E+03  0.98495346496E+03  0.50400001928E-02 0.  1.
       -1    1    3    3    0  502  0.93473210644E+03  0.29308820773E+03 -0.24525081522E+04  0.26409129188E+04  0.50400001928E-02 0. -1.
</event>
<event>
 5   0  0.2516518E-05  0.2700339E+04  0.7818609E-02  0.8334895E-01
        2   -1    0    0  501    0  0.00000000000E+00  0.00000000000E+00  0.12592315996E+04  0.12592315996E+04  0.25500000920E-02 0. -1.
       -2   -1    0    0    0  501  0.00000000000E+00  0.00000000000E+00 -0.14476748828E+04  0.14476748828E+04  0.25500000920E-02 0.  1.
    10030    2    1    2    0    0  0.00000000000E+00  0.00000000000E+00 -0.18844328323E+03  0.27069064824E+04  0.27003392071E+04 0.  0.
        4    1    3    3  502    0  0.44699154941E+03 -0.10704146166E+04  0.59837651411E+03  0.13052375118E+04  0.12699999809E+01 0. -1.
       -4    1    3    3    0  502 -0.44699154941E+03  0.10704146166E+04 -0.78681979734E+03  0.14016689706E+04  0.12699999809E+01 0.  1.
</event>
<event>
 5   0  0.1005265E-05  0.2721966E+04  0.7818609E-02  0.8327913E-01
        1   -1    0    0  501    0  0.00000000000E+00  0.00000000000E+00  0.95857118216E+03  0.95857118218E+03  0.50400001928E-02 0.  1.
       -1   -1    0    0    0  501  0.00000000000E+00  0.00000000000E+00 -0.19323291361E+04  0.19323291361E+04  0.50400001928E-02 0. -1.
    10030    2    1    2    0    0  0.00000000000E+00  0.00000000000E+00 -0.97375795392E+03  0.28909003183E+04  0.27219662190E+04 0.  0.
        3    1    3    3  502    0 -0.62677813544E+03 -0.89321258463E+03  0.37698754655E+03  0.11544692169E+04  0.10100000352E+00 0. -1.
       -3    1    3    3    0  502  0.62677813544E+03  0.89321258463E+03 -0.13507455005E+04  0.17364311013E+04  0.10100000352E+00 0.  1.
</event>
<event>
 5   0  0.2516518E-05  0.2682316E+04  0.7818609E-02  0.8340766E-01
       -2   -1    0    0    0  501  0.00000000000E+00  0.00000000000E+00  0.15520727058E+04  0.15520727058E+04  0.25500000920E-02 0. -1.
        2   -1    0    0  501    0  0.00000000000E+00  0.00000000000E+00 -0.11589048609E+04  0.11589048609E+04  0.25500000920E-02 0.  1.
    10030    2    1    2    0    0  0.00000000000E+00  0.00000000000E+00  0.39316784489E+03  0.27109775668E+04  0.26823158676E+04 0.  0.
        4    1    3    3  502    0 -0.88161054020E+03 -0.37572069159E+03  0.11448523884E+04  0.14930143290E+04  0.12699999809E+01 0. -1.
       -4    1    3    3    0  502  0.88161054020E+03  0.37572069159E+03 -0.75168454348E+03  0.12179632377E+04  0.12699999809E+01 0.  1.
</event>
<event>
 5   0  0.2641216E-05  0.2678565E+04  0.7818609E-02  0.8341994E-01
       -2   -1    0    0    0  501  0.00000000000E+00  0.00000000000E+00  0.10076397882E+04  0.10076397882E+04  0.25500000920E-02 0. -1.
        2   -1    0    0  501    0  0.00000000000E+00  0.00000000000E+00 -0.17800781428E+04  0.17800781428E+04  0.25500000920E-02 0.  1.
    10030    2    1    2    0    0  0.00000000000E+00  0.00000000000E+00 -0.77243835466E+03  0.27877179310E+04  0.26785649612E+04 0.  0.
        5    1    3    3  502    0  0.40211468611E+02 -0.45166349750E+03  0.92530762951E+03  0.10304528987E+04  0.46999998093E+01 0. -1.
       -5    1    3    3    0  502 -0.40211468611E+02  0.45166349750E+03 -0.16977459842E+04  0.17572650324E+04  0.46999998093E+01 0.  1.
</event>
<event>
 5   0  0.2540232E-05  0.2688935E+04  0.7818609E-02  0.8338604E-01
       -2   -1    0    0    0  501  0.00000000000E+00  0.00000000000E+00  0.13379939512E+04  0.13379939512E+04  0.25500000920E-02 0.  1.
        2   -1    0    0  501    0  0.00000000000E+00  0.00000000000E+00 -0.13509724555E+04  0.13509724555E+04  0.25500000920E-02 0. -1.
    10030    2    1    2    0    0  0.00000000000E+00  0.00000000000E+00 -0.12978504289E+02  0.26889664067E+04  0.26889350856E+04 0.  0.
        1    1    3    3  502    0 -0.75731283815E+03 -0.11102245858E+04 -0.44851241720E+02  0.13446683604E+04  0.50400001928E-02 0. -1.
       -1    1    3    3    0  502  0.75731283815E+03  0.11102245858E+04  0.31872737431E+02  0.13442980462E+04  0.50400001928E-02 0.  1.
</event>
<event>
 5   0  0.1036691E-05  0.2839957E+04  0.7818609E-02  0.8290970E-01
       -1   -1    0    0    0  501  0.00000000000E+00  0.00000000000E+00  0.14979095254E+04  0.14979095254E+04  0.50400001928E-02 0. -1.
        1   -1    0    0  501    0  0.00000000000E+00  0.00000000000E+00 -0.13461016936E+04  0.13461016936E+04  0.50400001928E-02 0.  1.
    10030    2    1    2    0    0  0.00000000000E+00  0.00000000000E+00  0.15180783187E+03  0.28440112190E+04  0.28399567243E+04 0.  0.
        4    1    3    3  502    0  0.35003667141E+03 -0.10137461435E+03  0.14502824619E+04  0.14953672847E+04  0.12699999809E+01 0. -1.
       -4    1    3    3    0  502 -0.35003667141E+03  0.10137461435E+03 -0.12984746301E+04  0.13486439343E+04  0.12699999809E+01 0.  1.
</event>
<event>
 5   0  0.2540232E-05  0.2700795E+04  0.7818609E-02  0.8334747E-01
       -2   -1    0    0    0  501  0.00000000000E+00  0.00000000000E+00  0.10444184150E+04  0.10444184150E+04  0.25500000920E-02 0. -1.
        2   -1    0    0  501    0  0.00000000000E+00  0.00000000000E+00 -0.17460186978E+04  0.17460186978E+04  0.25500000920E-02 0.  1.
    10030    2    1    2    0    0  0.00000000000E+00  0.00000000000E+00 -0.70160028286E+03  0.27904371128E+04  0.27007954983E+04 0.  0.
        1    1    3    3  502    0 -0.36402479655E+03 -0.18049062588E+03 -0.16813650691E+04  0.17297628202E+04  0.50400001928E-02 0.  1.
       -1    1    3    3    0  502  0.36402479655E+03  0.18049062588E+03  0.97976478627E+03  0.10606742926E+04  0.50400001928E-02 0. -1.
</event>
<event>
 5   0  0.9971923E-06  0.2652777E+04  0.7818609E-02  0.8350492E-01
        1   -1    0    0  501    0  0.00000000000E+00  0.00000000000E+00  0.19734297346E+04  0.19734297346E+04  0.50400001928E-02 0.  1.
       -1   -1    0    0    0  501  0.00000000000E+00  0.00000000000E+00 -0.89149718292E+03  0.89149718293E+03  0.50400001928E-02 0. -1.
    10030    2    1    2    0    0  0.00000000000E+00  0.00000000000E+00  0.10819325517E+04  0.28649269175E+04  0.26527774495E+04 0.  0.
        2    1    3    3  502    0  0.71155184967E+03  0.83330998431E+03 -0.26619708709E+03  0.11276402147E+04  0.25500000920E-02 0. -1.
       -2    1    3    3    0  502 -0.71155184967E+03 -0.83330998431E+03  0.13481296388E+04  0.17372867028E+04  0.25500000920E-02 0.  1.
</event>
<event>
 5   0  0.2615843E-05  0.1684439E+04  0.7818609E-02  0.8770289E-01
       -2   -1    0    0    0  501  0.00000000000E+00  0.00000000000E+00  0.66516546793E+03  0.66516546793E+03  0.25500000920E-02 0.  1.
        2   -1    0    0  501    0  0.00000000000E+00  0.00000000000E+00 -0.10664018178E+04  0.10664018178E+04  0.25500000920E-02 0. -1.
    10030    2    1    2    0    0  0.00000000000E+00  0.00000000000E+00 -0.40123634989E+03  0.17315672857E+04  0.16844389738E+04 0.  0.
        3    1    3    3  502    0 -0.66667156759E+03  0.14807748274E+02 -0.72946638523E+03  0.98832761058E+03  0.10100000352E+00 0. -1.
       -3    1    3    3    0  502  0.66667156759E+03 -0.14807748274E+02  0.32823003535E+03  0.74323967517E+03  0.10100000352E+00 0.  1.
</event>
<event>
 5   0  0.1036691E-05  0.2051218E+04  0.7818609E-02  0.8583042E-01
       -1   -1    0    0    0  501  0.00000000000E+00  0.00000000000E+00  0.11082374175E+04  0.11082374175E+04  0.50400001928E-02 0. -1.
        1   -1    0    0  501    0  0.00000000000E+00  0.00000000000E+00 -0.94914107548E+03  0.94914107549E+03  0.50400001928E-02 0.  1.
    10030    2    1    2    0    0  0.00000000000E+00  0.00000000000E+00  0.15909634199E+03  0.20573784930E+04  0.20512178376E+04 0.  0.
        4    1    3    3  502    0  0.40879630681E+03  0.39293691483E+03 -0.77762854678E+03  0.96240407790E+03  0.12699999809E+01 0.  1.
       -4    1    3    3    0  502 -0.40879630681E+03 -0.39293691483E+03  0.93672488877E+03  0.10949744151E+04  0.12699999809E+01 0. -1.
</event>
<event>
 5   0  0.1036691E-05  0.2779219E+04  0.7818609E-02  0.8309749E-01
       -1   -1    0    0    0  501  0.00000000000E+00  0.00000000000E+00  0.11527436217E+04  0.11527436217E+04  0.50400001928E-02 0. -1.
        1   -1    0    0  501    0  0.00000000000E+00  0.00000000000E+00 -0.16751468664E+04  0.16751468664E+04  0.50400001928E-02 0.  1.
    10030    2    1    2    0    0  0.00000000000E+00  0.00000000000E+00 -0.52240324469E+03  0.28278904881E+04  0.27792192182E+04 0.  0.
        4    1    3    3  502    0  0.10539123338E+04 -0.14096858314E+03  0.64912241343E+03  0.12457788204E+04  0.12699999809E+01 0. -1.
       -4    1    3    3    0  502 -0.10539123338E+04  0.14096858314E+03 -0.11715256581E+04  0.15821116678E+04  0.12699999809E+01 0.  1.
</event>
<event>
 5   0  0.2540232E-05  0.2726612E+04  0.7818609E-02  0.8326422E-01
        2   -1    0    0  501    0  0.00000000000E+00  0.00000000000E+00  0.13512082829E+04  0.13512082829E+04  0.25500000920E-02 0.  1.
       -2   -1    0    0    0  501  0.00000000000E+00  0.00000000000E+00 -0.13755120944E+04  0.13755120944E+04  0.25500000920E-02 0. -1.
    10030    2    1    2    0    0  0.00000000000E+00  0.00000000000E+00 -0.24303811526E+02  0.27267203773E+04  0.27266120628E+04 0.  0.
        1    1    3    3  502    0 -0.54666653042E+03 -0.37416535455E+03  0.11794319684E+04  0.13527393600E+04  0.50400001928E-02 0.  1.
       -1    1    3    3    0  502  0.54666653042E+03  0.37416535455E+03 -0.12037357799E+04  0.13739810173E+04  0.50400001928E-02 0. -1.
</event>
<event>
 5   0  0.2516518E-05  0.2710812E+04  0.7818609E-02  0.8331505E-01
       -2   -1    0    0    0  501  0.00000000000E+00  0.00000000000E+00  0.16630485145E+04  0.16630485145E+04  0.25500000920E-02 0. -1.
        2   -1    0    0  501    0  0.00000000000E+00  0.00000000000E+00 -0.11046730994E+04  0.11046730994E+04  0.25500000920E-02 0.  1.
    10030    2    1    2    0    0  0.00000000000E+00  0.00000000000E+00  0.55837541504E+03  0.27677216139E+04  0.27108116548E+04 0.  0.
        4    1    3    3  502    0  0.52658004747E+03 -0.19103033142E+03  0.15393372447E+04  0.16380903210E+04  0.12699999809E+01 0. -1.
       -4    1    3    3    0  502 -0.52658004747E+03  0.19103033142E+03 -0.98096182962E+03  0.11296312929E+04  0.12699999809E+01 0.  1.
</event>
<event>
 5   0  0.1041909E-05  0.2716671E+04  0.7818609E-02  0.8329616E-01
       -1   -1    0    0    0  501  0.00000000000E+00  0.00000000000E+00  0.88502019300E+03  0.88502019301E+03  0.50400001928E-02 0. -1.
        1   -1    0    0  501    0  0.00000000000E+00  0.00000000000E+00 -0.20847831596E+04  0.20847831597E+04  0.50400001928E-02 0.  1.
    10030    2    1    2    0    0  0.00000000000E+00  0.00000000000E+00 -0.11997629666E+04  0.29698033527E+04  0.27166708997E+04 0.  0.
        5    1    3    3  502    0  0.71801761606E+02 -0.12934007121E+04 -0.10466317012E+04  0.16653831100E+04  0.46999998093E+01 0.  1.
       -5    1    3    3    0  502 -0.71801761606E+02  0.12934007121E+04 -0.15313126546E+03  0.13044202427E+04  0.46999998093E+01 0. -1.
</event>
<event>
 5   0  0.2540232E-05  0.2212821E+04  0.7818609E-02  0.8513111E-01
       -2   -1    0    0    0  501  0.00000000000E+00  0.00000000000E+00  0.72178883437E+03  0.72178883438E+03  0.25500000920E-02 0.  1.
        2   -1    0    0  501    0  0.00000000000E+00  0.00000000000E+00 -0.16959869588E+04  0.16959869588E+04  0.25500000920E-02 0. -1.
    10030    2    1    2    0    0  0.00000000000E+00  0.00000000000E+00 -0.97419812443E+03  0.24177757932E+04  0.22128212310E+04 0.  0.
        1    1    3    3  502    0  0.62653699178E+03 -0.77405503860E+03 -0.10138679618E+04  0.14211397007E+04  0.50400001928E-02 0. -1.
       -1    1    3    3    0  502 -0.62653699178E+03  0.77405503860E+03  0.39669837366E+02  0.99663609250E+03  0.50400001928E-02 0.  1.
</event>
<event>
 5   0  0.2615843E-05  0.2485629E+04  0.7818609E-02  0.8408123E-01
       -2   -1    0    0    0  501  0.00000000000E+00  0.00000000000E+00  0.88910949824E+03  0.88910949824E+03  0.25500000920E-02 0.  1.
        2   -1    0    0  501    0  0.00000000000E+00  0.00000000000E+00 -0.17372298259E+04  0.17372298259E+04  0.25500000920E-02 0. -1.
    10030    2    1    2    0    0  0.00000000000E+00  0.00000000000E+00 -0.84812032763E+03  0.26263393241E+04  0.24856287243E+04 0.  0.
        3    1    3    3  502    0  0.44936186330E+03 -0.36402579100E+03  0.73828090254E+03  0.93781637966E+03  0.10100000352E+00 0.  1.
       -3    1    3    3    0  502 -0.44936186330E+03  0.36402579100E+03 -0.15864012302E+04  0.16885229445E+04  0.10100000352E+00 0. -1.
</event>
<event>
 5   0  0.1096672E-05  0.1673085E+04  0.7818609E-02  0.8776865E-01
       -1   -1    0    0    0  501  0.00000000000E+00  0.00000000000E+00  0.30685897928E+03  0.30685897933E+03  0.50400001928E-02 0.  1.
        1   -1    0    0  501    0  0.00000000000E+00  0.00000000000E+00 -0.22805380517E+04  0.22805380517E+04  0.50400001928E-02 0. -1.
    10030    2    1    2    0    0  0.00000000000E+00  0.00000000000E+00 -0.19736790724E+04  0.25873970310E+04  0.16730852684E+04 0.  0.
        1    1    3    3  502    0 -0.65678400252E+03  0.12862347429E+03 -0.17630048266E+04  0.18857611839E+04  0.50400001928E-02 0. -1.
       -1    1    3    3    0  502  0.65678400252E+03 -0.12862347429E+03 -0.21067424584E+03  0.70163584714E+03  0.50400001928E-02 0.  1.
</event>
<event>
 5   0  0.1036691E-05  0.2964971E+04  0.7818609E-02  0.8253805E-01
       -1   -1    0    0    0  501  0.00000000000E+00  0.00000000000E+00  0.12455841510E+04  0.12455841510E+04  0.50400001928E-02 0. -1.
        1   -1    0    0  501    0  0.00000000000E+00  0.00000000000E+00 -0.17644442881E+04  0.17644442881E+04  0.50400001928E-02 0.  1.
    10030    2    1    2    0    0  0.00000000000E+00  0.00000000000E+00 -0.51886013711E+03  0.30100284390E+04  0.29649713931E+04 0.  0.
        4    1    3    3  502    0  0.39957411304E+03 -0.12598046901E+04  0.42233682169E+03  0.13874931830E+04  0.12699999809E+01 0. -1.
       -4    1    3    3    0  502 -0.39957411304E+03  0.12598046901E+04 -0.94119695881E+03  0.16225352561E+04  0.12699999809E+01 0.  1.
</event>
<event>
 5   0  0.1005265E-05  0.2726317E+04  0.7818609E-02  0.8326516E-01
       -1   -1    0    0    0  501  0.00000000000E+00  0.00000000000E+00  0.14589379932E+04  0.14589379932E+04  0.50400001928E-02 0.  1.
        1   -1    0    0  501    0  0.00000000000E+00  0.00000000000E+00 -0.12736671200E+04  0.12736671200E+04  0.50400001928E-02 0. -1.
    10030    2    1    2    0    0  0.00000000000E+00  0.00000000000E+00  0.18527087318E+03  0.27326051132E+04  0.27263171878E+04 0.  0.
        3    1    3    3  502    0  0.52920441147E+03 -0.11328635776E+04  0.63680948224E+03  0.14031976060E+04  0.10100000352E+00 0.  1.
       -3    1    3    3    0  502 -0.52920441147E+03  0.11328635776E+04 -0.45153860906E+03  0.13294075072E+04  0.10100000352E+00 0. -1.
</event>
<event>
 5   0  0.1041909E-05  0.2673568E+04  0.7818609E-02  0.8343633E-01
       -1   -1    0    0    0  501  0.00000000000E+00  0.00000000000E+00  0.12691370093E+04  0.12691370093E+04  0.50400001928E-02 0.  1.
        1   -1    0    0  501    0  0.00000000000E+00  0.00000000000E+00 -0.14080363964E+04  0.14080363964E+04  0.50400001928E-02 0. -1.
    10030    2    1    2    0    0  0.00000000000E+00  0.00000000000E+00 -0.13889938708E+03  0.26771734057E+04  0.26735677296E+04 0.  0.
        5    1    3    3  502    0  0.90730220355E+03 -0.92425390071E+03 -0.40084382743E+03  0.13557803751E+04  0.46999998093E+01 0. -1.
       -5    1    3    3    0  502 -0.90730220355E+03  0.92425390071E+03  0.26194444035E+03  0.13213930306E+04  0.46999998093E+01 0.  1.
</event>
<event>
 5   0  0.1005265E-05  0.2463348E+04  0.7818609E-02  0.8416161E-01
       -1   -1    0    0    0  501  0.00000000000E+00  0.00000000000E+00  0.11841358123E+04  0.11841358123E+04  0.50400001928E-02 0.  1.
        1   -1    0    0  501    0  0.00000000000E+00  0.00000000000E+00 -0.12811204655E+04  0.12811204655E+04  0.50400001928E-02 0. -1.
    10030    2    1    2    0    0  0.00000000000E+00  0.00000000000E+00 -0.96984653215E+02  0.24652562778E+04  0.24633478220E+04 0.  0.
        3    1    3    3  502    0  0.87896314969E+03 -0.66014296739E+03 -0.60449061650E+03  0.12545014434E+04  0.10100000352E+00 0.  1.
       -3    1    3    3    0  502 -0.87896314969E+03  0.66014296739E+03  0.50750596328E+03  0.12107548343E+04  0.10100000352E+00 0. -1.
</event>
<event>
 5   0  0.2516518E-05  0.2128402E+04  0.7818609E-02  0.8548834E-01
        2   -1    0    0  501    0  0.00000000000E+00  0.00000000000E+00  0.25442235816E+04  0.25442235816E+04  0.25500000920E-02 0.  1.
       -2   -1    0    0    0  501  0.00000000000E+00  0.00000000000E+00 -0.44513532644E+03  0.44513532645E+03  0.25500000920E-02 0. -1.
    10030    2    1    2    0    0  0.00000000000E+00  0.00000000000E+00  0.20990882551E+04  0.29893589080E+04  0.21284020246E+04 0.  0.
        4    1    3    3  502    0  0.71733923314E+03 -0.65967196424E+03  0.16500097472E+04  0.19163184638E+04  0.12699999809E+01 0.  1.
       -4    1    3    3    0  502 -0.71733923314E+03  0.65967196424E+03  0.44907850791E+03  0.10730404442E+04  0.12699999809E+01 0. -1.
</event>
<event>
 5   0  0.2540232E-05  0.2562491E+04  0.7818609E-02  0.8381055E-01
       -2   -1    0    0    0  501  0.00000000000E+00  0.00000000000E+00  0.12678081379E+04  0.12678081379E+04  0.25500000920E-02 0.  1.
        2   -1    0    0  501    0  0.00000000000E+00  0.00000000000E+00 -0.12948256704E+04  0.12948256704E+04  0.25500000920E-02 0. -1.
    10030    2    1    2    0    0  0.00000000000E+00  0.00000000000E+00 -0.27017532450E+02  0.25626338083E+04  0.25624913831E+04 0.  0.
        1    1    3    3  502    0  0.65546579290E+03 -0.55144919315E+03  0.93936049324E+03  0.12712709210E+04  0.50400001928E-02 0.  1.
       -1    1    3    3    0  502 -0.65546579290E+03  0.55144919315E+03 -0.96637802569E+03  0.12913628874E+04  0.50400001928E-02 0. -1.
</event>
<event>
 5   0  0.9971923E-06  0.2755197E+04  0.7818609E-02  0.8317315E-01
        1   -1    0    0  501    0  0.00000000000E+00  0.00000000000E+00  0.15836133461E+04  0.15836133461E+04  0.50400001928E-02 0.  1.
       -1   -1    0    0    0  501  0.00000000000E+00  0.00000000000E+00 -0.11983840933E+04  0.11983840933E+04  0.50400001928E-02 0. -1.
    10030    2    1    2    0    0  0.00000000000E+00  0.00000000000E+00  0.38522925285E+03  0.27819974394E+04  0.27551965766E+04 0.  0.
        2    1    3    3  502    0 -0.99410456162E+02  0.36760501057E+03 -0.11441825096E+04  0.12058895048E+04  0.25500000920E-02 0. -1.
       -2    1    3    3    0  502  0.99410456162E+02 -0.36760501057E+03  0.15294117624E+04  0.15761079346E+04  0.25500000920E-02 0.  1.
</event>
<event>
 5   0  0.2641216E-05  0.2669762E+04  0.7818609E-02  0.8344883E-01
       -2   -1    0    0    0  501  0.00000000000E+00  0.00000000000E+00  0.89111087990E+03  0.89111087990E+03  0.25500000920E-02 0. -1.
        2   -1    0    0  501    0  0.00000000000E+00  0.00000000000E+00 -0.19996466931E+04  0.19996466931E+04  0.25500000920E-02 0.  1.
    10030    2    1    2    0    0  0.00000000000E+00  0.00000000000E+00 -0.11085358132E+04  0.28907575730E+04  0.26697617303E+04 0.  0.
        5    1    3    3  502    0  0.16861885168E+03  0.12193991871E+04  0.47201837820E+01  0.12310203349E+04  0.46999998093E+01 0. -1.
       -5    1    3    3    0  502 -0.16861885168E+03 -0.12193991871E+04 -0.11132559970E+04  0.16597372381E+04  0.46999998093E+01 0.  1.
</event>
<event>
 5   0  0.9971923E-06  0.2764522E+04  0.7818609E-02  0.8314368E-01
       -1   -1    0    0    0  501  0.00000000000E+00  0.00000000000E+00  0.17325513364E+04  0.17325513364E+04  0.50400001928E-02 0.  1.
        1   -1    0    0  501    0  0.00000000000E+00  0.00000000000E+00 -0.11027931248E+04  0.11027931248E+04  0.50400001928E-02 0. -1.
    10030    2    1    2    0    0  0.00000000000E+00  0.00000000000E+00  0.62975821155E+03  0.28353444612E+04  0.27645221664E+04 0.  0.
        2    1    3    3  502    0 -0.77062773400E+03  0.48370063365E+03  0.13821197117E+04  0.16547169864E+04  0.25500000920E-02 0.  1.
       -2    1    3    3    0  502  0.77062773400E+03 -0.48370063365E+03 -0.75236150017E+03  0.11806274748E+04  0.25500000920E-02 0. -1.
</event>
<event>
 5   0  0.2540684E-05  0.2714057E+04  0.7818609E-02  0.8330458E-01
        2   -1    0    0  501    0  0.00000000000E+00  0.00000000000E+00  0.20021016628E+04  0.20021016628E+04  0.25500000920E-02 0.  1.
       -2   -1    0    0    0  501  0.00000000000E+00  0.00000000000E+00 -0.91979668857E+03  0.91979668857E+03  0.25500000920E-02 0. -1.
    10030    2    1    2    0    0  0.00000000000E+00  0.00000000000E+00  0.10823049743E+04  0.29218983514E+04  0.27140570957E+04 0.  0.
        2    1    3    3  502    0  0.15287542127E+03  0.94761486021E+03  0.15738732551E+04  0.18434809033E+04  0.25500000920E-02 0.  1.
       -2    1    3    3    0  502 -0.15287542127E+03 -0.94761486021E+03 -0.49156828082E+03  0.10784174481E+04  0.25500000920E-02 0. -1.
</event>
<event>
 5   0  0.2615843E-05  0.2702812E+04  0.7818609E-02  0.8334093E-01
       -2   -1    0    0    0  501  0.00000000000E+00  0.00000000000E+00  0.99618318166E+03  0.99618318166E+03  0.25500000920E-02 0. -1.
        2   -1    0    0  501    0  0.00000000000E+00  0.00000000000E+00 -0.18332956031E+04  0.18332956031E+04  0.25500000920E-02 0.  1.
    10030    2    1    2    0    0  0.00000000000E+00  0.00000000000E+00 -0.83711242149E+03  0.28294787848E+04  0.27028120518E+04 0.  0.
        3    1    3    3  502    0 -0.74599431869E+03 -0.11017556227E+04 -0.17098815578E+03  0.13414954101E+04  0.10100000352E+00 0.  1.
       -3    1    3    3    0  502  0.74599431869E+03  0.11017556227E+04 -0.66612426571E+03  0.14879833747E+04  0.10100000352E+00 0. -1.
</event>
<event>
 5   0  0.2540232E-05  0.2594854E+04  0.7818609E-02  0.8369951E-01
        2   -1    0    0  501    0  0.00000000000E+00  0.00000000000E+00  0.17931454981E+04  0.17931454981E+04  0.25500000920E-02 0.  1.
       -2   -1    0    0    0  501  0.00000000000E+00  0.00000000000E+00 -0.93875080214E+03  0.93875080215E+03  0.25500000920E-02 0. -1.
    10030    2    1    2    0    0  0.00000000000E+00  0.00000000000E+00  0.85439469592E+03  0.27318963002E+04  0.25948539648E+04 0.  0.
        1    1    3    3  502    0  0.77724330974E+02 -0.47727020461E+03  0.16947287542E+04  0.17623658730E+04  0.50400001928E-02 0.  1.
       -1    1    3    3    0  502 -0.77724330974E+02  0.47727020461E+03 -0.84033405828E+03  0.96953042725E+03  0.50400001928E-02 0. -1.
</event>
<event>
 5   0  0.2516518E-05  0.2399727E+04  0.7818609E-02  0.8439606E-01
        2   -1    0    0  501    0  0.00000000000E+00  0.00000000000E+00  0.21233652939E+04  0.21233652939E+04  0.25500000920E-02 0. -1.
       -2   -1    0    0    0  501  0.00000000000E+00  0.00000000000E+00 -0.67801436104E+03  0.67801436105E+03  0.25500000920E-02 0.  1.
    10030    2    1    2    0    0  0.00000000000E+00  0.00000000000E+00  0.14453509329E+04  0.28013796550E+04  0.23997267870E+04 0.  0.
        4    1    3    3  502    0  0.43021148139E+03  0.32920095961E+03 -0.52713248340E+03  0.75586074014E+03  0.12699999809E+01 0.  1.
       -4    1    3    3    0  502 -0.43021148139E+03 -0.32920095961E+03  0.19724834163E+04  0.20455189148E+04  0.12699999809E+01 0. -1.
</event>
<event>
 5   0  0.1041909E-05  0.1726845E+04  0.7818609E-02  0.8746200E-01
        1   -1    0    0  501    0  0.00000000000E+00  0.00000000000E+00  0.74774220417E+03  0.74774220418E+03  0.50400001928E-02 0.  1.
       -1   -1    0    0    0  501  0.00000000000E+00  0.00000000000E+00 -0.99699973835E+03  0.99699973836E+03  0.50400001928E-02 0. -1.
    10030    2    1    2    0    0  0.00000000000E+00  0.00000000000E+00 -0.24925753418E+03  0.17447419425E+04  0.17268454267E+04 0.  0.
        5    1    3    3  502    0  0.39220876700E+03 -0.74499585632E+03  0.68744787181E+02  0.84474521520E+03  0.46999998093E+01 0. -1.
       -5    1    3    3    0  502 -0.39220876700E+03  0.74499585632E+03 -0.31800232137E+03  0.89999672735E+03  0.46999998093E+01 0.  1.
</event>
<event>
 5   0  0.1036691E-05  0.2072226E+04  0.7818609E-02  0.8573578E-01
        1   -1    0    0  501    0  0.00000000000E+00  0.00000000000E+00  0.12175409395E+04  0.12175409395E+04  0.50400001928E-02 0.  1.
       -1   -1    0    0    0  501  0.00000000000E+00  0.00000000000E+00 -0.88171960091E+03  0.88171960092E+03  0.50400001928E-02 0. -1.
    10030    2    1    2    0    0  0.00000000000E+00  0.00000000000E+00  0.33582133856E+03  0.20992605404E+04  0.20722255777E+04 0.  0.
        4    1    3    3  502    0 -0.73854604650E+03  0.72522676023E+03  0.21459860893E+03  0.10570989984E+04  0.12699999809E+01 0.  1.
       -4    1    3    3    0  502  0.73854604650E+03 -0.72522676023E+03  0.12122272963E+03  0.10421615420E+04  0.12699999809E+01 0. -1.
</event>
<event>
 5   0  0.1041909E-05  0.2722015E+04  0.7818609E-02  0.8327897E-01
       -1   -1    0    0    0  501  0.00000000000E+00  0.00000000000E+00  0.10050645544E+04  0.10050645544E+04  0.50400001928E-02 0. -1.
        1   -1    0    0  501    0  0.00000000000E+00  0.00000000000E+00 -0.18430076281E+04  0.18430076281E+04  0.50400001928E-02 0.  1.
    10030    2    1    2    0    0  0.00000000000E+00  0.00000000000E+00 -0.83794307373E+03  0.28480721825E+04  0.27220151656E+04 0.  0.
        5    1    3    3  502    0  0.59403929743E+03  0.19146547128E+03 -0.16844350777E+04  0.17963533435E+04  0.46999998093E+01 0.  1.
       -5    1    3    3    0  502 -0.59403929743E+03 -0.19146547128E+03  0.84649200397E+03  0.10517188390E+04  0.46999998093E+01 0. -1.
</event>
<event>
 5   0  0.2615843E-05  0.2782664E+04  0.7818609E-02  0.8308671E-01
        2   -1    0    0  501    0  0.00000000000E+00  0.00000000000E+00  0.19328391738E+04  0.19328391738E+04  0.25500000920E-02 0.  1.
       -2   -1    0    0    0  501  0.00000000000E+00  0.00000000000E+00 -0.10015344660E+04  0.10015344660E+04  0.25500000920E-02 0. -1.
    10030    2    1    2    0    0  0.00000000000E+00  0.00000000000E+00  0.93130470775E+03  0.29343736398E+04  0.27826642268E+04 0.  0.
        3    1    3    3  502    0 -0.68990201542E+02 -0.85675383630E+03 -0.68807979557E+03  0.11010179831E+04  0.10100000352E+00 0. -1.
       -3    1    3    3    0  502  0.68990201542E+02  0.85675383630E+03  0.16193845033E+04  0.18333556566E+04  0.10100000352E+00 0.  1.
</event>
<event>
 5   0  0.2540684E-05  0.2945924E+04  0.7818609E-02  0.8259344E-01
       -2   -1    0    0    0  501  0.00000000000E+00  0.00000000000E+00  0.10376701359E+04  0.10376701360E+04  0.25500000920E-02 0.  1.
        2   -1    0    0  501    0  0.00000000000E+00  0.00000000000E+00 -0.20908536859E+04  0.20908536859E+04  0.25500000920E-02 0. -1.
    10030    2    1    2    0    0  0.00000000000E+00  0.00000000000E+00 -0.10531835499E+04  0.31285238218E+04  0.29459235757E+04 0.  0.
        2    1    3    3  502    0  0.63892944161E+03 -0.11165763775E+04 -0.12884443446E+04  0.18207313002E+04  0.25500000920E-02 0. -1.
       -2    1    3    3    0  502 -0.63892944161E+03  0.11165763775E+04  0.23526079471E+03  0.13077925217E+04  0.25500000920E-02 0.  1.
</event>
<event>
 5   0  0.2641216E-05  0.2761349E+04  0.7818609E-02  0.8315369E-01
       -2   -1    0    0    0  501  0.00000000000E+00  0.00000000000E+00  0.14087179975E+04  0.14087179975E+04  0.25500000920E-02 0. -1.
        2   -1    0    0  501    0  0.00000000000E+00  0.00000000000E+00 -0.13531895446E+04  0.13531895446E+04  0.25500000920E-02 0.  1.
    10030    2    1    2    0    0  0.00000000000E+00  0.00000000000E+00  0.55528452849E+02  0.27619075421E+04  0.27613492829E+04 0.  0.
        5    1    3    3  502    0  0.12077910584E+04  0.52941847347E+03  0.43674445310E+03  0.13891763632E+04  0.46999998093E+01 0. -1.
       -5    1    3    3    0  502 -0.12077910584E+04 -0.52941847347E+03 -0.38121600025E+03  0.13727311789E+04  0.46999998093E+01 0.  1.
</event>
<event>
 5   0  0.1036691E-05  0.2692053E+04  0.7818609E-02  0.8337588E-01
       -1   -1    0    0    0  501  0.00000000000E+00  0.00000000000E+00  0.16682181232E+04  0.16682181232E+04  0.50400001928E-02 0. -1.
        1   -1    0    0  501    0  0.00000000000E+00  0.00000000000E+00 -0.10860610553E+04  0.10860610553E+04  0.50400001928E-02 0.  1.
    10030    2    1    2    0    0  0.00000000000E+00  0.00000000000E+00  0.58215706792E+03  0.27542791785E+04  0.26920525517E+04 0.  0.
        4    1    3    3  502    0 -0.49335728570E+03  0.10487466215E+04  0.99138126632E+03  0.15251587837E+04  0.12699999809E+01 0. -1.
       -4    1    3    3    0  502  0.49335728570E+03 -0.10487466215E+04 -0.40922419839E+03  0.12291203948E+04  0.12699999809E+01 0.  1.
</event>
<event>
 5   0  0.1096672E-05  0.2691296E+04  0.7818609E-02  0.8337835E-01
       -1   -1    0    0    0  501  0.00000000000E+00  0.00000000000E+00  0.12412349707E+04  0.12412349707E+04  0.50400001928E-02 0. -1.
        1   -1    0    0  501    0  0.00000000000E+00  0.00000000000E+00 -0.14588440676E+04  0.14588440676E+04  0.50400001928E-02 0.  1.
    10030    2    1    2    0    0  0.00000000000E+00  0.00000000000E+00 -0.21760909694E+03  0.27000790383E+04  0.26912958020E+04 0.  0.
        1    1    3    3  502    0  0.95909328530E+03  0.37990149975E+03 -0.97567489698E+03  0.14199037235E+04  0.50400001928E-02 0.  1.
       -1    1    3    3    0  502 -0.95909328530E+03 -0.37990149975E+03  0.75806580003E+03  0.12801753148E+04  0.50400001928E-02 0. -1.
</event>
<event>
 5   0  0.2540684E-05  0.2696812E+04  0.7818609E-02  0.8336040E-01
       -2   -1    0    0    0  501  0.00000000000E+00  0.00000000000E+00  0.82909381847E+03  0.82909381848E+03  0.25500000920E-02 0. -1.
        2   -1    0    0  501    0  0.00000000000E+00  0.00000000000E+00 -0.21929947378E+04  0.21929947378E+04  0.25500000920E-02 0.  1.
    10030    2    1    2    0    0  0.00000000000E+00  0.00000000000E+00 -0.13639009193E+04  0.30220885563E+04  0.26968117332E+04 0.  0.
        2    1    3    3  502    0 -0.63556028609E+03 -0.11055137873E+04 -0.11731083328E+04  0.17327090845E+04  0.25500000920E-02 0.  1.
       -2    1    3    3    0  502  0.63556028609E+03  0.11055137873E+04 -0.19079258648E+03  0.12893794717E+04  0.25500000920E-02 0. -1.
</event>
<event>
 5   0  0.8740500E-06  0.1977593E+04  0.7818609E-02  0.8617169E-01
        3   -1    0    0  501    0  0.00000000000E+00  0.00000000000E+00  0.57727245444E+03  0.57727246327E+03  0.10100000352E+00 0. -1.
       -3   -1    0    0    0  501  0.00000000000E+00  0.00000000000E+00 -0.16936865852E+04  0.16936865883E+04  0.10100000352E+00 0.  1.
    10030    2    1    2    0    0  0.00000000000E+00  0.00000000000E+00 -0.11164141308E+04  0.22709590515E+04  0.19775931084E+04 0.  0.
        3    1    3    3  502    0 -0.24475054060E+03 -0.26862590128E+03 -0.16142199289E+04  0.16546204070E+04  0.10100000352E+00 0.  1.
       -3    1    3    3    0  502  0.24475054060E+03  0.26862590128E+03  0.49780579812E+03  0.61633864458E+03  0.10100000352E+00 0. -1.
</event>
<event>
 5   0  0.1036691E-05  0.2762231E+04  0.7818609E-02  0.8315091E-01
        1   -1    0    0  501    0  0.00000000000E+00  0.00000000000E+00  0.15738499905E+04  0.15738499905E+04  0.50400001928E-02 0. -1.
       -1   -1    0    0    0  501  0.00000000000E+00  0.00000000000E+00 -0.12119830183E+04  0.12119830183E+04  0.50400001928E-02 0.  1.
    10030    2    1    2    0    0  0.00000000000E+00  0.00000000000E+00  0.36186697221E+03  0.27858330088E+04  0.27622305927E+04 0.  0.
        4    1    3    3  502    0  0.12485365173E+04  0.57390764083E+03  0.40951138495E+02  0.13747334374E+04  0.12699999809E+01 0. -1.
       -4    1    3    3    0  502 -0.12485365173E+04 -0.57390764083E+03  0.32091583372E+03  0.14110995714E+04  0.12699999809E+01 0.  1.
</event>
<event>
 5   0  0.2516518E-05  0.1649089E+04  0.7818609E-02  0.8790946E-01
       -2   -1    0    0    0  501  0.00000000000E+00  0.00000000000E+00  0.50155858578E+03  0.50155858578E+03  0.25500000920E-02 0.  1.
        2   -1    0    0  501    0  0.00000000000E+00  0.00000000000E+00 -0.13555211514E+04  0.13555211514E+04  0.25500000920E-02 0. -1.
    10030    2    1    2    0    0  0.00000000000E+00  0.00000000000E+00 -0.85396256557E+03  0.18570797371E+04  0.16490885624E+04 0.  0.
        4    1    3    3  502    0  0.80351506714E+03  0.18391259835E+03 -0.44982113473E+03  0.93904258322E+03  0.12699999809E+01 0. -1.
       -4    1    3    3    0  502 -0.80351506714E+03 -0.18391259835E+03 -0.40414143085E+03  0.91803715392E+03  0.12699999809E+01 0.  1.
</event>
<event>
 5   0  0.1041909E-05  0.2435722E+04  0.7818609E-02  0.8426249E-01
        1   -1    0    0  501    0  0.00000000000E+00  0.00000000000E+00  0.18961173392E+04  0.18961173392E+04  0.50400001928E-02 0.  1.
       -1   -1    0    0    0  501  0.00000000000E+00  0.00000000000E+00 -0.78222266406E+03  0.78222266407E+03  0.50400001928E-02 0. -1.
    10030    2    1    2    0    0  0.00000000000E+00  0.00000000000E+00  0.11138946752E+04  0.26783400033E+04  0.24357224443E+04 0.  0.
        5    1    3    3  502    0  0.77536333177E+03  0.24437733742E+03  0.15540531485E+04  0.17538562820E+04  0.46999998093E+01 0.  1.
       -5    1    3    3    0  502 -0.77536333177E+03 -0.24437733742E+03 -0.44015847339E+03  0.92448372132E+03  0.46999998093E+01 0. -1.
</event>
<event>
 5   0  0.2615843E-05  0.2689451E+04  0.7818609E-02  0.8338436E-01
       -2   -1    0    0    0  501  0.00000000000E+00  0.00000000000E+00  0.11914880822E+04  0.11914880822E+04  0.25500000920E-02 0.  1.
        2   -1    0    0  501    0  0.00000000000E+00  0.00000000000E+00 -0.15176702720E+04  0.15176702720E+04  0.25500000920E-02 0. -1.
    10030    2    1    2    0    0  0.00000000000E+00  0.00000000000E+00 -0.32618218975E+03  0.27091583542E+04  0.26894505326E+04 0.  0.
        3    1    3    3  502    0  0.11870128821E+04 -0.17086916283E+03 -0.77589935445E+03  0.14283611839E+04  0.10100000352E+00 0. -1.
       -3    1    3    3    0  502 -0.11870128821E+04  0.17086916283E+03  0.44971716470E+03  0.12807971704E+04  0.10100000352E+00 0.  1.
</event>
<event>
 5   0  0.2540232E-05  0.2621324E+04  0.7818609E-02  0.8360994E-01
       -2   -1    0    0    0  501  0.00000000000E+00  0.00000000000E+00  0.83638919917E+03  0.83638919917E+03  0.25500000920E-02 0. -1.
        2   -1    0    0  501    0  0.00000000000E+00  0.00000000000E+00 -0.20538701420E+04  0.20538701420E+04  0.25500000920E-02 0.  1.
    10030    2    1    2    0    0  0.00000000000E+00  0.00000000000E+00 -0.12174809428E+04  0.28902593411E+04  0.26213239428E+04 0.  0.
        1    1    3    3  502    0  0.19087882772E+03 -0.70514485218E+03  0.59109941625E+03  0.93971405723E+03  0.50400001928E-02 0. -1.
       -1    1    3    3    0  502 -0.19087882772E+03  0.70514485218E+03 -0.18085803590E+04  0.19505452839E+04  0.50400001928E-02 0.  1.
</event>
<event>
 5   0  0.1005265E-05  0.2666151E+04  0.7818609E-02  0.8346072E-01
       -1   -1    0    0    0  501  0.00000000000E+00  0.00000000000E+00  0.73094478026E+03  0.73094478027E+03  0.50400001928E-02 0. -1.
        1   -1    0    0  501    0  0.00000000000E+00  0.00000000000E+00 -0.24312244940E+04  0.24312244940E+04  0.50400001928E-02 0.  1.
    10030    2    1    2    0    0  0.00000000000E+00  0.00000000000E+00 -0.17002797137E+04  0.31621692742E+04  0.26661514237E+04 0.  0.
        3    1    3    3  502    0  0.80250363714E+03 -0.95828128874E+03 -0.13997982985E+04  0.18766327298E+04  0.10100000352E+00 0.  1.
       -3    1    3    3    0  502 -0.80250363714E+03  0.95828128874E+03 -0.30048141524E+03  0.12855365444E+04  0.10100000352E+00 0. -1.
</event>
<event>
 5   0  0.1036691E-05  0.2699723E+04  0.7818609E-02  0.8335095E-01
        1   -1    0    0  501    0  0.00000000000E+00  0.00000000000E+00  0.22270593725E+04  0.22270593725E+04  0.50400001928E-02 0.  1.
       -1   -1    0    0    0  501  0.00000000000E+00  0.00000000000E+00 -0.81817564845E+03  0.81817564847E+03  0.50400001928E-02 0. -1.
    10030    2    1    2    0    0  0.00000000000E+00  0.00000000000E+00  0.14088837240E+04  0.30452350210E+04  0.26997227608E+04 0.  0.
        4    1    3    3  502    0 -0.12324123791E+04  0.30788224081E+03  0.18939499654E+03  0.12843301071E+04  0.12699999809E+01 0.  1.
       -4    1    3    3    0  502  0.12324123791E+04 -0.30788224081E+03  0.12194887275E+04  0.17609049139E+04  0.12699999809E+01 0. -1.
</event>
<event>
 5   0  0.1036691E-05  0.2685228E+04  0.7818609E-02  0.8339814E-01
       -1   -1    0    0    0  501  0.00000000000E+00  0.00000000000E+00  0.13445872314E+04  0.13445872314E+04  0.50400001928E-02 0. -1.
        1   -1    0    0  501    0  0.00000000000E+00  0.00000000000E+00 -0.13406437127E+04  0.13406437127E+04  0.50400001928E-02 0.  1.
    10030    2    1    2    0    0  0.00000000000E+00  0.00000000000E+00  0.39435187085E+01  0.26852309441E+04  0.26852280484E+04 0.  0.
        4    1    3    3  502    0  0.12571660784E+04 -0.33716050293E+03  0.33131547902E+03  0.13430991448E+04  0.12699999809E+01 0. -1.
       -4    1    3    3    0  502 -0.12571660784E+04  0.33716050293E+03 -0.32737196031E+03  0.13421317993E+04  0.12699999809E+01 0.  1.
</event>
<event>
 5   0  0.1036691E-05  0.2646800E+04  0.7818609E-02  0.8352476E-01
       -1   -1    0    0    0  501  0.00000000000E+00  0.00000000000E+00  0.18431399192E+04  0.18431399192E+04  0.50400001928E-02 0. -1.
        1   -1    0    0  501    0  0.00000000000E+00  0.00000000000E+00 -0.95021929137E+03  0.95021929138E+03  0.50400001928E-02 0.  1.
    10030    2    1    2    0    0  0.00000000000E+00  0.00000000000E+00  0.89292062782E+03  0.27933592106E+04  0.26467996584E+04 0.  0.
        4    1    3    3  502    0  0.64204228926E+03  0.11564505367E+04  0.40181731532E+03  0.13824090975E+04  0.12699999809E+01 0.  1.
       -4    1    3    3    0  502 -0.64204228926E+03 -0.11564505367E+04  0.49110331250E+03  0.14109501131E+04  0.12699999809E+01 0. -1.
</event>
<event>
 5   0  0.1005265E-05  0.2639337E+04  0.7818609E-02  0.8354961E-01
        1   -1    0    0  501    0  0.00000000000E+00  0.00000000000E+00  0.25176150538E+04  0.25176150538E+04  0.50400001928E-02 0.  1.
       -1   -1    0    0    0  501  0.00000000000E+00  0.00000000000E+00 -0.69173625154E+03  0.69173625156E+03  0.50400001928E-02 0. -1.
    10030    2    1    2    0    0  0.00000000000E+00  0.00000000000E+00  0.18258788022E+04  0.32093513053E+04  0.26393374927E+04 0.  0.
        3    1    3    3  502    0 -0.31227741884E+03 -0.58904564936E+03  0.22977741407E+04  0.23925421575E+04  0.10100000352E+00 0.  1.
       -3    1    3    3    0  502  0.31227741884E+03  0.58904564936E+03 -0.47189533849E+03  0.81680914786E+03  0.10100000352E+00 0. -1.
</event>
<event>
 5   0  0.2641216E-05  0.2710665E+04  0.7818609E-02  0.8331553E-01
        2   -1    0    0  501    0  0.00000000000E+00  0.00000000000E+00  0.14042147094E+04  0.14042147095E+04  0.25500000920E-02 0. -1.
       -2   -1    0    0    0  501  0.00000000000E+00  0.00000000000E+00 -0.13081514736E+04  0.13081514736E+04  0.25500000920E-02 0.  1.
    10030    2    1    2    0    0  0.00000000000E+00  0.00000000000E+00  0.96063235806E+02  0.27123661831E+04  0.27106645248E+04 0.  0.
        5    1    3    3  502    0 -0.98331370207E+03 -0.17844146983E+03  0.96411508356E+03  0.13886278044E+04  0.46999998093E+01 0. -1.
       -5    1    3    3    0  502  0.98331370207E+03  0.17844146983E+03 -0.86805184775E+03  0.13237383787E+04  0.46999998093E+01 0.  1.
</event>
<event>
 5   0  0.2540684E-05  0.2717924E+04  0.7818609E-02  0.8329212E-01
        2   -1    0    0  501    0  0.00000000000E+00  0.00000000000E+00  0.11073708523E+04  0.11073708523E+04  0.25500000920E-02 0.  1.
       -2   -1    0    0    0  501  0.00000000000E+00  0.00000000000E+00 -0.16677143079E+04  0.16677143079E+04  0.25500000920E-02 0. -1.
    10030    2    1    2    0    0  0.00000000000E+00  0.00000000000E+00 -0.56034345557E+03  0.27750851602E+04  0.27179243658E+04 0.  0.
        2    1    3    3  502    0  0.10010345828E+04  0.60840007863E+03  0.42319737612E+03  0.12455187316E+04  0.25500000920E-02 0.  1.
       -2    1    3    3    0  502 -0.10010345828E+04 -0.60840007863E+03 -0.98354083169E+03  0.15295664285E+04  0.25500000920E-02 0. -1.
</event>
<event>
 5   0  0.9971923E-06  0.2689481E+04  0.7818609E-02  0.8338426E-01
       -1   -1    0    0    0  501  0.00000000000E+00  0.00000000000E+00  0.12244124666E+04  0.12244124666E+04  0.50400001928E-02 0. -1.
        1   -1    0    0  501    0  0.00000000000E+00  0.00000000000E+00 -0.14768932995E+04  0.14768932995E+04  0.50400001928E-02 0.  1.
    10030    2    1    2    0    0  0.00000000000E+00  0.00000000000E+00 -0.25248083288E+03  0.27013057661E+04  0.26894806694E+04 0.  0.
        2    1    3    3  502    0 -0.65565660762E+03 -0.23638897171E+03  0.10288426390E+04  0.12426916387E+04  0.25500000920E-02 0. -1.
       -2    1    3    3    0  502  0.65565660762E+03  0.23638897171E+03 -0.12813234719E+04  0.14586141274E+04  0.25500000920E-02 0.  1.
</event>
<event>
 5   0  0.1096672E-05  0.2677702E+04  0.7818609E-02  0.8342276E-01
       -1   -1    0    0    0  501  0.00000000000E+00  0.00000000000E+00  0.22686265601E+04  0.22686265601E+04  0.50400001928E-02 0.  1.
        1   -1    0    0  501    0  0.00000000000E+00  0.00000000000E+00 -0.79013538260E+03  0.79013538262E+03  0.50400001928E-02 0. -1.
    10030    2    1    2    0    0  0.00000000000E+00  0.00000000000E+00  0.14784911775E+04  0.30587619427E+04  0.26777020858E+04 0.  0.
        1    1    3    3  502    0  0.85463938712E+03  0.47491325389E+03  0.17840496037E+04  0.20344001743E+04  0.50400001928E-02 0.  1.
       -1    1    3    3    0  502 -0.85463938712E+03 -0.47491325389E+03 -0.30555842620E+03  0.10243617684E+04  0.50400001928E-02 0. -1.
</event>
<event>
 5   0  0.1005265E-05  0.2489900E+04  0.7818609E-02  0.8406593E-01
        1   -1    0    0  501    0  0.00000000000E+00  0.00000000000E+00  0.18528965722E+04  0.18528965722E+04  0.50400001928E-02 0.  1.
       -1   -1    0    0    0  501  0.00000000000E+00  0.00000000000E+00 -0.83647404392E+03  0.83647404394E+03  0.50400001928E-02 0. -1.
    10030    2    1    2    0    0  0.00000000000E+00  0.00000000000E+00  0.10164225282E+04  0.26893706161E+04  0.24898995070E+04 0.  0.
        3    1    3    3  502    0  0.77741546502E+03 -0.55950090751E+03  0.13672120123E+04  0.16693366250E+04  0.10100000352E+00 0.  1.
       -3    1    3    3    0  502 -0.77741546502E+03  0.55950090751E+03 -0.35078948404E+03  0.10200339911E+04  0.10100000352E+00 0. -1.
</event>
<event>
 5   0  0.1096672E-05  0.2708718E+04  0.7818609E-02  0.8332182E-01
        1   -1    0    0  501    0  0.00000000000E+00  0.00000000000E+00  0.12962233368E+04  0.12962233368E+04  0.50400001928E-02 0.  1.
       -1   -1    0    0    0  501  0.00000000000E+00  0.00000000000E+00 -0.14151020231E+04  0.14151020231E+04  0.50400001928E-02 0. -1.
    10030    2    1    2    0    0  0.00000000000E+00  0.00000000000E+00 -0.11887868631E+03  0.27113253600E+04  0.27087179745E+04 0.  0.
        1    1    3    3  502    0  0.44370618996E+01  0.12023929494E+04 -0.68335288260E+03  0.13830183132E+04  0.50400001928E-02 0.  1.
       -1    1    3    3    0  502 -0.44370618996E+01 -0.12023929494E+04  0.56447419629E+03  0.13283070468E+04  0.50400001928E-02 0. -1.
</event>
<event>
 5   0  0.1036691E-05  0.2709777E+04  0.7818609E-02  0.8331840E-01
        1   -1    0    0  501    0  0.00000000000E+00  0.00000000000E+00  0.27301054913E+04  0.27301054913E+04  0.50400001928E-02 0. -1.
       -1   -1    0    0    0  501  0.00000000000E+00  0.00000000000E+00 -0.67239972382E+03  0.67239972384E+03  0.50400001928E-02 0.  1.
    10030    2    1    2    0    0  0.00000000000E+00  0.00000000000E+00  0.20577057675E+04  0.34025052151E+04  0.27097765062E+04 0.  0.
        4    1    3    3  502    0  0.41018752983E+03  0.32424328511E+03 -0.54061392690E+03  0.75209876241E+03  0.12699999809E+01 0.  1.
       -4    1    3    3    0  502 -0.41018752983E+03 -0.32424328511E+03  0.25983196944E+04  0.26504064527E+04  0.12699999809E+01 0. -1.
</event>
<event>
 5   0  0.1036691E-05  0.2674374E+04  0.7818609E-02  0.8343368E-01
        1   -1    0    0  501    0  0.00000000000E+00  0.00000000000E+00  0.19673134763E+04  0.19673134764E+04  0.50400001928E-02 0. -1.
       -1   -1    0    0    0  501  0.00000000000E+00  0.00000000000E+00 -0.90888877836E+03  0.90888877837E+03  0.50400001928E-02 0.  1.
    10030    2    1    2    0    0  0.00000000000E+00  0.00000000000E+00  0.10584246980E+04  0.28762022547E+04  0.26743740518E+04 0.  0.
        4    1    3    3  502    0  0.49664573544E+03 -0.30618489852E+03  0.18232018794E+04  0.19142812971E+04  0.12699999809E+01 0. -1.
       -4    1    3    3    0  502 -0.49664573544E+03  0.30618489852E+03 -0.76477718139E+03  0.96192095761E+03  0.12699999809E+01 0.  1.
</event>
<event>
 5   0  0.1005265E-05  0.2696272E+04  0.7818609E-02  0.8336216E-01
       -1   -1    0    0    0  501  0.00000000000E+00  0.00000000000E+00  0.12058310650E+04  0.12058310651E+04  0.50400001928E-02 0.  1.
        1   -1    0    0  501    0  0.00000000000E+00  0.00000000000E+00 -0.15072344576E+04  0.15072344576E+04  0.50400001928E-02 0. -1.
    10030    2    1    2    0    0  0.00000000000E+00  0.00000000000E+00 -0.30140339252E+03  0.27130655226E+04  0.26962715970E+04 0.  0.
        3    1    3    3  502    0  0.12197440077E+04  0.42279211732E+03  0.24023008628E+03  0.13131028609E+04  0.10100000352E+00 0.  1.
       -3    1    3    3    0  502 -0.12197440077E+04 -0.42279211732E+03 -0.54163347880E+03  0.13999626617E+04  0.10100000352E+00 0. -1.
</event>
<event>
 5   0  0.2540684E-05  0.2259821E+04  0.7818609E-02  0.8493934E-01
       -2   -1    0    0    0  501  0.00000000000E+00  0.00000000000E+00  0.79150787222E+03  0.79150787222E+03  0.25500000920E-02 0. -1.
        2   -1    0    0  501    0  0.00000000000E+00  0.00000000000E+00 -0.16129942051E+04  0.16129942051E+04  0.25500000920E-02 0.  1.
    10030    2    1    2    0    0  0.00000000000E+00  0.00000000000E+00 -0.82148633289E+03  0.24045020773E+04  0.22598208878E+04 0.  0.
        2    1    3    3  502    0 -0.93677695518E+03 -0.10638037213E+03 -0.10733740997E+04  0.14286356447E+04  0.25500000920E-02 0.  1.
       -2    1    3    3    0  502  0.93677695518E+03  0.10638037213E+03  0.25188776679E+03  0.97586643266E+03  0.25500000920E-02 0. -1.
</event>
<event>
 5   0  0.1041909E-05  0.2660787E+04  0.7818609E-02  0.8347842E-01
        1   -1    0    0  501    0  0.00000000000E+00  0.00000000000E+00  0.25456748487E+04  0.25456748487E+04  0.50400001928E-02 0. -1.
       -1   -1    0    0    0  501  0.00000000000E+00  0.00000000000E+00 -0.69527589759E+03  0.69527589761E+03  0.50400001928E-02 0.  1.
    10030    2    1    2    0    0  0.00000000000E+00  0.00000000000E+00  0.18503989511E+04  0.32409507463E+04  0.26607866246E+04 0.  0.
        5    1    3    3  502    0  0.59143487921E+03  0.11594917457E+04  0.59005417971E+03  0.14291264288E+04  0.46999998093E+01 0.  1.
       -5    1    3    3    0  502 -0.59143487921E+03 -0.11594917457E+04  0.12603447714E+04  0.18118243174E+04  0.46999998093E+01 0. -1.
</event>
<event>
 5   0  0.2540232E-05  0.2212972E+04  0.7818609E-02  0.8513048E-01
       -2   -1    0    0    0  501  0.00000000000E+00  0.00000000000E+00  0.15350775385E+04  0.15350775385E+04  0.25500000920E-02 0.  1.
        2   -1    0    0  501    0  0.00000000000E+00  0.00000000000E+00 -0.79755643964E+03  0.79755643964E+03  0.25500000920E-02 0. -1.
    10030    2    1    2    0    0  0.00000000000E+00  0.00000000000E+00  0.73752109882E+03  0.23326339781E+04  0.22129717361E+04 0.  0.
        1    1    3    3  502    0 -0.87390645510E+03  0.59659051274E+03  0.27725555574E+02  0.10584901693E+04  0.50400001928E-02 0.  1.
       -1    1    3    3    0  502  0.87390645510E+03 -0.59659051274E+03  0.70979554324E+03  0.12741438088E+04  0.50400001928E-02 0. -1.
</event>
<event>
 5   0  0.1005265E-05  0.2694189E+04  0.7818609E-02  0.8336893E-01
        1   -1    0    0  501    0  0.00000000000E+00  0.00000000000E+00  0.13063038973E+04  0.13063038973E+04  0.50400001928E-02 0. -1.
       -1   -1    0    0    0  501  0.00000000000E+00  0.00000000000E+00 -0.13891584036E+04  0.13891584036E+04  0.50400001928E-02 0.  1.
    10030    2    1    2    0    0  0.00000000000E+00  0.00000000000E+00 -0.82854506292E+02  0.26954623009E+04  0.26941885877E+04 0.  0.
        3    1    3    3  502    0 -0.55182015084E+03  0.11988805782E+04 -0.31144910007E+03  0.13560312208E+04  0.10100000352E+00 0.  1.
       -3    1    3    3    0  502  0.55182015084E+03 -0.11988805782E+04  0.22859459378E+03  0.13394310801E+04  0.10100000352E+00 0. -1.
</event>
<event>
 5   0  0.2540232E-05  0.2715155E+04  0.7818609E-02  0.8330104E-01
        2   -1    0    0  501    0  0.00000000000E+00  0.00000000000E+00  0.25082999322E+04  0.25082999322E+04  0.25500000920E-02 0. -1.
       -2   -1    0    0    0  501  0.00000000000E+00  0.00000000000E+00 -0.73476729663E+03  0.73476729664E+03  0.25500000920E-02 0.  1.
    10030    2    1    2    0    0  0.00000000000E+00  0.00000000000E+00  0.17735326356E+04  0.32430672289E+04  0.27151550677E+04 0.  0.
        1    1    3    3  502    0  0.72661428009E+03 -0.83169669838E+03  0.18297843504E+04  0.21372408566E+04  0.50400001928E-02 0. -1.
       -1    1    3    3    0  502 -0.72661428009E+03  0.83169669838E+03 -0.56251714826E+02  0.11058263723E+04  0.50400001928E-02 0.  1.
</event>
<event>
 5   0  0.1096672E-05  0.2691698E+04  0.7818609E-02  0.8337704E-01
        1   -1    0    0  501    0  0.00000000000E+00  0.00000000000E+00  0.12972266370E+04  0.12972266370E+04  0.50400001928E-02 0.  1.
       -1   -1    0    0    0  501  0.00000000000E+00  0.00000000000E+00 -0.13962933752E+04  0.13962933752E+04  0.50400001928E-02 0. -1.
    10030    2    1    2    0    0  0.00000000000E+00  0.00000000000E+00 -0.99066738201E+02  0.26935200122E+04  0.26916975754E+04 0.  0.
        1    1    3    3  502    0 -0.10438890903E+04  0.51098041801E+02 -0.89804232458E+03  0.13779678732E+04  0.50400001928E-02 0. -1.
       -1    1    3    3    0  502  0.10438890903E+04 -0.51098041801E+02  0.79897558638E+03  0.13155521390E+04  0.50400001928E-02 0.  1.
</event>
<event>
 5   0  0.2641216E-05  0.2607586E+04  0.7818609E-02  0.8365629E-01
       -2   -1    0    0    0  501  0.00000000000E+00  0.00000000000E+00  0.12916566967E+04  0.12916566967E+04  0.25500000920E-02 0. -1.
        2   -1    0    0  501    0  0.00000000000E+00  0.00000000000E+00 -0.13160432141E+04  0.13160432141E+04  0.25500000920E-02 0.  1.
    10030    2    1    2    0    0  0.00000000000E+00  0.00000000000E+00 -0.24386517350E+02  0.26076999108E+04  0.26075858802E+04 0.  0.
        5    1    3    3  502    0  0.91226677057E+03  0.70479625145E+03  0.59683708748E+03  0.12981544653E+04  0.46999998093E+01 0. -1.
       -5    1    3    3    0  502 -0.91226677057E+03 -0.70479625145E+03 -0.62122360483E+03  0.13095454455E+04  0.46999998093E+01 0.  1.
</event>
<event>
 5   0  0.9971923E-06  0.2094147E+04  0.7818609E-02  0.8563826E-01
        1   -1    0    0  501    0  0.00000000000E+00  0.00000000000E+00  0.13362897220E+04  0.13362897220E+04  0.50400001928E-02 0. -1.
       -1   -1    0    0    0  501  0.00000000000E+00  0.00000000000E+00 -0.82045311055E+03  0.82045311057E+03  0.50400001928E-02 0.  1.
    10030    2    1    2    0    0  0.00000000000E+00  0.00000000000E+00  0.51583661143E+03  0.21567428326E+04  0.20941471381E+04 0.  0.
        2    1    3    3  502    0  0.10124935907E+03  0.85216716042E+03 -0.35994986640E+03  0.93059347104E+03  0.25500000920E-02 0.  1.
       -2    1    3    3    0  502 -0.10124935907E+03 -0.85216716042E+03  0.87578647783E+03  0.12261493615E+04  0.25500000920E-02 0. -1.
</event>
<event>
 5   0  0.2615843E-05  0.2437091E+04  0.7818609E-02  0.8425746E-01
       -2   -1    0    0    0  501  0.00000000000E+00  0.00000000000E+00  0.98244085804E+03  0.98244085804E+03  0.25500000920E-02 0.  1.
        2   -1    0    0  501    0  0.00000000000E+00  0.00000000000E+00 -0.15113919601E+04  0.15113919601E+04  0.25500000920E-02 0. -1.
    10030    2    1    2    0    0  0.00000000000E+00  0.00000000000E+00 -0.52895110207E+03  0.24938328181E+04  0.24370910645E+04 0.  0.
        3    1    3    3  502    0  0.10061427663E+04  0.48690529140E+03  0.23205714784E+03  0.11415999996E+04  0.10100000352E+00 0.  1.
       -3    1    3    3    0  502 -0.10061427663E+04 -0.48690529140E+03 -0.76100824991E+03  0.13522328186E+04  0.10100000352E+00 0. -1.
</event>
<event>
 5   0  0.2540684E-05  0.2320757E+04  0.7818609E-02  0.8469782E-01
        2   -1    0    0  501    0  0.00000000000E+00  0.00000000000E+00  0.78843550958E+03  0.78843550958E+03  0.25500000920E-02 0.  1.
       -2   -1    0    0    0  501  0.00000000000E+00  0.00000000000E+00 -0.17077842540E+04  0.17077842540E+04  0.25500000920E-02 0. -1.
    10030    2    1    2    0    0  0.00000000000E+00  0.00000000000E+00 -0.91934874439E+03  0.24962197636E+04  0.23207565564E+04 0.  0.
        2    1    3    3  502    0  0.19086741111E+03  0.25524642670E+03 -0.16597811236E+04  0.16901048740E+04  0.25500000920E-02 0. -1.
       -2    1    3    3    0  502 -0.19086741111E+03 -0.25524642670E+03  0.74043237919E+03  0.80611488953E+03  0.25500000920E-02 0.  1.
</event>
<event>
 5   0  0.9971923E-06  0.2675068E+04  0.7818609E-02  0.8343140E-01
        1   -1    0    0  501    0  0.00000000000E+00  0.00000000000E+00  0.23111218066E+04  0.23111218066E+04  0.50400001928E-02 0.  1.
       -1   -1    0    0    0  501  0.00000000000E+00  0.00000000000E+00 -0.77408167426E+03  0.77408167428E+03  0.50400001928E-02 0. -1.
    10030    2    1    2    0    0  0.00000000000E+00  0.00000000000E+00  0.15370401323E+04  0.30852034809E+04  0.26750678777E+04 0.  0.
        2    1    3    3  502    0  0.29220439450E+03 -0.72887286909E+03  0.20172804900E+04  0.21647308476E+04  0.25500000920E-02 0.  1.
       -2    1    3    3    0  502 -0.29220439450E+03  0.72887286909E+03 -0.48024035763E+03  0.92047263325E+03  0.25500000920E-02 0. -1.
</event>
<event>
 5   0  0.2641216E-05  0.2078682E+04  0.7818609E-02  0.8570693E-01
        2   -1    0    0  501    0  0.00000000000E+00  0.00000000000E+00  0.11666882068E+04  0.11666882068E+04  0.25500000920E-02 0.  1.
       -2   -1    0    0    0  501  0.00000000000E+00  0.00000000000E+00 -0.92589396477E+03  0.92589396477E+03  0.25500000920E-02 0. -1.
    10030    2    1    2    0    0  0.00000000000E+00  0.00000000000E+00  0.24079424203E+03  0.20925821716E+04  0.20786818607E+04 0.  0.
        5    1    3    3  502    0  0.44836142758E+03 -0.93710071125E+03  0.15257595936E+03  0.10499939172E+04  0.46999998093E+01 0.  1.
       -5    1    3    3    0  502 -0.44836142758E+03  0.93710071125E+03  0.88218282668E+02  0.10425882544E+04  0.46999998093E+01 0. -1.
</event>
<event>
 5   0  0.2641216E-05  0.2689141E+04  0.7818609E-02  0.8338537E-01
       -2   -1    0    0    0  501  0.00000000000E+00  0.00000000000E+00  0.66163298054E+03  0.66163298054E+03  0.25500000920E-02 0. -1.
        2   -1    0    0  501    0  0.00000000000E+00  0.00000000000E+00 -0.27324367505E+04  0.27324367505E+04  0.25500000920E-02 0.  1.
    10030    2    1    2    0    0  0.00000000000E+00  0.00000000000E+00 -0.20708037700E+04  0.33940697311E+04  0.26891413287E+04 0.  0.
        5    1    3    3  502    0  0.11983881003E+04  0.20880197325E+03 -0.17583726852E+04  0.21381367807E+04  0.46999998093E+01 0.  1.
       -5    1    3    3    0  502 -0.11983881003E+04 -0.20880197325E+03 -0.31243108484E+03  0.12559329504E+04  0.46999998093E+01 0. -1.
</event>
<event>
 5   0  0.2615843E-05  0.2663544E+04  0.7818609E-02  0.8346932E-01
        2   -1    0    0  501    0  0.00000000000E+00  0.00000000000E+00  0.11074443909E+04  0.11074443909E+04  0.25500000920E-02 0. -1.
       -2   -1    0    0    0  501  0.00000000000E+00  0.00000000000E+00 -0.16015396609E+04  0.16015396609E+04  0.25500000920E-02 0.  1.
    10030    2    1    2    0    0  0.00000000000E+00  0.00000000000E+00 -0.49409526991E+03  0.27089840518E+04  0.26635435903E+04 0.  0.
        3    1    3    3  502    0  0.63333170136E+03 -0.71802106443E+03  0.69446270417E+03  0.11827686801E+04  0.10100000352E+00 0.  1.
       -3    1    3    3    0  502 -0.63333170136E+03  0.71802106443E+03 -0.11885579741E+04  0.15262153717E+04  0.10100000352E+00 0. -1.
</event>
<event>
 5   0  0.2540232E-05  0.2505963E+04  0.7818609E-02  0.8400864E-01
       -2   -1    0    0    0  501  0.00000000000E+00  0.00000000000E+00  0.10117661398E+04  0.10117661398E+04  0.25500000920E-02 0.  1.
        2   -1    0    0  501    0  0.00000000000E+00  0.00000000000E+00 -0.15517046925E+04  0.15517046925E+04  0.25500000920E-02 0. -1.
    10030    2    1    2    0    0  0.00000000000E+00  0.00000000000E+00 -0.53993855268E+03  0.25634708323E+04  0.25059627027E+04 0.  0.
        1    1    3    3  502    0  0.66533857547E+03 -0.18140107806E+03 -0.13401027515E+04  0.15071354138E+04  0.50400001928E-02 0. -1.
       -1    1    3    3    0  502 -0.66533857547E+03  0.18140107806E+03  0.80016419879E+03  0.10563354184E+04  0.50400001928E-02 0.  1.
</event>
<event>
 5   0  0.1041909E-05  0.2715608E+04  0.7818609E-02  0.8329958E-01
        1   -1    0    0  501    0  0.00000000000E+00  0.00000000000E+00  0.19107816865E+04  0.19107816865E+04  0.50400001928E-02 0.  1.
       -1   -1    0    0    0  501  0.00000000000E+00  0.00000000000E+00 -0.96485764165E+03  0.96485764166E+03  0.50400001928E-02 0. -1.
    10030    2    1    2    0    0  0.00000000000E+00  0.00000000000E+00  0.94592404480E+03  0.28756393281E+04  0.27156084487E+04 0.  0.
        5    1    3    3  502    0  0.57703767642E+03  0.12189932595E+04  0.30656109992E+03  0.13830830940E+04  0.46999998093E+01 0.  1.
       -5    1    3    3    0  502 -0.57703767642E+03 -0.12189932595E+04  0.63936294489E+03  0.14925562342E+04  0.46999998093E+01 0. -1.
</event>
<event>
 5   0  0.1096672E-05  0.2710698E+04  0.7818609E-02  0.8331542E-01
        1   -1    0    0  501    0  0.00000000000E+00  0.00000000000E+00  0.28752021274E+04  0.28752021274E+04  0.50400001928E-02 0.  1.
       -1   -1    0    0    0  501  0.00000000000E+00  0.00000000000E+00 -0.63890152748E+03  0.63890152750E+03  0.50400001928E-02 0. -1.
    10030    2    1    2    0    0  0.00000000000E+00  0.00000000000E+00  0.22363005999E+04  0.35141036549E+04  0.27106980880E+04 0.  0.
        1    1    3    3  502    0  0.50836587721E+03 -0.16420319889E+03 -0.49665234304E+03  0.72942587389E+03  0.50400001928E-02 0. -1.
       -1    1    3    3    0  502 -0.50836587721E+03  0.16420319889E+03  0.27329529429E+04  0.27846777810E+04  0.50400001928E-02 0.  1.
</event>
<event>
 5   0  0.2540684E-05  0.2705444E+04  0.7818609E-02  0.8333241E-01
       -2   -1    0    0    0  501  0.00000000000E+00  0.00000000000E+00  0.98236742805E+03  0.98236742805E+03  0.25500000920E-02 0.  1.
        2   -1    0    0  501    0  0.00000000000E+00  0.00000000000E+00 -0.18627014125E+04  0.18627014125E+04  0.25500000920E-02 0. -1.
    10030    2    1    2    0    0  0.00000000000E+00  0.00000000000E+00 -0.88033398443E+03  0.28450688405E+04  0.27054442857E+04 0.  0.
        2    1    3    3  502    0  0.11124344919E+04  0.73324540120E+03 -0.68611280090E+03  0.14986360775E+04  0.25500000920E-02 0. -1.
       -2    1    3    3    0  502 -0.11124344919E+04 -0.73324540120E+03 -0.19422118353E+03  0.13464327630E+04  0.25500000920E-02 0.  1.
</event>
<event>
 5   0  0.9971923E-06  0.2869495E+04  0.7818609E-02  0.8282012E-01
        1   -1    0    0  501    0  0.00000000000E+00  0.00000000000E+00  0.82019968826E+03  0.82019968828E+03  0.50400001928E-02 0. -1.
       -1   -1    0    0    0  501  0.00000000000E+00  0.00000000000E+00 -0.25097547706E+04  0.25097547706E+04  0.50400001928E-02 0.  1.
    10030    2    1    2    0    0  0.00000000000E+00  0.00000000000E+00 -0.16895550823E+04  0.33299544589E+04  0.28694947851E+04 0.  0.
        2    1    3    3  502    0 -0.59641343673E+03 -0.54515443292E+03 -0.22206031183E+04  0.23630447631E+04  0.25500000920E-02 0.  1.
       -2    1    3    3    0  502  0.59641343673E+03  0.54515443292E+03  0.53104803600E+03  0.96690969578E+03  0.25500000920E-02 0. -1.
</event>
<event>
 5   0  0.2540232E-05  0.2854325E+04  0.7818609E-02  0.8286598E-01
       -2   -1    0    0    0  501  0.00000000000E+00  0.00000000000E+00  0.16149050185E+04  0.16149050185E+04  0.25500000920E-02 0.  1.
        2   -1    0    0  501    0  0.00000000000E+00  0.00000000000E+00 -0.12612460236E+04  0.12612460237E+04  0.25500000920E-02 0. -1.
    10030    2    1    2    0    0  0.00000000000E+00  0.00000000000E+00  0.35365899489E+03  0.28761510422E+04  0.28543248121E+04 0.  0.
        1    1    3    3  502    0  0.84005660010E+03 -0.11480823937E+04  0.29173771902E+03  0.14522049342E+04  0.50400001928E-02 0.  1.
       -1    1    3    3    0  502 -0.84005660010E+03  0.11480823937E+04  0.61921275866E+02  0.14239461080E+04  0.50400001928E-02 0. -1.
</event>
<event>
 5   0  0.2641216E-05  0.2699158E+04  0.7818609E-02  0.8335278E-01
       -2   -1    0    0    0  501  0.00000000000E+00  0.00000000000E+00  0.80111535326E+03  0.80111535327E+03  0.25500000920E-02 0. -1.
        2   -1    0    0  501    0  0.00000000000E+00  0.00000000000E+00 -0.22735345113E+04  0.22735345113E+04  0.25500000920E-02 0.  1.
    10030    2    1    2    0    0  0.00000000000E+00  0.00000000000E+00 -0.14724191581E+04  0.30746498646E+04  0.26991579451E+04 0.  0.
        5    1    3    3  502    0  0.18948552776E+03 -0.69009081645E+03 -0.20395930999E+04  0.21615023024E+04  0.46999998093E+01 0.  1.
       -5    1    3    3    0  502 -0.18948552776E+03  0.69009081645E+03  0.56717394178E+03  0.91314756223E+03  0.46999998093E+01 0. -1.
</event>
<event>
 5   0  0.1005265E-05  0.2682481E+04  0.7818609E-02  0.8340712E-01
        1   -1    0    0  501    0  0.00000000000E+00  0.00000000000E+00  0.24847444069E+04  0.24847444069E+04  0.50400001928E-02 0.  1.
       -1   -1    0    0    0  501  0.00000000000E+00  0.00000000000E+00 -0.72398847054E+03  0.72398847056E+03  0.50400001928E-02 0. -1.
    10030    2    1    2    0    0  0.00000000000E+00  0.00000000000E+00  0.17607559363E+04  0.32087328774E+04  0.26824811670E+04 0.  0.
        3    1    3    3  502    0 -0.48750098012E+03  0.51985764931E+03 -0.47875792518E+03  0.85855596340E+03  0.10100000352E+00 0. -1.
       -3    1    3    3    0  502  0.48750098012E+03 -0.51985764931E+03  0.22395138615E+04  0.23501769140E+04  0.10100000352E+00 0.  1.
</event>
<event>
 5   0  0.1041909E-05  0.2665075E+04  0.7818609E-02  0.8346427E-01
       -1   -1    0    0    0  501  0.00000000000E+00  0.00000000000E+00  0.25000359733E+04  0.25000359733E+04  0.50400001928E-02 0.  1.
        1   -1    0    0  501    0  0.00000000000E+00  0.00000000000E+00 -0.71025230923E+03  0.71025230925E+03  0.50400001928E-02 0. -1.
    10030    2    1    2    0    0  0.00000000000E+00  0.00000000000E+00  0.17897836641E+04  0.32102882825E+04  0.26650751008E+04 0.  0.
        5    1    3    3  502    0  0.10514491966E+04  0.36471387006E+03  0.17776689864E+04  0.20973055893E+04  0.46999998093E+01 0.  1.
       -5    1    3    3    0  502 -0.10514491966E+04 -0.36471387006E+03  0.12114677712E+02  0.11129826932E+04  0.46999998093E+01 0. -1.
</event>
<event>
 5   0  0.2540232E-05  0.2475792E+04  0.7818609E-02  0.8411661E-01
        2   -1    0    0  501    0  0.00000000000E+00  0.00000000000E+00  0.85104885099E+03  0.85104885099E+03  0.25500000920E-02 0. -1.
       -2   -1    0    0    0  501  0.00000000000E+00  0.00000000000E+00 -0.18005854830E+04  0.18005854830E+04  0.25500000920E-02 0.  1.
    10030    2    1    2    0    0  0.00000000000E+00  0.00000000000E+00 -0.94953663205E+03  0.26516343340E+04  0.24757917574E+04 0.  0.
        1    1    3    3  502    0  0.93825027491E+02  0.38875346618E+03 -0.17294928505E+04  0.17751275766E+04  0.50400001928E-02 0.  1.
       -1    1    3    3    0  502 -0.93825027491E+02 -0.38875346618E+03  0.77995621841E+03  0.87650675748E+03  0.50400001928E-02 0. -1.
</event>
<event>
 5   0  0.2516518E-05  0.1676924E+04  0.7818609E-02  0.8774636E-01
        2   -1    0    0  501    0  0.00000000000E+00  0.00000000000E+00  0.57593268034E+03  0.57593268034E+03  0.25500000920E-02 0.  1.
       -2   -1    0    0    0  501  0.00000000000E+00  0.00000000000E+00 -0.12206611112E+04  0.12206611112E+04  0.25500000920E-02 0. -1.
    10030    2    1    2    0    0  0.00000000000E+00  0.00000000000E+00 -0.64472843082E+03  0.17965937915E+04  0.16769241194E+04 0.  0.
        4    1    3    3  502    0 -0.57168476603E+01 -0.44566855243E+03 -0.10832307244E+04  0.11713426297E+04  0.12699999809E+01 0. -1.
       -4    1    3    3    0  502  0.57168476603E+01  0.44566855243E+03  0.43850229357E+03  0.62525116181E+03  0.12699999809E+01 0.  1.
</event>
<event>
 5   0  0.9971923E-06  0.1760748E+04  0.7818609E-02  0.8727456E-01
        1   -1    0    0  501    0  0.00000000000E+00  0.00000000000E+00  0.83469645643E+03  0.83469645644E+03  0.50400001928E-02 0. -1.
       -1   -1    0    0    0  501  0.00000000000E+00  0.00000000000E+00 -0.92855156718E+03  0.92855156719E+03  0.50400001928E-02 0.  1.
    10030    2    1    2    0    0  0.00000000000E+00  0.00000000000E+00 -0.93855110749E+02  0.17632480236E+04  0.17607483668E+04 0.  0.
        2    1    3    3  502    0 -0.12039433885E+03  0.74082583202E+03  0.41387893112E+03  0.85709595720E+03  0.25500000920E-02 0. -1.
       -2    1    3    3    0  502  0.12039433885E+03 -0.74082583202E+03 -0.50773404187E+03  0.90615206643E+03  0.25500000920E-02 0.  1.
</event>
<event>
 5   0  0.1036691E-05  0.2669325E+04  0.7818609E-02  0.8345027E-01
       -1   -1    0    0    0  501  0.00000000000E+00  0.00000000000E+00  0.77964306081E+03  0.77964306082E+03  0.50400001928E-02 0. -1.
        1   -1    0    0  501    0  0.00000000000E+00  0.00000000000E+00 -0.22847936800E+04  0.22847936800E+04  0.50400001928E-02 0.  1.
    10030    2    1    2    0    0  0.00000000000E+00  0.00000000000E+00 -0.15051506192E+04  0.30644367408E+04  0.26693246622E+04 0.  0.
        4    1    3    3  502    0  0.12553307800E+04 -0.87671902044E+02 -0.12631281099E+04  0.17829851274E+04  0.12699999809E+01 0.  1.
       -4    1    3    3    0  502 -0.12553307800E+04  0.87671902044E+02 -0.24202250930E+03  0.12814516134E+04  0.12699999809E+01 0. -1.
</event>
<event>
 5   0  0.2615843E-05  0.2633271E+04  0.7818609E-02  0.8356987E-01
        2   -1    0    0  501    0  0.00000000000E+00  0.00000000000E+00  0.16651053326E+04  0.16651053326E+04  0.25500000920E-02 0. -1.
       -2   -1    0    0    0  501  0.00000000000E+00  0.00000000000E+00 -0.10410923817E+04  0.10410923817E+04  0.25500000920E-02 0.  1.
    10030    2    1    2    0    0  0.00000000000E+00  0.00000000000E+00  0.62401295087E+03  0.27061977143E+04  0.26332705721E+04 0.  0.
        3    1    3    3  502    0 -0.39713530493E+03 -0.21006892615E+03  0.15838933690E+04  0.16463789414E+04  0.10100000352E+00 0. -1.
       -3    1    3    3    0  502  0.39713530493E+03  0.21006892615E+03 -0.95988041808E+03  0.10598187729E+04  0.10100000352E+00 0.  1.
</event>
<event>
 5   0  0.1096672E-05  0.2701752E+04  0.7818609E-02  0.8334437E-01
        1   -1    0    0  501    0  0.00000000000E+00  0.00000000000E+00  0.17642784796E+04  0.17642784796E+04  0.50400001928E-02 0. -1.
       -1   -1    0    0    0  501  0.00000000000E+00  0.00000000000E+00 -0.10343413217E+04  0.10343413217E+04  0.50400001928E-02 0.  1.
    10030    2    1    2    0    0  0.00000000000E+00  0.00000000000E+00  0.72993715794E+03  0.27986198013E+04  0.27017521236E+04 0.  0.
        1    1    3    3  502    0  0.69744764634E+03  0.46826589511E+03  0.14608018558E+04  0.16851255828E+04  0.50400001928E-02 0. -1.
       -1    1    3    3    0  502 -0.69744764634E+03 -0.46826589511E+03 -0.73086469787E+03  0.11134942184E+04  0.50400001928E-02 0.  1.
</event>
<event>
 5   0  0.2615843E-05  0.2673269E+04  0.7818609E-02  0.8343731E-01
       -2   -1    0    0    0  501  0.00000000000E+00  0.00000000000E+00  0.15302794276E+04  0.15302794276E+04  0.25500000920E-02 0.  1.
        2   -1    0    0  501    0  0.00000000000E+00  0.00000000000E+00 -0.11674936472E+04  0.11674936472E+04  0.25500000920E-02 0. -1.
    10030    2    1    2    0    0  0.00000000000E+00  0.00000000000E+00  0.36278578042E+03  0.26977730748E+04  0.26732687932E+04 0.  0.
        3    1    3    3  502    0  0.38881054182E+03  0.56120418045E+03 -0.97825644520E+03  0.11929415126E+04  0.10100000352E+00 0. -1.
       -3    1    3    3    0  502 -0.38881054182E+03 -0.56120418045E+03  0.13410422256E+04  0.15048315622E+04  0.10100000352E+00 0.  1.
</event>
<event>
 5   0  0.9971923E-06  0.2752604E+04  0.7818609E-02  0.8318136E-01
        1   -1    0    0  501    0  0.00000000000E+00  0.00000000000E+00  0.15606883194E+04  0.15606883194E+04  0.50400001928E-02 0. -1.
       -1   -1    0    0    0  501  0.00000000000E+00  0.00000000000E+00 -0.12136996346E+04  0.12136996346E+04  0.50400001928E-02 0.  1.
    10030    2    1    2    0    0  0.00000000000E+00  0.00000000000E+00  0.34698868481E+03  0.27743879540E+04  0.27526037441E+04 0.  0.
        2    1    3    3  502    0  0.10688233581E+04 -0.59133220841E+03 -0.46567710145E+03  0.13072537299E+04  0.25500000920E-02 0.  1.
       -2    1    3    3    0  502 -0.10688233581E+04  0.59133220841E+03  0.81266578627E+03  0.14671342241E+04  0.25500000920E-02 0. -1.
</event>
<event>
 5   0  0.2540232E-05  0.2444296E+04  0.7818609E-02  0.8423104E-01
       -2   -1    0    0    0  501  0.00000000000E+00  0.00000000000E+00  0.10201007199E+04  0.10201007199E+04  0.25500000920E-02 0.  1.
        2   -1    0    0  501    0  0.00000000000E+00  0.00000000000E+00 -0.14642138753E+04  0.14642138753E+04  0.25500000920E-02 0. -1.
    10030    2    1    2    0    0  0.00000000000E+00  0.00000000000E+00 -0.44411315543E+03  0.24843145952E+04  0.24442959136E+04 0.  0.
        1    1    3    3  502    0 -0.64965265207E+03  0.53154092537E+03 -0.11248911521E+04  0.14035542127E+04  0.50400001928E-02 0. -1.
       -1    1    3    3    0  502  0.64965265207E+03 -0.53154092537E+03  0.68077799671E+03  0.10807603826E+04  0.50400001928E-02 0.  1.
</event>
<event>
 5   0  0.2540684E-05  0.2797097E+04  0.7818609E-02  0.8304170E-01
        2   -1    0    0  501    0  0.00000000000E+00  0.00000000000E+00  0.16742714931E+04  0.16742714931E+04  0.25500000920E-02 0. -1.
       -2   -1    0    0    0  501  0.00000000000E+00  0.00000000000E+00 -0.11682321188E+04  0.11682321188E+04  0.25500000920E-02 0.  1.
    10030    2    1    2    0    0  0.00000000000E+00  0.00000000000E+00  0.50603937429E+03  0.28425036118E+04  0.27970968762E+04 0.  0.
        2    1    3    3  502    0  0.57128353683E+03  0.52643697232E+02  0.15491862042E+04  0.16520030671E+04  0.25500000920E-02 0. -1.
       -2    1    3    3    0  502 -0.57128353683E+03 -0.52643697232E+02 -0.10431468299E+04  0.11905005448E+04  0.25500000920E-02 0.  1.
</event>
<event>
 5   0  0.8740500E-06  0.2669086E+04  0.7818609E-02  0.8345106E-01
        3   -1    0    0  501    0  0.00000000000E+00  0.00000000000E+00  0.13167218995E+04  0.13167219034E+04  0.10100000352E+00 0. -1.
       -3   -1    0    0    0  501  0.00000000000E+00  0.00000000000E+00 -0.13526052023E+04  0.13526052061E+04  0.10100000352E+00 0.  1.
    10030    2    1    2    0    0  0.00000000000E+00  0.00000000000E+00 -0.35883302794E+02  0.26693271095E+04  0.26690859121E+04 0.  0.
        4    1    3    3  502    0 -0.29497888680E+03  0.12872389796E+04 -0.21032991232E+03  0.13372497969E+04  0.12699999809E+01 0.  1.
       -4    1    3    3    0  502  0.29497888680E+03 -0.12872389796E+04  0.17444660953E+03  0.13320773126E+04  0.12699999809E+01 0. -1.
</event>
<event>
 5   0  0.1036691E-05  0.2738773E+04  0.7818609E-02  0.8322533E-01
        1   -1    0    0  501    0  0.00000000000E+00  0.00000000000E+00  0.15460197657E+04  0.15460197657E+04  0.50400001928E-02 0. -1.
       -1   -1    0    0    0  501  0.00000000000E+00  0.00000000000E+00 -0.12129339751E+04  0.12129339751E+04  0.50400001928E-02 0.  1.
    10030    2    1    2    0    0  0.00000000000E+00  0.00000000000E+00  0.33308579068E+03  0.27589537408E+04  0.27387733751E+04 0.  0.
        4    1    3    3  502    0  0.21547977299E+03  0.13075593629E+04 -0.18107258111E+03  0.13375095934E+04  0.12699999809E+01 0. -1.
       -4    1    3    3    0  502 -0.21547977299E+03 -0.13075593629E+04  0.51415837178E+03  0.14214441474E+04  0.12699999809E+01 0.  1.
</event>
<event>
 5   0  0.2516518E-05  0.2708327E+04  0.7818609E-02  0.8332308E-01
        2   -1    0    0  501    0  0.00000000000E+00  0.00000000000E+00  0.30586232902E+04  0.30586232902E+04  0.25500000920E-02 0. -1.
       -2   -1    0    0    0  501  0.00000000000E+00  0.00000000000E+00 -0.59953743435E+03  0.59953743436E+03  0.25500000920E-02 0.  1.
    10030    2    1    2    0    0  0.00000000000E+00  0.00000000000E+00  0.24590858558E+04  0.36581607245E+04  0.27083272772E+04 0.  0.
        4    1    3    3  502    0 -0.86036946017E+03  0.28527154260E+03  0.25884269142E+04  0.27425482611E+04  0.12699999809E+01 0. -1.
       -4    1    3    3    0  502  0.86036946017E+03 -0.28527154260E+03 -0.12934105840E+03  0.91561246349E+03  0.12699999809E+01 0.  1.
</event>
<event>
 5   0  0.2641216E-05  0.2516332E+04  0.7818609E-02  0.8397190E-01
       -2   -1    0    0    0  501  0.00000000000E+00  0.00000000000E+00  0.19558410822E+04  0.19558410822E+04  0.25500000920E-02 0. -1.
        2   -1    0    0  501    0  0.00000000000E+00  0.00000000000E+00 -0.80936116492E+03  0.80936116493E+03  0.25500000920E-02 0.  1.
    10030    2    1    2    0    0  0.00000000000E+00  0.00000000000E+00  0.11464799173E+04  0.27652022471E+04  0.25163321058E+04 0.  0.
        5    1    3    3  502    0  0.30572011816E+03 -0.96597332930E+03 -0.24644842604E+03  0.10427502962E+04  0.46999998093E+01 0.  1.
       -5    1    3    3    0  502 -0.30572011816E+03  0.96597332930E+03  0.13929283433E+04  0.17224519509E+04  0.46999998093E+01 0. -1.
</event>
<event>
 5   0  0.1096672E-05  0.2703012E+04  0.7818609E-02  0.8334028E-01
        1   -1    0    0  501    0  0.00000000000E+00  0.00000000000E+00  0.14428298888E+04  0.14428298888E+04  0.50400001928E-02 0.  1.
       -1   -1    0    0    0  501  0.00000000000E+00  0.00000000000E+00 -0.12659627159E+04  0.12659627159E+04  0.50400001928E-02 0. -1.
    10030    2    1    2    0    0  0.00000000000E+00  0.00000000000E+00  0.17686717287E+03  0.27087926047E+04  0.27030122786E+04 0.  0.
        1    1    3    3  502    0 -0.36816235944E+03  0.27705645419E+03  0.13616879044E+04  0.14375318259E+04  0.50400001928E-02 0.  1.
       -1    1    3    3    0  502  0.36816235944E+03 -0.27705645419E+03 -0.11848207315E+04  0.12712607787E+04  0.50400001928E-02 0. -1.
</event>
<event>
 5   0  0.2516518E-05  0.2598192E+04  0.7818609E-02  0.8368816E-01
        2   -1    0    0  501    0  0.00000000000E+00  0.00000000000E+00  0.13542686840E+04  0.13542686840E+04  0.25500000920E-02 0.  1.
       -2   -1    0    0    0  501  0.00000000000E+00  0.00000000000E+00 -0.12461707659E+04  0.12461707659E+04  0.25500000920E-02 0. -1.
    10030    2    1    2    0    0  0.00000000000E+00  0.00000000000E+00  0.10809791812E+03  0.26004394499E+04  0.25981917121E+04 0.  0.
        4    1    3    3  502    0  0.10513415304E+04  0.53923859905E+03  0.59447084932E+03  0.13226845746E+04  0.12699999809E+01 0.  1.
       -4    1    3    3    0  502 -0.10513415304E+04 -0.53923859905E+03 -0.48637293120E+03  0.12777548753E+04  0.12699999809E+01 0. -1.
</event>
<event>
 5   0  0.1005265E-05  0.2269524E+04  0.7818609E-02  0.8490035E-01
       -1   -1    0    0    0  501  0.00000000000E+00  0.00000000000E+00  0.78416402340E+03  0.78416402342E+03  0.50400001928E-02 0. -1.
        1   -1    0    0  501    0  0.00000000000E+00  0.00000000000E+00 -0.16421113502E+04  0.16421113502E+04  0.50400001928E-02 0.  1.
    10030    2    1    2    0    0  0.00000000000E+00  0.00000000000E+00 -0.85794732683E+03  0.24262753737E+04  0.22695238649E+04 0.  0.
        3    1    3    3  502    0  0.51117815671E+03 -0.52962083450E+03  0.49432196063E+03  0.88665413054E+03  0.10100000352E+00 0. -1.
       -3    1    3    3    0  502 -0.51117815671E+03  0.52962083450E+03 -0.13522692875E+04  0.15396212431E+04  0.10100000352E+00 0.  1.
</event>
<event>
 5   0  0.9971923E-06  0.2724554E+04  0.7818609E-02  0.8327082E-01
        1   -1    0    0  501    0  0.00000000000E+00  0.00000000000E+00  0.12947971184E+04  0.12947971184E+04  0.50400001928E-02 0.  1.
       -1   -1    0    0    0  501  0.00000000000E+00  0.00000000000E+00 -0.14332734129E+04  0.14332734129E+04  0.50400001928E-02 0. -1.
    10030    2    1    2    0    0  0.00000000000E+00  0.00000000000E+00 -0.13847629453E+03  0.27280705313E+04  0.27245537505E+04 0.  0.
        2    1    3    3  502    0 -0.80954351414E+03 -0.10183622325E+04  0.33548148621E+03  0.13434917810E+04  0.25500000920E-02 0. -1.
       -2    1    3    3    0  502  0.80954351414E+03  0.10183622325E+04 -0.47395778074E+03  0.13845787503E+04  0.25500000920E-02 0.  1.
</event>
<event>
 5   0  0.9971923E-06  0.2672236E+04  0.7818609E-02  0.8344070E-01
        1   -1    0    0  501    0  0.00000000000E+00  0.00000000000E+00  0.17867241294E+04  0.17867241295E+04  0.50400001928E-02 0. -1.
       -1   -1    0    0    0  501  0.00000000000E+00  0.00000000000E+00 -0.99915299564E+03  0.99915299566E+03  0.50400001928E-02 0.  1.
    10030    2    1    2    0    0  0.00000000000E+00  0.00000000000E+00  0.78757113380E+03  0.27858771251E+04  0.26722355932E+04 0.  0.
        2    1    3    3  502    0  0.37878836244E+03 -0.11906273958E+04 -0.99778520094E+02  0.12534073449E+04  0.25500000920E-02 0.  1.
       -2    1    3    3    0  502 -0.37878836244E+03  0.11906273958E+04  0.88734965390E+03  0.15324697802E+04  0.25500000920E-02 0. -1.
</event>
<event>
 5   0  0.1096672E-05  0.2659923E+04  0.7818609E-02  0.8348127E-01
        1   -1    0    0  501    0  0.00000000000E+00  0.00000000000E+00  0.15289092975E+04  0.15289092975E+04  0.50400001928E-02 0. -1.
       -1   -1    0    0    0  501  0.00000000000E+00  0.00000000000E+00 -0.11569013387E+04  0.11569013387E+04  0.50400001928E-02 0.  1.
    10030    2    1    2    0    0  0.00000000000E+00  0.00000000000E+00  0.37200795876E+03  0.26858106362E+04  0.26599227154E+04 0.  0.
        1    1    3    3  502    0 -0.66626767837E+03 -0.72161013426E+03  0.10914832759E+04  0.14683220173E+04  0.50400001928E-02 0. -1.
       -1    1    3    3    0  502  0.66626767837E+03  0.72161013426E+03 -0.71947531710E+03  0.12174886189E+04  0.50400001928E-02 0.  1.
</event>
<event>
 5   0  0.1041909E-05  0.2665105E+04  0.7818609E-02  0.8346417E-01
        1   -1    0    0  501    0  0.00000000000E+00  0.00000000000E+00  0.15100490711E+04  0.15100490711E+04  0.50400001928E-02 0. -1.
       -1   -1    0    0    0  501  0.00000000000E+00  0.00000000000E+00 -0.11759190715E+04  0.11759190715E+04  0.50400001928E-02 0.  1.
    10030    2    1    2    0    0  0.00000000000E+00  0.00000000000E+00  0.33412999962E+03  0.26859681426E+04  0.26651045019E+04 0.  0.
        5    1    3    3  502    0 -0.11333085779E+03 -0.11194297992E+04  0.88659131222E+03  0.14324919559E+04  0.46999998093E+01 0. -1.
       -5    1    3    3    0  502  0.11333085779E+03  0.11194297992E+04 -0.55246131260E+03  0.12534761867E+04  0.46999998093E+01 0.  1.
</event>
<event>
 5   0  0.9971923E-06  0.2662642E+04  0.7818609E-02  0.8347229E-01
        1   -1    0    0  501    0  0.00000000000E+00  0.00000000000E+00  0.18609183595E+04  0.18609183595E+04  0.50400001928E-02 0. -1.
       -1   -1    0    0    0  501  0.00000000000E+00  0.00000000000E+00 -0.95244170203E+03  0.95244170204E+03  0.50400001928E-02 0.  1.
    10030    2    1    2    0    0  0.00000000000E+00  0.00000000000E+00  0.90847665746E+03  0.28133600615E+04  0.26626424842E+04 0.  0.
        2    1    3    3  502    0 -0.99211579319E+03 -0.57571286228E+03 -0.25979276924E+03  0.11761085536E+04  0.25500000920E-02 0.  1.
       -2    1    3    3    0  502  0.99211579319E+03  0.57571286228E+03  0.11682694267E+04  0.16372515079E+04  0.25500000920E-02 0. -1.
</event>
<event>
 5   0  0.2516518E-05  0.2759281E+04  0.7818609E-02  0.8316023E-01
        2   -1    0    0  501    0  0.00000000000E+00  0.00000000000E+00  0.17119870996E+04  0.17119870996E+04  0.25500000920E-02 0.  1.
       -2   -1    0    0    0  501  0.00000000000E+00  0.00000000000E+00 -0.11118120655E+04  0.11118120655E+04  0.25500000920E-02 0. -1.
    10030    2    1    2    0    0  0.00000000000E+00  0.00000000000E+00  0.60017503417E+03  0.28237991651E+04  0.27592810030E+04 0.  0.
        4    1    3    3  502    0  0.50306594471E+03  0.12542028103E+04  0.58462875955E+03  0.14723764578E+04  0.12699999809E+01 0.  1.
       -4    1    3    3    0  502 -0.50306594471E+03 -0.12542028103E+04  0.15546274611E+02  0.13514227073E+04  0.12699999809E+01 0. -1.
</event>
<event>
 5   0  0.2516518E-05  0.2680329E+04  0.7818609E-02  0.8341416E-01
        2   -1    0    0  501    0  0.00000000000E+00  0.00000000000E+00  0.77282277734E+03  0.77282277734E+03  0.25500000920E-02 0. -1.
       -2   -1    0    0    0  501  0.00000000000E+00  0.00000000000E+00 -0.23240018172E+04  0.23240018172E+04  0.25500000920E-02 0.  1.
    10030    2    1    2    0    0  0.00000000000E+00  0.00000000000E+00 -0.15511790399E+04  0.30968245945E+04  0.26803294864E+04 0.  0.
        4    1    3    3  502    0 -0.57713310454E+03  0.11385394542E+04 -0.30387747532E+03  0.13121348414E+04  0.12699999809E+01 0. -1.
       -4    1    3    3    0  502  0.57713310454E+03 -0.11385394542E+04 -0.12473015645E+04  0.17846897531E+04  0.12699999809E+01 0.  1.
</event>
<event>
 5   0  0.2540232E-05  0.2706074E+04  0.7818609E-02  0.8333037E-01
        2   -1    0    0  501    0  0.00000000000E+00  0.00000000000E+00  0.13719846534E+04  0.13719846534E+04  0.25500000920E-02 0.  1.
       -2   -1    0    0    0  501  0.00000000000E+00  0.00000000000E+00 -0.13343505656E+04  0.13343505656E+04  0.25500000920E-02 0. -1.
    10030    2    1    2    0    0  0.00000000000E+00  0.00000000000E+00  0.37634087754E+02  0.27063352190E+04  0.27060735380E+04 0.  0.
        1    1    3    3  502    0 -0.12515915350E+04  0.43393729794E+03  0.29438960103E+03  0.13569997001E+04  0.50400001928E-02 0. -1.
       -1    1    3    3    0  502  0.12515915350E+04 -0.43393729794E+03 -0.25675551328E+03  0.13493355189E+04  0.50400001928E-02 0.  1.
</event>
<event>
 5   0  0.1036691E-05  0.2748915E+04  0.7818609E-02  0.8319306E-01
        1   -1    0    0  501    0  0.00000000000E+00  0.00000000000E+00  0.17752087614E+04  0.17752087614E+04  0.50400001928E-02 0. -1.
       -1   -1    0    0    0  501  0.00000000000E+00  0.00000000000E+00 -0.10641755781E+04  0.10641755781E+04  0.50400001928E-02 0.  1.
    10030    2    1    2    0    0  0.00000000000E+00  0.00000000000E+00  0.71103318332E+03  0.28393843395E+04  0.27489152842E+04 0.  0.
        4    1    3    3  502    0  0.57182966547E+03  0.89481656102E+03  0.12568438017E+04  0.16454008019E+04  0.12699999809E+01 0. -1.
       -4    1    3    3    0  502 -0.57182966547E+03 -0.89481656102E+03 -0.54581061833E+03  0.11939835376E+04  0.12699999809E+01 0.  1.
</event>
<event>
 5   0  0.1036691E-05  0.2741543E+04  0.7818609E-02  0.8321650E-01
       -1   -1    0    0    0  501  0.00000000000E+00  0.00000000000E+00  0.10872405429E+04  0.10872405429E+04  0.50400001928E-02 0.  1.
        1   -1    0    0  501    0  0.00000000000E+00  0.00000000000E+00 -0.17282422661E+04  0.17282422661E+04  0.50400001928E-02 0. -1.
    10030    2    1    2    0    0  0.00000000000E+00  0.00000000000E+00 -0.64100172319E+03  0.28154828090E+04  0.27415434045E+04 0.  0.
        4    1    3    3  502    0  0.15572197528E+03  0.10385665325E+04 -0.12252513246E+04  0.16137261841E+04  0.12699999809E+01 0. -1.
       -4    1    3    3    0  502 -0.15572197528E+03 -0.10385665325E+04  0.58424960137E+03  0.12017566249E+04  0.12699999809E+01 0.  1.
</event>
<event>
 5   0  0.2641216E-05  0.2615218E+04  0.7818609E-02  0.8363050E-01
       -2   -1    0    0    0  501  0.00000000000E+00  0.00000000000E+00  0.63394883460E+03  0.63394883461E+03  0.25500000920E-02 0.  1.
        2   -1    0    0  501    0  0.00000000000E+00  0.00000000000E+00 -0.26971273077E+04  0.26971273077E+04  0.25500000920E-02 0. -1.
    10030    2    1    2    0    0  0.00000000000E+00  0.00000000000E+00 -0.20631784731E+04  0.33310761423E+04  0.26152175538E+04 0.  0.
        5    1    3    3  502    0  0.10276092040E+04 -0.68314135913E+02 -0.53317581336E+01  0.10299019443E+04  0.46999998093E+01 0.  1.
       -5    1    3    3    0  502 -0.10276092040E+04  0.68314135913E+02 -0.20578467150E+04  0.23011741980E+04  0.46999998093E+01 0. -1.
</event>
<event>
 5   0  0.1041909E-05  0.2524328E+04  0.7818609E-02  0.8394370E-01
        1   -1    0    0  501    0  0.00000000000E+00  0.00000000000E+00  0.10453013256E+04  0.10453013256E+04  0.50400001928E-02 0. -1.
       -1   -1    0    0    0  501  0.00000000000E+00  0.00000000000E+00 -0.15240175038E+04  0.15240175038E+04  0.50400001928E-02 0.  1.
    10030    2    1    2    0    0  0.00000000000E+00  0.00000000000E+00 -0.47871617821E+03  0.25693188293E+04  0.25243276466E+04 0.  0.
        5    1    3    3  502    0  0.88579718889E+03 -0.89617644681E+03 -0.31322247680E+03  0.12984218473E+04  0.46999998093E+01 0. -1.
       -5    1    3    3    0  502 -0.88579718889E+03  0.89617644681E+03 -0.16549370141E+03  0.12708969820E+04  0.46999998093E+01 0.  1.
</event>
<event>
 5   0  0.1041909E-05  0.2735553E+04  0.7818609E-02  0.8323560E-01
        1   -1    0    0  501    0  0.00000000000E+00  0.00000000000E+00  0.20970478273E+04  0.20970478273E+04  0.50400001928E-02 0.  1.
       -1   -1    0    0    0  501  0.00000000000E+00  0.00000000000E+00 -0.89211752091E+03  0.89211752092E+03  0.50400001928E-02 0. -1.
    10030    2    1    2    0    0  0.00000000000E+00  0.00000000000E+00  0.12049303064E+04  0.29891653482E+04  0.27355534058E+04 0.  0.
        5    1    3    3  502    0  0.75008349844E+03  0.75221716280E+03 -0.33900106324E+03  0.11150783495E+04  0.46999998093E+01 0. -1.
       -5    1    3    3    0  502 -0.75008349844E+03 -0.75221716280E+03  0.15439313696E+04  0.18740869987E+04  0.46999998093E+01 0.  1.
</event>
<event>
 5   0  0.2540684E-05  0.2783904E+04  0.7818609E-02  0.8308283E-01
       -2   -1    0    0    0  501  0.00000000000E+00  0.00000000000E+00  0.10135755891E+04  0.10135755891E+04  0.25500000920E-02 0. -1.
        2   -1    0    0  501    0  0.00000000000E+00  0.00000000000E+00 -0.19115796117E+04  0.19115796117E+04  0.25500000920E-02 0.  1.
    10030    2    1    2    0    0  0.00000000000E+00  0.00000000000E+00 -0.89800402260E+03  0.29251552009E+04  0.27839040437E+04 0.  0.
        2    1    3    3  502    0 -0.84467057896E+03 -0.26549913687E+03  0.67953823674E+03  0.11161229295E+04  0.25500000920E-02 0. -1.
       -2    1    3    3    0  502  0.84467057896E+03  0.26549913687E+03 -0.15775422593E+04  0.18090322713E+04  0.25500000920E-02 0.  1.
</event>
<event>
 5   0  0.1005265E-05  0.2708905E+04  0.7818609E-02  0.8332121E-01
       -1   -1    0    0    0  501  0.00000000000E+00  0.00000000000E+00  0.16132928755E+04  0.16132928756E+04  0.50400001928E-02 0.  1.
        1   -1    0    0  501    0  0.00000000000E+00  0.00000000000E+00 -0.11371413178E+04  0.11371413178E+04  0.50400001928E-02 0. -1.
    10030    2    1    2    0    0  0.00000000000E+00  0.00000000000E+00  0.47615155772E+03  0.27504341934E+04  0.27089053040E+04 0.  0.
        3    1    3    3  502    0  0.64805476382E+03 -0.11614754848E+04  0.49801168714E+03  0.14202168600E+04  0.10100000352E+00 0.  1.
       -3    1    3    3    0  502 -0.64805476382E+03  0.11614754848E+04 -0.21860129421E+02  0.13302173334E+04  0.10100000352E+00 0. -1.
</event>
<event>
 5   0  0.2615843E-05  0.2803419E+04  0.7818609E-02  0.8302208E-01
        2   -1    0    0  501    0  0.00000000000E+00  0.00000000000E+00  0.19884615559E+04  0.19884615559E+04  0.25500000920E-02 0. -1.
       -2   -1    0    0    0  501  0.00000000000E+00  0.00000000000E+00 -0.98809546844E+03  0.98809546845E+03  0.25500000920E-02 0.  1.
    10030    2    1    2    0    0  0.00000000000E+00  0.00000000000E+00  0.10003660874E+04  0.29765570243E+04  0.28034192355E+04 0.  0.
        3    1    3    3  502    0  0.85963869808E+03  0.10882742923E+04  0.71640226820E+03  0.15609458180E+04  0.10100000352E+00 0.  1.
       -3    1    3    3    0  502 -0.85963869808E+03 -0.10882742923E+04  0.28396381922E+03  0.14156112063E+04  0.10100000352E+00 0. -1.
</event>
<event>
 5   0  0.2516518E-05  0.2684250E+04  0.7818609E-02  0.8340133E-01
        2   -1    0    0  501    0  0.00000000000E+00  0.00000000000E+00  0.15266823830E+04  0.15266823830E+04  0.25500000920E-02 0. -1.
       -2   -1    0    0    0  501  0.00000000000E+00  0.00000000000E+00 -0.11798785970E+04  0.11798785970E+04  0.25500000920E-02 0.  1.
    10030    2    1    2    0    0  0.00000000000E+00  0.00000000000E+00  0.34680378603E+03  0.27065609800E+04  0.26842502626E+04 0.  0.
        4    1    3    3  502    0 -0.96530689121E+03  0.11717572177E+03 -0.75935495564E+03  0.12337621754E+04  0.12699999809E+01 0.  1.
       -4    1    3    3    0  502  0.96530689121E+03 -0.11717572177E+03  0.11061587417E+04  0.14727988045E+04  0.12699999809E+01 0. -1.
</event>
<event>
 5   0  0.2516518E-05  0.2579089E+04  0.7818609E-02  0.8375339E-01
        2   -1    0    0  501    0  0.00000000000E+00  0.00000000000E+00  0.18995445994E+04  0.18995445994E+04  0.25500000920E-02 0.  1.
       -2   -1    0    0    0  501  0.00000000000E+00  0.00000000000E+00 -0.87543367703E+03  0.87543367703E+03  0.25500000920E-02 0. -1.
    10030    2    1    2    0    0  0.00000000000E+00  0.00000000000E+00  0.10241109224E+04  0.27749782764E+04  0.25790892294E+04 0.  0.
        4    1    3    3  502    0  0.63752013439E+02 -0.49648247824E+03 -0.76663851999E+03  0.91558473319E+03  0.12699999809E+01 0. -1.
       -4    1    3    3    0  502 -0.63752013439E+02  0.49648247824E+03  0.17907494424E+04  0.18593935432E+04  0.12699999809E+01 0.  1.
</event>
<event>
 5   0  0.9971923E-06  0.2689383E+04  0.7818609E-02  0.8338458E-01
        1   -1    0    0  501    0  0.00000000000E+00  0.00000000000E+00  0.89873598614E+03  0.89873598616E+03  0.50400001928E-02 0.  1.
       -1   -1    0    0    0  501  0.00000000000E+00  0.00000000000E+00 -0.20119311697E+04  0.20119311697E+04  0.50400001928E-02 0. -1.
    10030    2    1    2    0    0  0.00000000000E+00  0.00000000000E+00 -0.11131951835E+04  0.29106671558E+04  0.26893827871E+04 0.  0.
        2    1    3    3  502    0  0.11772509279E+04  0.26564517347E+03  0.85248569428E+02  0.12098571916E+04  0.25500000920E-02 0.  1.
       -2    1    3    3    0  502 -0.11772509279E+04 -0.26564517347E+03 -0.11984437530E+04  0.17008099642E+04  0.25500000920E-02 0. -1.
</event>
<event>
 5   0  0.2540232E-05  0.2627588E+04  0.7818609E-02  0.8358890E-01
       -2   -1    0    0    0  501  0.00000000000E+00  0.00000000000E+00  0.14879009377E+04  0.14879009377E+04  0.25500000920E-02 0.  1.
        2   -1    0    0  501    0  0.00000000000E+00  0.00000000000E+00 -0.11600604285E+04  0.11600604285E+04  0.25500000920E-02 0. -1.
    10030    2    1    2    0    0  0.00000000000E+00  0.00000000000E+00  0.32784050915E+03  0.26479613662E+04  0.26275882474E+04 0.  0.
        1    1    3    3  502    0 -0.25912754018E+03 -0.93238256880E+03 -0.73154726023E+03  0.12131140633E+04  0.50400001928E-02 0. -1.
       -1    1    3    3    0  502  0.25912754018E+03  0.93238256880E+03  0.10593877694E+04  0.14348473029E+04  0.50400001928E-02 0.  1.
</event>
<event>
 5   0  0.1096672E-05  0.1667623E+04  0.7818609E-02  0.8780048E-01
        1   -1    0    0  501    0  0.00000000000E+00  0.00000000000E+00  0.74109626083E+03  0.74109626085E+03  0.50400001928E-02 0. -1.
       -1   -1    0    0    0  501  0.00000000000E+00  0.00000000000E+00 -0.93812643588E+03  0.93812643589E+03  0.50400001928E-02 0.  1.
    10030    2    1    2    0    0  0.00000000000E+00  0.00000000000E+00 -0.19703017505E+03  0.16792226967E+04  0.16676234513E+04 0.  0.
        1    1    3    3  502    0  0.68386985726E+03 -0.14935319236E+02 -0.57863435572E+03  0.89594573668E+03  0.50400001928E-02 0.  1.
       -1    1    3    3    0  502 -0.68386985726E+03  0.14935319236E+02  0.38160418067E+03  0.78327696006E+03  0.50400001928E-02 0. -1.
</event>
<event>
 5   0  0.1041909E-05  0.2679706E+04  0.7818609E-02  0.8341620E-01
        1   -1    0    0  501    0  0.00000000000E+00  0.00000000000E+00  0.96845445975E+03  0.96845445976E+03  0.50400001928E-02 0. -1.
       -1   -1    0    0    0  501  0.00000000000E+00  0.00000000000E+00 -0.18536815493E+04  0.18536815493E+04  0.50400001928E-02 0.  1.
    10030    2    1    2    0    0  0.00000000000E+00  0.00000000000E+00 -0.88522708956E+03  0.28221360091E+04  0.26797060760E+04 0.  0.
        5    1    3    3  502    0  0.71819133537E+03  0.14975806987E+03 -0.16233449853E+04  0.17814312518E+04  0.46999998093E+01 0.  1.
       -5    1    3    3    0  502 -0.71819133537E+03 -0.14975806987E+03  0.73811789576E+03  0.10407047572E+04  0.46999998093E+01 0. -1.
</event>
<event>
 5   0  0.2540232E-05  0.2689263E+04  0.7818609E-02  0.8338497E-01
        2   -1    0    0  501    0  0.00000000000E+00  0.00000000000E+00  0.20271433890E+04  0.20271433890E+04  0.25500000920E-02 0. -1.
       -2   -1    0    0    0  501  0.00000000000E+00  0.00000000000E+00 -0.89191190880E+03  0.89191190880E+03  0.25500000920E-02 0.  1.
    10030    2    1    2    0    0  0.00000000000E+00  0.00000000000E+00  0.11352314802E+04  0.29190552978E+04  0.26892625975E+04 0.  0.
        1    1    3    3  502    0  0.10765735591E+04  0.17053576690E+03 -0.28702586069E+03  0.11271543464E+04  0.50400001928E-02 0.  1.
       -1    1    3    3    0  502 -0.10765735591E+04 -0.17053576690E+03  0.14222573409E+04  0.17919009514E+04  0.50400001928E-02 0. -1.
</event>
<event>
 5   0  0.1041909E-05  0.2693324E+04  0.7818609E-02  0.8337174E-01
        1   -1    0    0  501    0  0.00000000000E+00  0.00000000000E+00  0.21648556006E+04  0.21648556006E+04  0.50400001928E-02 0.  1.
       -1   -1    0    0    0  501  0.00000000000E+00  0.00000000000E+00 -0.83769954775E+03  0.83769954777E+03  0.50400001928E-02 0. -1.
    10030    2    1    2    0    0  0.00000000000E+00  0.00000000000E+00  0.13271560528E+04  0.30025551483E+04  0.26933240114E+04 0.  0.
        5    1    3    3  502    0  0.10687134655E+04 -0.42157736201E+03  0.14468096174E+04  0.18474728963E+04  0.46999998093E+01 0.  1.
       -5    1    3    3    0  502 -0.10687134655E+04  0.42157736201E+03 -0.11965356461E+03  0.11550822520E+04  0.46999998093E+01 0. -1.
</event>
<event>
 5   0  0.1005265E-05  0.2711265E+04  0.7818609E-02  0.8331359E-01
       -1   -1    0    0    0  501  0.00000000000E+00  0.00000000000E+00  0.13018846203E+04  0.13018846203E+04  0.50400001928E-02 0.  1.
        1   -1    0    0  501    0  0.00000000000E+00  0.00000000000E+00 -0.14115993925E+04  0.14115993926E+04  0.50400001928E-02 0. -1.
    10030    2    1    2    0    0  0.00000000000E+00  0.00000000000E+00 -0.10971477223E+03  0.27134840129E+04  0.27112650473E+04 0.  0.
        3    1    3    3  502    0  0.11186781271E+03  0.13278763216E+04  0.19428328196E+03  0.13466684584E+04  0.10100000352E+00 0. -1.
       -3    1    3    3    0  502 -0.11186781271E+03 -0.13278763216E+04 -0.30399805419E+03  0.13668155545E+04  0.10100000352E+00 0.  1.
</event>
<event>
 5   0  0.1036691E-05  0.2614236E+04  0.7818609E-02  0.8363382E-01
        1   -1    0    0  501    0  0.00000000000E+00  0.00000000000E+00  0.13092077288E+04  0.13092077288E+04  0.50400001928E-02 0.  1.
       -1   -1    0    0    0  501  0.00000000000E+00  0.00000000000E+00 -0.13050312624E+04  0.13050312624E+04  0.50400001928E-02 0. -1.
    10030    2    1    2    0    0  0.00000000000E+00  0.00000000000E+00  0.41764663727E+01  0.26142389912E+04  0.26142356551E+04 0.  0.
        4    1    3    3  502    0 -0.80636840686E+02 -0.11796113737E+04  0.55937711854E+03  0.13080098114E+04  0.12699999809E+01 0. -1.
       -4    1    3    3    0  502  0.80636840686E+02  0.11796113737E+04 -0.55520065217E+03  0.13062291798E+04  0.12699999809E+01 0.  1.
</event>
<event>
 5   0  0.2641216E-05  0.1879103E+04  0.7818609E-02  0.8665329E-01
       -2   -1    0    0    0  501  0.00000000000E+00  0.00000000000E+00  0.43051094337E+03  0.43051094338E+03  0.25500000920E-02 0.  1.
        2   -1    0    0  501    0  0.00000000000E+00  0.00000000000E+00 -0.20504866868E+04  0.20504866868E+04  0.25500000920E-02 0. -1.
    10030    2    1    2    0    0  0.00000000000E+00  0.00000000000E+00 -0.16199757434E+04  0.24809976302E+04  0.18791029327E+04 0.  0.
        5    1    3    3  502    0 -0.42909315704E+03  0.46718846794E+03  0.10508180471E+03  0.64300099352E+03  0.46999998093E+01 0.  1.
       -5    1    3    3    0  502  0.42909315704E+03 -0.46718846794E+03 -0.17250575482E+04  0.18379966367E+04  0.46999998093E+01 0. -1.
</event>
<event>
 5   0  0.2540232E-05  0.2678783E+04  0.7818609E-02  0.8341922E-01
        2   -1    0    0  501    0  0.00000000000E+00  0.00000000000E+00  0.20386037265E+04  0.20386037265E+04  0.25500000920E-02 0. -1.
       -2   -1    0    0    0  501  0.00000000000E+00  0.00000000000E+00 -0.87999891607E+03  0.87999891608E+03  0.25500000920E-02 0.  1.
    10030    2    1    2    0    0  0.00000000000E+00  0.00000000000E+00  0.11586048105E+04  0.29186026426E+04  0.26787826113E+04 0.  0.
        1    1    3    3  502    0 -0.20521401144E+03  0.10218425550E+03 -0.85846488148E+03  0.88854733432E+03  0.50400001928E-02 0.  1.
       -1    1    3    3    0  502  0.20521401144E+03 -0.10218425550E+03  0.20170696919E+04  0.20300553083E+04  0.50400001928E-02 0. -1.
</event>
<event>
 5   0  0.9971923E-06  0.1756251E+04  0.7818609E-02  0.8729917E-01
       -1   -1    0    0    0  501  0.00000000000E+00  0.00000000000E+00  0.51289666141E+03  0.51289666144E+03  0.50400001928E-02 0.  1.
        1   -1    0    0  501    0  0.00000000000E+00  0.00000000000E+00 -0.15034297553E+04  0.15034297553E+04  0.50400001928E-02 0. -1.
    10030    2    1    2    0    0  0.00000000000E+00  0.00000000000E+00 -0.99053309390E+03  0.20163264168E+04  0.17562506680E+04 0.  0.
        2    1    3    3  502    0 -0.62399853783E+03  0.60628332386E+03 -0.35869520122E+03  0.94107167176E+03  0.25500000920E-02 0.  1.
       -2    1    3    3    0  502  0.62399853783E+03 -0.60628332386E+03 -0.63183789268E+03  0.10752547450E+04  0.25500000920E-02 0. -1.
</event>
<event>
 5   0  0.1041909E-05  0.2732516E+04  0.7818609E-02  0.8324531E-01
        1   -1    0    0  501    0  0.00000000000E+00  0.00000000000E+00  0.21024481956E+04  0.21024481956E+04  0.50400001928E-02 0.  1.
       -1   -1    0    0    0  501  0.00000000000E+00  0.00000000000E+00 -0.88785139396E+03  0.88785139397E+03  0.50400001928E-02 0. -1.
    10030    2    1    2    0    0  0.00000000000E+00  0.00000000000E+00  0.12145968017E+04  0.29902995896E+04  0.27325164675E+04 0.  0.
        5    1    3    3  502    0  0.10938790358E+03  0.13274431864E+04  0.94025157687E+03  0.16303883723E+04  0.46999998093E+01 0. -1.
       -5    1    3    3    0  502 -0.10938790358E+03 -0.13274431864E+04  0.27434522481E+03  0.13599112173E+04  0.46999998093E+01 0.  1.
</event>
<event>
 5   0  0.2615843E-05  0.2708751E+04  0.7818609E-02  0.8332171E-01
        2   -1    0    0  501    0  0.00000000000E+00  0.00000000000E+00  0.13965579584E+04  0.13965579585E+04  0.25500000920E-02 0.  1.
       -2   -1    0    0    0  501  0.00000000000E+00  0.00000000000E+00 -0.13134670660E+04  0.13134670660E+04  0.25500000920E-02 0. -1.
    10030    2    1    2    0    0  0.00000000000E+00  0.00000000000E+00  0.83090892423E+02  0.27100250245E+04  0.27087509182E+04 0.  0.
        3    1    3    3  502    0 -0.48472171574E+03  0.11327620243E+04 -0.52106053033E+03  0.13377626964E+04  0.10100000352E+00 0. -1.
       -3    1    3    3    0  502  0.48472171574E+03 -0.11327620243E+04  0.60415142275E+03  0.13722623281E+04  0.10100000352E+00 0.  1.
</event>
<event>
 5   0  0.2540232E-05  0.2742318E+04  0.7818609E-02  0.8321404E-01
       -2   -1    0    0    0  501  0.00000000000E+00  0.00000000000E+00  0.10258253157E+04  0.10258253157E+04  0.25500000920E-02 0. -1.
        2   -1    0    0  501    0  0.00000000000E+00  0.00000000000E+00 -0.18327453053E+04  0.18327453053E+04  0.25500000920E-02 0.  1.
    10030    2    1    2    0    0  0.00000000000E+00  0.00000000000E+00 -0.80691998959E+03  0.28585706210E+04  0.27423176558E+04 0.  0.
        1    1    3    3  502    0 -0.15237609427E+03  0.75150633796E+03  0.78143156089E+03  0.10948130135E+04  0.50400001928E-02 0. -1.
       -1    1    3    3    0  502  0.15237609427E+03 -0.75150633796E+03 -0.15883515505E+04  0.17637576075E+04  0.50400001928E-02 0.  1.
</event>
<event>
 5   0  0.8740500E-06  0.2582559E+04  0.7818609E-02  0.8374150E-01
        3   -1    0    0  501    0  0.00000000000E+00  0.00000000000E+00  0.12330757712E+04  0.12330757753E+04  0.10100000352E+00 0.  1.
       -3   -1    0    0    0  501  0.00000000000E+00  0.00000000000E+00 -0.13522304376E+04  0.13522304414E+04  0.10100000352E+00 0. -1.
    10030    2    1    2    0    0  0.00000000000E+00  0.00000000000E+00 -0.11915466649E+03  0.25853062167E+04  0.25825588860E+04 0.  0.
        2    1    3    3  502    0 -0.41052063292E+03 -0.17012379584E+03  0.11541204886E+04  0.12367147602E+04  0.25500000920E-02 0.  1.
       -2    1    3    3    0  502  0.41052063292E+03  0.17012379584E+03 -0.12732751551E+04  0.13485914565E+04  0.25500000920E-02 0. -1.
</event>
<event>
 5   0  0.9971923E-06  0.2654822E+04  0.7818609E-02  0.8349814E-01
       -1   -1    0    0    0  501  0.00000000000E+00  0.00000000000E+00  0.10320102229E+04  0.10320102230E+04  0.50400001928E-02 0.  1.
        1   -1    0    0  501    0  0.00000000000E+00  0.00000000000E+00 -0.17073672124E+04  0.17073672124E+04  0.50400001928E-02 0. -1.
    10030    2    1    2    0    0  0.00000000000E+00  0.00000000000E+00 -0.67535698950E+03  0.27393774354E+04  0.26548223425E+04 0.  0.
        2    1    3    3  502    0 -0.15315386372E+03  0.13185177954E+04 -0.34662260970E+03  0.13718937700E+04  0.25500000920E-02 0. -1.
       -2    1    3    3    0  502  0.15315386372E+03 -0.13185177954E+04 -0.32873437979E+03  0.13674836654E+04  0.25500000920E-02 0.  1.
</event>
<event>
 5   0  0.1041909E-05  0.2695047E+04  0.7818609E-02  0.8336614E-01
       -1   -1    0    0    0  501  0.00000000000E+00  0.00000000000E+00  0.10690598685E+04  0.10690598685E+04  0.50400001928E-02 0. -1.
        1   -1    0    0  501    0  0.00000000000E+00  0.00000000000E+00 -0.16985203177E+04  0.16985203177E+04  0.50400001928E-02 0.  1.
    10030    2    1    2    0    0  0.00000000000E+00  0.00000000000E+00 -0.62946044923E+03  0.27675801862E+04  0.26950472407E+04 0.  0.
        5    1    3    3  502    0  0.10382975867E+04 -0.85632977067E+03 -0.38312036682E+03  0.13993447967E+04  0.46999998093E+01 0. -1.
       -5    1    3    3    0  502 -0.10382975867E+04  0.85632977067E+03 -0.24634008241E+03  0.13682353894E+04  0.46999998093E+01 0.  1.
</event>
<event>
 5   0  0.9971923E-06  0.2634693E+04  0.7818609E-02  0.8356511E-01
       -1   -1    0    0    0  501  0.00000000000E+00  0.00000000000E+00  0.16410900951E+04  0.16410900951E+04  0.50400001928E-02 0.  1.
        1   -1    0    0  501    0  0.00000000000E+00  0.00000000000E+00 -0.10574693131E+04  0.10574693132E+04  0.50400001928E-02 0. -1.
    10030    2    1    2    0    0  0.00000000000E+00  0.00000000000E+00  0.58362078195E+03  0.26985594083E+04  0.26346934666E+04 0.  0.
        2    1    3    3  502    0  0.90542086945E+03  0.58744579518E+03  0.10654495256E+04  0.15165955969E+04  0.25500000920E-02 0.  1.
       -2    1    3    3    0  502 -0.90542086945E+03 -0.58744579518E+03 -0.48182874361E+03  0.11819638113E+04  0.25500000920E-02 0. -1.
</event>
<event>
 5   0  0.1041909E-05  0.2699653E+04  0.7818609E-02  0.8335117E-01
        1   -1    0    0  501    0  0.00000000000E+00  0.00000000000E+00  0.25282483939E+04  0.25282483939E+04  0.50400001928E-02 0. -1.
       -1   -1    0    0    0  501  0.00000000000E+00  0.00000000000E+00 -0.72066976829E+03  0.72066976830E+03  0.50400001928E-02 0.  1.
    10030    2    1    2    0    0  0.00000000000E+00  0.00000000000E+00  0.18075786256E+04  0.32489181622E+04  0.26996534476E+04 0.  0.
        5    1    3    3  502    0 -0.40723313201E+03  0.12842336255E+04  0.10038665214E+04  0.16801383608E+04  0.46999998093E+01 0.  1.
       -5    1    3    3    0  502  0.40723313201E+03 -0.12842336255E+04  0.80371210417E+03  0.15687798014E+04  0.46999998093E+01 0. -1.
</event>
<event>
 5   0  0.9971923E-06  0.2704342E+04  0.7818609E-02  0.8333597E-01
       -1   -1    0    0    0  501  0.00000000000E+00  0.00000000000E+00  0.74127092317E+03  0.74127092319E+03  0.50400001928E-02 0. -1.
        1   -1    0    0  501    0  0.00000000000E+00  0.00000000000E+00 -0.24665300501E+04  0.24665300501E+04  0.50400001928E-02 0.  1.
    10030    2    1    2    0    0  0.00000000000E+00  0.00000000000E+00 -0.17252591269E+04  0.32078009733E+04  0.27043424393E+04 0.  0.
        2    1    3    3  502    0 -0.73242781813E+03 -0.11246032215E+04 -0.10581999759E+04  0.17090845806E+04  0.25500000920E-02 0.  1.
       -2    1    3    3    0  502  0.73242781813E+03  0.11246032215E+04 -0.66705915102E+03  0.14987163927E+04  0.25500000920E-02 0. -1.
</event>
<event>
 5   0  0.2615843E-05  0.2614357E+04  0.7818609E-02  0.8363341E-01
       -2   -1    0    0    0  501  0.00000000000E+00  0.00000000000E+00  0.12983218542E+04  0.12983218542E+04  0.25500000920E-02 0.  1.
        2   -1    0    0  501    0  0.00000000000E+00  0.00000000000E+00 -0.13160957623E+04  0.13160957623E+04  0.25500000920E-02 0. -1.
    10030    2    1    2    0    0  0.00000000000E+00  0.00000000000E+00 -0.17773908089E+02  0.26144176165E+04  0.26143571985E+04 0.  0.
        3    1    3    3  502    0 -0.10559750382E+04 -0.26241130040E+03 -0.73331580737E+03  0.13121337796E+04  0.10100000352E+00 0. -1.
       -3    1    3    3    0  502  0.10559750382E+04  0.26241130040E+03  0.71554189928E+03  0.13022838369E+04  0.10100000352E+00 0.  1.
</event>
<event>
 5   0  0.2540684E-05  0.2761402E+04  0.7818609E-02  0.8315353E-01
       -2   -1    0    0    0  501  0.00000000000E+00  0.00000000000E+00  0.14365555711E+04  0.14365555711E+04  0.25500000920E-02 0. -1.
        2   -1    0    0  501    0  0.00000000000E+00  0.00000000000E+00 -0.13270180739E+04  0.13270180739E+04  0.25500000920E-02 0.  1.
    10030    2    1    2    0    0  0.00000000000E+00  0.00000000000E+00  0.10953749727E+03  0.27635736450E+04  0.27614019678E+04 0.  0.
        2    1    3    3  502    0 -0.26420733805E+03  0.33188569342E+03  0.13697204721E+04  0.14339064832E+04  0.25500000920E-02 0. -1.
       -2    1    3    3    0  502  0.26420733805E+03 -0.33188569342E+03 -0.12601829748E+04  0.13296671618E+04  0.25500000920E-02 0.  1.
</event>
<event>
 5   0  0.2540232E-05  0.2699483E+04  0.7818609E-02  0.8335173E-01
        2   -1    0    0  501    0  0.00000000000E+00  0.00000000000E+00  0.11062377613E+04  0.11062377613E+04  0.25500000920E-02 0. -1.
       -2   -1    0    0    0  501  0.00000000000E+00  0.00000000000E+00 -0.16468447342E+04  0.16468447342E+04  0.25500000920E-02 0.  1.
    10030    2    1    2    0    0  0.00000000000E+00  0.00000000000E+00 -0.54060697290E+03  0.27530824956E+04  0.26994827891E+04 0.  0.
        1    1    3    3  502    0  0.12630955998E+04 -0.12601393524E+03 -0.73822920013E+03  0.14684251285E+04  0.50400001928E-02 0.  1.
       -1    1    3    3    0  502 -0.12630955998E+04  0.12601393524E+03  0.19762222723E+03  0.12846573671E+04  0.50400001928E-02 0. -1.
</event>
<event>
 5   0  0.9971923E-06  0.2933574E+04  0.7818609E-02  0.8262958E-01
        1   -1    0    0  501    0  0.00000000000E+00  0.00000000000E+00  0.21128814040E+04  0.21128814040E+04  0.50400001928E-02 0. -1.
       -1   -1    0    0    0  501  0.00000000000E+00  0.00000000000E+00 -0.10182605079E+04  0.10182605079E+04  0.50400001928E-02 0.  1.
    10030    2    1    2    0    0  0.00000000000E+00  0.00000000000E+00  0.10946208961E+04  0.31311419118E+04  0.29335737192E+04 0.  0.
        2    1    3    3  502    0  0.77407016534E+03 -0.10054908568E+04 -0.23794616642E+03  0.12910518433E+04  0.25500000920E-02 0.  1.
       -2    1    3    3    0  502 -0.77407016534E+03  0.10054908568E+04  0.13325670625E+04  0.18400900685E+04  0.25500000920E-02 0. -1.
</event>
<event>
 5   0  0.2516518E-05  0.2915957E+04  0.7818609E-02  0.8268146E-01
        2   -1    0    0  501    0  0.00000000000E+00  0.00000000000E+00  0.19270342544E+04  0.19270342544E+04  0.25500000920E-02 0. -1.
       -2   -1    0    0    0  501  0.00000000000E+00  0.00000000000E+00 -0.11030947767E+04  0.11030947767E+04  0.25500000920E-02 0.  1.
    10030    2    1    2    0    0  0.00000000000E+00  0.00000000000E+00  0.82393947773E+03  0.30301290311E+04  0.29159570783E+04 0.  0.
        4    1    3    3  502    0  0.14052495916E+04 -0.36288729140E+03  0.26765742050E+03  0.14758237390E+04  0.12699999809E+01 0. -1.
       -4    1    3    3    0  502 -0.14052495916E+04  0.36288729140E+03  0.55628205723E+03  0.15543052921E+04  0.12699999809E+01 0.  1.
</event>
<event>
 5   0  0.1096672E-05  0.2719817E+04  0.7818609E-02  0.8328604E-01
       -1   -1    0    0    0  501  0.00000000000E+00  0.00000000000E+00  0.11356093275E+04  0.11356093276E+04  0.50400001928E-02 0.  1.
        1   -1    0    0  501    0  0.00000000000E+00  0.00000000000E+00 -0.16285100331E+04  0.16285100331E+04  0.50400001928E-02 0. -1.
    10030    2    1    2    0    0  0.00000000000E+00  0.00000000000E+00 -0.49290070559E+03  0.27641193607E+04  0.27198170407E+04 0.  0.
        1    1    3    3  502    0  0.68996452920E+02 -0.11772137088E+04  0.44189944856E+03  0.12593124113E+04  0.50400001928E-02 0.  1.
       -1    1    3    3    0  502 -0.68996452920E+02  0.11772137088E+04 -0.93480015414E+03  0.15048069494E+04  0.50400001928E-02 0. -1.
</event>
<event>
 5   0  0.1036691E-05  0.2019655E+04  0.7818609E-02  0.8597486E-01
        1   -1    0    0  501    0  0.00000000000E+00  0.00000000000E+00  0.15852333669E+04  0.15852333669E+04  0.50400001928E-02 0. -1.
       -1   -1    0    0    0  501  0.00000000000E+00  0.00000000000E+00 -0.64328166815E+03  0.64328166817E+03  0.50400001928E-02 0.  1.
    10030    2    1    2    0    0  0.00000000000E+00  0.00000000000E+00  0.94195169871E+03  0.22285150350E+04  0.20196549851E+04 0.  0.
        4    1    3    3  502    0 -0.27521608892E+03 -0.73504774036E+03  0.11720655823E+04  0.14105950582E+04  0.12699999809E+01 0. -1.
       -4    1    3    3    0  502  0.27521608892E+03  0.73504774036E+03 -0.23011388355E+03  0.81791997684E+03  0.12699999809E+01 0.  1.
</event>
<event>
 5   0  0.2615843E-05  0.2845859E+04  0.7818609E-02  0.8289171E-01
        2   -1    0    0  501    0  0.00000000000E+00  0.00000000000E+00  0.15180770128E+04  0.15180770128E+04  0.25500000920E-02 0.  1.
       -2   -1    0    0    0  501  0.00000000000E+00  0.00000000000E+00 -0.13337451035E+04  0.13337451035E+04  0.25500000920E-02 0. -1.
    10030    2    1    2    0    0  0.00000000000E+00  0.00000000000E+00  0.18433190927E+03  0.28518221163E+04  0.28458585928E+04 0.  0.
        3    1    3    3  502    0 -0.14761765948E+03 -0.49091847265E+03 -0.12379948986E+04  0.13399340653E+04  0.10100000352E+00 0. -1.
       -3    1    3    3    0  502  0.14761765948E+03  0.49091847265E+03  0.14223268079E+04  0.15118880510E+04  0.10100000352E+00 0.  1.
</event>
<event>
 5   0  0.1041909E-05  0.2758223E+04  0.7818609E-02  0.8316357E-01
        1   -1    0    0  501    0  0.00000000000E+00  0.00000000000E+00  0.15885525510E+04  0.15885525510E+04  0.50400001928E-02 0.  1.
       -1   -1    0    0    0  501  0.00000000000E+00  0.00000000000E+00 -0.11972839785E+04  0.11972839785E+04  0.50400001928E-02 0. -1.
    10030    2    1    2    0    0  0.00000000000E+00  0.00000000000E+00  0.39126857253E+03  0.27858365296E+04  0.27582229920E+04 0.  0.
        5    1    3    3  502    0  0.10980556719E+04 -0.83418241102E+03  0.21425454826E+03  0.13955334661E+04  0.46999998093E+01 0. -1.
       -5    1    3    3    0  502 -0.10980556719E+04  0.83418241102E+03  0.17701402427E+03  0.13903030635E+04  0.46999998093E+01 0.  1.
</event>
<event>
 5   0  0.2615843E-05  0.2682923E+04  0.7818609E-02  0.8340567E-01
       -2   -1    0    0    0  501  0.00000000000E+00  0.00000000000E+00  0.12766030957E+04  0.12766030957E+04  0.25500000920E-02 0.  1.
        2   -1    0    0  501    0  0.00000000000E+00  0.00000000000E+00 -0.14096154937E+04  0.14096154937E+04  0.25500000920E-02 0. -1.
    10030    2    1    2    0    0  0.00000000000E+00  0.00000000000E+00 -0.13301239809E+03  0.26862185894E+04  0.26829234078E+04 0.  0.
        3    1    3    3  502    0  0.25537633551E+03  0.90365981969E+03 -0.10256500812E+04  0.13906028339E+04  0.10100000352E+00 0. -1.
       -3    1    3    3    0  502 -0.25537633551E+03 -0.90365981969E+03  0.89263768307E+03  0.12956157555E+04  0.10100000352E+00 0.  1.
</event>
<event>
 5   0  0.1036691E-05  0.2387869E+04  0.7818609E-02  0.8444059E-01
       -1   -1    0    0    0  501  0.00000000000E+00  0.00000000000E+00  0.73780597827E+03  0.73780597828E+03  0.50400001928E-02 0.  1.
        1   -1    0    0  501    0  0.00000000000E+00  0.00000000000E+00 -0.19320520372E+04  0.19320520372E+04  0.50400001928E-02 0. -1.
    10030    2    1    2    0    0  0.00000000000E+00  0.00000000000E+00 -0.11942460589E+04  0.26698580155E+04  0.23878689607E+04 0.  0.
        4    1    3    3  502    0  0.83017984668E+03 -0.47254687950E+02  0.36081941540E+03  0.90643468976E+03  0.12699999809E+01 0.  1.
       -4    1    3    3    0  502 -0.83017984668E+03  0.47254687950E+02 -0.15550654743E+04  0.17634233257E+04  0.12699999809E+01 0. -1.
</event>
<event>
 5   0  0.1041909E-05  0.2680473E+04  0.7818609E-02  0.8341369E-01
       -1   -1    0    0    0  501  0.00000000000E+00  0.00000000000E+00  0.12617514978E+04  0.12617514978E+04  0.50400001928E-02 0. -1.
        1   -1    0    0  501    0  0.00000000000E+00  0.00000000000E+00 -0.14236036500E+04  0.14236036500E+04  0.50400001928E-02 0.  1.
    10030    2    1    2    0    0  0.00000000000E+00  0.00000000000E+00 -0.16185215216E+03  0.26853551478E+04  0.26804731206E+04 0.  0.
        5    1    3    3  502    0  0.17158237727E+03  0.97358180276E+03 -0.98751067571E+03  0.13973193849E+04  0.46999998093E+01 0.  1.
       -5    1    3    3    0  502 -0.17158237727E+03 -0.97358180276E+03  0.82565852354E+03  0.12880357628E+04  0.46999998093E+01 0. -1.
</event>
<event>
 5   0  0.2641216E-05  0.2727247E+04  0.7818609E-02  0.8326218E-01
        2   -1    0    0  501    0  0.00000000000E+00  0.00000000000E+00  0.20604667110E+04  0.20604667110E+04  0.25500000920E-02 0. -1.
       -2   -1    0    0    0  501  0.00000000000E+00  0.00000000000E+00 -0.90245072558E+03  0.90245072558E+03  0.25500000920E-02 0.  1.
    10030    2    1    2    0    0  0.00000000000E+00  0.00000000000E+00  0.11580159855E+04  0.29629174366E+04  0.27272474610E+04 0.  0.
        5    1    3    3  502    0  0.61166341733E+03 -0.11343342952E+04  0.10631646335E+04  0.16706847570E+04  0.46999998093E+01 0. -1.
       -5    1    3    3    0  502 -0.61166341733E+03  0.11343342952E+04  0.94851352008E+02  0.12922326796E+04  0.46999998093E+01 0.  1.
</event>
<event>
 5   0  0.1096672E-05  0.2812042E+04  0.7818609E-02  0.8299540E-01
       -1   -1    0    0    0  501  0.00000000000E+00  0.00000000000E+00  0.92585993480E+03  0.92585993481E+03  0.50400001928E-02 0.  1.
        1   -1    0    0  501    0  0.00000000000E+00  0.00000000000E+00 -0.21351988633E+04  0.21351988633E+04  0.50400001928E-02 0. -1.
    10030    2    1    2    0    0  0.00000000000E+00  0.00000000000E+00 -0.12093389285E+04  0.30610587981E+04  0.28120420198E+04 0.  0.
        1    1    3    3  502    0 -0.96085280767E+03  0.66828205860E+03 -0.14528030521E+04  0.18656033169E+04  0.50400001928E-02 0. -1.
       -1    1    3    3    0  502  0.96085280767E+03 -0.66828205860E+03  0.24346412368E+03  0.11954554811E+04  0.50400001928E-02 0.  1.
</event>
<event>
 5   0  0.2641216E-05  0.2412812E+04  0.7818609E-02  0.8434722E-01
        2   -1    0    0  501    0  0.00000000000E+00  0.00000000000E+00  0.98449117686E+03  0.98449117687E+03  0.25500000920E-02 0. -1.
       -2   -1    0    0    0  501  0.00000000000E+00  0.00000000000E+00 -0.14783431070E+04  0.14783431070E+04  0.25500000920E-02 0.  1.
    10030    2    1    2    0    0  0.00000000000E+00  0.00000000000E+00 -0.49385193009E+03  0.24628342838E+04  0.24128122556E+04 0.  0.
        5    1    3    3  502    0 -0.31362025374E+03  0.33240118865E+03  0.89270887536E+03  0.10028955279E+04  0.46999998093E+01 0. -1.
       -5    1    3    3    0  502  0.31362025374E+03 -0.33240118865E+03 -0.13865608055E+04  0.14599387559E+04  0.46999998093E+01 0.  1.
</event>
<event>
 5   0  0.9971923E-06  0.2669797E+04  0.7818609E-02  0.8344872E-01
       -1   -1    0    0    0  501  0.00000000000E+00  0.00000000000E+00  0.62130601596E+03  0.62130601598E+03  0.50400001928E-02 0. -1.
        1   -1    0    0  501    0  0.00000000000E+00  0.00000000000E+00 -0.28680785692E+04  0.28680785692E+04  0.50400001928E-02 0.  1.
    10030    2    1    2    0    0  0.00000000000E+00  0.00000000000E+00 -0.22467725533E+04  0.34893845852E+04  0.26697973476E+04 0.  0.
        2    1    3    3  502    0 -0.53296027583E+03 -0.13006978142E+03 -0.27139334527E+04  0.27688263921E+04  0.25500000920E-02 0.  1.
       -2    1    3    3    0  502  0.53296027583E+03  0.13006978142E+03  0.46716089948E+03  0.72055819311E+03  0.25500000920E-02 0. -1.
</event>
<event>
 5   0  0.1005265E-05  0.2323135E+04  0.7818609E-02  0.8468855E-01
       -1   -1    0    0    0  501  0.00000000000E+00  0.00000000000E+00  0.64655127490E+03  0.64655127492E+03  0.50400001928E-02 0. -1.
        1   -1    0    0  501    0  0.00000000000E+00  0.00000000000E+00 -0.20868236427E+04  0.20868236427E+04  0.50400001928E-02 0.  1.
    10030    2    1    2    0    0  0.00000000000E+00  0.00000000000E+00 -0.14402723678E+04  0.27333749177E+04  0.23231345090E+04 0.  0.
        3    1    3    3  502    0 -0.11506053472E+04  0.13304547922E+03 -0.82301013297E+03  0.14208938925E+04  0.10100000352E+00 0.  1.
       -3    1    3    3    0  502  0.11506053472E+04 -0.13304547922E+03 -0.61726223487E+03  0.13124810252E+04  0.10100000352E+00 0. -1.
</event>
<event>
 5   0  0.1041909E-05  0.2575184E+04  0.7818609E-02  0.8376680E-01
       -1   -1    0    0    0  501  0.00000000000E+00  0.00000000000E+00  0.97477393161E+03  0.97477393162E+03  0.50400001928E-02 0.  1.
        1   -1    0    0  501    0  0.00000000000E+00  0.00000000000E+00 -0.17007971536E+04  0.17007971536E+04  0.50400001928E-02 0. -1.
    10030    2    1    2    0    0  0.00000000000E+00  0.00000000000E+00 -0.72602322202E+03  0.26755710853E+04  0.25751836659E+04 0.  0.
        5    1    3    3  502    0  0.10504179633E+04 -0.37954962085E+03 -0.10286377787E+04  0.15184049467E+04  0.46999998093E+01 0. -1.
       -5    1    3    3    0  502 -0.10504179633E+04  0.37954962085E+03  0.30261455663E+03  0.11571661386E+04  0.46999998093E+01 0.  1.
</event>
<event>
 5   0  0.2540684E-05  0.2552509E+04  0.7818609E-02  0.8384514E-01
       -2   -1    0    0    0  501  0.00000000000E+00  0.00000000000E+00  0.15763235572E+04  0.15763235572E+04  0.25500000920E-02 0.  1.
        2   -1    0    0  501    0  0.00000000000E+00  0.00000000000E+00 -0.10333068589E+04  0.10333068589E+04  0.25500000920E-02 0. -1.
    10030    2    1    2    0    0  0.00000000000E+00  0.00000000000E+00  0.54301669827E+03  0.26096304160E+04  0.25525093092E+04 0.  0.
        2    1    3    3  502    0 -0.18562672671E+03  0.11740115777E+04  0.74673891020E+03  0.14037020575E+04  0.25500000920E-02 0.  1.
       -2    1    3    3    0  502  0.18562672671E+03 -0.11740115777E+04 -0.20372221193E+03  0.12059283585E+04  0.25500000920E-02 0. -1.
</event>
<event>
 5   0  0.2540232E-05  0.2693221E+04  0.7818609E-02  0.8337208E-01
        2   -1    0    0  501    0  0.00000000000E+00  0.00000000000E+00  0.23646693156E+04  0.23646693156E+04  0.25500000920E-02 0. -1.
       -2   -1    0    0    0  501  0.00000000000E+00  0.00000000000E+00 -0.76685562848E+03  0.76685562849E+03  0.25500000920E-02 0.  1.
    10030    2    1    2    0    0  0.00000000000E+00  0.00000000000E+00  0.15978136871E+04  0.31315249441E+04  0.26932211006E+04 0.  0.
        1    1    3    3  502    0  0.70786784578E+03  0.96390751965E+03  0.15186490960E+04  0.19330001734E+04  0.50400001928E-02 0. -1.
       -1    1    3    3    0  502 -0.70786784578E+03 -0.96390751965E+03  0.79164591141E+02  0.11985247707E+04  0.50400001928E-02 0.  1.
</event>
<event>
 5   0  0.1096672E-05  0.2688758E+04  0.7818609E-02  0.8338662E-01
       -1   -1    0    0    0  501  0.00000000000E+00  0.00000000000E+00  0.11265395170E+04  0.11265395170E+04  0.50400001928E-02 0. -1.
        1   -1    0    0  501    0  0.00000000000E+00  0.00000000000E+00 -0.16043419575E+04  0.16043419575E+04  0.50400001928E-02 0.  1.
    10030    2    1    2    0    0  0.00000000000E+00  0.00000000000E+00 -0.47780244051E+03  0.27308814745E+04  0.26887577904E+04 0.  0.
        1    1    3    3  502    0 -0.21249584926E+03 -0.74285277072E+03 -0.13563052290E+04  0.15609447778E+04  0.50400001928E-02 0.  1.
       -1    1    3    3    0  502  0.21249584926E+03  0.74285277072E+03  0.87850278850E+03  0.11699366967E+04  0.50400001928E-02 0. -1.
</event>
<event>
 5   0  0.1005265E-05  0.2597322E+04  0.7818609E-02  0.8369111E-01
       -1   -1    0    0    0  501  0.00000000000E+00  0.00000000000E+00  0.17451241038E+04  0.17451241038E+04  0.50400001928E-02 0.  1.
        1   -1    0    0  501    0  0.00000000000E+00  0.00000000000E+00 -0.96641892259E+03  0.96641892260E+03  0.50400001928E-02 0. -1.
    10030    2    1    2    0    0  0.00000000000E+00  0.00000000000E+00  0.77870518116E+03  0.27115430264E+04  0.25973224337E+04 0.  0.
        3    1    3    3  502    0  0.11971643694E+04 -0.30682179810E+03 -0.27164906955E+02  0.12361553647E+04  0.10100000352E+00 0. -1.
       -3    1    3    3    0  502 -0.11971643694E+04  0.30682179810E+03  0.80587008812E+03  0.14753876617E+04  0.10100000352E+00 0.  1.
</event>
<event>
 5   0  0.1005265E-05  0.2685800E+04  0.7818609E-02  0.8339627E-01
       -1   -1    0    0    0  501  0.00000000000E+00  0.00000000000E+00  0.12573119150E+04  0.12573119150E+04  0.50400001928E-02 0.  1.
        1   -1    0    0  501    0  0.00000000000E+00  0.00000000000E+00 -0.14343145632E+04  0.14343145632E+04  0.50400001928E-02 0. -1.
    10030    2    1    2    0    0  0.00000000000E+00  0.00000000000E+00 -0.17700264818E+03  0.26916264781E+04  0.26858002830E+04 0.  0.
        3    1    3    3  502    0  0.39282901469E+03  0.58735460667E+02 -0.13740998496E+04  0.14303548147E+04  0.10100000352E+00 0. -1.
       -3    1    3    3    0  502 -0.39282901469E+03 -0.58735460667E+02  0.11970972014E+04  0.12612716634E+04  0.10100000352E+00 0.  1.
</event>
<event>
 5   0  0.9971923E-06  0.2755577E+04  0.7818609E-02  0.8317194E-01
       -1   -1    0    0    0  501  0.00000000000E+00  0.00000000000E+00  0.16992162158E+04  0.16992162158E+04  0.50400001928E-02 0. -1.
        1   -1    0    0  501    0  0.00000000000E+00  0.00000000000E+00 -0.11171628895E+04  0.11171628895E+04  0.50400001928E-02 0.  1.
    10030    2    1    2    0    0  0.00000000000E+00  0.00000000000E+00  0.58205332631E+03  0.28163791053E+04  0.27555771066E+04 0.  0.
        2    1    3    3  502    0  0.13114908954E+04  0.22612266313E+02  0.72197178448E+03  0.14972517960E+04  0.25500000920E-02 0. -1.
       -2    1    3    3    0  502 -0.13114908954E+04 -0.22612266313E+02 -0.13991845817E+03  0.13191273093E+04  0.25500000920E-02 0.  1.
</event>
<event>
 5   0  0.2540232E-05  0.2660644E+04  0.7818609E-02  0.8347889E-01
        2   -1    0    0  501    0  0.00000000000E+00  0.00000000000E+00  0.21731989344E+04  0.21731989344E+04  0.25500000920E-02 0.  1.
       -2   -1    0    0    0  501  0.00000000000E+00  0.00000000000E+00 -0.81435584360E+03  0.81435584360E+03  0.25500000920E-02 0. -1.
    10030    2    1    2    0    0  0.00000000000E+00  0.00000000000E+00  0.13588430908E+04  0.29875547780E+04  0.26606444719E+04 0.  0.
        1    1    3    3  502    0 -0.76884080633E+03 -0.85337866143E+03 -0.74144699698E+02  0.11510294357E+04  0.50400001928E-02 0. -1.
       -1    1    3    3    0  502  0.76884080633E+03  0.85337866143E+03  0.14329877905E+04  0.18365253423E+04  0.50400001928E-02 0.  1.
</event>
<event>
 5   0  0.2615843E-05  0.2347831E+04  0.7818609E-02  0.8459297E-01
        2   -1    0    0  501    0  0.00000000000E+00  0.00000000000E+00  0.11546314520E+04  0.11546314520E+04  0.25500000920E-02 0. -1.
       -2   -1    0    0    0  501  0.00000000000E+00  0.00000000000E+00 -0.11935219103E+04  0.11935219103E+04  0.25500000920E-02 0.  1.
    10030    2    1    2    0    0  0.00000000000E+00  0.00000000000E+00 -0.38890458257E+02  0.23481533623E+04  0.23478312855E+04 0.  0.
        3    1    3    3  502    0  0.28424525235E+02 -0.48100682392E+03  0.10511699307E+04  0.11563449968E+04  0.10100000352E+00 0. -1.
       -3    1    3    3    0  502 -0.28424525235E+02  0.48100682392E+03 -0.10900603890E+04  0.11918083655E+04  0.10100000352E+00 0.  1.
</event>
<event>
 5   0  0.1005265E-05  0.2750218E+04  0.7818609E-02  0.8318892E-01
        1   -1    0    0  501    0  0.00000000000E+00  0.00000000000E+00  0.15749840647E+04  0.15749840647E+04  0.50400001928E-02 0.  1.
       -1   -1    0    0    0  501  0.00000000000E+00  0.00000000000E+00 -0.12005992468E+04  0.12005992468E+04  0.50400001928E-02 0. -1.
    10030    2    1    2    0    0  0.00000000000E+00  0.00000000000E+00  0.37438481789E+03  0.27755833114E+04  0.27502179417E+04 0.  0.
        3    1    3    3  502    0  0.13187849931E+04 -0.34823804963E+03  0.36333312764E+03  0.14115504132E+04  0.10100000352E+00 0.  1.
       -3    1    3    3    0  502 -0.13187849931E+04  0.34823804963E+03  0.11051690253E+02  0.13640328982E+04  0.10100000352E+00 0. -1.
</event>
<event>
 5   0  0.2516518E-05  0.2503409E+04  0.7818609E-02  0.8401772E-01
       -2   -1    0    0    0  501  0.00000000000E+00  0.00000000000E+00  0.11258905063E+04  0.11258905063E+04  0.25500000920E-02 0. -1.
        2   -1    0    0  501    0  0.00000000000E+00  0.00000000000E+00 -0.13915777555E+04  0.13915777555E+04  0.25500000920E-02 0.  1.
    10030    2    1    2    0    0  0.00000000000E+00  0.00000000000E+00 -0.26568724917E+03  0.25174682618E+04  0.25034090227E+04 0.  0.
        4    1    3    3  502    0 -0.65761565914E+02  0.32049430087E+03  0.10821309143E+04  0.11305087833E+04  0.12699999809E+01 0. -1.
       -4    1    3    3    0  502  0.65761565914E+02 -0.32049430087E+03 -0.13478181635E+04  0.13869594786E+04  0.12699999809E+01 0.  1.
</event>
<event>
 5   0  0.1005265E-05  0.2706685E+04  0.7818609E-02  0.8332839E-01
       -1   -1    0    0    0  501  0.00000000000E+00  0.00000000000E+00  0.14923896626E+04  0.14923896627E+04  0.50400001928E-02 0.  1.
        1   -1    0    0  501    0  0.00000000000E+00  0.00000000000E+00 -0.12272508365E+04  0.12272508365E+04  0.50400001928E-02 0. -1.
    10030    2    1    2    0    0  0.00000000000E+00  0.00000000000E+00  0.26513882612E+03  0.27196404992E+04  0.27066853987E+04 0.  0.
        3    1    3    3  502    0  0.13502427635E+04  0.64776432081E+02  0.19757019785E+03  0.13661572018E+04  0.10100000352E+00 0.  1.
       -3    1    3    3    0  502 -0.13502427635E+04 -0.64776432081E+02  0.67568628269E+02  0.13534832974E+04  0.10100000352E+00 0. -1.
</event>
<event>
 5   0  0.1005265E-05  0.2836692E+04  0.7818609E-02  0.8291967E-01
        1   -1    0    0  501    0  0.00000000000E+00  0.00000000000E+00  0.10573514982E+04  0.10573514982E+04  0.50400001928E-02 0. -1.
       -1   -1    0    0    0  501  0.00000000000E+00  0.00000000000E+00 -0.19025894175E+04  0.19025894175E+04  0.50400001928E-02 0.  1.
    10030    2    1    2    0    0  0.00000000000E+00  0.00000000000E+00 -0.84523791931E+03  0.29599409156E+04  0.28366922787E+04 0.  0.
        3    1    3    3  502    0  0.34434174622E+03  0.92224744959E+03  0.64281972248E+03  0.11757247987E+04  0.10100000352E+00 0. -1.
       -3    1    3    3    0  502 -0.34434174622E+03 -0.92224744959E+03 -0.14880576418E+04  0.17842161169E+04  0.10100000352E+00 0.  1.
</event>
<event>
 5   0  0.2615843E-05  0.2698370E+04  0.7818609E-02  0.8335534E-01
       -2   -1    0    0    0  501  0.00000000000E+00  0.00000000000E+00  0.17463131515E+04  0.17463131515E+04  0.25500000920E-02 0. -1.
        2   -1    0    0  501    0  0.00000000000E+00  0.00000000000E+00 -0.10423673126E+04  0.10423673126E+04  0.25500000920E-02 0.  1.
    10030    2    1    2    0    0  0.00000000000E+00  0.00000000000E+00  0.70394583891E+03  0.27886804642E+04  0.26983696906E+04 0.  0.
        3    1    3    3  502    0 -0.16002471637E+02  0.95010828707E+03  0.13418060201E+04  0.16442035281E+04  0.10100000352E+00 0. -1.
       -3    1    3    3    0  502  0.16002471637E+02 -0.95010828707E+03 -0.63786018115E+03  0.11444769360E+04  0.10100000352E+00 0.  1.
</event>
<event>
 5   0  0.1036691E-05  0.1780303E+04  0.7818609E-02  0.8716845E-01
        1   -1    0    0  501    0  0.00000000000E+00  0.00000000000E+00  0.17329247272E+04  0.17329247272E+04  0.50400001928E-02 0.  1.
       -1   -1    0    0    0  501  0.00000000000E+00  0.00000000000E+00 -0.45724407140E+03  0.45724407142E+03  0.50400001928E-02 0. -1.
    10030    2    1    2    0    0  0.00000000000E+00  0.00000000000E+00  0.12756806558E+04  0.21901687986E+04  0.17803028481E+04 0.  0.
        4    1    3    3  502    0  0.65516581749E+03  0.57200343086E+03  0.87105682740E+03  0.12309231425E+04  0.12699999809E+01 0. -1.
       -4    1    3    3    0  502 -0.65516581749E+03 -0.57200343086E+03  0.40462382836E+03  0.95924565608E+03  0.12699999809E+01 0.  1.
</event>
<event>
 5   0  0.1005265E-05  0.2720256E+04  0.7818609E-02  0.8328462E-01
       -1   -1    0    0    0  501  0.00000000000E+00  0.00000000000E+00  0.14206818900E+04  0.14206818900E+04  0.50400001928E-02 0. -1.
        1   -1    0    0  501    0  0.00000000000E+00  0.00000000000E+00 -0.13021555604E+04  0.13021555604E+04  0.50400001928E-02 0.  1.
    10030    2    1    2    0    0  0.00000000000E+00  0.00000000000E+00  0.11852632953E+03  0.27228374504E+04  0.27202564751E+04 0.  0.
        3    1    3    3  502    0 -0.42178963097E+02  0.11927789438E+04 -0.59361955885E+03  0.13329984488E+04  0.10100000352E+00 0.  1.
       -3    1    3    3    0  502  0.42178963097E+02 -0.11927789438E+04  0.71214588838E+03  0.13898390016E+04  0.10100000352E+00 0. -1.
</event>
<event>
 5   0  0.2540684E-05  0.2228350E+04  0.7818609E-02  0.8506720E-01
       -2   -1    0    0    0  501  0.00000000000E+00  0.00000000000E+00  0.10282995490E+04  0.10282995490E+04  0.25500000920E-02 0.  1.
        2   -1    0    0  501    0  0.00000000000E+00  0.00000000000E+00 -0.12072218982E+04  0.12072218982E+04  0.25500000920E-02 0. -1.
    10030    2    1    2    0    0  0.00000000000E+00  0.00000000000E+00 -0.17892234923E+03  0.22355214472E+04  0.22283498230E+04 0.  0.
        2    1    3    3  502    0 -0.73345321766E+03  0.42091975886E+02  0.75088639076E+03  0.10505026077E+04  0.25500000920E-02 0.  1.
       -2    1    3    3    0  502  0.73345321766E+03 -0.42091975886E+02 -0.92980873999E+03  0.11850188395E+04  0.25500000920E-02 0. -1.
</event>
<event>
 5   0  0.1036691E-05  0.2692767E+04  0.7818609E-02  0.8337355E-01
        1   -1    0    0  501    0  0.00000000000E+00  0.00000000000E+00  0.11099496310E+04  0.11099496310E+04  0.50400001928E-02 0. -1.
       -1   -1    0    0    0  501  0.00000000000E+00  0.00000000000E+00 -0.16331814749E+04  0.16331814749E+04  0.50400001928E-02 0.  1.
    10030    2    1    2    0    0  0.00000000000E+00  0.00000000000E+00 -0.52323184394E+03  0.27431311059E+04  0.26927674801E+04 0.  0.
        4    1    3    3  502    0 -0.32621469980E+03 -0.11219046643E+04  0.41997306222E+03  0.12415575266E+04  0.12699999809E+01 0. -1.
       -4    1    3    3    0  502  0.32621469980E+03  0.11219046643E+04 -0.94320490616E+03  0.15015735793E+04  0.12699999809E+01 0.  1.
</event>
<event>
 5   0  0.2540232E-05  0.2792501E+04  0.7818609E-02  0.8305600E-01
        2   -1    0    0  501    0  0.00000000000E+00  0.00000000000E+00  0.11843375462E+04  0.11843375462E+04  0.25500000920E-02 0.  1.
       -2   -1    0    0    0  501  0.00000000000E+00  0.00000000000E+00 -0.16460814521E+04  0.16460814521E+04  0.25500000920E-02 0. -1.
    10030    2    1    2    0    0  0.00000000000E+00  0.00000000000E+00 -0.46174390591E+03  0.28304189983E+04  0.27925014362E+04 0.  0.
        1    1    3    3  502    0 -0.93995503038E+03 -0.93984223843E+03  0.20236275490E+03  0.13445332190E+04  0.50400001928E-02 0.  1.
       -1    1    3    3    0  502  0.93995503038E+03  0.93984223843E+03 -0.66410666081E+03  0.14858857793E+04  0.50400001928E-02 0. -1.
</event>
<event>
 5   0  0.9971923E-06  0.2735413E+04  0.7818609E-02  0.8323605E-01
       -1   -1    0    0    0  501  0.00000000000E+00  0.00000000000E+00  0.15994303045E+04  0.15994303045E+04  0.50400001928E-02 0. -1.
        1   -1    0    0  501    0  0.00000000000E+00  0.00000000000E+00 -0.11695548423E+04  0.11695548423E+04  0.50400001928E-02 0.  1.
    10030    2    1    2    0    0  0.00000000000E+00  0.00000000000E+00  0.42987546218E+03  0.27689851469E+04  0.27354132833E+04 0.  0.
        2    1    3    3  502    0 -0.10371926140E+04 -0.76474879037E+03 -0.24895756041E+03  0.13124744180E+04  0.25500000920E-02 0.  1.
       -2    1    3    3    0  502  0.10371926140E+04  0.76474879037E+03  0.67883302259E+03  0.14565107289E+04  0.25500000920E-02 0. -1.
</event>
<event>
 5   0  0.1036691E-05  0.2675874E+04  0.7818609E-02  0.8342876E-01
        1   -1    0    0  501    0  0.00000000000E+00  0.00000000000E+00  0.17545947138E+04  0.17545947138E+04  0.50400001928E-02 0.  1.
       -1   -1    0    0    0  501  0.00000000000E+00  0.00000000000E+00 -0.10202218783E+04  0.10202218784E+04  0.50400001928E-02 0. -1.
    10030    2    1    2    0    0  0.00000000000E+00  0.00000000000E+00  0.73437283546E+03  0.27748165922E+04  0.26758743727E+04 0.  0.
        4    1    3    3  502    0 -0.89313236787E+03  0.99281508248E+03  0.45211141476E+03  0.14098842360E+04  0.12699999809E+01 0. -1.
       -4    1    3    3    0  502  0.89313236787E+03 -0.99281508248E+03  0.28226142070E+03  0.13649323562E+04  0.12699999809E+01 0.  1.
</event>
<event>
 5   0  0.2615843E-05  0.2701470E+04  0.7818609E-02  0.8334528E-01
        2   -1    0    0  501    0  0.00000000000E+00  0.00000000000E+00  0.19369290166E+04  0.19369290166E+04  0.25500000920E-02 0.  1.
       -2   -1    0    0    0  501  0.00000000000E+00  0.00000000000E+00 -0.94194742721E+03  0.94194742721E+03  0.25500000920E-02 0. -1.
    10030    2    1    2    0    0  0.00000000000E+00  0.00000000000E+00  0.99498158941E+03  0.28788764438E+04  0.27014701952E+04 0.  0.
        3    1    3    3  502    0  0.25450691657E+01  0.10351941226E+04  0.14221413484E+04  0.17590109078E+04  0.10100000352E+00 0.  1.
       -3    1    3    3    0  502 -0.25450691657E+01 -0.10351941226E+04 -0.42715975895E+03  0.11198655360E+04  0.10100000352E+00 0. -1.
</event>
<event>
 5   0  0.1005265E-05  0.2704955E+04  0.7818609E-02  0.8333399E-01
       -1   -1    0    0    0  501  0.00000000000E+00  0.00000000000E+00  0.14952130273E+04  0.14952130273E+04  0.50400001928E-02 0.  1.
        1   -1    0    0  501    0  0.00000000000E+00  0.00000000000E+00 -0.12233676732E+04  0.12233676732E+04  0.50400001928E-02 0. -1.
    10030    2    1    2    0    0  0.00000000000E+00  0.00000000000E+00  0.27184535411E+03  0.27185807005E+04  0.27049549217E+04 0.  0.
        3    1    3    3  502    0  0.72986201149E+03  0.87846050359E+03  0.86400537012E+03  0.14320952140E+04  0.10100000352E+00 0.  1.
       -3    1    3    3    0  502 -0.72986201149E+03 -0.87846050359E+03 -0.59216001601E+03  0.12864854865E+04  0.10100000352E+00 0. -1.
</event>
<event>
 5   0  0.2540684E-05  0.2671126E+04  0.7818609E-02  0.8344435E-01
       -2   -1    0    0    0  501  0.00000000000E+00  0.00000000000E+00  0.12201692381E+04  0.12201692381E+04  0.25500000920E-02 0.  1.
        2   -1    0    0  501    0  0.00000000000E+00  0.00000000000E+00 -0.14618692840E+04  0.14618692840E+04  0.25500000920E-02 0. -1.
    10030    2    1    2    0    0  0.00000000000E+00  0.00000000000E+00 -0.24170004586E+03  0.26820385221E+04  0.26711255533E+04 0.  0.
        2    1    3    3  502    0  0.29370625647E+03  0.11332912628E+04 -0.76621656018E+03  0.13991784263E+04  0.25500000920E-02 0. -1.
       -2    1    3    3    0  502 -0.29370625647E+03 -0.11332912628E+04  0.52451651431E+03  0.12828600958E+04  0.25500000920E-02 0.  1.
</event>
<event>
 5   0  0.2615843E-05  0.2666947E+04  0.7818609E-02  0.8345810E-01
       -2   -1    0    0    0  501  0.00000000000E+00  0.00000000000E+00  0.99131643206E+03  0.99131643206E+03  0.25500000920E-02 0. -1.
        2   -1    0    0  501    0  0.00000000000E+00  0.00000000000E+00 -0.17937280669E+04  0.17937280669E+04  0.25500000920E-02 0.  1.
    10030    2    1    2    0    0  0.00000000000E+00  0.00000000000E+00 -0.80241163482E+03  0.27850444989E+04  0.26669473991E+04 0.  0.
        3    1    3    3  502    0  0.14565513093E+03 -0.11871583639E+04 -0.10168820476E+04  0.15699074835E+04  0.10100000352E+00 0. -1.
       -3    1    3    3    0  502 -0.14565513093E+03  0.11871583639E+04  0.21447041274E+03  0.12151370154E+04  0.10100000352E+00 0.  1.
</event>
<event>
 5   0  0.2540684E-05  0.2667813E+04  0.7818609E-02  0.8345525E-01
        2   -1    0    0  501    0  0.00000000000E+00  0.00000000000E+00  0.16338150280E+04  0.16338150280E+04  0.25500000920E-02 0. -1.
       -2   -1    0    0    0  501  0.00000000000E+00  0.00000000000E+00 -0.10890500776E+04  0.10890500776E+04  0.25500000920E-02 0.  1.
    10030    2    1    2    0    0  0.00000000000E+00  0.00000000000E+00  0.54476495040E+03  0.27228651057E+04  0.26678128743E+04 0.  0.
        2    1    3    3  502    0  0.57333990688E+03  0.96509483294E+03  0.10077926138E+04  0.15085664181E+04  0.25500000920E-02 0.  1.
       -2    1    3    3    0  502 -0.57333990688E+03 -0.96509483294E+03 -0.46302766344E+03  0.12142986875E+04  0.25500000920E-02 0. -1.
</event>
<event>
 5   0  0.2540684E-05  0.2692764E+04  0.7818609E-02  0.8337357E-01
        2   -1    0    0  501    0  0.00000000000E+00  0.00000000000E+00  0.13665489964E+04  0.13665489964E+04  0.25500000920E-02 0. -1.
       -2   -1    0    0    0  501  0.00000000000E+00  0.00000000000E+00 -0.13265128591E+04  0.13265128591E+04  0.25500000920E-02 0.  1.
    10030    2    1    2    0    0  0.00000000000E+00  0.00000000000E+00  0.40036137219E+02  0.26930618555E+04  0.26927642424E+04 0.  0.
        2    1    3    3  502    0  0.10338214977E+04 -0.73901496283E+03 -0.42479485905E+03  0.13399181604E+04  0.25500000920E-02 0.  1.
       -2    1    3    3    0  502 -0.10338214977E+04  0.73901496283E+03  0.46483099627E+03  0.13531436951E+04  0.25500000920E-02 0. -1.
</event>
<event>
 5   0  0.1041909E-05  0.2689333E+04  0.7818609E-02  0.8338474E-01
       -1   -1    0    0    0  501  0.00000000000E+00  0.00000000000E+00  0.97942779812E+03  0.97942779813E+03  0.50400001928E-02 0. -1.
        1   -1    0    0  501    0  0.00000000000E+00  0.00000000000E+00 -0.18461069695E+04  0.18461069695E+04  0.50400001928E-02 0.  1.
    10030    2    1    2    0    0  0.00000000000E+00  0.00000000000E+00 -0.86667917142E+03  0.28255347677E+04  0.26893333630E+04 0.  0.
        5    1    3    3  502    0  0.15084587861E+03 -0.13258854396E+04 -0.60718790133E+03  0.14660920556E+04  0.46999998093E+01 0.  1.
       -5    1    3    3    0  502 -0.15084587861E+03  0.13258854396E+04 -0.25949127009E+03  0.13594427120E+04  0.46999998093E+01 0. -1.
</event>
<event>
 5   0  0.1036691E-05  0.2704006E+04  0.7818609E-02  0.8333706E-01
        1   -1    0    0  501    0  0.00000000000E+00  0.00000000000E+00  0.22547826220E+04  0.22547826220E+04  0.50400001928E-02 0. -1.
       -1   -1    0    0    0  501  0.00000000000E+00  0.00000000000E+00 -0.81068247785E+03  0.81068247787E+03  0.50400001928E-02 0.  1.
    10030    2    1    2    0    0  0.00000000000E+00  0.00000000000E+00  0.14441001441E+04  0.30654650999E+04  0.27040064815E+04 0.  0.
        4    1    3    3  502    0 -0.95421847737E+03  0.81791156847E+03  0.12870696468E+04  0.17989058133E+04  0.12699999809E+01 0. -1.
       -4    1    3    3    0  502  0.95421847737E+03 -0.81791156847E+03  0.15703049729E+03  0.12665592866E+04  0.12699999809E+01 0.  1.
</event>
<event>
 5   0  0.2540684E-05  0.2663466E+04  0.7818609E-02  0.8346957E-01
       -2   -1    0    0    0  501  0.00000000000E+00  0.00000000000E+00  0.76093294074E+03  0.76093294075E+03  0.25500000920E-02 0.  1.
        2   -1    0    0  501    0  0.00000000000E+00  0.00000000000E+00 -0.23307076979E+04  0.23307076979E+04  0.25500000920E-02 0. -1.
    10030    2    1    2    0    0  0.00000000000E+00  0.00000000000E+00 -0.15697747572E+04  0.30916406386E+04  0.26634656090E+04 0.  0.
        2    1    3    3  502    0  0.19657269702E+02  0.99601268937E+03  0.24097935064E+03  0.10249384045E+04  0.25500000920E-02 0.  1.
       -2    1    3    3    0  502 -0.19657269702E+02 -0.99601268937E+03 -0.18107541078E+04  0.20667022341E+04  0.25500000920E-02 0. -1.
</event>
<event>
 5   0  0.2540684E-05  0.2292499E+04  0.7818609E-02  0.8480884E-01
       -2   -1    0    0    0  501  0.00000000000E+00  0.00000000000E+00  0.11559830316E+04  0.11559830316E+04  0.25500000920E-02 0. -1.
        2   -1    0    0  501    0  0.00000000000E+00  0.00000000000E+00 -0.11365979938E+04  0.11365979938E+04  0.25500000920E-02 0.  1.
    10030    2    1    2    0    0  0.00000000000E+00  0.00000000000E+00  0.19385037788E+02  0.22925810254E+04  0.22924990684E+04 0.  0.
        2    1    3    3  502    0 -0.92236838401E+03  0.57942819497E+03  0.36661916971E+03  0.11493085245E+04  0.25500000920E-02 0.  1.
       -2    1    3    3    0  502  0.92236838401E+03 -0.57942819497E+03 -0.34723413192E+03  0.11432725009E+04  0.25500000920E-02 0. -1.
</event>
<event>
 5   0  0.8740500E-06  0.2702339E+04  0.7818609E-02  0.8334246E-01
       -3   -1    0    0    0  501  0.00000000000E+00  0.00000000000E+00  0.86108842407E+03  0.86108842999E+03  0.10100000352E+00 0. -1.
        3   -1    0    0  501    0  0.00000000000E+00  0.00000000000E+00 -0.21201757936E+04  0.21201757960E+04  0.10100000352E+00 0.  1.
    10030    2    1    2    0    0  0.00000000000E+00  0.00000000000E+00 -0.12590873695E+04  0.29812642259E+04  0.27023388723E+04 0.  0.
        5    1    3    3  502    0 -0.34693084353E+03 -0.12023314015E+04 -0.11917240655E+04  0.17280596481E+04  0.46999998093E+01 0.  1.
       -5    1    3    3    0  502  0.34693084353E+03  0.12023314015E+04 -0.67363303968E+02  0.12532045778E+04  0.46999998093E+01 0. -1.
</event>
<event>
 5   0  0.2615843E-05  0.2678942E+04  0.7818609E-02  0.8341870E-01
        2   -1    0    0  501    0  0.00000000000E+00  0.00000000000E+00  0.15924477028E+04  0.15924477028E+04  0.25500000920E-02 0. -1.
       -2   -1    0    0    0  501  0.00000000000E+00  0.00000000000E+00 -0.11266820393E+04  0.11266820393E+04  0.25500000920E-02 0.  1.
    10030    2    1    2    0    0  0.00000000000E+00  0.00000000000E+00  0.46576566354E+03  0.27191297421E+04  0.26789417502E+04 0.  0.
        3    1    3    3  502    0  0.77154935239E+03 -0.10291951877E+04  0.61218803915E+03  0.14245368872E+04  0.10100000352E+00 0. -1.
       -3    1    3    3    0  502 -0.77154935239E+03  0.10291951877E+04 -0.14642237561E+03  0.12945928549E+04  0.10100000352E+00 0.  1.
</event>
<event>
 5   0  0.9971923E-06  0.2683157E+04  0.7818609E-02  0.8340491E-01
        1   -1    0    0  501    0  0.00000000000E+00  0.00000000000E+00  0.18769473745E+04  0.18769473745E+04  0.50400001928E-02 0.  1.
       -1   -1    0    0    0  501  0.00000000000E+00  0.00000000000E+00 -0.95891501053E+03  0.95891501054E+03  0.50400001928E-02 0. -1.
    10030    2    1    2    0    0  0.00000000000E+00  0.00000000000E+00  0.91803236397E+03  0.28358623851E+04  0.26831571042E+04 0.  0.
        2    1    3    3  502    0 -0.12403563662E+04  0.78926303901E+02 -0.74823775676E+02  0.12451152051E+04  0.25500000920E-02 0. -1.
       -2    1    3    3    0  502  0.12403563662E+04 -0.78926303901E+02  0.99285613965E+03  0.15907471800E+04  0.25500000920E-02 0.  1.
</event>
<event>
 5   0  0.1096672E-05  0.2769712E+04  0.7818609E-02  0.8312734E-01
        1   -1    0    0  501    0  0.00000000000E+00  0.00000000000E+00  0.16341766785E+04  0.16341766785E+04  0.50400001928E-02 0. -1.
       -1   -1    0    0    0  501  0.00000000000E+00  0.00000000000E+00 -0.11735733437E+04  0.11735733437E+04  0.50400001928E-02 0.  1.
    10030    2    1    2    0    0  0.00000000000E+00  0.00000000000E+00  0.46060333476E+03  0.28077500222E+04  0.27697120347E+04 0.  0.
        1    1    3    3  502    0 -0.32817142714E+03 -0.16098881115E+03  0.15843902819E+04  0.16260093630E+04  0.50400001928E-02 0. -1.
       -1    1    3    3    0  502  0.32817142714E+03  0.16098881115E+03 -0.11237869472E+04  0.11817406592E+04  0.50400001928E-02 0.  1.
</event>
<event>
 5   0  0.2540684E-05  0.2634582E+04  0.7818609E-02  0.8356548E-01
       -2   -1    0    0    0  501  0.00000000000E+00  0.00000000000E+00  0.86224258462E+03  0.86224258462E+03  0.25500000920E-02 0. -1.
        2   -1    0    0  501    0  0.00000000000E+00  0.00000000000E+00 -0.20124913392E+04  0.20124913392E+04  0.25500000920E-02 0.  1.
    10030    2    1    2    0    0  0.00000000000E+00  0.00000000000E+00 -0.11502487545E+04  0.28747339238E+04  0.26345821178E+04 0.  0.
        2    1    3    3  502    0  0.52912382058E+03 -0.11266353018E+04 -0.10456844578E+04  0.16256491337E+04  0.25500000920E-02 0.  1.
       -2    1    3    3    0  502 -0.52912382058E+03  0.11266353018E+04 -0.10456429678E+03  0.12490847901E+04  0.25500000920E-02 0. -1.
</event>
<event>
 5   0  0.2641216E-05  0.2702464E+04  0.7818609E-02  0.8334206E-01
       -2   -1    0    0    0  501  0.00000000000E+00  0.00000000000E+00  0.19166396520E+04  0.19166396520E+04  0.25500000920E-02 0. -1.
        2   -1    0    0  501    0  0.00000000000E+00  0.00000000000E+00 -0.95261912060E+03  0.95261912060E+03  0.25500000920E-02 0.  1.
    10030    2    1    2    0    0  0.00000000000E+00  0.00000000000E+00  0.96402053141E+03  0.28692587726E+04  0.27024637498E+04 0.  0.
        5    1    3    3  502    0 -0.10289910240E+04 -0.14138284097E+03 -0.43562132320E+03  0.11263212963E+04  0.46999998093E+01 0.  1.
       -5    1    3    3    0  502  0.10289910240E+04  0.14138284097E+03  0.13996418546E+04  0.17429374763E+04  0.46999998093E+01 0. -1.
</event>
<event>
 5   0  0.9971923E-06  0.2674988E+04  0.7818609E-02  0.8343166E-01
       -1   -1    0    0    0  501  0.00000000000E+00  0.00000000000E+00  0.82692723072E+03  0.82692723074E+03  0.50400001928E-02 0.  1.
        1   -1    0    0  501    0  0.00000000000E+00  0.00000000000E+00 -0.21632984179E+04  0.21632984179E+04  0.50400001928E-02 0. -1.
    10030    2    1    2    0    0  0.00000000000E+00  0.00000000000E+00 -0.13363711872E+04  0.29902256487E+04  0.26749881271E+04 0.  0.
        2    1    3    3  502    0  0.70284162872E+03  0.42461651830E+03  0.51197895183E+03  0.96768176060E+03  0.25500000920E-02 0.  1.
       -2    1    3    3    0  502 -0.70284162872E+03 -0.42461651830E+03 -0.18483501390E+04  0.20225438881E+04  0.25500000920E-02 0. -1.
</event>
<event>
 5   0  0.1041909E-05  0.2770507E+04  0.7818609E-02  0.8312484E-01
       -1   -1    0    0    0  501  0.00000000000E+00  0.00000000000E+00  0.88251141050E+03  0.88251141051E+03  0.50400001928E-02 0. -1.
        1   -1    0    0  501    0  0.00000000000E+00  0.00000000000E+00 -0.21743939465E+04  0.21743939465E+04  0.50400001928E-02 0.  1.
    10030    2    1    2    0    0  0.00000000000E+00  0.00000000000E+00 -0.12918825360E+04  0.30569053570E+04  0.27705071512E+04 0.  0.
        5    1    3    3  502    0  0.64406566913E+03  0.99816734705E+03 -0.14321652544E+04  0.18607197652E+04  0.46999998093E+01 0.  1.
       -5    1    3    3    0  502 -0.64406566913E+03 -0.99816734705E+03  0.14028271839E+03  0.11961855918E+04  0.46999998093E+01 0. -1.
</event>
<event>
 5   0  0.2516518E-05  0.2681753E+04  0.7818609E-02  0.8340950E-01
        2   -1    0    0  501    0  0.00000000000E+00  0.00000000000E+00  0.13185353814E+04  0.13185353814E+04  0.25500000920E-02 0. -1.
       -2   -1    0    0    0  501  0.00000000000E+00  0.00000000000E+00 -0.13635961570E+04  0.13635961570E+04  0.25500000920E-02 0.  1.
    10030    2    1    2    0    0  0.00000000000E+00  0.00000000000E+00 -0.45060775581E+02  0.26821315384E+04  0.26817529931E+04 0.  0.
        4    1    3    3  502    0  0.17608211069E+03 -0.10491048773E+04  0.79387045533E+03  0.13273499411E+04  0.12699999809E+01 0. -1.
       -4    1    3    3    0  502 -0.17608211069E+03  0.10491048773E+04 -0.83893123091E+03  0.13547815973E+04  0.12699999809E+01 0.  1.
</event>
<event>
 5   0  0.1005265E-05  0.2726754E+04  0.7818609E-02  0.8326376E-01
       -1   -1    0    0    0  501  0.00000000000E+00  0.00000000000E+00  0.81940664353E+03  0.81940664355E+03  0.50400001928E-02 0. -1.
        1   -1    0    0  501    0  0.00000000000E+00  0.00000000000E+00 -0.22684671335E+04  0.22684671335E+04  0.50400001928E-02 0.  1.
    10030    2    1    2    0    0  0.00000000000E+00  0.00000000000E+00 -0.14490604900E+04  0.30878737771E+04  0.27267541436E+04 0.  0.
        3    1    3    3  502    0 -0.58625113547E+03 -0.12548844765E+03  0.66211834502E+03  0.89321803461E+03  0.10100000352E+00 0. -1.
       -3    1    3    3    0  502  0.58625113547E+03  0.12548844765E+03 -0.21111788350E+04  0.21946557425E+04  0.10100000352E+00 0.  1.
</event>
<event>
 5   0  0.9971923E-06  0.2702694E+04  0.7818609E-02  0.8334131E-01
        1   -1    0    0  501    0  0.00000000000E+00  0.00000000000E+00  0.20856673319E+04  0.20856673319E+04  0.50400001928E-02 0.  1.
       -1   -1    0    0    0  501  0.00000000000E+00  0.00000000000E+00 -0.87556553345E+03  0.87556553346E+03  0.50400001928E-02 0. -1.
    10030    2    1    2    0    0  0.00000000000E+00  0.00000000000E+00  0.12101017985E+04  0.29612328654E+04  0.27026937896E+04 0.  0.
        2    1    3    3  502    0  0.37413092600E+03 -0.11413540132E+04  0.12835425792E+04  0.17578806802E+04  0.25500000920E-02 0.  1.
       -2    1    3    3    0  502 -0.37413092600E+03  0.11413540132E+04 -0.73440780770E+02  0.12033521851E+04  0.25500000920E-02 0. -1.
</event>
<event>
 5   0  0.2540684E-05  0.2702565E+04  0.7818609E-02  0.8334173E-01
        2   -1    0    0  501    0  0.00000000000E+00  0.00000000000E+00  0.18860445387E+04  0.18860445387E+04  0.25500000920E-02 0. -1.
       -2   -1    0    0    0  501  0.00000000000E+00  0.00000000000E+00 -0.96814495123E+03  0.96814495123E+03  0.25500000920E-02 0.  1.
    10030    2    1    2    0    0  0.00000000000E+00  0.00000000000E+00  0.91789958749E+03  0.28541894899E+04  0.27025650763E+04 0.  0.
        2    1    3    3  502    0 -0.12230565239E+04 -0.31549160863E+01  0.10657155172E+04  0.16222289535E+04  0.25500000920E-02 0. -1.
       -2    1    3    3    0  502  0.12230565239E+04  0.31549160863E+01 -0.14781592968E+03  0.12319605364E+04  0.25500000920E-02 0.  1.
</event>
<event>
 5   0  0.2615843E-05  0.2786458E+04  0.7818609E-02  0.8307485E-01
        2   -1    0    0  501    0  0.00000000000E+00  0.00000000000E+00  0.21992751331E+04  0.21992751331E+04  0.25500000920E-02 0. -1.
       -2   -1    0    0    0  501  0.00000000000E+00  0.00000000000E+00 -0.88260298690E+03  0.88260298690E+03  0.25500000920E-02 0.  1.
    10030    2    1    2    0    0  0.00000000000E+00  0.00000000000E+00  0.13166721462E+04  0.30818781200E+04  0.27864578242E+04 0.  0.
        3    1    3    3  502    0 -0.12884860871E+03 -0.68252843320E+03 -0.67745030421E+03  0.97025045786E+03  0.10100000352E+00 0.  1.
       -3    1    3    3    0  502  0.12884860871E+03  0.68252843320E+03  0.19941224504E+04  0.21116276621E+04  0.10100000352E+00 0. -1.
</event>
<event>
 5   0  0.1036691E-05  0.2714538E+04  0.7818609E-02  0.8330303E-01
       -1   -1    0    0    0  501  0.00000000000E+00  0.00000000000E+00  0.12203483704E+04  0.12203483704E+04  0.50400001928E-02 0. -1.
        1   -1    0    0  501    0  0.00000000000E+00  0.00000000000E+00 -0.15095521581E+04  0.15095521581E+04  0.50400001928E-02 0.  1.
    10030    2    1    2    0    0  0.00000000000E+00  0.00000000000E+00 -0.28920378774E+03  0.27299005285E+04  0.27145382783E+04 0.  0.
        4    1    3    3  502    0  0.54248908487E+03  0.12282500395E+04 -0.34392887598E+03  0.13860668279E+04  0.12699999809E+01 0.  1.
       -4    1    3    3    0  502 -0.54248908487E+03 -0.12282500395E+04  0.54725088237E+02  0.13438337006E+04  0.12699999809E+01 0. -1.
</event>
<event>
 5   0  0.2615843E-05  0.2499851E+04  0.7818609E-02  0.8403039E-01
       -2   -1    0    0    0  501  0.00000000000E+00  0.00000000000E+00  0.96551274353E+03  0.96551274354E+03  0.25500000920E-02 0. -1.
        2   -1    0    0  501    0  0.00000000000E+00  0.00000000000E+00 -0.16181185205E+04  0.16181185205E+04  0.25500000920E-02 0.  1.
    10030    2    1    2    0    0  0.00000000000E+00  0.00000000000E+00 -0.65260577692E+03  0.25836312640E+04  0.24998512372E+04 0.  0.
        3    1    3    3  502    0 -0.40418163229E+03  0.62859700959E+03 -0.13617875018E+04  0.15533712379E+04  0.10100000352E+00 0.  1.
       -3    1    3    3    0  502  0.40418163229E+03 -0.62859700959E+03  0.70918172488E+03  0.10302600261E+04  0.10100000352E+00 0. -1.
</event>
<event>
 5   0  0.1005265E-05  0.2666871E+04  0.7818609E-02  0.8345835E-01
       -1   -1    0    0    0  501  0.00000000000E+00  0.00000000000E+00  0.95327021514E+03  0.95327021516E+03  0.50400001928E-02 0.  1.
        1   -1    0    0  501    0  0.00000000000E+00  0.00000000000E+00 -0.18652105052E+04  0.18652105052E+04  0.50400001928E-02 0. -1.
    10030    2    1    2    0    0  0.00000000000E+00  0.00000000000E+00 -0.91194029008E+03  0.28184807204E+04  0.26668705403E+04 0.  0.
        3    1    3    3  502    0 -0.10114747623E+03 -0.64491864942E+03 -0.16847814976E+04  0.18068313649E+04  0.10100000352E+00 0. -1.
       -3    1    3    3    0  502  0.10114747623E+03  0.64491864942E+03  0.77284120750E+03  0.10116493555E+04  0.10100000352E+00 0.  1.
</event>
<event>
 5   0  0.2540684E-05  0.2741182E+04  0.7818609E-02  0.8321765E-01
       -2   -1    0    0    0  501  0.00000000000E+00  0.00000000000E+00  0.18336234278E+04  0.18336234278E+04  0.25500000920E-02 0.  1.
        2   -1    0    0  501    0  0.00000000000E+00  0.00000000000E+00 -0.10244850693E+04  0.10244850693E+04  0.25500000920E-02 0. -1.
    10030    2    1    2    0    0  0.00000000000E+00  0.00000000000E+00  0.80913835851E+03  0.28581084972E+04  0.27411820987E+04 0.  0.
        2    1    3    3  502    0 -0.13033808533E+04  0.35156778767E+03  0.65156690098E+03  0.14989799814E+04  0.25500000920E-02 0. -1.
       -2    1    3    3    0  502  0.13033808533E+04 -0.35156778767E+03  0.15757145752E+03  0.13591285158E+04  0.25500000920E-02 0.  1.
</event>
<event>
 5   0  0.2615843E-05  0.2736362E+04  0.7818609E-02  0.8323302E-01
        2   -1    0    0  501    0  0.00000000000E+00  0.00000000000E+00  0.19089911269E+04  0.19089911269E+04  0.25500000920E-02 0.  1.
       -2   -1    0    0    0  501  0.00000000000E+00  0.00000000000E+00 -0.98058056126E+03  0.98058056127E+03  0.25500000920E-02 0. -1.
    10030    2    1    2    0    0  0.00000000000E+00  0.00000000000E+00  0.92841056567E+03  0.28895716882E+04  0.27363622499E+04 0.  0.
        3    1    3    3  502    0  0.69796781376E+03 -0.17768983528E+02 -0.77829844762E+03  0.10455731871E+04  0.10100000352E+00 0. -1.
       -3    1    3    3    0  502 -0.69796781376E+03  0.17768983528E+02  0.17067090133E+04  0.18439985011E+04  0.10100000352E+00 0.  1.
</event>
<event>
 5   0  0.2540232E-05  0.2705980E+04  0.7818609E-02  0.8333067E-01
       -2   -1    0    0    0  501  0.00000000000E+00  0.00000000000E+00  0.12872005075E+04  0.12872005075E+04  0.25500000920E-02 0.  1.
        2   -1    0    0  501    0  0.00000000000E+00  0.00000000000E+00 -0.14221417243E+04  0.14221417243E+04  0.25500000920E-02 0. -1.
    10030    2    1    2    0    0  0.00000000000E+00  0.00000000000E+00 -0.13494121680E+03  0.27093422317E+04  0.27059797111E+04 0.  0.
        1    1    3    3  502    0  0.40436769726E+03 -0.12268124940E+02 -0.13601666641E+04  0.14190550009E+04  0.50400001928E-02 0. -1.
       -1    1    3    3    0  502 -0.40436769726E+03  0.12268124940E+02  0.12252254473E+04  0.12902872309E+04  0.50400001928E-02 0.  1.
</event>
<event>
 5   0  0.1096672E-05  0.2635144E+04  0.7818609E-02  0.8356361E-01
        1   -1    0    0  501    0  0.00000000000E+00  0.00000000000E+00  0.22002783963E+04  0.22002783963E+04  0.50400001928E-02 0.  1.
       -1   -1    0    0    0  501  0.00000000000E+00  0.00000000000E+00 -0.78898936686E+03  0.78898936687E+03  0.50400001928E-02 0. -1.
    10030    2    1    2    0    0  0.00000000000E+00  0.00000000000E+00  0.14112890294E+04  0.29892677632E+04  0.26351442153E+04 0.  0.
        1    1    3    3  502    0  0.72650177713E+03  0.75961952162E+03 -0.19558098251E+03  0.10691485260E+04  0.50400001928E-02 0. -1.
       -1    1    3    3    0  502 -0.72650177713E+03 -0.75961952162E+03  0.16068700120E+04  0.19201192372E+04  0.50400001928E-02 0.  1.
</event>
<event>
 5   0  0.2615843E-05  0.2691288E+04  0.7818609E-02  0.8337837E-01
       -2   -1    0    0    0  501  0.00000000000E+00  0.00000000000E+00  0.23580562470E+04  0.23580562470E+04  0.25500000920E-02 0.  1.
        2   -1    0    0  501    0  0.00000000000E+00  0.00000000000E+00 -0.76790278310E+03  0.76790278310E+03  0.25500000920E-02 0. -1.
    10030    2    1    2    0    0  0.00000000000E+00  0.00000000000E+00  0.15901534639E+04  0.31259590301E+04  0.26912881338E+04 0.  0.
        3    1    3    3  502    0  0.12276294250E+04 -0.42983278643E+03  0.11956340062E+04  0.17667401949E+04  0.10100000352E+00 0. -1.
       -3    1    3    3    0  502 -0.12276294250E+04  0.42983278643E+03  0.39451945779E+03  0.13592188353E+04  0.10100000352E+00 0.  1.
</event>
<event>
 5   0  0.1036691E-05  0.2674796E+04  0.7818609E-02  0.8343230E-01
        1   -1    0    0  501    0  0.00000000000E+00  0.00000000000E+00  0.12609046310E+04  0.12609046310E+04  0.50400001928E-02 0.  1.
       -1   -1    0    0    0  501  0.00000000000E+00  0.00000000000E+00 -0.14185314354E+04  0.14185314354E+04  0.50400001928E-02 0. -1.
    10030    2    1    2    0    0  0.00000000000E+00  0.00000000000E+00 -0.15762680439E+03  0.26794360664E+04  0.26747955855E+04 0.  0.
        4    1    3    3  502    0 -0.53188144056E+03  0.26301172045E+01  0.11503959110E+04  0.12674056767E+04  0.12699999809E+01 0.  1.
       -4    1    3    3    0  502  0.53188144056E+03 -0.26301172045E+01 -0.13080227154E+04  0.14120303896E+04  0.12699999809E+01 0. -1.
</event>
<event>
 5   0  0.2641216E-05  0.2704680E+04  0.7818609E-02  0.8333488E-01
        2   -1    0    0  501    0  0.00000000000E+00  0.00000000000E+00  0.13526405830E+04  0.13526405830E+04  0.25500000920E-02 0.  1.
       -2   -1    0    0    0  501  0.00000000000E+00  0.00000000000E+00 -0.13520395407E+04  0.13520395407E+04  0.25500000920E-02 0. -1.
    10030    2    1    2    0    0  0.00000000000E+00  0.00000000000E+00  0.60104226266E+00  0.27046801237E+04  0.27046800569E+04 0.  0.
        5    1    3    3  502    0  0.34503548495E+03 -0.45069462015E+03 -0.12271465899E+04  0.13520672948E+04  0.46999998093E+01 0. -1.
       -5    1    3    3    0  502 -0.34503548495E+03  0.45069462015E+03  0.12277476322E+04  0.13526128289E+04  0.46999998093E+01 0.  1.
</event>
<event>
 5   0  0.1036691E-05  0.2666052E+04  0.7818609E-02  0.8346105E-01
        1   -1    0    0  501    0  0.00000000000E+00  0.00000000000E+00  0.10711778451E+04  0.10711778451E+04  0.50400001928E-02 0.  1.
       -1   -1    0    0    0  501  0.00000000000E+00  0.00000000000E+00 -0.16588822340E+04  0.16588822340E+04  0.50400001928E-02 0. -1.
    10030    2    1    2    0    0  0.00000000000E+00  0.00000000000E+00 -0.58770438890E+03  0.27300600791E+04  0.26660516849E+04 0.  0.
        4    1    3    3  502    0 -0.32542925993E+03 -0.10298071637E+04 -0.10939885501E+04  0.15372766694E+04  0.12699999809E+01 0. -1.
       -4    1    3    3    0  502  0.32542925993E+03  0.10298071637E+04  0.50628416123E+03  0.11927834097E+04  0.12699999809E+01 0.  1.
</event>
<event>
 5   0  0.1005265E-05  0.2680394E+04  0.7818609E-02  0.8341395E-01
        1   -1    0    0  501    0  0.00000000000E+00  0.00000000000E+00  0.18826565159E+04  0.18826565159E+04  0.50400001928E-02 0.  1.
       -1   -1    0    0    0  501  0.00000000000E+00  0.00000000000E+00 -0.95403892085E+03  0.95403892086E+03  0.50400001928E-02 0. -1.
    10030    2    1    2    0    0  0.00000000000E+00  0.00000000000E+00  0.92861759504E+03  0.28366954368E+04  0.26803936955E+04 0.  0.
        3    1    3    3  502    0  0.29862401974E+03  0.11460126471E+04 -0.19965612531E+03  0.12009928688E+04  0.10100000352E+00 0. -1.
       -3    1    3    3    0  502 -0.29862401974E+03 -0.11460126471E+04  0.11282737203E+04  0.16357025679E+04  0.10100000352E+00 0.  1.
</event>
<event>
 5   0  0.2540232E-05  0.1739324E+04  0.7818609E-02  0.8739249E-01
       -2   -1    0    0    0  501  0.00000000000E+00  0.00000000000E+00  0.10139984739E+04  0.10139984739E+04  0.25500000920E-02 0. -1.
        2   -1    0    0  501    0  0.00000000000E+00  0.00000000000E+00 -0.74587089647E+03  0.74587089647E+03  0.25500000920E-02 0.  1.
    10030    2    1    2    0    0  0.00000000000E+00  0.00000000000E+00  0.26812757742E+03  0.17598693704E+04  0.17393239500E+04 0.  0.
        1    1    3    3  502    0  0.12981375804E+03 -0.46392964583E+03  0.86665336431E+03  0.99154948538E+03  0.50400001928E-02 0. -1.
       -1    1    3    3    0  502 -0.12981375804E+03  0.46392964583E+03 -0.59852578689E+03  0.76831988498E+03  0.50400001928E-02 0.  1.
</event>
<event>
 5   0  0.2516518E-05  0.2623531E+04  0.7818609E-02  0.8360252E-01
       -2   -1    0    0    0  501  0.00000000000E+00  0.00000000000E+00  0.83701578611E+03  0.83701578612E+03  0.25500000920E-02 0. -1.
        2   -1    0    0  501    0  0.00000000000E+00  0.00000000000E+00 -0.20557895668E+04  0.20557895668E+04  0.25500000920E-02 0.  1.
    10030    2    1    2    0    0  0.00000000000E+00  0.00000000000E+00 -0.12187737807E+04  0.28928053530E+04  0.26235306900E+04 0.  0.
        4    1    3    3  502    0 -0.11612289192E+03 -0.22993621649E+03 -0.20276264192E+04  0.20439240931E+04  0.12699999809E+01 0.  1.
       -4    1    3    3    0  502  0.11612289192E+03  0.22993621649E+03  0.80885263846E+03  0.84888125985E+03  0.12699999809E+01 0. -1.
</event>
<event>
 5   0  0.2615843E-05  0.2755479E+04  0.7818609E-02  0.8317225E-01
        2   -1    0    0  501    0  0.00000000000E+00  0.00000000000E+00  0.28200389835E+04  0.28200389835E+04  0.25500000920E-02 0.  1.
       -2   -1    0    0    0  501  0.00000000000E+00  0.00000000000E+00 -0.67309926407E+03  0.67309926408E+03  0.25500000920E-02 0. -1.
    10030    2    1    2    0    0  0.00000000000E+00  0.00000000000E+00  0.21469397195E+04  0.34931382476E+04  0.27554790251E+04 0.  0.
        3    1    3    3  502    0 -0.53143366875E+03  0.85481318130E+02  0.26812280839E+04  0.27347235414E+04  0.10100000352E+00 0.  1.
       -3    1    3    3    0  502  0.53143366875E+03 -0.85481318130E+02 -0.53428836441E+03  0.75841470620E+03  0.10100000352E+00 0. -1.
</event>
<event>
 5   0  0.9971923E-06  0.2681148E+04  0.7818609E-02  0.8341148E-01
       -1   -1    0    0    0  501  0.00000000000E+00  0.00000000000E+00  0.11824690607E+04  0.11824690607E+04  0.50400001928E-02 0.  1.
        1   -1    0    0  501    0  0.00000000000E+00  0.00000000000E+00 -0.15198189589E+04  0.15198189589E+04  0.50400001928E-02 0. -1.
    10030    2    1    2    0    0  0.00000000000E+00  0.00000000000E+00 -0.33734989825E+03  0.27022880196E+04  0.26811481845E+04 0.  0.
        2    1    3    3  502    0  0.12011971559E+03  0.11860776975E+04 -0.78664043749E+03  0.14282899665E+04  0.25500000920E-02 0. -1.
       -2    1    3    3    0  502 -0.12011971559E+03 -0.11860776975E+04  0.44929053924E+03  0.12739980531E+04  0.25500000920E-02 0.  1.
</event>
<event>
 5   0  0.9971923E-06  0.2705241E+04  0.7818609E-02  0.8333306E-01
        1   -1    0    0  501    0  0.00000000000E+00  0.00000000000E+00  0.15355939232E+04  0.15355939232E+04  0.50400001928E-02 0. -1.
       -1   -1    0    0    0  501  0.00000000000E+00  0.00000000000E+00 -0.11914492226E+04  0.11914492226E+04  0.50400001928E-02 0.  1.
    10030    2    1    2    0    0  0.00000000000E+00  0.00000000000E+00  0.34414470064E+03  0.27270431458E+04  0.27052409771E+04 0.  0.
        2    1    3    3  502    0 -0.51194703124E+02  0.99574530546E+03  0.10934696878E+04  0.14797991651E+04  0.25500000920E-02 0. -1.
       -2    1    3    3    0  502  0.51194703124E+02 -0.99574530546E+03 -0.74932498718E+03  0.12472439807E+04  0.25500000920E-02 0.  1.
</event>
<event>
 5   0  0.2641216E-05  0.2677779E+04  0.7818609E-02  0.8342251E-01
       -2   -1    0    0    0  501  0.00000000000E+00  0.00000000000E+00  0.11523910771E+04  0.11523910771E+04  0.25500000920E-02 0.  1.
        2   -1    0    0  501    0  0.00000000000E+00  0.00000000000E+00 -0.15555704472E+04  0.15555704472E+04  0.25500000920E-02 0. -1.
    10030    2    1    2    0    0  0.00000000000E+00  0.00000000000E+00 -0.40317937015E+03  0.27079615243E+04  0.26777793062E+04 0.  0.
        5    1    3    3  502    0 -0.59768531645E+03  0.19859708182E+03  0.99322427203E+03  0.11760888925E+04  0.46999998093E+01 0.  1.
       -5    1    3    3    0  502  0.59768531645E+03 -0.19859708182E+03 -0.13964036422E+04  0.15318726319E+04  0.46999998093E+01 0. -1.
</event>
<event>
 5   0  0.1096672E-05  0.2743010E+04  0.7818609E-02  0.8321183E-01
       -1   -1    0    0    0  501  0.00000000000E+00  0.00000000000E+00  0.92476023992E+03  0.92476023994E+03  0.50400001928E-02 0.  1.
        1   -1    0    0  501    0  0.00000000000E+00  0.00000000000E+00 -0.20340684780E+04  0.20340684780E+04  0.50400001928E-02 0. -1.
    10030    2    1    2    0    0  0.00000000000E+00  0.00000000000E+00 -0.11093082380E+04  0.29588287179E+04  0.27430097730E+04 0.  0.
        1    1    3    3  502    0 -0.74550413794E+03  0.96247003061E+03 -0.12359328887E+04  0.17348357516E+04  0.50400001928E-02 0. -1.
       -1    1    3    3    0  502  0.74550413794E+03 -0.96247003061E+03  0.12662465065E+03  0.12239929664E+04  0.50400001928E-02 0.  1.
</event>
<event>
 5   0  0.2615843E-05  0.2738020E+04  0.7818609E-02  0.8322773E-01
        2   -1    0    0  501    0  0.00000000000E+00  0.00000000000E+00  0.20493622634E+04  0.20493622635E+04  0.25500000920E-02 0.  1.
       -2   -1    0    0    0  501  0.00000000000E+00  0.00000000000E+00 -0.91452263966E+03  0.91452263966E+03  0.25500000920E-02 0. -1.
    10030    2    1    2    0    0  0.00000000000E+00  0.00000000000E+00  0.11348396238E+04  0.29638849031E+04  0.27380198588E+04 0.  0.
        3    1    3    3  502    0 -0.10580387918E+04  0.18659837928E+03 -0.35105617491E+03  0.11302678834E+04  0.10100000352E+00 0. -1.
       -3    1    3    3    0  502  0.10580387918E+04 -0.18659837928E+03  0.14858957987E+04  0.18336170197E+04  0.10100000352E+00 0.  1.
</event>
<event>
 5   0  0.9971923E-06  0.2710650E+04  0.7818609E-02  0.8331558E-01
        1   -1    0    0  501    0  0.00000000000E+00  0.00000000000E+00  0.15802743745E+04  0.15802743745E+04  0.50400001928E-02 0.  1.
       -1   -1    0    0    0  501  0.00000000000E+00  0.00000000000E+00 -0.11623964513E+04  0.11623964513E+04  0.50400001928E-02 0. -1.
    10030    2    1    2    0    0  0.00000000000E+00  0.00000000000E+00  0.41787792326E+03  0.27426708258E+04  0.27106496085E+04 0.  0.
        2    1    3    3  502    0 -0.12443292634E+04 -0.51969777079E+03  0.34642733698E+03  0.13922833722E+04  0.25500000920E-02 0. -1.
       -2    1    3    3    0  502  0.12443292634E+04  0.51969777079E+03  0.71450586277E+02  0.13503874536E+04  0.25500000920E-02 0.  1.
</event>
<event>
 5   0  0.1036691E-05  0.2679130E+04  0.7818609E-02  0.8341809E-01
       -1   -1    0    0    0  501  0.00000000000E+00  0.00000000000E+00  0.18918180478E+04  0.18918180478E+04  0.50400001928E-02 0.  1.
        1   -1    0    0  501    0  0.00000000000E+00  0.00000000000E+00 -0.94852356679E+03  0.94852356680E+03  0.50400001928E-02 0. -1.
    10030    2    1    2    0    0  0.00000000000E+00  0.00000000000E+00  0.94329448098E+03  0.28403416146E+04  0.26791297112E+04 0.  0.
        4    1    3    3  502    0 -0.89626967339E+03  0.56429751583E+03  0.13411840953E+04  0.17089492105E+04  0.12699999809E+01 0.  1.
       -4    1    3    3    0  502  0.89626967339E+03 -0.56429751583E+03 -0.39788961434E+03  0.11313924040E+04  0.12699999809E+01 0. -1.
</event>
<event>
 5   0  0.8740500E-06  0.2700784E+04  0.7818609E-02  0.8334751E-01
        3   -1    0    0  501    0  0.00000000000E+00  0.00000000000E+00  0.13154126560E+04  0.13154126599E+04  0.10100000352E+00 0.  1.
       -3   -1    0    0    0  501  0.00000000000E+00  0.00000000000E+00 -0.13863013880E+04  0.13863013916E+04  0.10100000352E+00 0. -1.
    10030    2    1    2    0    0  0.00000000000E+00  0.00000000000E+00 -0.70888731964E+02  0.27017140515E+04  0.27007838869E+04 0.  0.
        2    1    3    3  502    0 -0.50332783237E+03 -0.28239420284E+03  0.11858253991E+04  0.13188128259E+04  0.25500000920E-02 0.  1.
       -2    1    3    3    0  502  0.50332783237E+03  0.28239420284E+03 -0.12567141311E+04  0.13829012256E+04  0.25500000920E-02 0. -1.
</event>
<event>
 5   0  0.2516518E-05  0.2084156E+04  0.7818609E-02  0.8568255E-01
        2   -1    0    0  501    0  0.00000000000E+00  0.00000000000E+00  0.15673477438E+04  0.15673477438E+04  0.25500000920E-02 0. -1.
       -2   -1    0    0    0  501  0.00000000000E+00  0.00000000000E+00 -0.69284373902E+03  0.69284373902E+03  0.25500000920E-02 0.  1.
    10030    2    1    2    0    0  0.00000000000E+00  0.00000000000E+00  0.87450400481E+03  0.22601914828E+04  0.20841564924E+04 0.  0.
        4    1    3    3  502    0  0.17182374754E+03  0.78848323731E+03 -0.27775097709E+03  0.85344972547E+03  0.12699999809E+01 0.  1.
       -4    1    3    3    0  502 -0.17182374754E+03 -0.78848323731E+03  0.11522549819E+04  0.14067417574E+04  0.12699999809E+01 0. -1.
</event>
<event>
 5   0  0.1041909E-05  0.2712871E+04  0.7818609E-02  0.8330841E-01
        1   -1    0    0  501    0  0.00000000000E+00  0.00000000000E+00  0.17348205005E+04  0.17348205005E+04  0.50400001928E-02 0. -1.
       -1   -1    0    0    0  501  0.00000000000E+00  0.00000000000E+00 -0.10605808651E+04  0.10605808651E+04  0.50400001928E-02 0.  1.
    10030    2    1    2    0    0  0.00000000000E+00  0.00000000000E+00  0.67423963536E+03  0.27954013656E+04  0.27128711191E+04 0.  0.
        5    1    3    3  502    0  0.61774456230E+03  0.93888126395E+03 -0.44545069998E+03  0.12089478021E+04  0.46999998093E+01 0.  1.
       -5    1    3    3    0  502 -0.61774456230E+03 -0.93888126395E+03  0.11196903353E+04  0.15864535635E+04  0.46999998093E+01 0. -1.
</event>
<event>
 5   0  0.2540684E-05  0.2718091E+04  0.7818609E-02  0.8329159E-01
       -2   -1    0    0    0  501  0.00000000000E+00  0.00000000000E+00  0.16861189993E+04  0.16861189993E+04  0.25500000920E-02 0.  1.
        2   -1    0    0  501    0  0.00000000000E+00  0.00000000000E+00 -0.10954174290E+04  0.10954174290E+04  0.25500000920E-02 0. -1.
    10030    2    1    2    0    0  0.00000000000E+00  0.00000000000E+00  0.59070157034E+03  0.27815364283E+04  0.27180906086E+04 0.  0.
        2    1    3    3  502    0  0.96468661760E+03 -0.11847115360E+03  0.12674441113E+04  0.15972070184E+04  0.25500000920E-02 0.  1.
       -2    1    3    3    0  502 -0.96468661760E+03  0.11847115360E+03 -0.67674254095E+03  0.11843294099E+04  0.25500000920E-02 0. -1.
</event>
<event>
 5   0  0.9971923E-06  0.2684267E+04  0.7818609E-02  0.8340128E-01
       -1   -1    0    0    0  501  0.00000000000E+00  0.00000000000E+00  0.95316663723E+03  0.95316663725E+03  0.50400001928E-02 0. -1.
        1   -1    0    0  501    0  0.00000000000E+00  0.00000000000E+00 -0.18898288624E+04  0.18898288624E+04  0.50400001928E-02 0.  1.
    10030    2    1    2    0    0  0.00000000000E+00  0.00000000000E+00 -0.93666222518E+03  0.28429954997E+04  0.26842666200E+04 0.  0.
        2    1    3    3  502    0 -0.21764386295E+03  0.11676519992E+03 -0.18655515665E+04  0.18818303883E+04  0.25500000920E-02 0.  1.
       -2    1    3    3    0  502  0.21764386295E+03 -0.11676519992E+03  0.92888934130E+03  0.96116511140E+03  0.25500000920E-02 0. -1.
</event>
<event>
 5   0  0.1096672E-05  0.2680581E+04  0.7818609E-02  0.8341333E-01
        1   -1    0    0  501    0  0.00000000000E+00  0.00000000000E+00  0.29505307022E+04  0.29505307022E+04  0.50400001928E-02 0.  1.
       -1   -1    0    0    0  501  0.00000000000E+00  0.00000000000E+00 -0.60883233183E+03  0.60883233186E+03  0.50400001928E-02 0. -1.
    10030    2    1    2    0    0  0.00000000000E+00  0.00000000000E+00  0.23416983704E+04  0.35593630341E+04  0.26805808980E+04 0.  0.
        1    1    3    3  502    0  0.66518734031E+03  0.32682003051E+03 -0.31198565209E+03  0.80412721455E+03  0.50400001928E-02 0. -1.
       -1    1    3    3    0  502 -0.66518734031E+03 -0.32682003051E+03  0.26536840225E+04  0.27552358195E+04  0.50400001928E-02 0.  1.
</event>
<event>
 5   0  0.2540684E-05  0.2685361E+04  0.7818609E-02  0.8339770E-01
        2   -1    0    0  501    0  0.00000000000E+00  0.00000000000E+00  0.14049260495E+04  0.14049260495E+04  0.25500000920E-02 0.  1.
       -2   -1    0    0    0  501  0.00000000000E+00  0.00000000000E+00 -0.12831927743E+04  0.12831927743E+04  0.25500000920E-02 0. -1.
    10030    2    1    2    0    0  0.00000000000E+00  0.00000000000E+00  0.12173327523E+03  0.26881188237E+04  0.26853610223E+04 0.  0.
        2    1    3    3  502    0 -0.45772569577E+02 -0.12465167600E+04  0.55825899599E+03  0.13665841605E+04  0.25500000920E-02 0.  1.
       -2    1    3    3    0  502  0.45772569577E+02  0.12465167600E+04 -0.43652572076E+03  0.13215346632E+04  0.25500000920E-02 0. -1.
</event>
<event>
 5   0  0.2516518E-05  0.2731676E+04  0.7818609E-02  0.8324800E-01
        2   -1    0    0  501    0  0.00000000000E+00  0.00000000000E+00  0.20794203330E+04  0.20794203330E+04  0.25500000920E-02 0. -1.
       -2   -1    0    0    0  501  0.00000000000E+00  0.00000000000E+00 -0.89713171310E+03  0.89713171311E+03  0.25500000920E-02 0.  1.
    10030    2    1    2    0    0  0.00000000000E+00  0.00000000000E+00  0.11822886199E+04  0.29765520461E+04  0.27316763539E+04 0.  0.
        4    1    3    3  502    0 -0.12826324363E+04 -0.43277279767E+03  0.39297886049E+03  0.14095645636E+04  0.12699999809E+01 0.  1.
       -4    1    3    3    0  502  0.12826324363E+04  0.43277279767E+03  0.78930975936E+03  0.15669874825E+04  0.12699999809E+01 0. -1.
</event>
<event>
 5   0  0.9971923E-06  0.2600923E+04  0.7818609E-02  0.8367888E-01
       -1   -1    0    0    0  501  0.00000000000E+00  0.00000000000E+00  0.12648714385E+04  0.12648714385E+04  0.50400001928E-02 0.  1.
        1   -1    0    0  501    0  0.00000000000E+00  0.00000000000E+00 -0.13370530565E+04  0.13370530565E+04  0.50400001928E-02 0. -1.
    10030    2    1    2    0    0  0.00000000000E+00  0.00000000000E+00 -0.72181618057E+02  0.26019244950E+04  0.26009230846E+04 0.  0.
        2    1    3    3  502    0  0.11266562679E+04 -0.38697467237E+03  0.48573870910E+03  0.12864858478E+04  0.25500000920E-02 0.  1.
       -2    1    3    3    0  502 -0.11266562679E+04  0.38697467237E+03 -0.55792032715E+03  0.13154386472E+04  0.25500000920E-02 0. -1.
</event>
<event>
 5   0  0.1096672E-05  0.2501957E+04  0.7818609E-02  0.8402289E-01
        1   -1    0    0  501    0  0.00000000000E+00  0.00000000000E+00  0.24566535930E+04  0.24566535931E+04  0.50400001928E-02 0.  1.
       -1   -1    0    0    0  501  0.00000000000E+00  0.00000000000E+00 -0.63702410226E+03  0.63702410228E+03  0.50400001928E-02 0. -1.
    10030    2    1    2    0    0  0.00000000000E+00  0.00000000000E+00  0.18196294908E+04  0.30936776953E+04  0.25019572736E+04 0.  0.
        1    1    3    3  502    0  0.47529923433E+03 -0.28210089675E+02 -0.52060193739E+03  0.70550092031E+03  0.50400001928E-02 0. -1.
       -1    1    3    3    0  502 -0.47529923433E+03  0.28210089675E+02  0.23402314282E+04  0.23881767750E+04  0.50400001928E-02 0.  1.
</event>
<event>
 5   0  0.1036691E-05  0.2706959E+04  0.7818609E-02  0.8332750E-01
       -1   -1    0    0    0  501  0.00000000000E+00  0.00000000000E+00  0.15145972984E+04  0.15145972984E+04  0.50400001928E-02 0. -1.
        1   -1    0    0  501    0  0.00000000000E+00  0.00000000000E+00 -0.12095011463E+04  0.12095011464E+04  0.50400001928E-02 0.  1.
    10030    2    1    2    0    0  0.00000000000E+00  0.00000000000E+00  0.30509615205E+03  0.27240984448E+04  0.27069593042E+04 0.  0.
        4    1    3    3  502    0  0.12875725008E+03  0.95304722232E+03  0.11109583196E+04  0.14693901586E+04  0.12699999809E+01 0. -1.
       -4    1    3    3    0  502 -0.12875725008E+03 -0.95304722232E+03 -0.80586216753E+03  0.12547082862E+04  0.12699999809E+01 0.  1.
</event>
<event>
 5   0  0.2516518E-05  0.3060976E+04  0.7818609E-02  0.8226530E-01
        2   -1    0    0  501    0  0.00000000000E+00  0.00000000000E+00  0.22063580124E+04  0.22063580124E+04  0.25500000920E-02 0. -1.
       -2   -1    0    0    0  501  0.00000000000E+00  0.00000000000E+00 -0.10616563120E+04  0.10616563120E+04  0.25500000920E-02 0.  1.
    10030    2    1    2    0    0  0.00000000000E+00  0.00000000000E+00  0.11447017005E+04  0.32680143244E+04  0.30609762563E+04 0.  0.
        4    1    3    3  502    0  0.19505113859E+03  0.33505548580E+03  0.21530626777E+04  0.21876900220E+04  0.12699999809E+01 0. -1.
       -4    1    3    3    0  502 -0.19505113859E+03 -0.33505548580E+03 -0.10083609772E+04  0.10803243025E+04  0.12699999809E+01 0.  1.
</event>
<event>
 5   0  0.1005265E-05  0.2702499E+04  0.7818609E-02  0.8334195E-01
       -1   -1    0    0    0  501  0.00000000000E+00  0.00000000000E+00  0.12445177732E+04  0.12445177732E+04  0.50400001928E-02 0.  1.
        1   -1    0    0  501    0  0.00000000000E+00  0.00000000000E+00 -0.14671345362E+04  0.14671345362E+04  0.50400001928E-02 0. -1.
    10030    2    1    2    0    0  0.00000000000E+00  0.00000000000E+00 -0.22261676307E+03  0.27116523094E+04  0.27024988481E+04 0.  0.
        3    1    3    3  502    0 -0.87031007216E+03  0.78544901136E+03  0.56290889306E+03  0.13004753759E+04  0.10100000352E+00 0.  1.
       -3    1    3    3    0  502  0.87031007216E+03 -0.78544901136E+03 -0.78552565614E+03  0.14111769336E+04  0.10100000352E+00 0. -1.
</event>
<event>
 5   0  0.1096672E-05  0.2715365E+04  0.7818609E-02  0.8330037E-01
        1   -1    0    0  501    0  0.00000000000E+00  0.00000000000E+00  0.12535927462E+04  0.12535927462E+04  0.50400001928E-02 0.  1.
       -1   -1    0    0    0  501  0.00000000000E+00  0.00000000000E+00 -0.14704156853E+04  0.14704156853E+04  0.50400001928E-02 0. -1.
    10030    2    1    2    0    0  0.00000000000E+00  0.00000000000E+00 -0.21682293910E+03  0.27240084315E+04  0.27153654907E+04 0.  0.
        1    1    3    3  502    0 -0.13465665186E+04  0.17308827120E+03 -0.98304757765E+02  0.13611997517E+04  0.50400001928E-02 0.  1.
       -1    1    3    3    0  502  0.13465665186E+04 -0.17308827120E+03 -0.11851818133E+03  0.13628086799E+04  0.50400001928E-02 0. -1.
</event>
<event>
 5   0  0.1096672E-05  0.2736923E+04  0.7818609E-02  0.8323123E-01
       -1   -1    0    0    0  501  0.00000000000E+00  0.00000000000E+00  0.62637066105E+03  0.62637066107E+03  0.50400001928E-02 0.  1.
        1   -1    0    0  501    0  0.00000000000E+00  0.00000000000E+00 -0.29897424360E+04  0.29897424360E+04  0.50400001928E-02 0. -1.
    10030    2    1    2    0    0  0.00000000000E+00  0.00000000000E+00 -0.23633717749E+04  0.36161130971E+04  0.27369230505E+04 0.  0.
        1    1    3    3  502    0  0.13086496468E+04 -0.31744749148E+03 -0.15035631393E+04  0.20184248616E+04  0.50400001928E-02 0. -1.
       -1    1    3    3    0  502 -0.13086496468E+04  0.31744749148E+03 -0.85980863561E+03  0.15976882355E+04  0.50400001928E-02 0.  1.
</event>
<event>
 5   0  0.2516518E-05  0.2710941E+04  0.7818609E-02  0.8331464E-01
       -2   -1    0    0    0  501  0.00000000000E+00  0.00000000000E+00  0.11581497612E+04  0.11581497612E+04  0.25500000920E-02 0.  1.
        2   -1    0    0  501    0  0.00000000000E+00  0.00000000000E+00 -0.15864098232E+04  0.15864098232E+04  0.25500000920E-02 0. -1.
    10030    2    1    2    0    0  0.00000000000E+00  0.00000000000E+00 -0.42826006197E+03  0.27445595844E+04  0.27109409126E+04 0.  0.
        4    1    3    3  502    0 -0.77633528735E+03  0.15810583055E+03 -0.13275892851E+04  0.15460235622E+04  0.12699999809E+01 0. -1.
       -4    1    3    3    0  502  0.77633528735E+03 -0.15810583055E+03  0.89932922311E+03  0.11985360222E+04  0.12699999809E+01 0.  1.
</event>
<event>
 5   0  0.2615843E-05  0.2682739E+04  0.7818609E-02  0.8340627E-01
        2   -1    0    0  501    0  0.00000000000E+00  0.00000000000E+00  0.20163762923E+04  0.20163762923E+04  0.25500000920E-02 0.  1.
       -2   -1    0    0    0  501  0.00000000000E+00  0.00000000000E+00 -0.89232947350E+03  0.89232947350E+03  0.25500000920E-02 0. -1.
    10030    2    1    2    0    0  0.00000000000E+00  0.00000000000E+00  0.11240468188E+04  0.29087057658E+04  0.26827388955E+04 0.  0.
        3    1    3    3  502    0  0.27034391515E+02  0.78944913407E+03 -0.61340943482E+03  0.10001159625E+04  0.10100000352E+00 0. -1.
       -3    1    3    3    0  502 -0.27034391515E+02 -0.78944913407E+03  0.17374562536E+04  0.19085898033E+04  0.10100000352E+00 0.  1.
</event>
<event>
 5   0  0.2641216E-05  0.2744567E+04  0.7818609E-02  0.8320688E-01
       -2   -1    0    0    0  501  0.00000000000E+00  0.00000000000E+00  0.17984498640E+04  0.17984498640E+04  0.25500000920E-02 0. -1.
        2   -1    0    0  501    0  0.00000000000E+00  0.00000000000E+00 -0.10471030424E+04  0.10471030424E+04  0.25500000920E-02 0.  1.
    10030    2    1    2    0    0  0.00000000000E+00  0.00000000000E+00  0.75134682164E+03  0.28455529064E+04  0.27445672330E+04 0.  0.
        5    1    3    3  502    0  0.73553547484E+03  0.11366427479E+04  0.60790400994E+03  0.14840951945E+04  0.46999998093E+01 0. -1.
       -5    1    3    3    0  502 -0.73553547484E+03 -0.11366427479E+04  0.14344281170E+03  0.13614577119E+04  0.46999998093E+01 0.  1.
</event>
<event>
 5   0  0.2615843E-05  0.2502229E+04  0.7818609E-02  0.8402192E-01
       -2   -1    0    0    0  501  0.00000000000E+00  0.00000000000E+00  0.64529176357E+03  0.64529176357E+03  0.25500000920E-02 0.  1.
        2   -1    0    0  501    0  0.00000000000E+00  0.00000000000E+00 -0.24257053018E+04  0.24257053018E+04  0.25500000920E-02 0. -1.
    10030    2    1    2    0    0  0.00000000000E+00  0.00000000000E+00 -0.17804135382E+04  0.30709970653E+04  0.25022291279E+04 0.  0.
        3    1    3    3  502    0  0.80018402518E+03  0.17799051150E+02  0.28997038647E+03  0.85128967785E+03  0.10100000352E+00 0.  1.
       -3    1    3    3    0  502 -0.80018402518E+03 -0.17799051150E+02 -0.20703839247E+04  0.22197073875E+04  0.10100000352E+00 0. -1.
</event>
<event>
 5   0  0.1041909E-05  0.2710578E+04  0.7818609E-02  0.8331581E-01
       -1   -1    0    0    0  501  0.00000000000E+00  0.00000000000E+00  0.11337369885E+04  0.11337369885E+04  0.50400001928E-02 0.  1.
        1   -1    0    0  501    0  0.00000000000E+00  0.00000000000E+00 -0.16201362665E+04  0.16201362665E+04  0.50400001928E-02 0. -1.
    10030    2    1    2    0    0  0.00000000000E+00  0.00000000000E+00 -0.48639927806E+03  0.27538732550E+04  0.27105781020E+04 0.  0.
        5    1    3    3  502    0  0.63232388221E+03  0.10022115204E+04  0.42497129426E+03  0.12589218064E+04  0.46999998093E+01 0. -1.
       -5    1    3    3    0  502 -0.63232388221E+03 -0.10022115204E+04 -0.91137057233E+03  0.14949514486E+04  0.46999998093E+01 0.  1.
</event>
<event>
 5   0  0.2641216E-05  0.2709852E+04  0.7818609E-02  0.8331816E-01
       -2   -1    0    0    0  501  0.00000000000E+00  0.00000000000E+00  0.88123672508E+03  0.88123672509E+03  0.25500000920E-02 0.  1.
        2   -1    0    0  501    0  0.00000000000E+00  0.00000000000E+00 -0.20832356973E+04  0.20832356973E+04  0.25500000920E-02 0. -1.
    10030    2    1    2    0    0  0.00000000000E+00  0.00000000000E+00 -0.12019989722E+04  0.29644724224E+04  0.27098515114E+04 0.  0.
        5    1    3    3  502    0  0.76706501183E+03  0.10846570476E+04 -0.30964397445E+03  0.13641008482E+04  0.46999998093E+01 0.  1.
       -5    1    3    3    0  502 -0.76706501183E+03 -0.10846570476E+04 -0.89235499774E+03  0.16003715741E+04  0.46999998093E+01 0. -1.
</event>
<event>
 5   0  0.2540684E-05  0.2606512E+04  0.7818609E-02  0.8365993E-01
        2   -1    0    0  501    0  0.00000000000E+00  0.00000000000E+00  0.82019720264E+03  0.82019720265E+03  0.25500000920E-02 0. -1.
       -2   -1    0    0    0  501  0.00000000000E+00  0.00000000000E+00 -0.20708146457E+04  0.20708146457E+04  0.25500000920E-02 0.  1.
    10030    2    1    2    0    0  0.00000000000E+00  0.00000000000E+00 -0.12506174431E+04  0.28910118484E+04  0.26065121367E+04 0.  0.
        2    1    3    3  502    0 -0.46994184411E+02 -0.53495645528E+03 -0.19423926856E+04  0.20152608286E+04  0.25500000920E-02 0.  1.
       -2    1    3    3    0  502  0.46994184411E+02  0.53495645528E+03  0.69177524251E+03  0.87575101974E+03  0.25500000920E-02 0. -1.
</event>
<event>
 5   0  0.2641216E-05  0.2668672E+04  0.7818609E-02  0.8345242E-01
        2   -1    0    0  501    0  0.00000000000E+00  0.00000000000E+00  0.11808051403E+04  0.11808051403E+04  0.25500000920E-02 0. -1.
       -2   -1    0    0    0  501  0.00000000000E+00  0.00000000000E+00 -0.15078293741E+04  0.15078293741E+04  0.25500000920E-02 0.  1.
    10030    2    1    2    0    0  0.00000000000E+00  0.00000000000E+00 -0.32702423379E+03  0.26886345144E+04  0.26686720860E+04 0.  0.
        5    1    3    3  502    0  0.52615025155E+03 -0.12245213859E+04 -0.98657660454E+02  0.13364288742E+04  0.46999998093E+01 0. -1.
       -5    1    3    3    0  502 -0.52615025155E+03  0.12245213859E+04 -0.22836657333E+03  0.13522056403E+04  0.46999998093E+01 0.  1.
</event>
<event>
 5   0  0.1096672E-05  0.2716268E+04  0.7818609E-02  0.8329746E-01
       -1   -1    0    0    0  501  0.00000000000E+00  0.00000000000E+00  0.10199492196E+04  0.10199492196E+04  0.50400001928E-02 0.  1.
        1   -1    0    0  501    0  0.00000000000E+00  0.00000000000E+00 -0.18084510749E+04  0.18084510749E+04  0.50400001928E-02 0. -1.
    10030    2    1    2    0    0  0.00000000000E+00  0.00000000000E+00 -0.78850185533E+03  0.28284002945E+04  0.27162682213E+04 0.  0.
        1    1    3    3  502    0 -0.89612201406E+03 -0.98707122679E+03 -0.66414983290E+03  0.14894426043E+04  0.50400001928E-02 0. -1.
       -1    1    3    3    0  502  0.89612201406E+03  0.98707122679E+03 -0.12435202244E+03  0.13389576903E+04  0.50400001928E-02 0.  1.
</event>
<event>
 5   0  0.2540684E-05  0.2528276E+04  0.7818609E-02  0.8392981E-01
        2   -1    0    0  501    0  0.00000000000E+00  0.00000000000E+00  0.16363631126E+04  0.16363631126E+04  0.25500000920E-02 0. -1.
       -2   -1    0    0    0  501  0.00000000000E+00  0.00000000000E+00 -0.97658359163E+03  0.97658359164E+03  0.25500000920E-02 0.  1.
    10030    2    1    2    0    0  0.00000000000E+00  0.00000000000E+00  0.65977952093E+03  0.26129467042E+04  0.25282763818E+04 0.  0.
        2    1    3    3  502    0  0.64007423365E+03 -0.42663097237E+03  0.13666482135E+04  0.15682590190E+04  0.25500000920E-02 0. -1.
       -2    1    3    3    0  502 -0.64007423365E+03  0.42663097237E+03 -0.70686869255E+03  0.10446876852E+04  0.25500000920E-02 0.  1.
</event>
<event>
 5   0  0.1041909E-05  0.2633665E+04  0.7818609E-02  0.8356855E-01
        1   -1    0    0  501    0  0.00000000000E+00  0.00000000000E+00  0.14071222661E+04  0.14071222661E+04  0.50400001928E-02 0.  1.
       -1   -1    0    0    0  501  0.00000000000E+00  0.00000000000E+00 -0.12323359510E+04  0.12323359510E+04  0.50400001928E-02 0. -1.
    10030    2    1    2    0    0  0.00000000000E+00  0.00000000000E+00  0.17478631514E+03  0.26394582171E+04  0.26336646377E+04 0.  0.
        5    1    3    3  502    0  0.58829739547E+03 -0.99367993157E+03  0.72166105416E+03  0.13617306632E+04  0.46999998093E+01 0.  1.
       -5    1    3    3    0  502 -0.58829739547E+03  0.99367993157E+03 -0.54687473902E+03  0.12777275539E+04  0.46999998093E+01 0. -1.
</event>
<event>
 5   0  0.1005265E-05  0.2309717E+04  0.7818609E-02  0.8474100E-01
       -1   -1    0    0    0  501  0.00000000000E+00  0.00000000000E+00  0.69795255510E+03  0.69795255512E+03  0.50400001928E-02 0. -1.
        1   -1    0    0  501    0  0.00000000000E+00  0.00000000000E+00 -0.19108717080E+04  0.19108717080E+04  0.50400001928E-02 0.  1.
    10030    2    1    2    0    0  0.00000000000E+00  0.00000000000E+00 -0.12129191529E+04  0.26088242631E+04  0.23097166849E+04 0.  0.
        3    1    3    3  502    0 -0.24161913113E+03 -0.14967371900E+03 -0.18707505823E+04  0.18922182163E+04  0.10100000352E+00 0.  1.
       -3    1    3    3    0  502  0.24161913113E+03  0.14967371900E+03  0.65783142939E+03  0.71660604685E+03  0.10100000352E+00 0. -1.
</event>
<event>
 5   0  0.2516518E-05  0.2684274E+04  0.7818609E-02  0.8340126E-01
       -2   -1    0    0    0  501  0.00000000000E+00  0.00000000000E+00  0.12134050616E+04  0.12134050616E+04  0.25500000920E-02 0. -1.
        2   -1    0    0  501    0  0.00000000000E+00  0.00000000000E+00 -0.14845265288E+04  0.14845265288E+04  0.25500000920E-02 0.  1.
    10030    2    1    2    0    0  0.00000000000E+00  0.00000000000E+00 -0.27112146720E+03  0.26979315905E+04  0.26842742067E+04 0.  0.
        4    1    3    3  502    0 -0.63748610416E+03 -0.20824554744E+03  0.10329272071E+04  0.12315417041E+04  0.12699999809E+01 0. -1.
       -4    1    3    3    0  502  0.63748610416E+03  0.20824554744E+03 -0.13040486743E+04  0.14663898864E+04  0.12699999809E+01 0.  1.
</event>
<event>
 5   0  0.1005265E-05  0.2736745E+04  0.7818609E-02  0.8323180E-01
       -1   -1    0    0    0  501  0.00000000000E+00  0.00000000000E+00  0.18827443718E+04  0.18827443718E+04  0.50400001928E-02 0.  1.
        1   -1    0    0  501    0  0.00000000000E+00  0.00000000000E+00 -0.99452895750E+03  0.99452895752E+03  0.50400001928E-02 0. -1.
    10030    2    1    2    0    0  0.00000000000E+00  0.00000000000E+00  0.88821541433E+03  0.28772733294E+04  0.27367453644E+04 0.  0.
        3    1    3    3  502    0  0.76401724389E+03 -0.10488217844E+04 -0.12587151896E+02  0.12976547811E+04  0.10100000352E+00 0. -1.
       -3    1    3    3    0  502 -0.76401724389E+03  0.10488217844E+04  0.90080256623E+03  0.15796185482E+04  0.10100000352E+00 0.  1.
</event>
<event>
 5   0  0.1036691E-05  0.2722418E+04  0.7818609E-02  0.8327768E-01
        1   -1    0    0  501    0  0.00000000000E+00  0.00000000000E+00  0.15206616785E+04  0.15206616785E+04  0.50400001928E-02 0. -1.
       -1   -1    0    0    0  501  0.00000000000E+00  0.00000000000E+00 -0.12184757512E+04  0.12184757513E+04  0.50400001928E-02 0.  1.
    10030    2    1    2    0    0  0.00000000000E+00  0.00000000000E+00  0.30218592724E+03  0.27391374298E+04  0.27224175882E+04 0.  0.
        4    1    3    3  502    0  0.34950978252E+03 -0.13119474886E+04  0.52900212864E+02  0.13587359370E+04  0.12699999809E+01 0. -1.
       -4    1    3    3    0  502 -0.34950978252E+03  0.13119474886E+04  0.24928571438E+03  0.13804014928E+04  0.12699999809E+01 0.  1.
</event>
<event>
 5   0  0.1005265E-05  0.2700762E+04  0.7818609E-02  0.8334758E-01
       -1   -1    0    0    0  501  0.00000000000E+00  0.00000000000E+00  0.89359966608E+03  0.89359966610E+03  0.50400001928E-02 0.  1.
        1   -1    0    0  501    0  0.00000000000E+00  0.00000000000E+00 -0.20406553557E+04  0.20406553557E+04  0.50400001928E-02 0. -1.
    10030    2    1    2    0    0  0.00000000000E+00  0.00000000000E+00 -0.11470556896E+04  0.29342550218E+04  0.27007620735E+04 0.  0.
        3    1    3    3  502    0 -0.12617174333E+04 -0.40106936273E+02 -0.52494495253E+02  0.12634457369E+04  0.10100000352E+00 0.  1.
       -3    1    3    3    0  502  0.12617174333E+04  0.40106936273E+02 -0.10945611943E+04  0.16708092848E+04  0.10100000352E+00 0. -1.
</event>
<event>
 5   0  0.2641216E-05  0.2648994E+04  0.7818609E-02  0.8351747E-01
       -2   -1    0    0    0  501  0.00000000000E+00  0.00000000000E+00  0.11170944789E+04  0.11170944789E+04  0.25500000920E-02 0. -1.
        2   -1    0    0  501    0  0.00000000000E+00  0.00000000000E+00 -0.15704068881E+04  0.15704068881E+04  0.25500000920E-02 0.  1.
    10030    2    1    2    0    0  0.00000000000E+00  0.00000000000E+00 -0.45331240924E+03  0.26875013670E+04  0.26489944238E+04 0.  0.
        5    1    3    3  502    0  0.22781608054E+03  0.30784457308E+03 -0.15129997237E+04  0.15607237749E+04  0.46999998093E+01 0.  1.
       -5    1    3    3    0  502 -0.22781608054E+03 -0.30784457308E+03  0.10596873144E+04  0.11267775921E+04  0.46999998093E+01 0. -1.
</event>
<event>
 5   0  0.1036691E-05  0.2406997E+04  0.7818609E-02  0.8436889E-01
        1   -1    0    0  501    0  0.00000000000E+00  0.00000000000E+00  0.83580699639E+03  0.83580699641E+03  0.50400001928E-02 0.  1.
       -1   -1    0    0    0  501  0.00000000000E+00  0.00000000000E+00 -0.17329456320E+04  0.17329456320E+04  0.50400001928E-02 0. -1.
    10030    2    1    2    0    0  0.00000000000E+00  0.00000000000E+00 -0.89713863561E+03  0.25687526284E+04  0.24069965381E+04 0.  0.
        4    1    3    3  502    0 -0.85165201359E+03 -0.84885685423E+03 -0.50232666367E+03  0.13031511045E+04  0.12699999809E+01 0.  1.
       -4    1    3    3    0  502  0.85165201359E+03  0.84885685423E+03 -0.39481197194E+03  0.12656015239E+04  0.12699999809E+01 0. -1.
</event>
<event>
 5   0  0.1041909E-05  0.2684158E+04  0.7818609E-02  0.8340163E-01
       -1   -1    0    0    0  501  0.00000000000E+00  0.00000000000E+00  0.16930888593E+04  0.16930888594E+04  0.50400001928E-02 0.  1.
        1   -1    0    0  501    0  0.00000000000E+00  0.00000000000E+00 -0.10638405511E+04  0.10638405511E+04  0.50400001928E-02 0. -1.
    10030    2    1    2    0    0  0.00000000000E+00  0.00000000000E+00  0.62924830821E+03  0.27569294105E+04  0.26841584046E+04 0.  0.
        5    1    3    3  502    0 -0.13899356739E+03 -0.12846069883E+04  0.68725493515E+03  0.14635148656E+04  0.46999998093E+01 0.  1.
       -5    1    3    3    0  502  0.13899356739E+03  0.12846069883E+04 -0.58006626936E+02  0.12934145449E+04  0.46999998093E+01 0. -1.
</event>
<event>
 5   0  0.2641216E-05  0.2024614E+04  0.7818609E-02  0.8595199E-01
        2   -1    0    0  501    0  0.00000000000E+00  0.00000000000E+00  0.12164769085E+04  0.12164769085E+04  0.25500000920E-02 0.  1.
       -2   -1    0    0    0  501  0.00000000000E+00  0.00000000000E+00 -0.84240413612E+03  0.84240413613E+03  0.25500000920E-02 0. -1.
    10030    2    1    2    0    0  0.00000000000E+00  0.00000000000E+00  0.37407277242E+03  0.20588810447E+04  0.20246137205E+04 0.  0.
        5    1    3    3  502    0 -0.91468585477E+03 -0.42086685397E+03  0.29351758961E+03  0.10487868168E+04  0.46999998093E+01 0.  1.
       -5    1    3    3    0  502  0.91468585477E+03  0.42086685397E+03  0.80555182805E+02  0.10100942279E+04  0.46999998093E+01 0. -1.
</event>
<event>
 5   0  0.1041909E-05  0.2691052E+04  0.7818609E-02  0.8337914E-01
        1   -1    0    0  501    0  0.00000000000E+00  0.00000000000E+00  0.13176043933E+04  0.13176043933E+04  0.50400001928E-02 0.  1.
       -1   -1    0    0    0  501  0.00000000000E+00  0.00000000000E+00 -0.13740389013E+04  0.13740389013E+04  0.50400001928E-02 0. -1.
    10030    2    1    2    0    0  0.00000000000E+00  0.00000000000E+00 -0.56434508043E+02  0.26916432946E+04  0.26910516107E+04 0.  0.
        5    1    3    3  502    0  0.95422930830E+03  0.72679812778E+03  0.58153019376E+03  0.13330373392E+04  0.46999998093E+01 0.  1.
       -5    1    3    3    0  502 -0.95422930830E+03 -0.72679812778E+03 -0.63796470180E+03  0.13586059554E+04  0.46999998093E+01 0. -1.
</event>
<event>
 5   0  0.2516518E-05  0.2618703E+04  0.7818609E-02  0.8361876E-01
       -2   -1    0    0    0  501  0.00000000000E+00  0.00000000000E+00  0.76874531916E+03  0.76874531916E+03  0.25500000920E-02 0.  1.
        2   -1    0    0  501    0  0.00000000000E+00  0.00000000000E+00 -0.22301290883E+04  0.22301290883E+04  0.25500000920E-02 0. -1.
    10030    2    1    2    0    0  0.00000000000E+00  0.00000000000E+00 -0.14613837691E+04  0.29988744074E+04  0.26187029596E+04 0.  0.
        4    1    3    3  502    0  0.55376561244E+03  0.68550237071E+03 -0.18396983047E+04  0.20398679661E+04  0.12699999809E+01 0. -1.
       -4    1    3    3    0  502 -0.55376561244E+03 -0.68550237071E+03  0.37831453561E+03  0.95900644134E+03  0.12699999809E+01 0.  1.
</event>
<event>
 5   0  0.1036691E-05  0.2159210E+04  0.7818609E-02  0.8535600E-01
        1   -1    0    0  501    0  0.00000000000E+00  0.00000000000E+00  0.12306913247E+04  0.12306913247E+04  0.50400001928E-02 0.  1.
       -1   -1    0    0    0  501  0.00000000000E+00  0.00000000000E+00 -0.94706668308E+03  0.94706668309E+03  0.50400001928E-02 0. -1.
    10030    2    1    2    0    0  0.00000000000E+00  0.00000000000E+00  0.28362464163E+03  0.21777580078E+04  0.21592098099E+04 0.  0.
        4    1    3    3  502    0  0.56884822762E+03  0.86804374758E+03  0.44178423424E+03  0.11279464421E+04  0.12699999809E+01 0.  1.
       -4    1    3    3    0  502 -0.56884822762E+03 -0.86804374758E+03 -0.15815959261E+03  0.10498115657E+04  0.12699999809E+01 0. -1.
</event>
<event>
 5   0  0.9971923E-06  0.2692608E+04  0.7818609E-02  0.8337407E-01
       -1   -1    0    0    0  501  0.00000000000E+00  0.00000000000E+00  0.11495089177E+04  0.11495089177E+04  0.50400001928E-02 0. -1.
        1   -1    0    0  501    0  0.00000000000E+00  0.00000000000E+00 -0.15767904937E+04  0.15767904937E+04  0.50400001928E-02 0.  1.
    10030    2    1    2    0    0  0.00000000000E+00  0.00000000000E+00 -0.42728157597E+03  0.27262994114E+04  0.26926082031E+04 0.  0.
        2    1    3    3  502    0  0.12356579723E+04 -0.53430366897E+03 -0.22809167883E+03  0.13654145338E+04  0.25500000920E-02 0.  1.
       -2    1    3    3    0  502 -0.12356579723E+04  0.53430366897E+03 -0.19918989715E+03  0.13608848776E+04  0.25500000920E-02 0. -1.
</event>
<event>
 5   0  0.1005265E-05  0.2741194E+04  0.7818609E-02  0.8321761E-01
        1   -1    0    0  501    0  0.00000000000E+00  0.00000000000E+00  0.12893863832E+04  0.12893863832E+04  0.50400001928E-02 0. -1.
       -1   -1    0    0    0  501  0.00000000000E+00  0.00000000000E+00 -0.14569223297E+04  0.14569223297E+04  0.50400001928E-02 0.  1.
    10030    2    1    2    0    0  0.00000000000E+00  0.00000000000E+00 -0.16753594649E+03  0.27463087130E+04  0.27411937643E+04 0.  0.
        3    1    3    3  502    0 -0.11603493750E+04  0.39919333853E+03 -0.69545600818E+03  0.14104698023E+04  0.10100000352E+00 0.  1.
       -3    1    3    3    0  502  0.11603493750E+04 -0.39919333853E+03  0.52792006169E+03  0.13358389107E+04  0.10100000352E+00 0. -1.
</event>
<event>
 5   0  0.2615843E-05  0.2706139E+04  0.7818609E-02  0.8333016E-01
        2   -1    0    0  501    0  0.00000000000E+00  0.00000000000E+00  0.16740476223E+04  0.16740476223E+04  0.25500000920E-02 0.  1.
       -2   -1    0    0    0  501  0.00000000000E+00  0.00000000000E+00 -0.10936352530E+04  0.10936352530E+04  0.25500000920E-02 0. -1.
    10030    2    1    2    0    0  0.00000000000E+00  0.00000000000E+00  0.58041236933E+03  0.27676828752E+04  0.27061393126E+04 0.  0.
        3    1    3    3  502    0  0.82735460709E+03  0.26999637207E+03 -0.76939807123E+03  0.11616312190E+04  0.10100000352E+00 0. -1.
       -3    1    3    3    0  502 -0.82735460709E+03 -0.26999637207E+03  0.13498104406E+04  0.16060516562E+04  0.10100000352E+00 0.  1.
</event>
<event>
 5   0  0.9971923E-06  0.2643981E+04  0.7818609E-02  0.8353414E-01
       -1   -1    0    0    0  501  0.00000000000E+00  0.00000000000E+00  0.92201106506E+03  0.92201106507E+03  0.50400001928E-02 0. -1.
        1   -1    0    0  501    0  0.00000000000E+00  0.00000000000E+00 -0.18954852094E+04  0.18954852094E+04  0.50400001928E-02 0.  1.
    10030    2    1    2    0    0  0.00000000000E+00  0.00000000000E+00 -0.97347414431E+03  0.28174962744E+04  0.26439805875E+04 0.  0.
        2    1    3    3  502    0 -0.31358027935E+03  0.28640001190E+03 -0.18208151967E+04  0.18696859466E+04  0.25500000920E-02 0.  1.
       -2    1    3    3    0  502  0.31358027935E+03 -0.28640001190E+03  0.84734105241E+03  0.94781032782E+03  0.25500000920E-02 0. -1.
</event>
<event>
 5   0  0.9971923E-06  0.2754512E+04  0.7818609E-02  0.8317531E-01
       -1   -1    0    0    0  501  0.00000000000E+00  0.00000000000E+00  0.14235833536E+04  0.14235833536E+04  0.50400001928E-02 0.  1.
        1   -1    0    0  501    0  0.00000000000E+00  0.00000000000E+00 -0.13324362834E+04  0.13324362835E+04  0.50400001928E-02 0. -1.
    10030    2    1    2    0    0  0.00000000000E+00  0.00000000000E+00  0.91147070170E+02  0.27560196371E+04  0.27545120170E+04 0.  0.
        2    1    3    3  502    0  0.12458830547E+04  0.44239574157E+03 -0.34050750364E+03  0.13652413480E+04  0.25500000920E-02 0. -1.
       -2    1    3    3    0  502 -0.12458830547E+04 -0.44239574157E+03  0.43165457381E+03  0.13907782891E+04  0.25500000920E-02 0.  1.
</event>
<event>
 5   0  0.2641216E-05  0.2780655E+04  0.7818609E-02  0.8309299E-01
        2   -1    0    0  501    0  0.00000000000E+00  0.00000000000E+00  0.10359678587E+04  0.10359678587E+04  0.25500000920E-02 0. -1.
       -2   -1    0    0    0  501  0.00000000000E+00  0.00000000000E+00 -0.18658980944E+04  0.18658980944E+04  0.25500000920E-02 0.  1.
    10030    2    1    2    0    0  0.00000000000E+00  0.00000000000E+00 -0.82993023566E+03  0.29018659531E+04  0.27806549253E+04 0.  0.
        5    1    3    3  502    0  0.85028695585E+02 -0.67025689766E+03 -0.16830521475E+04  0.18136043695E+04  0.46999998093E+01 0.  1.
       -5    1    3    3    0  502 -0.85028695585E+02  0.67025689766E+03  0.85312191179E+03  0.10882615836E+04  0.46999998093E+01 0. -1.
</event>
<event>
 5   0  0.2516518E-05  0.2698234E+04  0.7818609E-02  0.8335578E-01
        2   -1    0    0  501    0  0.00000000000E+00  0.00000000000E+00  0.13275632203E+04  0.13275632203E+04  0.25500000920E-02 0. -1.
       -2   -1    0    0    0  501  0.00000000000E+00  0.00000000000E+00 -0.13710206397E+04  0.13710206397E+04  0.25500000920E-02 0.  1.
    10030    2    1    2    0    0  0.00000000000E+00  0.00000000000E+00 -0.43457419349E+02  0.26985838600E+04  0.26982339228E+04 0.  0.
        4    1    3    3  502    0  0.44112081829E+03  0.16339180951E+03 -0.12863413928E+04  0.13696569831E+04  0.12699999809E+01 0.  1.
       -4    1    3    3    0  502 -0.44112081829E+03 -0.16339180951E+03  0.12428839734E+04  0.13289268769E+04  0.12699999809E+01 0. -1.
</event>
<event>
 5   0  0.9971923E-06  0.2659527E+04  0.7818609E-02  0.8348258E-01
       -1   -1    0    0    0  501  0.00000000000E+00  0.00000000000E+00  0.11728890391E+04  0.11728890391E+04  0.50400001928E-02 0. -1.
        1   -1    0    0  501    0  0.00000000000E+00  0.00000000000E+00 -0.15076195376E+04  0.15076195376E+04  0.50400001928E-02 0.  1.
    10030    2    1    2    0    0  0.00000000000E+00  0.00000000000E+00 -0.33473049854E+03  0.26805085767E+04  0.26595265975E+04 0.  0.
        2    1    3    3  502    0 -0.54355845528E+03  0.16242615971E+03  0.10448002829E+04  0.11888842176E+04  0.25500000920E-02 0. -1.
       -2    1    3    3    0  502  0.54355845528E+03 -0.16242615971E+03 -0.13795307815E+04  0.14916243591E+04  0.25500000920E-02 0.  1.
</event>
<event>
 5   0  0.1005265E-05  0.2443966E+04  0.7818609E-02  0.8423224E-01
       -1   -1    0    0    0  501  0.00000000000E+00  0.00000000000E+00  0.10714961955E+04  0.10714961955E+04  0.50400001928E-02 0.  1.
        1   -1    0    0  501    0  0.00000000000E+00  0.00000000000E+00 -0.13936048653E+04  0.13936048653E+04  0.50400001928E-02 0. -1.
    10030    2    1    2    0    0  0.00000000000E+00  0.00000000000E+00 -0.32210866981E+03  0.24651010609E+04  0.24439658846E+04 0.  0.
        3    1    3    3  502    0 -0.72021002887E+03  0.84655292402E+03 -0.67327267517E+03  0.12994808364E+04  0.10100000352E+00 0. -1.
       -3    1    3    3    0  502  0.72021002887E+03 -0.84655292402E+03  0.35116400536E+03  0.11656202245E+04  0.10100000352E+00 0.  1.
</event>
<event>
 5   0  0.1005265E-05  0.2729562E+04  0.7818609E-02  0.8325476E-01
        1   -1    0    0  501    0  0.00000000000E+00  0.00000000000E+00  0.20011150291E+04  0.20011150291E+04  0.50400001928E-02 0. -1.
       -1   -1    0    0    0  501  0.00000000000E+00  0.00000000000E+00 -0.93079480342E+03  0.93079480344E+03  0.50400001928E-02 0.  1.
    10030    2    1    2    0    0  0.00000000000E+00  0.00000000000E+00  0.10703202256E+04  0.29319098325E+04  0.27295622141E+04 0.  0.
        3    1    3    3  502    0  0.88237424839E+03 -0.56428210133E+03  0.14750278873E+04  0.18090621555E+04  0.10100000352E+00 0. -1.
       -3    1    3    3    0  502 -0.88237424839E+03  0.56428210133E+03 -0.40470766164E+03  0.11228476770E+04  0.10100000352E+00 0.  1.
</event>
<event>
 5   0  0.2540684E-05  0.2701363E+04  0.7818609E-02  0.8334563E-01
        2   -1    0    0  501    0  0.00000000000E+00  0.00000000000E+00  0.17458412971E+04  0.17458412971E+04  0.25500000920E-02 0. -1.
       -2   -1    0    0    0  501  0.00000000000E+00  0.00000000000E+00 -0.10449632602E+04  0.10449632602E+04  0.25500000920E-02 0.  1.
    10030    2    1    2    0    0  0.00000000000E+00  0.00000000000E+00  0.70087803690E+03  0.27908045574E+04  0.27013626293E+04 0.  0.
        2    1    3    3  502    0 -0.25090303083E+03 -0.59201360454E+03  0.15775838386E+04  0.17035853975E+04  0.25500000920E-02 0. -1.
       -2    1    3    3    0  502  0.25090303083E+03  0.59201360454E+03 -0.87670580168E+03  0.10872191599E+04  0.25500000920E-02 0.  1.
</event>
<event>
 5   0  0.1096672E-05  0.2623201E+04  0.7818609E-02  0.8360363E-01
        1   -1    0    0  501    0  0.00000000000E+00  0.00000000000E+00  0.16057290986E+04  0.16057290986E+04  0.50400001928E-02 0. -1.
       -1   -1    0    0    0  501  0.00000000000E+00  0.00000000000E+00 -0.10713489030E+04  0.10713489030E+04  0.50400001928E-02 0.  1.
    10030    2    1    2    0    0  0.00000000000E+00  0.00000000000E+00  0.53438019559E+03  0.26770780016E+04  0.26232011805E+04 0.  0.
        1    1    3    3  502    0 -0.27085609965E+03 -0.10238073337E+04 -0.52249288411E+03  0.11809078275E+04  0.50400001928E-02 0.  1.
       -1    1    3    3    0  502  0.27085609965E+03  0.10238073337E+04  0.10568730797E+04  0.14961701741E+04  0.50400001928E-02 0. -1.
</event>
<event>
 5   0  0.2641216E-05  0.2071628E+04  0.7818609E-02  0.8573846E-01
        2   -1    0    0  501    0  0.00000000000E+00  0.00000000000E+00  0.18425069665E+04  0.18425069665E+04  0.25500000920E-02 0. -1.
       -2   -1    0    0    0  501  0.00000000000E+00  0.00000000000E+00 -0.58231018274E+03  0.58231018275E+03  0.25500000920E-02 0.  1.
    10030    2    1    2    0    0  0.00000000000E+00  0.00000000000E+00  0.12601967838E+04  0.24248171492E+04  0.20716279283E+04 0.  0.
        5    1    3    3  502    0 -0.96759117466E+03 -0.16485115968E+03  0.24281005519E+03  0.10111317417E+04  0.46999998093E+01 0. -1.
       -5    1    3    3    0  502  0.96759117466E+03  0.16485115968E+03  0.10173867286E+04  0.14136854076E+04  0.46999998093E+01 0.  1.
</event>
<event>
 5   0  0.1005265E-05  0.2712213E+04  0.7818609E-02  0.8331053E-01
        1   -1    0    0  501    0  0.00000000000E+00  0.00000000000E+00  0.15126138690E+04  0.15126138690E+04  0.50400001928E-02 0.  1.
       -1   -1    0    0    0  501  0.00000000000E+00  0.00000000000E+00 -0.12157922928E+04  0.12157922928E+04  0.50400001928E-02 0. -1.
    10030    2    1    2    0    0  0.00000000000E+00  0.00000000000E+00  0.29682157616E+03  0.27284061618E+04  0.27122125904E+04 0.  0.
        3    1    3    3  502    0 -0.48094477930E+03 -0.85422427727E+03  0.10910311673E+04  0.14667501542E+04  0.10100000352E+00 0.  1.
       -3    1    3    3    0  502  0.48094477930E+03  0.85422427727E+03 -0.79420959114E+03  0.12616560076E+04  0.10100000352E+00 0. -1.
</event>
<event>
 5   0  0.2540684E-05  0.2702679E+04  0.7818609E-02  0.8334136E-01
        2   -1    0    0  501    0  0.00000000000E+00  0.00000000000E+00  0.20948443996E+04  0.20948443996E+04  0.25500000920E-02 0. -1.
       -2   -1    0    0    0  501  0.00000000000E+00  0.00000000000E+00 -0.87172057615E+03  0.87172057616E+03  0.25500000920E-02 0.  1.
    10030    2    1    2    0    0  0.00000000000E+00  0.00000000000E+00  0.12231238234E+04  0.29665649757E+04  0.27026793868E+04 0.  0.
        2    1    3    3  502    0 -0.10185471675E+04  0.50561863075E+03  0.14129360800E+04  0.18136915113E+04  0.25500000920E-02 0. -1.
       -2    1    3    3    0  502  0.10185471675E+04 -0.50561863075E+03 -0.18981225655E+03  0.11528734644E+04  0.25500000920E-02 0.  1.
</event>
<event>
 5   0  0.8740500E-06  0.2691178E+04  0.7818609E-02  0.8337873E-01
        3   -1    0    0  501    0  0.00000000000E+00  0.00000000000E+00  0.21513323779E+04  0.21513323803E+04  0.10100000352E+00 0.  1.
       -3   -1    0    0    0  501  0.00000000000E+00  0.00000000000E+00 -0.84162275350E+03  0.84162275956E+03  0.10100000352E+00 0. -1.
    10030    2    1    2    0    0  0.00000000000E+00  0.00000000000E+00  0.13097096244E+04  0.29929551398E+04  0.26911783978E+04 0.  0.
        3    1    3    3  502    0  0.48310049857E+03  0.11303115987E+04  0.46099123965E+02  0.12300876153E+04  0.10100000352E+00 0. -1.
       -3    1    3    3    0  502 -0.48310049857E+03 -0.11303115987E+04  0.12636105004E+04  0.17628675245E+04  0.10100000352E+00 0.  1.
</event>
<event>
 5   0  0.2641216E-05  0.2619329E+04  0.7818609E-02  0.8361665E-01
       -2   -1    0    0    0  501  0.00000000000E+00  0.00000000000E+00  0.10522088416E+04  0.10522088416E+04  0.25500000920E-02 0.  1.
        2   -1    0    0  501    0  0.00000000000E+00  0.00000000000E+00 -0.16301144534E+04  0.16301144534E+04  0.25500000920E-02 0. -1.
    10030    2    1    2    0    0  0.00000000000E+00  0.00000000000E+00 -0.57790561180E+03  0.26823232949E+04  0.26193288000E+04 0.  0.
        5    1    3    3  502    0  0.11420179248E+04  0.21334742121E+03  0.33013313761E+03  0.12077797984E+04  0.46999998093E+01 0.  1.
       -5    1    3    3    0  502 -0.11420179248E+04 -0.21334742121E+03 -0.90803874941E+03  0.14745434965E+04  0.46999998093E+01 0. -1.
</event>
<event>
 5   0  0.1096672E-05  0.2537009E+04  0.7818609E-02  0.8389918E-01
        1   -1    0    0  501    0  0.00000000000E+00  0.00000000000E+00  0.16192807797E+04  0.16192807797E+04  0.50400001928E-02 0.  1.
       -1   -1    0    0    0  501  0.00000000000E+00  0.00000000000E+00 -0.99371538417E+03  0.99371538418E+03  0.50400001928E-02 0. -1.
    10030    2    1    2    0    0  0.00000000000E+00  0.00000000000E+00  0.62556539553E+03  0.26129961639E+04  0.25370094380E+04 0.  0.
        1    1    3    3  502    0 -0.57253453183E+02 -0.84040897127E+02  0.16150759400E+04  0.16182741184E+04  0.50400001928E-02 0.  1.
       -1    1    3    3    0  502  0.57253453183E+02  0.84040897127E+02 -0.98951054443E+03  0.99472204553E+03  0.50400001928E-02 0. -1.
</event>
<event>
 5   0  0.1036691E-05  0.2700651E+04  0.7818609E-02  0.8334794E-01
        1   -1    0    0  501    0  0.00000000000E+00  0.00000000000E+00  0.11392711671E+04  0.11392711671E+04  0.50400001928E-02 0. -1.
       -1   -1    0    0    0  501  0.00000000000E+00  0.00000000000E+00 -0.16004782595E+04  0.16004782595E+04  0.50400001928E-02 0.  1.
    10030    2    1    2    0    0  0.00000000000E+00  0.00000000000E+00 -0.46120709238E+03  0.27397494266E+04  0.27006508361E+04 0.  0.
        4    1    3    3  502    0 -0.55905773636E+03  0.11272422019E+04  0.26654898872E+03  0.12861844777E+04  0.12699999809E+01 0. -1.
       -4    1    3    3    0  502  0.55905773636E+03 -0.11272422019E+04 -0.72775608110E+03  0.14535649490E+04  0.12699999809E+01 0.  1.
</event>
<event>
 5   0  0.2615843E-05  0.2750605E+04  0.7818609E-02  0.8318770E-01
        2   -1    0    0  501    0  0.00000000000E+00  0.00000000000E+00  0.19967405619E+04  0.19967405619E+04  0.25500000920E-02 0.  1.
       -2   -1    0    0    0  501  0.00000000000E+00  0.00000000000E+00 -0.94727225115E+03  0.94727225115E+03  0.25500000920E-02 0. -1.
    10030    2    1    2    0    0  0.00000000000E+00  0.00000000000E+00  0.10494683107E+04  0.29440128130E+04  0.27506049713E+04 0.  0.
        3    1    3    3  502    0  0.14459928918E+03  0.14478550323E+03 -0.93088792140E+03  0.95311286257E+03  0.10100000352E+00 0. -1.
       -3    1    3    3    0  502 -0.14459928918E+03 -0.14478550323E+03  0.19803562321E+04  0.19908999504E+04  0.10100000352E+00 0.  1.
</event>
<event>
 5   0  0.1041909E-05  0.2737358E+04  0.7818609E-02  0.8322985E-01
       -1   -1    0    0    0  501  0.00000000000E+00  0.00000000000E+00  0.10418609211E+04  0.10418609211E+04  0.50400001928E-02 0. -1.
        1   -1    0    0  501    0  0.00000000000E+00  0.00000000000E+00 -0.17980149972E+04  0.17980149972E+04  0.50400001928E-02 0.  1.
    10030    2    1    2    0    0  0.00000000000E+00  0.00000000000E+00 -0.75615407613E+03  0.28398759183E+04  0.27373575295E+04 0.  0.
        5    1    3    3  502    0 -0.13554430039E+04  0.13296411944E+03 -0.51862886166E+03  0.14573617190E+04  0.46999998093E+01 0. -1.
       -5    1    3    3    0  502  0.13554430039E+04 -0.13296411944E+03 -0.23752521447E+03  0.13825141993E+04  0.46999998093E+01 0.  1.
</event>
<event>
 5   0  0.2540232E-05  0.2723815E+04  0.7818609E-02  0.8327319E-01
       -2   -1    0    0    0  501  0.00000000000E+00  0.00000000000E+00  0.12238115272E+04  0.12238115272E+04  0.25500000920E-02 0.  1.
        2   -1    0    0  501    0  0.00000000000E+00  0.00000000000E+00 -0.15155865044E+04  0.15155865044E+04  0.25500000920E-02 0. -1.
    10030    2    1    2    0    0  0.00000000000E+00  0.00000000000E+00 -0.29177497725E+03  0.27393980316E+04  0.27238151440E+04 0.  0.
        1    1    3    3  502    0  0.30192894763E+03 -0.14879913144E+03  0.11813174748E+04  0.12283375950E+04  0.50400001928E-02 0.  1.
       -1    1    3    3    0  502 -0.30192894763E+03  0.14879913144E+03 -0.14730924521E+04  0.15110604367E+04  0.50400001928E-02 0. -1.
</event>
<event>
 5   0  0.1096672E-05  0.2664001E+04  0.7818609E-02  0.8346781E-01
        1   -1    0    0  501    0  0.00000000000E+00  0.00000000000E+00  0.12964418557E+04  0.12964418557E+04  0.50400001928E-02 0. -1.
       -1   -1    0    0    0  501  0.00000000000E+00  0.00000000000E+00 -0.13685342103E+04  0.13685342103E+04  0.50400001928E-02 0.  1.
    10030    2    1    2    0    0  0.00000000000E+00  0.00000000000E+00 -0.72092354656E+02  0.26649760660E+04  0.26640007742E+04 0.  0.
        1    1    3    3  502    0  0.84103011706E+03 -0.43896808296E+03  0.89928296418E+03  0.13071857119E+04  0.50400001928E-02 0. -1.
       -1    1    3    3    0  502 -0.84103011706E+03  0.43896808296E+03 -0.97137531884E+03  0.13577903541E+04  0.50400001928E-02 0.  1.
</event>
<event>
 5   0  0.2540684E-05  0.2707793E+04  0.7818609E-02  0.8332481E-01
        2   -1    0    0  501    0  0.00000000000E+00  0.00000000000E+00  0.15093725609E+04  0.15093725609E+04  0.25500000920E-02 0.  1.
       -2   -1    0    0    0  501  0.00000000000E+00  0.00000000000E+00 -0.12144355532E+04  0.12144355533E+04  0.25500000920E-02 0. -1.
    10030    2    1    2    0    0  0.00000000000E+00  0.00000000000E+00  0.29493700763E+03  0.27238081141E+04  0.27077929766E+04 0.  0.
        2    1    3    3  502    0 -0.31812069017E+03 -0.13060569655E+04 -0.14886621435E+02  0.13443240614E+04  0.25500000920E-02 0. -1.
       -2    1    3    3    0  502  0.31812069017E+03  0.13060569655E+04  0.30982362906E+03  0.13794840527E+04  0.25500000920E-02 0.  1.
</event>
<event>
 5   0  0.1005265E-05  0.2718162E+04  0.7818609E-02  0.8329136E-01
       -1   -1    0    0    0  501  0.00000000000E+00  0.00000000000E+00  0.12482456810E+04  0.12482456811E+04  0.50400001928E-02 0.  1.
        1   -1    0    0  501    0  0.00000000000E+00  0.00000000000E+00 -0.14797581101E+04  0.14797581101E+04  0.50400001928E-02 0. -1.
    10030    2    1    2    0    0  0.00000000000E+00  0.00000000000E+00 -0.23151242901E+03  0.27280037911E+04  0.27181623718E+04 0.  0.
        3    1    3    3  502    0 -0.93699150922E+03  0.63429637244E+03  0.63984193498E+03  0.12998779513E+04  0.10100000352E+00 0.  1.
       -3    1    3    3    0  502  0.93699150922E+03 -0.63429637244E+03 -0.87135436399E+03  0.14281258398E+04  0.10100000352E+00 0. -1.
</event>
<event>
 5   0  0.2516518E-05  0.2751473E+04  0.7818609E-02  0.8318494E-01
        2   -1    0    0  501    0  0.00000000000E+00  0.00000000000E+00  0.24462167717E+04  0.24462167717E+04  0.25500000920E-02 0. -1.
       -2   -1    0    0    0  501  0.00000000000E+00  0.00000000000E+00 -0.77370557661E+03  0.77370557661E+03  0.25500000920E-02 0.  1.
    10030    2    1    2    0    0  0.00000000000E+00  0.00000000000E+00  0.16725111951E+04  0.32199223483E+04  0.27514734655E+04 0.  0.
        4    1    3    3  502    0  0.12958181973E+04  0.30097177556E+03  0.42596331322E+03  0.13968447184E+04  0.12699999809E+01 0.  1.
       -4    1    3    3    0  502 -0.12958181973E+04 -0.30097177556E+03  0.12465478818E+04  0.18230776299E+04  0.12699999809E+01 0. -1.
</event>
<event>
 5   0  0.2540232E-05  0.2671322E+04  0.7818609E-02  0.8344370E-01
        2   -1    0    0  501    0  0.00000000000E+00  0.00000000000E+00  0.15544947777E+04  0.15544947777E+04  0.25500000920E-02 0. -1.
       -2   -1    0    0    0  501  0.00000000000E+00  0.00000000000E+00 -0.11476331960E+04  0.11476331960E+04  0.25500000920E-02 0.  1.
    10030    2    1    2    0    0  0.00000000000E+00  0.00000000000E+00  0.40686158177E+03  0.27021279737E+04  0.26713216279E+04 0.  0.
        1    1    3    3  502    0  0.24460969415E+03  0.24395047222E+02 -0.11245538002E+04  0.11511082792E+04  0.50400001928E-02 0.  1.
       -1    1    3    3    0  502 -0.24460969415E+03 -0.24395047222E+02  0.15314153820E+04  0.15510196946E+04  0.50400001928E-02 0. -1.
</event>
<event>
 5   0  0.1005265E-05  0.2716915E+04  0.7818609E-02  0.8329537E-01
       -1   -1    0    0    0  501  0.00000000000E+00  0.00000000000E+00  0.11672514917E+04  0.11672514917E+04  0.50400001928E-02 0. -1.
        1   -1    0    0  501    0  0.00000000000E+00  0.00000000000E+00 -0.15809849654E+04  0.15809849654E+04  0.50400001928E-02 0.  1.
    10030    2    1    2    0    0  0.00000000000E+00  0.00000000000E+00 -0.41373347369E+03  0.27482364571E+04  0.27169152061E+04 0.  0.
        3    1    3    3  502    0 -0.17186591108E+03  0.62089222480E+03 -0.14166316776E+04  0.15562423868E+04  0.10100000352E+00 0.  1.
       -3    1    3    3    0  502  0.17186591108E+03 -0.62089222480E+03  0.10028982039E+04  0.11919940704E+04  0.10100000352E+00 0. -1.
</event>
<event>
 5   0  0.1041909E-05  0.2711299E+04  0.7818609E-02  0.8331348E-01
       -1   -1    0    0    0  501  0.00000000000E+00  0.00000000000E+00  0.82377745829E+03  0.82377745830E+03  0.50400001928E-02 0. -1.
        1   -1    0    0  501    0  0.00000000000E+00  0.00000000000E+00 -0.22309253937E+04  0.22309253937E+04  0.50400001928E-02 0.  1.
    10030    2    1    2    0    0  0.00000000000E+00  0.00000000000E+00 -0.14071479354E+04  0.30547028520E+04  0.27112993567E+04 0.  0.
        5    1    3    3  502    0  0.56789867392E+03 -0.94062610474E+03  0.19102074237E+03  0.11152566461E+04  0.46999998093E+01 0. -1.
       -5    1    3    3    0  502 -0.56789867392E+03  0.94062610474E+03 -0.15981686778E+04  0.19394462058E+04  0.46999998093E+01 0.  1.
</event>
<event>
 5   0  0.1005265E-05  0.2650955E+04  0.7818609E-02  0.8351096E-01
       -1   -1    0    0    0  501  0.00000000000E+00  0.00000000000E+00  0.15058024595E+04  0.15058024595E+04  0.50400001928E-02 0.  1.
        1   -1    0    0  501    0  0.00000000000E+00  0.00000000000E+00 -0.11667472064E+04  0.11667472064E+04  0.50400001928E-02 0. -1.
    10030    2    1    2    0    0  0.00000000000E+00  0.00000000000E+00  0.33905525315E+03  0.26725496659E+04  0.26509551585E+04 0.  0.
        3    1    3    3  502    0  0.76362912242E+03  0.42626296453E+03  0.11736638788E+04  0.14636654201E+04  0.10100000352E+00 0.  1.
       -3    1    3    3    0  502 -0.76362912242E+03 -0.42626296453E+03 -0.83460862563E+03  0.12088842458E+04  0.10100000352E+00 0. -1.
</event>
<event>
 5   0  0.1041909E-05  0.2662970E+04  0.7818609E-02  0.8347121E-01
       -1   -1    0    0    0  501  0.00000000000E+00  0.00000000000E+00  0.90482497665E+03  0.90482497666E+03  0.50400001928E-02 0. -1.
        1   -1    0    0  501    0  0.00000000000E+00  0.00000000000E+00 -0.19593322422E+04  0.19593322423E+04  0.50400001928E-02 0.  1.
    10030    2    1    2    0    0  0.00000000000E+00  0.00000000000E+00 -0.10545072656E+04  0.28641572189E+04  0.26629703343E+04 0.  0.
        5    1    3    3  502    0 -0.96908012012E+03 -0.46737156957E+03 -0.13709113588E+04  0.17426911680E+04  0.46999998093E+01 0.  1.
       -5    1    3    3    0  502  0.96908012012E+03  0.46737156957E+03  0.31640409319E+03  0.11214660510E+04  0.46999998093E+01 0. -1.
</event>
<event>
 5   0  0.2540684E-05  0.2719047E+04  0.7818609E-02  0.8328851E-01
        2   -1    0    0  501    0  0.00000000000E+00  0.00000000000E+00  0.99947606496E+03  0.99947606496E+03  0.25500000920E-02 0. -1.
       -2   -1    0    0    0  501  0.00000000000E+00  0.00000000000E+00 -0.18492724996E+04  0.18492724996E+04  0.25500000920E-02 0.  1.
    10030    2    1    2    0    0  0.00000000000E+00  0.00000000000E+00 -0.84979643464E+03  0.28487485646E+04  0.27190465983E+04 0.  0.
        2    1    3    3  502    0 -0.43781130882E+02 -0.80298458295E+03  0.72356712458E+03  0.10817811293E+04  0.25500000920E-02 0. -1.
       -2    1    3    3    0  502  0.43781130882E+02  0.80298458295E+03 -0.15733635592E+04  0.17669674353E+04  0.25500000920E-02 0.  1.
</event>
<event>
 5   0  0.1005265E-05  0.2379316E+04  0.7818609E-02  0.8447288E-01
        1   -1    0    0  501    0  0.00000000000E+00  0.00000000000E+00  0.13063585014E+04  0.13063585014E+04  0.50400001928E-02 0.  1.
       -1   -1    0    0    0  501  0.00000000000E+00  0.00000000000E+00 -0.10833822319E+04  0.10833822319E+04  0.50400001928E-02 0. -1.
    10030    2    1    2    0    0  0.00000000000E+00  0.00000000000E+00  0.22297626955E+03  0.23897407333E+04  0.23793155225E+04 0.  0.
        3    1    3    3  502    0  0.11492656908E+04 -0.26437624044E+03  0.26895247371E+03  0.12095626763E+04  0.10100000352E+00 0.  1.
       -3    1    3    3    0  502 -0.11492656908E+04  0.26437624044E+03 -0.45976204162E+02  0.11801780570E+04  0.10100000352E+00 0. -1.
</event>
<event>
 5   0  0.2540232E-05  0.2687951E+04  0.7818609E-02  0.8338925E-01
       -2   -1    0    0    0  501  0.00000000000E+00  0.00000000000E+00  0.70870017838E+03  0.70870017838E+03  0.25500000920E-02 0.  1.
        2   -1    0    0  501    0  0.00000000000E+00  0.00000000000E+00 -0.25487078418E+04  0.25487078418E+04  0.25500000920E-02 0. -1.
    10030    2    1    2    0    0  0.00000000000E+00  0.00000000000E+00 -0.18400076634E+04  0.32574080202E+04  0.26879506708E+04 0.  0.
        1    1    3    3  502    0 -0.12566722141E+04 -0.31001911142E+03 -0.48149828295E+03  0.13810059737E+04  0.50400001928E-02 0.  1.
       -1    1    3    3    0  502  0.12566722141E+04  0.31001911142E+03 -0.13585093805E+04  0.18764020464E+04  0.50400001928E-02 0. -1.
</event>
<event>
 5   0  0.2516518E-05  0.2733797E+04  0.7818609E-02  0.8324122E-01
        2   -1    0    0  501    0  0.00000000000E+00  0.00000000000E+00  0.17623842337E+04  0.17623842337E+04  0.25500000920E-02 0. -1.
       -2   -1    0    0    0  501  0.00000000000E+00  0.00000000000E+00 -0.10601612819E+04  0.10601612819E+04  0.25500000920E-02 0.  1.
    10030    2    1    2    0    0  0.00000000000E+00  0.00000000000E+00  0.70222295172E+03  0.28225455156E+04  0.27337970140E+04 0.  0.
        4    1    3    3  502    0  0.10492860347E+04  0.87467338148E+03  0.30100551591E+03  0.13988068631E+04  0.12699999809E+01 0.  1.
       -4    1    3    3    0  502 -0.10492860347E+04 -0.87467338148E+03  0.40121743581E+03  0.14237386525E+04  0.12699999809E+01 0. -1.
</event>
<event>
 5   0  0.1005265E-05  0.2733208E+04  0.7818609E-02  0.8324310E-01
        1   -1    0    0  501    0  0.00000000000E+00  0.00000000000E+00  0.17460741808E+04  0.17460741808E+04  0.50400001928E-02 0. -1.
       -1   -1    0    0    0  501  0.00000000000E+00  0.00000000000E+00 -0.10696028812E+04  0.10696028812E+04  0.50400001928E-02 0.  1.
    10030    2    1    2    0    0  0.00000000000E+00  0.00000000000E+00  0.67647129956E+03  0.28156770620E+04  0.27332076208E+04 0.  0.
        3    1    3    3  502    0  0.54652252815E+03 -0.11345371401E+04  0.88504759843E+03  0.15392110504E+04  0.10100000352E+00 0. -1.
       -3    1    3    3    0  502 -0.54652252815E+03  0.11345371401E+04 -0.20857629887E+03  0.12764660116E+04  0.10100000352E+00 0.  1.
</event>
<event>
 5   0  0.2615843E-05  0.2706329E+04  0.7818609E-02  0.8332954E-01
        2   -1    0    0  501    0  0.00000000000E+00  0.00000000000E+00  0.14489284316E+04  0.14489284316E+04  0.25500000920E-02 0.  1.
       -2   -1    0    0    0  501  0.00000000000E+00  0.00000000000E+00 -0.12637299760E+04  0.12637299760E+04  0.25500000920E-02 0. -1.
    10030    2    1    2    0    0  0.00000000000E+00  0.00000000000E+00  0.18519845558E+03  0.27126584076E+04  0.27063290946E+04 0.  0.
        3    1    3    3  502    0  0.53444942813E+03 -0.12179872324E+04  0.34202893907E+03  0.13733582544E+04  0.10100000352E+00 0. -1.
       -3    1    3    3    0  502 -0.53444942813E+03  0.12179872324E+04 -0.15683048348E+03  0.13393001532E+04  0.10100000352E+00 0.  1.
</event>
<event>
 5   0  0.2540232E-05  0.2659418E+04  0.7818609E-02  0.8348294E-01
        2   -1    0    0  501    0  0.00000000000E+00  0.00000000000E+00  0.16363430188E+04  0.16363430188E+04  0.25500000920E-02 0. -1.
       -2   -1    0    0    0  501  0.00000000000E+00  0.00000000000E+00 -0.10805348740E+04  0.10805348740E+04  0.25500000920E-02 0.  1.
    10030    2    1    2    0    0  0.00000000000E+00  0.00000000000E+00  0.55580814477E+03  0.27168778928E+04  0.26594177541E+04 0.  0.
        1    1    3    3  502    0 -0.31385266885E+03  0.11789495424E+04 -0.26238965598E+03  0.12479077902E+04  0.50400001928E-02 0.  1.
       -1    1    3    3    0  502  0.31385266885E+03 -0.11789495424E+04  0.81819780075E+03  0.14689701026E+04  0.50400001928E-02 0. -1.
</event>
<event>
 5   0  0.9971923E-06  0.2694445E+04  0.7818609E-02  0.8336810E-01
       -1   -1    0    0    0  501  0.00000000000E+00  0.00000000000E+00  0.89787264782E+03  0.89787264783E+03  0.50400001928E-02 0. -1.
        1   -1    0    0  501    0  0.00000000000E+00  0.00000000000E+00 -0.20214535157E+04  0.20214535157E+04  0.50400001928E-02 0.  1.
    10030    2    1    2    0    0  0.00000000000E+00  0.00000000000E+00 -0.11235808678E+04  0.29193261635E+04  0.26944445220E+04 0.  0.
        2    1    3    3  502    0  0.21892581773E+03  0.31675038844E+02  0.87806227478E+03  0.90549720052E+03  0.25500000920E-02 0. -1.
       -2    1    3    3    0  502 -0.21892581773E+03 -0.31675038844E+02 -0.20016431426E+04  0.20138289630E+04  0.25500000920E-02 0.  1.
</event>
<event>
 5   0  0.1041909E-05  0.2707497E+04  0.7818609E-02  0.8332576E-01
        1   -1    0    0  501    0  0.00000000000E+00  0.00000000000E+00  0.12985214336E+04  0.12985214336E+04  0.50400001928E-02 0.  1.
       -1   -1    0    0    0  501  0.00000000000E+00  0.00000000000E+00 -0.14113248524E+04  0.14113248524E+04  0.50400001928E-02 0. -1.
    10030    2    1    2    0    0  0.00000000000E+00  0.00000000000E+00 -0.11280341875E+03  0.27098462860E+04  0.27074974206E+04 0.  0.
        5    1    3    3  502    0 -0.43136581279E+03 -0.34471474633E+03 -0.12934791565E+04  0.14064192615E+04  0.46999998093E+01 0. -1.
       -5    1    3    3    0  502  0.43136581279E+03  0.34471474633E+03  0.11806757377E+04  0.13034270246E+04  0.46999998093E+01 0.  1.
</event>
<event>
 5   0  0.1096672E-05  0.2301906E+04  0.7818609E-02  0.8477170E-01
       -1   -1    0    0    0  501  0.00000000000E+00  0.00000000000E+00  0.22674493951E+04  0.22674493951E+04  0.50400001928E-02 0.  1.
        1   -1    0    0  501    0  0.00000000000E+00  0.00000000000E+00 -0.58422131809E+03  0.58422131811E+03  0.50400001928E-02 0. -1.
    10030    2    1    2    0    0  0.00000000000E+00  0.00000000000E+00  0.16832280770E+04  0.28516707132E+04  0.23019055361E+04 0.  0.
        1    1    3    3  502    0 -0.10023082527E+04  0.54666235433E+03  0.66110699665E+03  0.13192892117E+04  0.50400001928E-02 0. -1.
       -1    1    3    3    0  502  0.10023082527E+04 -0.54666235433E+03  0.10221210804E+04  0.15323815015E+04  0.50400001928E-02 0.  1.
</event>
<event>
 5   0  0.2641216E-05  0.2669269E+04  0.7818609E-02  0.8345046E-01
        2   -1    0    0  501    0  0.00000000000E+00  0.00000000000E+00  0.18483759524E+04  0.18483759524E+04  0.25500000920E-02 0. -1.
       -2   -1    0    0    0  501  0.00000000000E+00  0.00000000000E+00 -0.96368323389E+03  0.96368323389E+03  0.25500000920E-02 0.  1.
    10030    2    1    2    0    0  0.00000000000E+00  0.00000000000E+00  0.88469271855E+03  0.28120591863E+04  0.26692687503E+04 0.  0.
        5    1    3    3  502    0 -0.95555069498E+03  0.95066950304E+01 -0.53919105016E+03  0.10972313277E+04  0.46999998093E+01 0.  1.
       -5    1    3    3    0  502  0.95555069498E+03 -0.95066950304E+01  0.14238837687E+04  0.17148278586E+04  0.46999998093E+01 0. -1.
</event>
<event>
 5   0  0.2615843E-05  0.2698098E+04  0.7818609E-02  0.8335622E-01
       -2   -1    0    0    0  501  0.00000000000E+00  0.00000000000E+00  0.12164983871E+04  0.12164983871E+04  0.25500000920E-02 0. -1.
        2   -1    0    0  501    0  0.00000000000E+00  0.00000000000E+00 -0.14960420247E+04  0.14960420247E+04  0.25500000920E-02 0.  1.
    10030    2    1    2    0    0  0.00000000000E+00  0.00000000000E+00 -0.27954363763E+03  0.27125404118E+04  0.26980976336E+04 0.  0.
        3    1    3    3  502    0 -0.23373144244E+02 -0.10342357589E+04  0.73074006722E+03  0.12665587096E+04  0.10100000352E+00 0. -1.
       -3    1    3    3    0  502  0.23373144244E+02  0.10342357589E+04 -0.10102837048E+04  0.14459817023E+04  0.10100000352E+00 0.  1.
</event>
<event>
 5   0  0.2516518E-05  0.2643232E+04  0.7818609E-02  0.8353663E-01
        2   -1    0    0  501    0  0.00000000000E+00  0.00000000000E+00  0.25926886105E+04  0.25926886105E+04  0.25500000920E-02 0.  1.
       -2   -1    0    0    0  501  0.00000000000E+00  0.00000000000E+00 -0.67369021144E+03  0.67369021145E+03  0.25500000920E-02 0. -1.
    10030    2    1    2    0    0  0.00000000000E+00  0.00000000000E+00  0.19189983991E+04  0.32663788220E+04  0.26432320657E+04 0.  0.
        4    1    3    3  502    0  0.22855636483E+03  0.12995209981E+04  0.86641099881E+03  0.15785000691E+04  0.12699999809E+01 0. -1.
       -4    1    3    3    0  502 -0.22855636483E+03 -0.12995209981E+04  0.10525874003E+04  0.16878787529E+04  0.12699999809E+01 0.  1.
</event>
<event>
 5   0  0.2615843E-05  0.2569469E+04  0.7818609E-02  0.8378646E-01
        2   -1    0    0  501    0  0.00000000000E+00  0.00000000000E+00  0.72804244097E+03  0.72804244097E+03  0.25500000920E-02 0. -1.
       -2   -1    0    0    0  501  0.00000000000E+00  0.00000000000E+00 -0.22670965143E+04  0.22670965143E+04  0.25500000920E-02 0.  1.
    10030    2    1    2    0    0  0.00000000000E+00  0.00000000000E+00 -0.15390540733E+04  0.29951389553E+04  0.25694688013E+04 0.  0.
        3    1    3    3  502    0 -0.11461853534E+04  0.14309113238E+03 -0.11392327325E+03  0.11606870633E+04  0.10100000352E+00 0. -1.
       -3    1    3    3    0  502  0.11461853534E+04 -0.14309113238E+03 -0.14251308001E+04  0.18344518920E+04  0.10100000352E+00 0.  1.
</event>
<event>
 5   0  0.1041909E-05  0.2699427E+04  0.7818609E-02  0.8335191E-01
        1   -1    0    0  501    0  0.00000000000E+00  0.00000000000E+00  0.16379636464E+04  0.16379636464E+04  0.50400001928E-02 0.  1.
       -1   -1    0    0    0  501  0.00000000000E+00  0.00000000000E+00 -0.11121894688E+04  0.11121894688E+04  0.50400001928E-02 0. -1.
    10030    2    1    2    0    0  0.00000000000E+00  0.00000000000E+00  0.52577417766E+03  0.27501531152E+04  0.26994265449E+04 0.  0.
        5    1    3    3  502    0 -0.17874686930E+03  0.75497088476E+03  0.13880742072E+04  0.15901897921E+04  0.46999998093E+01 0.  1.
       -5    1    3    3    0  502  0.17874686930E+03 -0.75497088476E+03 -0.86230002953E+03  0.11599633231E+04  0.46999998093E+01 0. -1.
</event>
<event>
 5   0  0.1036691E-05  0.2655628E+04  0.7818609E-02  0.8349547E-01
        1   -1    0    0  501    0  0.00000000000E+00  0.00000000000E+00  0.16991149120E+04  0.16991149121E+04  0.50400001928E-02 0.  1.
       -1   -1    0    0    0  501  0.00000000000E+00  0.00000000000E+00 -0.10376523503E+04  0.10376523503E+04  0.50400001928E-02 0. -1.
    10030    2    1    2    0    0  0.00000000000E+00  0.00000000000E+00  0.66146256177E+03  0.27367672623E+04  0.26556284242E+04 0.  0.
        4    1    3    3  502    0 -0.25115007430E+03 -0.12919602165E+04  0.14971899439E+03  0.13246338932E+04  0.12699999809E+01 0. -1.
       -4    1    3    3    0  502  0.25115007430E+03  0.12919602165E+04  0.51174356737E+03  0.14121333692E+04  0.12699999809E+01 0.  1.
</event>
<event>
 5   0  0.1041909E-05  0.2691764E+04  0.7818609E-02  0.8337682E-01
        1   -1    0    0  501    0  0.00000000000E+00  0.00000000000E+00  0.24608373147E+04  0.24608373147E+04  0.50400001928E-02 0.  1.
       -1   -1    0    0    0  501  0.00000000000E+00  0.00000000000E+00 -0.73609047622E+03  0.73609047623E+03  0.50400001928E-02 0. -1.
    10030    2    1    2    0    0  0.00000000000E+00  0.00000000000E+00  0.17247468385E+04  0.31969277910E+04  0.26917644109E+04 0.  0.
        5    1    3    3  502    0 -0.11676494686E+04  0.65697873142E+03  0.10142396141E+04  0.16803959116E+04  0.46999998093E+01 0. -1.
       -5    1    3    3    0  502  0.11676494686E+04 -0.65697873142E+03  0.71050722446E+03  0.15165318794E+04  0.46999998093E+01 0.  1.
</event>
<event>
 5   0  0.1036691E-05  0.2017524E+04  0.7818609E-02  0.8598471E-01
       -1   -1    0    0    0  501  0.00000000000E+00  0.00000000000E+00  0.90880793506E+03  0.90880793507E+03  0.50400001928E-02 0. -1.
        1   -1    0    0  501    0  0.00000000000E+00  0.00000000000E+00 -0.11197089667E+04  0.11197089667E+04  0.50400001928E-02 0.  1.
    10030    2    1    2    0    0  0.00000000000E+00  0.00000000000E+00 -0.21090103161E+03  0.20285169018E+04  0.20175236245E+04 0.  0.
        4    1    3    3  502    0 -0.58732869303E+03 -0.30487385062E+03 -0.87097669946E+03  0.10938487475E+04  0.12699999809E+01 0.  1.
       -4    1    3    3    0  502  0.58732869303E+03  0.30487385062E+03  0.66007566785E+03  0.93466815428E+03  0.12699999809E+01 0. -1.
</event>
<event>
 5   0  0.2615843E-05  0.2511597E+04  0.7818609E-02  0.8398866E-01
       -2   -1    0    0    0  501  0.00000000000E+00  0.00000000000E+00  0.11787979427E+04  0.11787979427E+04  0.25500000920E-02 0. -1.
        2   -1    0    0  501    0  0.00000000000E+00  0.00000000000E+00 -0.13378284660E+04  0.13378284660E+04  0.25500000920E-02 0.  1.
    10030    2    1    2    0    0  0.00000000000E+00  0.00000000000E+00 -0.15903052330E+03  0.25166264086E+04  0.25115966582E+04 0.  0.
        3    1    3    3  502    0 -0.96835306334E+03  0.59726943628E+03 -0.61217272307E+03  0.12919728665E+04  0.10100000352E+00 0. -1.
       -3    1    3    3    0  502  0.96835306334E+03 -0.59726943628E+03  0.45314219977E+03  0.12246535421E+04  0.10100000352E+00 0.  1.
</event>
<event>
 5   0  0.1005265E-05  0.2672001E+04  0.7818609E-02  0.8344147E-01
       -1   -1    0    0    0  501  0.00000000000E+00  0.00000000000E+00  0.15936399862E+04  0.15936399862E+04  0.50400001928E-02 0.  1.
        1   -1    0    0  501    0  0.00000000000E+00  0.00000000000E+00 -0.11200129675E+04  0.11200129675E+04  0.50400001928E-02 0. -1.
    10030    2    1    2    0    0  0.00000000000E+00  0.00000000000E+00  0.47362701871E+03  0.27136529536E+04  0.26720010853E+04 0.  0.
        3    1    3    3  502    0  0.83550376714E+03 -0.10277216237E+04  0.59102512015E+02  0.13258097141E+04  0.10100000352E+00 0.  1.
       -3    1    3    3    0  502 -0.83550376714E+03  0.10277216237E+04  0.41452450669E+03  0.13878432396E+04  0.10100000352E+00 0. -1.
</event>
<event>
 5   0  0.2641216E-05  0.2784342E+04  0.7818609E-02  0.8308146E-01
        2   -1    0    0  501    0  0.00000000000E+00  0.00000000000E+00  0.16027830755E+04  0.16027830755E+04  0.25500000920E-02 0.  1.
       -2   -1    0    0    0  501  0.00000000000E+00  0.00000000000E+00 -0.12092338824E+04  0.12092338824E+04  0.25500000920E-02 0. -1.
    10030    2    1    2    0    0  0.00000000000E+00  0.00000000000E+00  0.39354919306E+03  0.28120169579E+04  0.27843416465E+04 0.  0.
        5    1    3    3  502    0 -0.94578759613E+03  0.97945596547E+03 -0.96402624039E+02  0.13649775534E+04  0.46999998093E+01 0. -1.
       -5    1    3    3    0  502  0.94578759613E+03 -0.97945596547E+03  0.48995181710E+03  0.14470394046E+04  0.46999998093E+01 0.  1.
</event>
<event>
 5   0  0.2615843E-05  0.2665171E+04  0.7818609E-02  0.8346395E-01
       -2   -1    0    0    0  501  0.00000000000E+00  0.00000000000E+00  0.77231128386E+03  0.77231128386E+03  0.25500000920E-02 0.  1.
        2   -1    0    0  501    0  0.00000000000E+00  0.00000000000E+00 -0.22993116691E+04  0.22993116691E+04  0.25500000920E-02 0. -1.
    10030    2    1    2    0    0  0.00000000000E+00  0.00000000000E+00 -0.15270003852E+04  0.30716229529E+04  0.26651711743E+04 0.  0.
        3    1    3    3  502    0  0.64651565882E+03 -0.16195969425E+03 -0.20934184377E+04  0.21969556676E+04  0.10100000352E+00 0. -1.
       -3    1    3    3    0  502 -0.64651565882E+03  0.16195969425E+03  0.56641805251E+03  0.87466728536E+03  0.10100000352E+00 0.  1.
</event>
<event>
 5   0  0.1005265E-05  0.2372388E+04  0.7818609E-02  0.8449914E-01
        1   -1    0    0  501    0  0.00000000000E+00  0.00000000000E+00  0.23464127016E+04  0.23464127016E+04  0.50400001928E-02 0. -1.
       -1   -1    0    0    0  501  0.00000000000E+00  0.00000000000E+00 -0.59966258661E+03  0.59966258663E+03  0.50400001928E-02 0.  1.
    10030    2    1    2    0    0  0.00000000000E+00  0.00000000000E+00  0.17467501150E+04  0.29460752882E+04  0.23723877507E+04 0.  0.
        3    1    3    3  502    0 -0.66863300728E+03  0.76258898927E+03  0.10943569926E+03  0.10200922740E+04  0.10100000352E+00 0.  1.
       -3    1    3    3    0  502  0.66863300728E+03 -0.76258898927E+03  0.16373144157E+04  0.19259830142E+04  0.10100000352E+00 0. -1.
</event>
<event>
 5   0  0.2516518E-05  0.2749203E+04  0.7818609E-02  0.8319214E-01
        2   -1    0    0  501    0  0.00000000000E+00  0.00000000000E+00  0.18913142723E+04  0.18913142723E+04  0.25500000920E-02 0. -1.
       -2   -1    0    0    0  501  0.00000000000E+00  0.00000000000E+00 -0.99905645444E+03  0.99905645444E+03  0.25500000920E-02 0.  1.
    10030    2    1    2    0    0  0.00000000000E+00  0.00000000000E+00  0.89225781788E+03  0.28903707268E+04  0.27492033254E+04 0.  0.
        4    1    3    3  502    0 -0.79839191753E+03 -0.76905422422E+03  0.13006715629E+04  0.17089827914E+04  0.12699999809E+01 0. -1.
       -4    1    3    3    0  502  0.79839191753E+03  0.76905422422E+03 -0.40841374505E+03  0.11813879354E+04  0.12699999809E+01 0.  1.
</event>
<event>
 5   0  0.2641216E-05  0.2686341E+04  0.7818609E-02  0.8339450E-01
        2   -1    0    0  501    0  0.00000000000E+00  0.00000000000E+00  0.16801093397E+04  0.16801093397E+04  0.25500000920E-02 0.  1.
       -2   -1    0    0    0  501  0.00000000000E+00  0.00000000000E+00 -0.10738032352E+04  0.10738032352E+04  0.25500000920E-02 0. -1.
    10030    2    1    2    0    0  0.00000000000E+00  0.00000000000E+00  0.60630610449E+03  0.27539125749E+04  0.26863408901E+04 0.  0.
        5    1    3    3  502    0  0.38163844708E+03  0.82708813382E+03 -0.70877401080E+03  0.11541686938E+04  0.46999998093E+01 0. -1.
       -5    1    3    3    0  502 -0.38163844708E+03 -0.82708813382E+03  0.13150801153E+04  0.15997438811E+04  0.46999998093E+01 0.  1.
</event>
<event>
 5   0  0.9971923E-06  0.2661431E+04  0.7818609E-02  0.8347629E-01
       -1   -1    0    0    0  501  0.00000000000E+00  0.00000000000E+00  0.12817389064E+04  0.12817389064E+04  0.50400001928E-02 0.  1.
        1   -1    0    0  501    0  0.00000000000E+00  0.00000000000E+00 -0.13815631244E+04  0.13815631244E+04  0.50400001928E-02 0. -1.
    10030    2    1    2    0    0  0.00000000000E+00  0.00000000000E+00 -0.99824218000E+02  0.26633020307E+04  0.26614305988E+04 0.  0.
        2    1    3    3  502    0  0.43235753674E+03  0.18946000112E+02  0.12093491619E+04  0.12844521734E+04  0.25500000920E-02 0.  1.
       -2    1    3    3    0  502 -0.43235753674E+03 -0.18946000112E+02 -0.13091733799E+04  0.13788498573E+04  0.25500000920E-02 0. -1.
</event>
<event>
 5   0  0.1036691E-05  0.2719591E+04  0.7818609E-02  0.8328676E-01
        1   -1    0    0  501    0  0.00000000000E+00  0.00000000000E+00  0.11469383864E+04  0.11469383864E+04  0.50400001928E-02 0.  1.
       -1   -1    0    0    0  501  0.00000000000E+00  0.00000000000E+00 -0.16121566601E+04  0.16121566601E+04  0.50400001928E-02 0. -1.
    10030    2    1    2    0    0  0.00000000000E+00  0.00000000000E+00 -0.46521827370E+03  0.27590950465E+04  0.27195914093E+04 0.  0.
        4    1    3    3  502    0  0.12877417207E+04 -0.37460372095E+03 -0.47672491862E+01  0.13411305032E+04  0.12699999809E+01 0.  1.
       -4    1    3    3    0  502 -0.12877417207E+04  0.37460372095E+03 -0.46045102451E+03  0.14179645433E+04  0.12699999809E+01 0. -1.
</event>
<event>
 5   0  0.1005265E-05  0.2698159E+04  0.7818609E-02  0.8335603E-01
       -1   -1    0    0    0  501  0.00000000000E+00  0.00000000000E+00  0.14154084053E+04  0.14154084053E+04  0.50400001928E-02 0. -1.
        1   -1    0    0  501    0  0.00000000000E+00  0.00000000000E+00 -0.12858587549E+04  0.12858587549E+04  0.50400001928E-02 0.  1.
    10030    2    1    2    0    0  0.00000000000E+00  0.00000000000E+00  0.12954965043E+03  0.27012671602E+04  0.26981588461E+04 0.  0.
        3    1    3    3  502    0  0.92246544294E+03  0.96879762780E+03  0.23962980739E+03  0.13590194229E+04  0.10100000352E+00 0. -1.
       -3    1    3    3    0  502 -0.92246544294E+03 -0.96879762780E+03 -0.11008015696E+03  0.13422477373E+04  0.10100000352E+00 0.  1.
</event>
<event>
 5   0  0.1041909E-05  0.2682352E+04  0.7818609E-02  0.8340754E-01
        1   -1    0    0  501    0  0.00000000000E+00  0.00000000000E+00  0.14879790477E+04  0.14879790477E+04  0.50400001928E-02 0. -1.
       -1   -1    0    0    0  501  0.00000000000E+00  0.00000000000E+00 -0.12088567939E+04  0.12088567939E+04  0.50400001928E-02 0.  1.
    10030    2    1    2    0    0  0.00000000000E+00  0.00000000000E+00  0.27912225378E+03  0.26968358416E+04  0.26823523862E+04 0.  0.
        5    1    3    3  502    0  0.37115032824E+03 -0.90414799299E+03  0.10629401870E+04  0.14439875659E+04  0.46999998093E+01 0. -1.
       -5    1    3    3    0  502 -0.37115032824E+03  0.90414799299E+03 -0.78381793323E+03  0.12528482757E+04  0.46999998093E+01 0.  1.
</event>
<event>
 5   0  0.2540232E-05  0.2676823E+04  0.7818609E-02  0.8342564E-01
       -2   -1    0    0    0  501  0.00000000000E+00  0.00000000000E+00  0.96887498264E+03  0.96887498264E+03  0.25500000920E-02 0. -1.
        2   -1    0    0  501    0  0.00000000000E+00  0.00000000000E+00 -0.18488922411E+04  0.18488922411E+04  0.25500000920E-02 0.  1.
    10030    2    1    2    0    0  0.00000000000E+00  0.00000000000E+00 -0.88001725851E+03  0.28177672238E+04  0.26768230708E+04 0.  0.
        1    1    3    3  502    0 -0.12817155102E+04 -0.31157286770E+03 -0.67883141764E+03  0.14834703889E+04  0.50400001928E-02 0.  1.
       -1    1    3    3    0  502  0.12817155102E+04  0.31157286770E+03 -0.20118584087E+03  0.13342968349E+04  0.50400001928E-02 0. -1.
</event>
<event>
 5   0  0.1096672E-05  0.2512035E+04  0.7818609E-02  0.8398710E-01
       -1   -1    0    0    0  501  0.00000000000E+00  0.00000000000E+00  0.96063576515E+03  0.96063576517E+03  0.50400001928E-02 0.  1.
        1   -1    0    0  501    0  0.00000000000E+00  0.00000000000E+00 -0.16422251784E+04  0.16422251784E+04  0.50400001928E-02 0. -1.
    10030    2    1    2    0    0  0.00000000000E+00  0.00000000000E+00 -0.68158941324E+03  0.26028609436E+04  0.25120352233E+04 0.  0.
        1    1    3    3  502    0 -0.10764816190E+04 -0.30071453583E+03 -0.93452066376E+03  0.14569045196E+04  0.50400001928E-02 0. -1.
       -1    1    3    3    0  502  0.10764816190E+04  0.30071453583E+03  0.25293125051E+03  0.11459564240E+04  0.50400001928E-02 0.  1.
</event>
<event>
 5   0  0.2540232E-05  0.2045766E+04  0.7818609E-02  0.8585518E-01
       -2   -1    0    0    0  501  0.00000000000E+00  0.00000000000E+00  0.65653027419E+03  0.65653027419E+03  0.25500000920E-02 0.  1.
        2   -1    0    0  501    0  0.00000000000E+00  0.00000000000E+00 -0.15936654769E+04  0.15936654769E+04  0.25500000920E-02 0. -1.
    10030    2    1    2    0    0  0.00000000000E+00  0.00000000000E+00 -0.93713520275E+03  0.22501957511E+04  0.20457660008E+04 0.  0.
        1    1    3    3  502    0  0.70398250930E+03 -0.71474820828E+03 -0.24904094757E+03  0.10336719829E+04  0.50400001928E-02 0.  1.
       -1    1    3    3    0  502 -0.70398250930E+03  0.71474820828E+03 -0.68809425518E+03  0.12165237682E+04  0.50400001928E-02 0. -1.
</event>
<event>
 5   0  0.1005265E-05  0.2576819E+04  0.7818609E-02  0.8376118E-01
        1   -1    0    0  501    0  0.00000000000E+00  0.00000000000E+00  0.17355366467E+04  0.17355366467E+04  0.50400001928E-02 0. -1.
       -1   -1    0    0    0  501  0.00000000000E+00  0.00000000000E+00 -0.95647578283E+03  0.95647578285E+03  0.50400001928E-02 0.  1.
    10030    2    1    2    0    0  0.00000000000E+00  0.00000000000E+00  0.77906086389E+03  0.26920124296E+04  0.25768187929E+04 0.  0.
        3    1    3    3  502    0  0.34278906614E+03  0.29942365336E+03  0.16487517286E+04  0.17104213343E+04  0.10100000352E+00 0. -1.
       -3    1    3    3    0  502 -0.34278906614E+03 -0.29942365336E+03 -0.86969086469E+03  0.98159109530E+03  0.10100000352E+00 0.  1.
</event>
<event>
 5   0  0.9971923E-06  0.2699994E+04  0.7818609E-02  0.8335007E-01
       -1   -1    0    0    0  501  0.00000000000E+00  0.00000000000E+00  0.93493362108E+03  0.93493362110E+03  0.50400001928E-02 0. -1.
        1   -1    0    0  501    0  0.00000000000E+00  0.00000000000E+00 -0.19493272478E+04  0.19493272478E+04  0.50400001928E-02 0.  1.
    10030    2    1    2    0    0  0.00000000000E+00  0.00000000000E+00 -0.10143936267E+04  0.28842608689E+04  0.26999937648E+04 0.  0.
        2    1    3    3  502    0  0.60501359920E+02  0.58296659376E+03 -0.18063282482E+04  0.18990345453E+04  0.25500000920E-02 0.  1.
       -2    1    3    3    0  502 -0.60501359920E+02 -0.58296659376E+03  0.79193462149E+03  0.98522632360E+03  0.25500000920E-02 0. -1.
</event>
<event>
 5   0  0.1041909E-05  0.2688104E+04  0.7818609E-02  0.8338875E-01
       -1   -1    0    0    0  501  0.00000000000E+00  0.00000000000E+00  0.11673125769E+04  0.11673125769E+04  0.50400001928E-02 0.  1.
        1   -1    0    0  501    0  0.00000000000E+00  0.00000000000E+00 -0.15475505092E+04  0.15475505092E+04  0.50400001928E-02 0. -1.
    10030    2    1    2    0    0  0.00000000000E+00  0.00000000000E+00 -0.38023793231E+03  0.27148630861E+04  0.26881035492E+04 0.  0.
        5    1    3    3  502    0 -0.23357306326E+03  0.81571296478E+03  0.86261495124E+03  0.12099878763E+04  0.46999998093E+01 0.  1.
       -5    1    3    3    0  502  0.23357306326E+03 -0.81571296478E+03 -0.12428528836E+04  0.15048752098E+04  0.46999998093E+01 0. -1.
</event>
<event>
 5   0  0.2641216E-05  0.2689418E+04  0.7818609E-02  0.8338447E-01
        2   -1    0    0  501    0  0.00000000000E+00  0.00000000000E+00  0.58015695176E+03  0.58015695176E+03  0.25500000920E-02 0. -1.
       -2   -1    0    0    0  501  0.00000000000E+00  0.00000000000E+00 -0.31168149163E+04  0.31168149163E+04  0.25500000920E-02 0.  1.
    10030    2    1    2    0    0  0.00000000000E+00  0.00000000000E+00 -0.25366579645E+04  0.36969718680E+04  0.26894176626E+04 0.  0.
        5    1    3    3  502    0  0.11039002376E+03 -0.22398206697E+03 -0.30846529979E+04  0.30947471838E+04  0.46999998093E+01 0.  1.
       -5    1    3    3    0  502 -0.11039002376E+03  0.22398206697E+03  0.54799503344E+03  0.60222468427E+03  0.46999998093E+01 0. -1.
</event>
<event>
 5   0  0.2641216E-05  0.2691744E+04  0.7818609E-02  0.8337689E-01
       -2   -1    0    0    0  501  0.00000000000E+00  0.00000000000E+00  0.59890392540E+03  0.59890392541E+03  0.25500000920E-02 0. -1.
        2   -1    0    0  501    0  0.00000000000E+00  0.00000000000E+00 -0.30244772422E+04  0.30244772422E+04  0.25500000920E-02 0.  1.
    10030    2    1    2    0    0  0.00000000000E+00  0.00000000000E+00 -0.24255733168E+04  0.36233811676E+04  0.26917438903E+04 0.  0.
        5    1    3    3  502    0  0.47343517213E+03  0.81536437021E+02  0.47954625463E+03  0.67880465017E+03  0.46999998093E+01 0. -1.
       -5    1    3    3    0  502 -0.47343517213E+03 -0.81536437021E+02 -0.29051195715E+04  0.29445765175E+04  0.46999998093E+01 0.  1.
</event>
<event>
 5   0  0.2641216E-05  0.2730224E+04  0.7818609E-02  0.8325264E-01
        2   -1    0    0  501    0  0.00000000000E+00  0.00000000000E+00  0.14114011982E+04  0.14114011983E+04  0.25500000920E-02 0. -1.
       -2   -1    0    0    0  501  0.00000000000E+00  0.00000000000E+00 -0.13203412778E+04  0.13203412778E+04  0.25500000920E-02 0.  1.
    10030    2    1    2    0    0  0.00000000000E+00  0.00000000000E+00  0.91059920421E+02  0.27317424761E+04  0.27302243583E+04 0.  0.
        5    1    3    3  502    0  0.56074642865E+02  0.10384092345E+04  0.93036951480E+03  0.13953664852E+04  0.46999998093E+01 0. -1.
       -5    1    3    3    0  502 -0.56074642865E+02 -0.10384092345E+04 -0.83930959438E+03  0.13363759909E+04  0.46999998093E+01 0.  1.
</event>
<event>
 5   0  0.1036691E-05  0.2702427E+04  0.7818609E-02  0.8334218E-01
        1   -1    0    0  501    0  0.00000000000E+00  0.00000000000E+00  0.11750877726E+04  0.11750877726E+04  0.50400001928E-02 0. -1.
       -1   -1    0    0    0  501  0.00000000000E+00  0.00000000000E+00 -0.15537379989E+04  0.15537379989E+04  0.50400001928E-02 0.  1.
    10030    2    1    2    0    0  0.00000000000E+00  0.00000000000E+00 -0.37865022629E+03  0.27288257714E+04  0.27024274453E+04 0.  0.
        4    1    3    3  502    0 -0.11119398529E+04  0.57909530469E+03  0.31959744985E+03  0.12937950963E+04  0.12699999809E+01 0. -1.
       -4    1    3    3    0  502  0.11119398529E+04 -0.57909530469E+03 -0.69824767614E+03  0.14350306751E+04  0.12699999809E+01 0.  1.
</event>
<event>
 5   0  0.2540684E-05  0.2714634E+04  0.7818609E-02  0.8330272E-01
       -2   -1    0    0    0  501  0.00000000000E+00  0.00000000000E+00  0.23129786221E+04  0.23129786221E+04  0.25500000920E-02 0. -1.
        2   -1    0    0  501    0  0.00000000000E+00  0.00000000000E+00 -0.79650942705E+03  0.79650942705E+03  0.25500000920E-02 0.  1.
    10030    2    1    2    0    0  0.00000000000E+00  0.00000000000E+00  0.15164691950E+04  0.31094880491E+04  0.27146338811E+04 0.  0.
        2    1    3    3  502    0  0.66468415051E+03 -0.11707623629E+04  0.56043308749E+03  0.14582780173E+04  0.25500000920E-02 0. -1.
       -2    1    3    3    0  502 -0.66468415051E+03  0.11707623629E+04  0.95603610754E+03  0.16512100318E+04  0.25500000920E-02 0.  1.
</event>
<event>
 5   0  0.2615843E-05  0.2629237E+04  0.7818609E-02  0.8358337E-01
       -2   -1    0    0    0  501  0.00000000000E+00  0.00000000000E+00  0.14845483412E+04  0.14845483412E+04  0.25500000920E-02 0.  1.
        2   -1    0    0  501    0  0.00000000000E+00  0.00000000000E+00 -0.11641399163E+04  0.11641399163E+04  0.25500000920E-02 0. -1.
    10030    2    1    2    0    0  0.00000000000E+00  0.00000000000E+00  0.32040842488E+03  0.26486882575E+04  0.26292371378E+04 0.  0.
        3    1    3    3  502    0  0.31922423976E+03  0.11897630498E+04 -0.30230201265E+03  0.12683953433E+04  0.10100000352E+00 0. -1.
       -3    1    3    3    0  502 -0.31922423976E+03 -0.11897630498E+04  0.62271043754E+03  0.13802929142E+04  0.10100000352E+00 0.  1.
</event>
<event>
 5   0  0.1096672E-05  0.1953074E+04  0.7818609E-02  0.8628880E-01
       -1   -1    0    0    0  501  0.00000000000E+00  0.00000000000E+00  0.57606165806E+03  0.57606165808E+03  0.50400001928E-02 0. -1.
        1   -1    0    0  501    0  0.00000000000E+00  0.00000000000E+00 -0.16554212034E+04  0.16554212034E+04  0.50400001928E-02 0.  1.
    10030    2    1    2    0    0  0.00000000000E+00  0.00000000000E+00 -0.10793595453E+04  0.22314828615E+04  0.19530741750E+04 0.  0.
        1    1    3    3  502    0  0.95352663825E+03 -0.62369173298E+02 -0.76967496168E+03  0.12269892055E+04  0.50400001928E-02 0.  1.
       -1    1    3    3    0  502 -0.95352663825E+03  0.62369173298E+02 -0.30968458366E+03  0.10044936560E+04  0.50400001928E-02 0. -1.
</event>
<event>
 5   0  0.2615843E-05  0.2712762E+04  0.7818609E-02  0.8330876E-01
        2   -1    0    0  501    0  0.00000000000E+00  0.00000000000E+00  0.22645690982E+04  0.22645690982E+04  0.25500000920E-02 0. -1.
       -2   -1    0    0    0  501  0.00000000000E+00  0.00000000000E+00 -0.81241505145E+03  0.81241505145E+03  0.25500000920E-02 0.  1.
    10030    2    1    2    0    0  0.00000000000E+00  0.00000000000E+00  0.14521540468E+04  0.30769841497E+04  0.27127624448E+04 0.  0.
        3    1    3    3  502    0  0.18947445205E+03  0.27563759447E+03  0.22170575193E+04  0.22421464505E+04  0.10100000352E+00 0. -1.
       -3    1    3    3    0  502 -0.18947445205E+03 -0.27563759447E+03 -0.76490347252E+03  0.83483769916E+03  0.10100000352E+00 0.  1.
</event>
<event>
 5   0  0.1036691E-05  0.2688502E+04  0.7818609E-02  0.8338745E-01
       -1   -1    0    0    0  501  0.00000000000E+00  0.00000000000E+00  0.11259796106E+04  0.11259796106E+04  0.50400001928E-02 0.  1.
        1   -1    0    0  501    0  0.00000000000E+00  0.00000000000E+00 -0.16048340505E+04  0.16048340505E+04  0.50400001928E-02 0. -1.
    10030    2    1    2    0    0  0.00000000000E+00  0.00000000000E+00 -0.47885443995E+03  0.27308136611E+04  0.26885017532E+04 0.  0.
        4    1    3    3  502    0 -0.93061023020E+03  0.96462455901E+02 -0.12198478150E+04  0.15373258310E+04  0.12699999809E+01 0. -1.
       -4    1    3    3    0  502  0.93061023020E+03 -0.96462455901E+02  0.74099337506E+03  0.11934878302E+04  0.12699999809E+01 0.  1.
</event>
<event>
 5   0  0.2641216E-05  0.2837558E+04  0.7818609E-02  0.8291702E-01
        2   -1    0    0  501    0  0.00000000000E+00  0.00000000000E+00  0.20638279518E+04  0.20638279518E+04  0.25500000920E-02 0. -1.
       -2   -1    0    0    0  501  0.00000000000E+00  0.00000000000E+00 -0.97533977458E+03  0.97533977458E+03  0.25500000920E-02 0.  1.
    10030    2    1    2    0    0  0.00000000000E+00  0.00000000000E+00  0.10884881772E+04  0.30391677264E+04  0.28375577452E+04 0.  0.
        5    1    3    3  502    0 -0.36372205419E+03 -0.56253885807E+03 -0.79528335941E+03  0.10398275873E+04  0.46999998093E+01 0.  1.
       -5    1    3    3    0  502  0.36372205419E+03  0.56253885807E+03  0.18837715366E+04  0.19993401391E+04  0.46999998093E+01 0. -1.
</event>
<event>
 5   0  0.1005265E-05  0.2745616E+04  0.7818609E-02  0.8320354E-01
       -1   -1    0    0    0  501  0.00000000000E+00  0.00000000000E+00  0.17020498436E+04  0.17020498437E+04  0.50400001928E-02 0.  1.
        1   -1    0    0  501    0  0.00000000000E+00  0.00000000000E+00 -0.11072539985E+04  0.11072539985E+04  0.50400001928E-02 0. -1.
    10030    2    1    2    0    0  0.00000000000E+00  0.00000000000E+00  0.59479584518E+03  0.28093038421E+04  0.27456157743E+04 0.  0.
        3    1    3    3  502    0  0.83875570067E+03 -0.10026102033E+03  0.14046447946E+04  0.16390821842E+04  0.10100000352E+00 0.  1.
       -3    1    3    3    0  502 -0.83875570067E+03  0.10026102033E+03 -0.80984894938E+03  0.11702216579E+04  0.10100000352E+00 0. -1.
</event>
<event>
 5   0  0.2540684E-05  0.1931991E+04  0.7818609E-02  0.8639094E-01
        2   -1    0    0  501    0  0.00000000000E+00  0.00000000000E+00  0.75907027209E+03  0.75907027209E+03  0.25500000920E-02 0. -1.
       -2   -1    0    0    0  501  0.00000000000E+00  0.00000000000E+00 -0.12293287035E+04  0.12293287035E+04  0.25500000920E-02 0.  1.
    10030    2    1    2    0    0  0.00000000000E+00  0.00000000000E+00 -0.47025843143E+03  0.19883989756E+04  0.19319905522E+04 0.  0.
        2    1    3    3  502    0 -0.44203273484E+03 -0.30911216396E+03 -0.10599031019E+04  0.11892593720E+04  0.25500000920E-02 0.  1.
       -2    1    3    3    0  502  0.44203273484E+03  0.30911216396E+03  0.58964467047E+03  0.79913960357E+03  0.25500000920E-02 0. -1.
</event>
<event>
 5   0  0.1041909E-05  0.2646890E+04  0.7818609E-02  0.8352446E-01
        1   -1    0    0  501    0  0.00000000000E+00  0.00000000000E+00  0.14051590561E+04  0.14051590562E+04  0.50400001928E-02 0. -1.
       -1   -1    0    0    0  501  0.00000000000E+00  0.00000000000E+00 -0.12464824077E+04  0.12464824077E+04  0.50400001928E-02 0.  1.
    10030    2    1    2    0    0  0.00000000000E+00  0.00000000000E+00  0.15867664849E+03  0.26516414638E+04  0.26468895281E+04 0.  0.
        5    1    3    3  502    0  0.10037066260E+04 -0.78719298146E+03 -0.27397624486E+03  0.13046780652E+04  0.46999998093E+01 0.  1.
       -5    1    3    3    0  502 -0.10037066260E+04  0.78719298146E+03  0.43265289335E+03  0.13469633986E+04  0.46999998093E+01 0. -1.
</event>
<event>
 5   0  0.9971923E-06  0.1930750E+04  0.7818609E-02  0.8639700E-01
       -1   -1    0    0    0  501  0.00000000000E+00  0.00000000000E+00  0.12841353561E+04  0.12841353561E+04  0.50400001928E-02 0. -1.
        1   -1    0    0  501    0  0.00000000000E+00  0.00000000000E+00 -0.72574070851E+03  0.72574070852E+03  0.50400001928E-02 0.  1.
    10030    2    1    2    0    0  0.00000000000E+00  0.00000000000E+00  0.55839464762E+03  0.20098760647E+04  0.19307504274E+04 0.  0.
        2    1    3    3  502    0 -0.23287994704E+03  0.22097228554E+02 -0.69579089490E+03  0.73406152786E+03  0.25500000920E-02 0.  1.
       -2    1    3    3    0  502  0.23287994704E+03 -0.22097228554E+02  0.12541855425E+04  0.12758145368E+04  0.25500000920E-02 0. -1.
</event>
<event>
 5   0  0.1041909E-05  0.2646296E+04  0.7818609E-02  0.8352643E-01
        1   -1    0    0  501    0  0.00000000000E+00  0.00000000000E+00  0.78434997156E+03  0.78434997158E+03  0.50400001928E-02 0. -1.
       -1   -1    0    0    0  501  0.00000000000E+00  0.00000000000E+00 -0.22320655874E+04  0.22320655875E+04  0.50400001928E-02 0.  1.
    10030    2    1    2    0    0  0.00000000000E+00  0.00000000000E+00 -0.14477156159E+04  0.30164155590E+04  0.26462959623E+04 0.  0.
        5    1    3    3  502    0  0.10524427258E+04  0.75733750778E+03 -0.10243641144E+04  0.16524344830E+04  0.46999998093E+01 0.  1.
       -5    1    3    3    0  502 -0.10524427258E+04 -0.75733750778E+03 -0.42335150153E+03  0.13639810760E+04  0.46999998093E+01 0. -1.
</event>
<event>
 5   0  0.2641216E-05  0.2624500E+04  0.7818609E-02  0.8359926E-01
        2   -1    0    0  501    0  0.00000000000E+00  0.00000000000E+00  0.16669478818E+04  0.16669478818E+04  0.25500000920E-02 0. -1.
       -2   -1    0    0    0  501  0.00000000000E+00  0.00000000000E+00 -0.10330260207E+04  0.10330260207E+04  0.25500000920E-02 0.  1.
    10030    2    1    2    0    0  0.00000000000E+00  0.00000000000E+00  0.63392186114E+03  0.26999739025E+04  0.26245003616E+04 0.  0.
        5    1    3    3  502    0 -0.10943564137E+04  0.21835990470E+03 -0.39331492209E+03  0.11832226021E+04  0.46999998093E+01 0.  1.
       -5    1    3    3    0  502  0.10943564137E+04 -0.21835990470E+03  0.10272367832E+04  0.15167513003E+04  0.46999998093E+01 0. -1.
</event>
<event>
 5   0  0.1041909E-05  0.2700594E+04  0.7818609E-02  0.8334812E-01
       -1   -1    0    0    0  501  0.00000000000E+00  0.00000000000E+00  0.88591011145E+03  0.88591011146E+03  0.50400001928E-02 0.  1.
        1   -1    0    0  501    0  0.00000000000E+00  0.00000000000E+00 -0.20581114906E+04  0.20581114906E+04  0.50400001928E-02 0. -1.
    10030    2    1    2    0    0  0.00000000000E+00  0.00000000000E+00 -0.11722013791E+04  0.29440216020E+04  0.27005938458E+04 0.  0.
        5    1    3    3  502    0 -0.36944658308E+02 -0.34762571608E+03  0.83571387096E+03  0.90589641261E+03  0.46999998093E+01 0.  1.
       -5    1    3    3    0  502  0.36944658308E+02  0.34762571608E+03 -0.20079152501E+04  0.20381251894E+04  0.46999998093E+01 0. -1.
</event>
<event>
 5   0  0.2540232E-05  0.2711427E+04  0.7818609E-02  0.8331307E-01
       -2   -1    0    0    0  501  0.00000000000E+00  0.00000000000E+00  0.81712045359E+03  0.81712045360E+03  0.25500000920E-02 0. -1.
        2   -1    0    0  501    0  0.00000000000E+00  0.00000000000E+00 -0.22493124676E+04  0.22493124676E+04  0.25500000920E-02 0.  1.
    10030    2    1    2    0    0  0.00000000000E+00  0.00000000000E+00 -0.14321920140E+04  0.30664329212E+04  0.27114270957E+04 0.  0.
        1    1    3    3  502    0 -0.10251264297E+04  0.85407359018E+03 -0.98759760607E+03  0.16600225679E+04  0.50400001928E-02 0. -1.
       -1    1    3    3    0  502  0.10251264297E+04 -0.85407359018E+03 -0.44459440794E+03  0.14064103533E+04  0.50400001928E-02 0.  1.
</event>
<event>
 5   0  0.2641216E-05  0.2719653E+04  0.7818609E-02  0.8328656E-01
       -2   -1    0    0    0  501  0.00000000000E+00  0.00000000000E+00  0.12242942502E+04  0.12242942502E+04  0.25500000920E-02 0. -1.
        2   -1    0    0  501    0  0.00000000000E+00  0.00000000000E+00 -0.15103626771E+04  0.15103626771E+04  0.25500000920E-02 0.  1.
    10030    2    1    2    0    0  0.00000000000E+00  0.00000000000E+00 -0.28606842692E+03  0.27346569274E+04  0.27196531701E+04 0.  0.
        5    1    3    3  502    0 -0.62916315154E+03 -0.52512681625E+03  0.94807976144E+03  0.12531886404E+04  0.46999998093E+01 0. -1.
       -5    1    3    3    0  502  0.62916315154E+03  0.52512681625E+03 -0.12341481884E+04  0.14814682869E+04  0.46999998093E+01 0.  1.
</event>
<event>
 5   0  0.2641216E-05  0.2689888E+04  0.7818609E-02  0.8338293E-01
        2   -1    0    0  501    0  0.00000000000E+00  0.00000000000E+00  0.17637896443E+04  0.17637896443E+04  0.25500000920E-02 0.  1.
       -2   -1    0    0    0  501  0.00000000000E+00  0.00000000000E+00 -0.10255613498E+04  0.10255613498E+04  0.25500000920E-02 0. -1.
    10030    2    1    2    0    0  0.00000000000E+00  0.00000000000E+00  0.73822829456E+03  0.27893509941E+04  0.26898880931E+04 0.  0.
        5    1    3    3  502    0 -0.12311061032E+04 -0.80572202824E+02  0.92439384227E+03  0.15416355545E+04  0.46999998093E+01 0.  1.
       -5    1    3    3    0  502  0.12311061032E+04  0.80572202824E+02 -0.18616554771E+03  0.12477154396E+04  0.46999998093E+01 0. -1.
</event>
<event>
 5   0  0.1041909E-05  0.2634537E+04  0.7818609E-02  0.8356563E-01
       -1   -1    0    0    0  501  0.00000000000E+00  0.00000000000E+00  0.11278084732E+04  0.11278084732E+04  0.50400001928E-02 0. -1.
        1   -1    0    0  501    0  0.00000000000E+00  0.00000000000E+00 -0.15385559667E+04  0.15385559667E+04  0.50400001928E-02 0.  1.
    10030    2    1    2    0    0  0.00000000000E+00  0.00000000000E+00 -0.41074749349E+03  0.26663644399E+04  0.26345371174E+04 0.  0.
        5    1    3    3  502    0 -0.70022775139E+03  0.83522674989E+03 -0.95407534793E+03  0.14485180313E+04  0.46999998093E+01 0.  1.
       -5    1    3    3    0  502  0.70022775139E+03 -0.83522674989E+03  0.54332785443E+03  0.12178464086E+04  0.46999998093E+01 0. -1.
</event>
<event>
 5   0  0.1041909E-05  0.2544108E+04  0.7818609E-02  0.8387438E-01
        1   -1    0    0  501    0  0.00000000000E+00  0.00000000000E+00  0.20463416581E+04  0.20463416581E+04  0.50400001928E-02 0.  1.
       -1   -1    0    0    0  501  0.00000000000E+00  0.00000000000E+00 -0.79073831038E+03  0.79073831040E+03  0.50400001928E-02 0. -1.
    10030    2    1    2    0    0  0.00000000000E+00  0.00000000000E+00  0.12556033477E+04  0.28370799685E+04  0.25441075018E+04 0.  0.
        5    1    3    3  502    0 -0.39452998267E+03 -0.10945127854E+04  0.54295784272E+02  0.11647241162E+04  0.46999998093E+01 0. -1.
       -5    1    3    3    0  502  0.39452998267E+03  0.10945127854E+04  0.12013075634E+04  0.16723558523E+04  0.46999998093E+01 0.  1.
</event>
<event>
 5   0  0.2641216E-05  0.2721069E+04  0.7818609E-02  0.8328201E-01
       -2   -1    0    0    0  501  0.00000000000E+00  0.00000000000E+00  0.14013270830E+04  0.14013270830E+04  0.25500000920E-02 0.  1.
        2   -1    0    0  501    0  0.00000000000E+00  0.00000000000E+00 -0.13209289808E+04  0.13209289808E+04  0.25500000920E-02 0. -1.
    10030    2    1    2    0    0  0.00000000000E+00  0.00000000000E+00  0.80398102195E+02  0.27222560639E+04  0.27210685810E+04 0.  0.
        5    1    3    3  502    0  0.79877900044E+03 -0.22696019064E+03 -0.10379876710E+04  0.13292852647E+04  0.46999998093E+01 0. -1.
       -5    1    3    3    0  502 -0.79877900044E+03  0.22696019064E+03  0.11183857732E+04  0.13929707992E+04  0.46999998093E+01 0.  1.
</event>
<event>
 5   0  0.1036691E-05  0.2692453E+04  0.7818609E-02  0.8337458E-01
        1   -1    0    0  501    0  0.00000000000E+00  0.00000000000E+00  0.22547345337E+04  0.22547345337E+04  0.50400001928E-02 0.  1.
       -1   -1    0    0    0  501  0.00000000000E+00  0.00000000000E+00 -0.80378689920E+03  0.80378689921E+03  0.50400001928E-02 0. -1.
    10030    2    1    2    0    0  0.00000000000E+00  0.00000000000E+00  0.14509476345E+04  0.30585214330E+04  0.26924532155E+04 0.  0.
        4    1    3    3  502    0  0.81282180196E+03  0.93726520426E+03  0.13192012487E+04  0.18109221111E+04  0.12699999809E+01 0.  1.
       -4    1    3    3    0  502 -0.81282180196E+03 -0.93726520426E+03  0.13174638579E+03  0.12475993219E+04  0.12699999809E+01 0. -1.
</event>
<event>
 5   0  0.2540232E-05  0.2756616E+04  0.7818609E-02  0.8316865E-01
        2   -1    0    0  501    0  0.00000000000E+00  0.00000000000E+00  0.18079994149E+04  0.18079994149E+04  0.25500000920E-02 0. -1.
       -2   -1    0    0    0  501  0.00000000000E+00  0.00000000000E+00 -0.10507375172E+04  0.10507375172E+04  0.25500000920E-02 0.  1.
    10030    2    1    2    0    0  0.00000000000E+00  0.00000000000E+00  0.75726189774E+03  0.28587369321E+04  0.27566159081E+04 0.  0.
        1    1    3    3  502    0  0.13717072046E+04 -0.63834433914E+01  0.51819517078E+03  0.14663381733E+04  0.50400001928E-02 0. -1.
       -1    1    3    3    0  502 -0.13717072046E+04  0.63834433914E+01  0.23906672696E+03  0.13923987588E+04  0.50400001928E-02 0.  1.
</event>
<event>
 5   0  0.1041909E-05  0.2719046E+04  0.7818609E-02  0.8328852E-01
       -1   -1    0    0    0  501  0.00000000000E+00  0.00000000000E+00  0.12164070845E+04  0.12164070846E+04  0.50400001928E-02 0.  1.
        1   -1    0    0  501    0  0.00000000000E+00  0.00000000000E+00 -0.15194773145E+04  0.15194773145E+04  0.50400001928E-02 0. -1.
    10030    2    1    2    0    0  0.00000000000E+00  0.00000000000E+00 -0.30307022996E+03  0.27358843991E+04  0.27190461344E+04 0.  0.
        5    1    3    3  502    0  0.21880332693E+03  0.13277334399E+04 -0.34646115120E+03  0.13895353190E+04  0.46999998093E+01 0. -1.
       -5    1    3    3    0  502 -0.21880332693E+03 -0.13277334399E+04  0.43390921246E+02  0.13463490801E+04  0.46999998093E+01 0.  1.
</event>
<event>
 5   0  0.1096672E-05  0.2633691E+04  0.7818609E-02  0.8356846E-01
       -1   -1    0    0    0  501  0.00000000000E+00  0.00000000000E+00  0.10271300855E+04  0.10271300855E+04  0.50400001928E-02 0. -1.
        1   -1    0    0  501    0  0.00000000000E+00  0.00000000000E+00 -0.16882794689E+04  0.16882794689E+04  0.50400001928E-02 0.  1.
    10030    2    1    2    0    0  0.00000000000E+00  0.00000000000E+00 -0.66114938346E+03  0.27154095544E+04  0.26336914286E+04 0.  0.
        1    1    3    3  502    0  0.99129471412E+03 -0.45359737976E+03  0.43103810690E+03  0.11722668821E+04  0.50400001928E-02 0. -1.
       -1    1    3    3    0  502 -0.99129471412E+03  0.45359737976E+03 -0.10921874904E+04  0.15431426724E+04  0.50400001928E-02 0.  1.
</event>
<event>
 5   0  0.1096672E-05  0.2724324E+04  0.7818609E-02  0.8327156E-01
       -1   -1    0    0    0  501  0.00000000000E+00  0.00000000000E+00  0.12542772620E+04  0.12542772620E+04  0.50400001928E-02 0.  1.
        1   -1    0    0  501    0  0.00000000000E+00  0.00000000000E+00 -0.14793262083E+04  0.14793262083E+04  0.50400001928E-02 0. -1.
    10030    2    1    2    0    0  0.00000000000E+00  0.00000000000E+00 -0.22504894629E+03  0.27336034703E+04  0.27243239353E+04 0.  0.
        1    1    3    3  502    0  0.10541518447E+04 -0.55408081915E+02 -0.97637448053E+03  0.14379197799E+04  0.50400001928E-02 0. -1.
       -1    1    3    3    0  502 -0.10541518447E+04  0.55408081915E+02  0.75132553425E+03  0.12956836904E+04  0.50400001928E-02 0.  1.
</event>
<event>
 5   0  0.1036691E-05  0.2799322E+04  0.7818609E-02  0.8303479E-01
        1   -1    0    0  501    0  0.00000000000E+00  0.00000000000E+00  0.12946461484E+04  0.12946461484E+04  0.50400001928E-02 0.  1.
       -1   -1    0    0    0  501  0.00000000000E+00  0.00000000000E+00 -0.15131943132E+04  0.15131943132E+04  0.50400001928E-02 0. -1.
    10030    2    1    2    0    0  0.00000000000E+00  0.00000000000E+00 -0.21854816483E+03  0.28078404616E+04  0.27993221961E+04 0.  0.
        4    1    3    3  502    0 -0.85787818107E+03  0.53497537302E+03  0.86160517331E+03  0.13283518777E+04  0.12699999809E+01 0.  1.
       -4    1    3    3    0  502  0.85787818107E+03 -0.53497537302E+03 -0.10801533381E+04  0.14794885840E+04  0.12699999809E+01 0. -1.
</event>
<event>
 5   0  0.2516518E-05  0.2615017E+04  0.7818609E-02  0.8363118E-01
        2   -1    0    0  501    0  0.00000000000E+00  0.00000000000E+00  0.91544929909E+03  0.91544929909E+03  0.25500000920E-02 0. -1.
       -2   -1    0    0    0  501  0.00000000000E+00  0.00000000000E+00 -0.18674750236E+04  0.18674750236E+04  0.25500000920E-02 0.  1.
    10030    2    1    2    0    0  0.00000000000E+00  0.00000000000E+00 -0.95202572446E+03  0.27829243226E+04  0.26150171712E+04 0.  0.
        4    1    3    3  502    0  0.45687211030E+03  0.56617535588E+03  0.68015606809E+03  0.99594204080E+03  0.12699999809E+01 0. -1.
       -4    1    3    3    0  502 -0.45687211030E+03 -0.56617535588E+03 -0.16321817926E+04  0.17869822818E+04  0.12699999809E+01 0.  1.
</event>
<event>
 5   0  0.2540232E-05  0.2525621E+04  0.7818609E-02  0.8393914E-01
       -2   -1    0    0    0  501  0.00000000000E+00  0.00000000000E+00  0.85297335982E+03  0.85297335982E+03  0.25500000920E-02 0.  1.
        2   -1    0    0  501    0  0.00000000000E+00  0.00000000000E+00 -0.18695659789E+04  0.18695659789E+04  0.25500000920E-02 0. -1.
    10030    2    1    2    0    0  0.00000000000E+00  0.00000000000E+00 -0.10165926190E+04  0.27225393387E+04  0.25256206955E+04 0.  0.
        1    1    3    3  502    0  0.62205342147E+03  0.30739615924E+03  0.62907383902E+03  0.93657714729E+03  0.50400001928E-02 0.  1.
       -1    1    3    3    0  502 -0.62205342147E+03 -0.30739615924E+03 -0.16456664581E+04  0.17859621914E+04  0.50400001928E-02 0. -1.
</event>
<event>
 5   0  0.1036691E-05  0.1936097E+04  0.7818609E-02  0.8637094E-01
       -1   -1    0    0    0  501  0.00000000000E+00  0.00000000000E+00  0.75648539723E+03  0.75648539725E+03  0.50400001928E-02 0. -1.
        1   -1    0    0  501    0  0.00000000000E+00  0.00000000000E+00 -0.12387788987E+04  0.12387788987E+04  0.50400001928E-02 0.  1.
    10030    2    1    2    0    0  0.00000000000E+00  0.00000000000E+00 -0.48229350148E+03  0.19952642960E+04  0.19360972572E+04 0.  0.
        4    1    3    3  502    0 -0.57954769178E+01  0.42440834796E+03 -0.11377697414E+04  0.12143630555E+04  0.12699999809E+01 0.  1.
       -4    1    3    3    0  502  0.57954769178E+01 -0.42440834796E+03  0.65547623988E+03  0.78090124044E+03  0.12699999809E+01 0. -1.
</event>
<event>
 5   0  0.2641216E-05  0.1900024E+04  0.7818609E-02  0.8654844E-01
       -2   -1    0    0    0  501  0.00000000000E+00  0.00000000000E+00  0.16649663772E+04  0.16649663772E+04  0.25500000920E-02 0.  1.
        2   -1    0    0  501    0  0.00000000000E+00  0.00000000000E+00 -0.54206671206E+03  0.54206671207E+03  0.25500000920E-02 0. -1.
    10030    2    1    2    0    0  0.00000000000E+00  0.00000000000E+00  0.11228996651E+04  0.22070330893E+04  0.19000240523E+04 0.  0.
        5    1    3    3  502    0  0.60522789042E+02  0.28196459400E+03  0.16128793378E+04  0.16384654065E+04  0.46999998093E+01 0.  1.
       -5    1    3    3    0  502 -0.60522789042E+02 -0.28196459400E+03 -0.48997967262E+03  0.56856768273E+03  0.46999998093E+01 0. -1.
</event>
<event>
 5   0  0.2615843E-05  0.2737891E+04  0.7818609E-02  0.8322814E-01
       -2   -1    0    0    0  501  0.00000000000E+00  0.00000000000E+00  0.13828570076E+04  0.13828570076E+04  0.25500000920E-02 0. -1.
        2   -1    0    0  501    0  0.00000000000E+00  0.00000000000E+00 -0.13551743237E+04  0.13551743237E+04  0.25500000920E-02 0.  1.
    10030    2    1    2    0    0  0.00000000000E+00  0.00000000000E+00  0.27682683818E+02  0.27380313313E+04  0.27378913858E+04 0.  0.
        3    1    3    3  502    0  0.52875147392E+03  0.10683959046E+04  0.68690202041E+03  0.13758206009E+04  0.10100000352E+00 0. -1.
       -3    1    3    3    0  502 -0.52875147392E+03 -0.10683959046E+04 -0.65921933659E+03  0.13622107304E+04  0.10100000352E+00 0.  1.
</event>
<event>
 5   0  0.2516518E-05  0.2642005E+04  0.7818609E-02  0.8354071E-01
       -2   -1    0    0    0  501  0.00000000000E+00  0.00000000000E+00  0.11356211052E+04  0.11356211052E+04  0.25500000920E-02 0. -1.
        2   -1    0    0  501    0  0.00000000000E+00  0.00000000000E+00 -0.15366463217E+04  0.15366463217E+04  0.25500000920E-02 0.  1.
    10030    2    1    2    0    0  0.00000000000E+00  0.00000000000E+00 -0.40102521644E+03  0.26722674269E+04  0.26420052946E+04 0.  0.
        4    1    3    3  502    0 -0.11430875612E+03  0.61328715470E+03 -0.13782635476E+04  0.15128779347E+04  0.12699999809E+01 0.  1.
       -4    1    3    3    0  502  0.11430875612E+03 -0.61328715470E+03  0.97723833113E+03  0.11593894922E+04  0.12699999809E+01 0. -1.
</event>
<event>
 5   0  0.2540684E-05  0.2702404E+04  0.7818609E-02  0.8334225E-01
        2   -1    0    0  501    0  0.00000000000E+00  0.00000000000E+00  0.18667511805E+04  0.18667511805E+04  0.25500000920E-02 0. -1.
       -2   -1    0    0    0  501  0.00000000000E+00  0.00000000000E+00 -0.97803423083E+03  0.97803423083E+03  0.25500000920E-02 0.  1.
    10030    2    1    2    0    0  0.00000000000E+00  0.00000000000E+00  0.88871694972E+03  0.28447854114E+04  0.27024037855E+04 0.  0.
        2    1    3    3  502    0 -0.21356316759E+03 -0.13322822959E+04  0.36873177546E+03  0.13987667656E+04  0.25500000920E-02 0. -1.
       -2    1    3    3    0  502  0.21356316759E+03  0.13322822959E+04  0.51998517426E+03  0.14460186458E+04  0.25500000920E-02 0.  1.
</event>
<event>
 5   0  0.2540684E-05  0.2699464E+04  0.7818609E-02  0.8335179E-01
       -2   -1    0    0    0  501  0.00000000000E+00  0.00000000000E+00  0.97385760059E+03  0.97385760060E+03  0.25500000920E-02 0. -1.
        2   -1    0    0  501    0  0.00000000000E+00  0.00000000000E+00 -0.18706799648E+04  0.18706799648E+04  0.25500000920E-02 0.  1.
    10030    2    1    2    0    0  0.00000000000E+00  0.00000000000E+00 -0.89682236423E+03  0.28445375654E+04  0.26994635778E+04 0.  0.
        2    1    3    3  502    0  0.67073420510E+03 -0.92470635196E+03 -0.12059406396E+04  0.16611017541E+04  0.25500000920E-02 0.  1.
       -2    1    3    3    0  502 -0.67073420510E+03  0.92470635196E+03  0.30911827540E+03  0.11834358113E+04  0.25500000920E-02 0. -1.
</event>
<event>
 5   0  0.2540684E-05  0.2697785E+04  0.7818609E-02  0.8335724E-01
        2   -1    0    0  501    0  0.00000000000E+00  0.00000000000E+00  0.10906955082E+04  0.10906955082E+04  0.25500000920E-02 0. -1.
       -2   -1    0    0    0  501  0.00000000000E+00  0.00000000000E+00 -0.16682117186E+04  0.16682117186E+04  0.25500000920E-02 0.  1.
    10030    2    1    2    0    0  0.00000000000E+00  0.00000000000E+00 -0.57751621037E+03  0.27589072268E+04  0.26977850383E+04 0.  0.
        2    1    3    3  502    0  0.88128911916E+03 -0.81838803535E+03 -0.91340075722E+03  0.15102087376E+04  0.25500000920E-02 0. -1.
       -2    1    3    3    0  502 -0.88128911916E+03  0.81838803535E+03  0.33588454685E+03  0.12486984891E+04  0.25500000920E-02 0.  1.
</event>
<event>
 5   0  0.2615843E-05  0.2343093E+04  0.7818609E-02  0.8461121E-01
       -2   -1    0    0    0  501  0.00000000000E+00  0.00000000000E+00  0.76750576700E+03  0.76750576700E+03  0.25500000920E-02 0. -1.
        2   -1    0    0  501    0  0.00000000000E+00  0.00000000000E+00 -0.17882874015E+04  0.17882874015E+04  0.25500000920E-02 0.  1.
    10030    2    1    2    0    0  0.00000000000E+00  0.00000000000E+00 -0.10207816345E+04  0.25557931685E+04  0.23430927372E+04 0.  0.
        3    1    3    3  502    0 -0.63978046604E+03 -0.23963588689E+03  0.52772724373E+03  0.86327310683E+03  0.10100000352E+00 0. -1.
       -3    1    3    3    0  502  0.63978046604E+03  0.23963588689E+03 -0.15485088783E+04  0.16925200617E+04  0.10100000352E+00 0.  1.
</event>
<event>
 5   0  0.2516518E-05  0.2689342E+04  0.7818609E-02  0.8338471E-01
        2   -1    0    0  501    0  0.00000000000E+00  0.00000000000E+00  0.80466268471E+03  0.80466268471E+03  0.25500000920E-02 0.  1.
       -2   -1    0    0    0  501  0.00000000000E+00  0.00000000000E+00 -0.22470783820E+04  0.22470783820E+04  0.25500000920E-02 0. -1.
    10030    2    1    2    0    0  0.00000000000E+00  0.00000000000E+00 -0.14424156973E+04  0.30517410667E+04  0.26893420189E+04 0.  0.
        4    1    3    3  502    0  0.55835106518E+03  0.64904236302E+03 -0.18978149087E+04  0.20819978246E+04  0.12699999809E+01 0. -1.
       -4    1    3    3    0  502 -0.55835106518E+03 -0.64904236302E+03  0.45539921142E+03  0.96974324212E+03  0.12699999809E+01 0.  1.
</event>
<event>
 5   0  0.2540232E-05  0.2728622E+04  0.7818609E-02  0.8325777E-01
        2   -1    0    0  501    0  0.00000000000E+00  0.00000000000E+00  0.19234465839E+04  0.19234465839E+04  0.25500000920E-02 0.  1.
       -2   -1    0    0    0  501  0.00000000000E+00  0.00000000000E+00 -0.96771333818E+03  0.96771333818E+03  0.25500000920E-02 0. -1.
    10030    2    1    2    0    0  0.00000000000E+00  0.00000000000E+00  0.95573324574E+03  0.28911599221E+04  0.27286223004E+04 0.  0.
        1    1    3    3  502    0 -0.31411173323E+02 -0.11310590666E+04  0.12855488775E+04  0.17125761852E+04  0.50400001928E-02 0.  1.
       -1    1    3    3    0  502  0.31411173323E+02  0.11310590666E+04 -0.32981563174E+03  0.11785837369E+04  0.50400001928E-02 0. -1.
</event>
<event>
 5   0  0.1096672E-05  0.2718699E+04  0.7818609E-02  0.8328963E-01
        1   -1    0    0  501    0  0.00000000000E+00  0.00000000000E+00  0.11452724418E+04  0.11452724418E+04  0.50400001928E-02 0. -1.
       -1   -1    0    0    0  501  0.00000000000E+00  0.00000000000E+00 -0.16134418993E+04  0.16134418993E+04  0.50400001928E-02 0.  1.
    10030    2    1    2    0    0  0.00000000000E+00  0.00000000000E+00 -0.46816945752E+03  0.27587143411E+04  0.27186986179E+04 0.  0.
        1    1    3    3  502    0 -0.13202333200E+04 -0.27955077865E+03 -0.68384281850E+02  0.13512368657E+04  0.50400001928E-02 0. -1.
       -1    1    3    3    0  502  0.13202333200E+04  0.27955077865E+03 -0.39978517567E+03  0.14074774754E+04  0.50400001928E-02 0.  1.
</event>
<event>
 5   0  0.1005265E-05  0.2669895E+04  0.7818609E-02  0.8344840E-01
        1   -1    0    0  501    0  0.00000000000E+00  0.00000000000E+00  0.15996313900E+04  0.15996313900E+04  0.50400001928E-02 0. -1.
       -1   -1    0    0    0  501  0.00000000000E+00  0.00000000000E+00 -0.11140593695E+04  0.11140593696E+04  0.50400001928E-02 0.  1.
    10030    2    1    2    0    0  0.00000000000E+00  0.00000000000E+00  0.48557202044E+03  0.27136907596E+04  0.26698946330E+04 0.  0.
        3    1    3    3  502    0 -0.11484951035E+04  0.20868033104E+03 -0.41552340261E+03  0.12390513273E+04  0.10100000352E+00 0.  1.
       -3    1    3    3    0  502  0.11484951035E+04 -0.20868033104E+03  0.90109542305E+03  0.14746394322E+04  0.10100000352E+00 0. -1.
</event>
<event>
 5   0  0.1096672E-05  0.2428603E+04  0.7818609E-02  0.8428872E-01
        1   -1    0    0  501    0  0.00000000000E+00  0.00000000000E+00  0.27732467894E+04  0.27732467894E+04  0.50400001928E-02 0. -1.
       -1   -1    0    0    0  501  0.00000000000E+00  0.00000000000E+00 -0.53169740144E+03  0.53169740146E+03  0.50400001928E-02 0.  1.
    10030    2    1    2    0    0  0.00000000000E+00  0.00000000000E+00  0.22415493879E+04  0.33049441908E+04  0.24286029824E+04 0.  0.
        1    1    3    3  502    0  0.14672370926E+03  0.11875030857E+04  0.83912094305E+03  0.14614429111E+04  0.50400001928E-02 0.  1.
       -1    1    3    3    0  502 -0.14672370926E+03 -0.11875030857E+04  0.14024284449E+04  0.18435012797E+04  0.50400001928E-02 0. -1.
</event>
<event>
 5   0  0.2516518E-05  0.2743180E+04  0.7818609E-02  0.8321129E-01
        2   -1    0    0  501    0  0.00000000000E+00  0.00000000000E+00  0.24084498307E+04  0.24084498307E+04  0.25500000920E-02 0.  1.
       -2   -1    0    0    0  501  0.00000000000E+00  0.00000000000E+00 -0.78110766991E+03  0.78110766991E+03  0.25500000920E-02 0. -1.
    10030    2    1    2    0    0  0.00000000000E+00  0.00000000000E+00  0.16273421607E+04  0.31895575006E+04  0.27431796407E+04 0.  0.
        4    1    3    3  502    0 -0.56505946501E+03 -0.37033170281E+02 -0.63884538946E+03  0.85369122008E+03  0.12699999809E+01 0. -1.
       -4    1    3    3    0  502  0.56505946501E+03  0.37033170281E+02  0.22661875502E+04  0.23358662805E+04  0.12699999809E+01 0.  1.
</event>
<event>
 5   0  0.2540684E-05  0.2706087E+04  0.7818609E-02  0.8333033E-01
        2   -1    0    0  501    0  0.00000000000E+00  0.00000000000E+00  0.18325169273E+04  0.18325169273E+04  0.25500000920E-02 0.  1.
       -2   -1    0    0    0  501  0.00000000000E+00  0.00000000000E+00 -0.99902321708E+03  0.99902321709E+03  0.25500000920E-02 0. -1.
    10030    2    1    2    0    0  0.00000000000E+00  0.00000000000E+00  0.83349371026E+03  0.28315401444E+04  0.27060871798E+04 0.  0.
        2    1    3    3  502    0  0.68827438583E+03 -0.13305725673E+03  0.16276796777E+04  0.17722209222E+04  0.25500000920E-02 0.  1.
       -2    1    3    3    0  502 -0.68827438583E+03  0.13305725673E+03 -0.79418596745E+03  0.10593192223E+04  0.25500000920E-02 0. -1.
</event>
<event>
 5   0  0.2540684E-05  0.2710883E+04  0.7818609E-02  0.8331483E-01
       -2   -1    0    0    0  501  0.00000000000E+00  0.00000000000E+00  0.88139238160E+03  0.88139238160E+03  0.25500000920E-02 0.  1.
        2   -1    0    0  501    0  0.00000000000E+00  0.00000000000E+00 -0.20844531646E+04  0.20844531646E+04  0.25500000920E-02 0. -1.
    10030    2    1    2    0    0  0.00000000000E+00  0.00000000000E+00 -0.12030607830E+04  0.29658455462E+04  0.27108826157E+04 0.  0.
        2    1    3    3  502    0  0.23628831018E+03  0.18874358073E+03 -0.20470723041E+04  0.20692900529E+04  0.25500000920E-02 0. -1.
       -2    1    3    3    0  502 -0.23628831018E+03 -0.18874358073E+03  0.84401152111E+03  0.89655549330E+03  0.25500000920E-02 0.  1.
</event>
<event>
 5   0  0.2540232E-05  0.2712482E+04  0.7818609E-02  0.8330966E-01
        2   -1    0    0  501    0  0.00000000000E+00  0.00000000000E+00  0.18329937718E+04  0.18329937718E+04  0.25500000920E-02 0. -1.
       -2   -1    0    0    0  501  0.00000000000E+00  0.00000000000E+00 -0.10034889930E+04  0.10034889930E+04  0.25500000920E-02 0.  1.
    10030    2    1    2    0    0  0.00000000000E+00  0.00000000000E+00  0.82950477875E+03  0.28364827648E+04  0.27124815755E+04 0.  0.
        1    1    3    3  502    0  0.72857734090E+03 -0.51686748882E+03 -0.65239564404E+03  0.11061631973E+04  0.50400001928E-02 0.  1.
       -1    1    3    3    0  502 -0.72857734090E+03  0.51686748882E+03  0.14819004228E+04  0.17303195675E+04  0.50400001928E-02 0. -1.
</event>
<event>
 5   0  0.2641216E-05  0.2673719E+04  0.7818609E-02  0.8343583E-01
        2   -1    0    0  501    0  0.00000000000E+00  0.00000000000E+00  0.17149279271E+04  0.17149279271E+04  0.25500000920E-02 0. -1.
       -2   -1    0    0    0  501  0.00000000000E+00  0.00000000000E+00 -0.10421393164E+04  0.10421393164E+04  0.25500000920E-02 0.  1.
    10030    2    1    2    0    0  0.00000000000E+00  0.00000000000E+00  0.67278861066E+03  0.27570672435E+04  0.26737193702E+04 0.  0.
        5    1    3    3  502    0 -0.11689798363E+04  0.59058542936E+03  0.59957764440E+02  0.13110766684E+04  0.46999998093E+01 0. -1.
       -5    1    3    3    0  502  0.11689798363E+04 -0.59058542936E+03  0.61283084622E+03  0.14459905750E+04  0.46999998093E+01 0.  1.
</event>
<event>
 5   0  0.9971923E-06  0.2673956E+04  0.7818609E-02  0.8343505E-01
       -1   -1    0    0    0  501  0.00000000000E+00  0.00000000000E+00  0.20070830180E+04  0.20070830180E+04  0.50400001928E-02 0.  1.
        1   -1    0    0  501    0  0.00000000000E+00  0.00000000000E+00 -0.89060108603E+03  0.89060108604E+03  0.50400001928E-02 0. -1.
    10030    2    1    2    0    0  0.00000000000E+00  0.00000000000E+00  0.11164819320E+04  0.28976841041E+04  0.26739561071E+04 0.  0.
        2    1    3    3  502    0 -0.24784544084E+03 -0.39464686271E+03 -0.79973839483E+03  0.92561061412E+03  0.25500000920E-02 0. -1.
       -2    1    3    3    0  502  0.24784544084E+03  0.39464686271E+03  0.19162203268E+04  0.19720734899E+04  0.25500000920E-02 0.  1.
</event>
<event>
 5   0  0.1005265E-05  0.2709382E+04  0.7818609E-02  0.8331967E-01
       -1   -1    0    0    0  501  0.00000000000E+00  0.00000000000E+00  0.89533880616E+03  0.89533880617E+03  0.50400001928E-02 0. -1.
        1   -1    0    0  501    0  0.00000000000E+00  0.00000000000E+00 -0.20497135355E+04  0.20497135355E+04  0.50400001928E-02 0.  1.
    10030    2    1    2    0    0  0.00000000000E+00  0.00000000000E+00 -0.11543747293E+04  0.29450523417E+04  0.27093822690E+04 0.  0.
        3    1    3    3  502    0 -0.75083746823E+03  0.53607757469E+03 -0.16554678748E+04  0.18951807208E+04  0.10100000352E+00 0.  1.
       -3    1    3    3    0  502  0.75083746823E+03 -0.53607757469E+03  0.50109314543E+03  0.10498716209E+04  0.10100000352E+00 0. -1.
</event>
<event>
 5   0  0.1096672E-05  0.2716360E+04  0.7818609E-02  0.8329716E-01
        1   -1    0    0  501    0  0.00000000000E+00  0.00000000000E+00  0.13716366656E+04  0.13716366656E+04  0.50400001928E-02 0.  1.
       -1   -1    0    0    0  501  0.00000000000E+00  0.00000000000E+00 -0.13448555829E+04  0.13448555829E+04  0.50400001928E-02 0. -1.
    10030    2    1    2    0    0  0.00000000000E+00  0.00000000000E+00  0.26781082713E+02  0.27164922484E+04  0.27163602319E+04 0.  0.
        1    1    3    3  502    0 -0.69375090651E+03  0.11656028490E+04 -0.55408917273E+02  0.13575678510E+04  0.50400001928E-02 0. -1.
       -1    1    3    3    0  502  0.69375090651E+03 -0.11656028490E+04  0.82189999987E+02  0.13589243975E+04  0.50400001928E-02 0.  1.
</event>
<event>
 5   0  0.9971923E-06  0.2717344E+04  0.7818609E-02  0.8329399E-01
        1   -1    0    0  501    0  0.00000000000E+00  0.00000000000E+00  0.17661128990E+04  0.17661128990E+04  0.50400001928E-02 0.  1.
       -1   -1    0    0    0  501  0.00000000000E+00  0.00000000000E+00 -0.10452271263E+04  0.10452271263E+04  0.50400001928E-02 0. -1.
    10030    2    1    2    0    0  0.00000000000E+00  0.00000000000E+00  0.72088577269E+03  0.28113400253E+04  0.27173436368E+04 0.  0.
        2    1    3    3  502    0 -0.12419927110E+04 -0.10521503527E+02  0.93025056174E+03  0.15517804947E+04  0.25500000920E-02 0. -1.
       -2    1    3    3    0  502  0.12419927110E+04  0.10521503527E+02 -0.20936478905E+03  0.12595595306E+04  0.25500000920E-02 0.  1.
</event>
<event>
 5   0  0.2615843E-05  0.2663533E+04  0.7818609E-02  0.8346935E-01
        2   -1    0    0  501    0  0.00000000000E+00  0.00000000000E+00  0.24857804175E+04  0.24857804175E+04  0.25500000920E-02 0.  1.
       -2   -1    0    0    0  501  0.00000000000E+00  0.00000000000E+00 -0.71349914890E+03  0.71349914891E+03  0.25500000920E-02 0. -1.
    10030    2    1    2    0    0  0.00000000000E+00  0.00000000000E+00  0.17722812686E+04  0.31992795665E+04  0.26635331515E+04 0.  0.
        3    1    3    3  502    0  0.11714674000E+04 -0.58709316463E+03  0.11718707794E+04  0.17579236011E+04  0.10100000352E+00 0.  1.
       -3    1    3    3    0  502 -0.11714674000E+04  0.58709316463E+03  0.60041048920E+03  0.14413559654E+04  0.10100000352E+00 0. -1.
</event>
<event>
 5   0  0.9971923E-06  0.2742783E+04  0.7818609E-02  0.8321255E-01
        1   -1    0    0  501    0  0.00000000000E+00  0.00000000000E+00  0.15938513203E+04  0.15938513203E+04  0.50400001928E-02 0. -1.
       -1   -1    0    0    0  501  0.00000000000E+00  0.00000000000E+00 -0.11799810498E+04  0.11799810499E+04  0.50400001928E-02 0.  1.
    10030    2    1    2    0    0  0.00000000000E+00  0.00000000000E+00  0.41387027046E+03  0.27738323702E+04  0.27427827871E+04 0.  0.
        2    1    3    3  502    0 -0.10010986691E+03 -0.12349590729E+04 -0.38757031949E+03  0.12982128676E+04  0.25500000920E-02 0.  1.
       -2    1    3    3    0  502  0.10010986691E+03  0.12349590729E+04  0.80144058995E+03  0.14756195026E+04  0.25500000920E-02 0. -1.
</event>
<event>
 5   0  0.2641216E-05  0.2742634E+04  0.7818609E-02  0.8321303E-01
       -2   -1    0    0    0  501  0.00000000000E+00  0.00000000000E+00  0.85814373469E+03  0.85814373470E+03  0.25500000920E-02 0.  1.
        2   -1    0    0  501    0  0.00000000000E+00  0.00000000000E+00 -0.21913691253E+04  0.21913691253E+04  0.25500000920E-02 0. -1.
    10030    2    1    2    0    0  0.00000000000E+00  0.00000000000E+00 -0.13332253906E+04  0.30495128600E+04  0.27426335412E+04 0.  0.
        5    1    3    3  502    0 -0.77410762990E+03  0.20461051254E+03 -0.19044536352E+04  0.20659317083E+04  0.46999998093E+01 0. -1.
       -5    1    3    3    0  502  0.77410762990E+03 -0.20461051254E+03  0.57122824464E+03  0.98358115170E+03  0.46999998093E+01 0.  1.
</event>
<event>
 5   0  0.2516518E-05  0.2729686E+04  0.7818609E-02  0.8325437E-01
        2   -1    0    0  501    0  0.00000000000E+00  0.00000000000E+00  0.16335903096E+04  0.16335903096E+04  0.25500000920E-02 0. -1.
       -2   -1    0    0    0  501  0.00000000000E+00  0.00000000000E+00 -0.11403085424E+04  0.11403085424E+04  0.25500000920E-02 0.  1.
    10030    2    1    2    0    0  0.00000000000E+00  0.00000000000E+00  0.49328176718E+03  0.27738988520E+04  0.27296864177E+04 0.  0.
        4    1    3    3  502    0  0.68632711334E+03 -0.96460987455E+03 -0.44353432188E+03  0.12642157348E+04  0.12699999809E+01 0.  1.
       -4    1    3    3    0  502 -0.68632711334E+03  0.96460987455E+03  0.93681608906E+03  0.15096831171E+04  0.12699999809E+01 0. -1.
</event>
<event>
 5   0  0.1041909E-05  0.2637615E+04  0.7818609E-02  0.8355535E-01
       -1   -1    0    0    0  501  0.00000000000E+00  0.00000000000E+00  0.12036034789E+04  0.12036034789E+04  0.50400001928E-02 0.  1.
        1   -1    0    0  501    0  0.00000000000E+00  0.00000000000E+00 -0.14450387635E+04  0.14450387635E+04  0.50400001928E-02 0. -1.
    10030    2    1    2    0    0  0.00000000000E+00  0.00000000000E+00 -0.24143528466E+03  0.26486422424E+04  0.26376153494E+04 0.  0.
        5    1    3    3  502    0 -0.19895807811E+03 -0.57662106174E+03 -0.12948600796E+04  0.14313493219E+04  0.46999998093E+01 0. -1.
       -5    1    3    3    0  502  0.19895807811E+03  0.57662106174E+03  0.10534247949E+04  0.12172929205E+04  0.46999998093E+01 0.  1.
</event>
<event>
 5   0  0.1005265E-05  0.2568635E+04  0.7818609E-02  0.8378934E-01
        1   -1    0    0  501    0  0.00000000000E+00  0.00000000000E+00  0.17501638026E+04  0.17501638026E+04  0.50400001928E-02 0.  1.
       -1   -1    0    0    0  501  0.00000000000E+00  0.00000000000E+00 -0.94246712229E+03  0.94246712230E+03  0.50400001928E-02 0. -1.
    10030    2    1    2    0    0  0.00000000000E+00  0.00000000000E+00  0.80769668034E+03  0.26926309249E+04  0.25686353129E+04 0.  0.
        3    1    3    3  502    0  0.12778102449E+04 -0.12701054427E+03  0.42823352102E+03  0.13536301781E+04  0.10100000352E+00 0.  1.
       -3    1    3    3    0  502 -0.12778102449E+04  0.12701054427E+03  0.37946315932E+03  0.13390007468E+04  0.10100000352E+00 0. -1.
</event>
<event>
 5   0  0.1036691E-05  0.2711330E+04  0.7818609E-02  0.8331338E-01
       -1   -1    0    0    0  501  0.00000000000E+00  0.00000000000E+00  0.65913128633E+03  0.65913128635E+03  0.50400001928E-02 0. -1.
        1   -1    0    0  501    0  0.00000000000E+00  0.00000000000E+00 -0.27882570755E+04  0.27882570755E+04  0.50400001928E-02 0.  1.
    10030    2    1    2    0    0  0.00000000000E+00  0.00000000000E+00 -0.21291257892E+04  0.34473883619E+04  0.27113299119E+04 0.  0.
        4    1    3    3  502    0 -0.70194876982E+03  0.85393091376E+03 -0.66721630106E+02  0.11074219926E+04  0.12699999809E+01 0.  1.
       -4    1    3    3    0  502  0.70194876982E+03 -0.85393091376E+03 -0.20624041591E+04  0.23399663692E+04  0.12699999809E+01 0. -1.
</event>
<event>
 5   0  0.1041909E-05  0.2157957E+04  0.7818609E-02  0.8536134E-01
       -1   -1    0    0    0  501  0.00000000000E+00  0.00000000000E+00  0.81463352816E+03  0.81463352818E+03  0.50400001928E-02 0. -1.
        1   -1    0    0  501    0  0.00000000000E+00  0.00000000000E+00 -0.14291023323E+04  0.14291023323E+04  0.50400001928E-02 0.  1.
    10030    2    1    2    0    0  0.00000000000E+00  0.00000000000E+00 -0.61446880414E+03  0.22437358605E+04  0.21579570664E+04 0.  0.
        5    1    3    3  502    0 -0.92970667707E+03  0.37327702802E+03  0.10929201766E+03  0.10077981346E+04  0.46999998093E+01 0. -1.
       -5    1    3    3    0  502  0.92970667707E+03 -0.37327702802E+03 -0.72376082180E+03  0.12359377259E+04  0.46999998093E+01 0.  1.
</event>
<event>
 5   0  0.2540684E-05  0.2764230E+04  0.7818609E-02  0.8314460E-01
        2   -1    0    0  501    0  0.00000000000E+00  0.00000000000E+00  0.19379445334E+04  0.19379445334E+04  0.25500000920E-02 0.  1.
       -2   -1    0    0    0  501  0.00000000000E+00  0.00000000000E+00 -0.98570479734E+03  0.98570479734E+03  0.25500000920E-02 0. -1.
    10030    2    1    2    0    0  0.00000000000E+00  0.00000000000E+00  0.95223973603E+03  0.29236493307E+04  0.27642295299E+04 0.  0.
        2    1    3    3  502    0  0.10747079191E+04  0.54815161911E+03  0.11893816462E+04  0.16941357706E+04  0.25500000920E-02 0. -1.
       -2    1    3    3    0  502 -0.10747079191E+04 -0.54815161911E+03 -0.23714191014E+03  0.12295135601E+04  0.25500000920E-02 0.  1.
</event>
<event>
 5   0  0.9971923E-06  0.2455381E+04  0.7818609E-02  0.8419056E-01
       -1   -1    0    0    0  501  0.00000000000E+00  0.00000000000E+00  0.18326352900E+04  0.18326352900E+04  0.50400001928E-02 0.  1.
        1   -1    0    0  501    0  0.00000000000E+00  0.00000000000E+00 -0.82243514942E+03  0.82243514944E+03  0.50400001928E-02 0. -1.
    10030    2    1    2    0    0  0.00000000000E+00  0.00000000000E+00  0.10102001405E+04  0.26550704394E+04  0.24553807677E+04 0.  0.
        2    1    3    3  502    0 -0.11653860132E+04  0.38252908948E+03  0.56201749660E+03  0.13491911393E+04  0.25500000920E-02 0. -1.
       -2    1    3    3    0  502  0.11653860132E+04 -0.38252908948E+03  0.44818264394E+03  0.13058793001E+04  0.25500000920E-02 0.  1.
</event>
<event>
 5   0  0.2641216E-05  0.2806749E+04  0.7818609E-02  0.8301176E-01
       -2   -1    0    0    0  501  0.00000000000E+00  0.00000000000E+00  0.13262320352E+04  0.13262320352E+04  0.25500000920E-02 0. -1.
        2   -1    0    0  501    0  0.00000000000E+00  0.00000000000E+00 -0.14850037161E+04  0.14850037161E+04  0.25500000920E-02 0.  1.
    10030    2    1    2    0    0  0.00000000000E+00  0.00000000000E+00 -0.15877168094E+03  0.28112357513E+04  0.28067486533E+04 0.  0.
        5    1    3    3  502    0  0.11257860374E+03 -0.14820533244E+03  0.13138082766E+04  0.13269336985E+04  0.46999998093E+01 0. -1.
       -5    1    3    3    0  502 -0.11257860374E+03  0.14820533244E+03 -0.14725799575E+04  0.14843020528E+04  0.46999998093E+01 0.  1.
</event>
<event>
 5   0  0.1096672E-05  0.2622685E+04  0.7818609E-02  0.8360536E-01
       -1   -1    0    0    0  501  0.00000000000E+00  0.00000000000E+00  0.68782087215E+03  0.68782087217E+03  0.50400001928E-02 0. -1.
        1   -1    0    0  501    0  0.00000000000E+00  0.00000000000E+00 -0.25000967356E+04  0.25000967356E+04  0.50400001928E-02 0.  1.
    10030    2    1    2    0    0  0.00000000000E+00  0.00000000000E+00 -0.18122758634E+04  0.31879176078E+04  0.26226846682E+04 0.  0.
        1    1    3    3  502    0  0.38917816453E+03 -0.20391809584E+03 -0.24079662705E+04  0.24477221642E+04  0.50400001928E-02 0.  1.
       -1    1    3    3    0  502 -0.38917816453E+03  0.20391809584E+03  0.59569040703E+03  0.74019544352E+03  0.50400001928E-02 0. -1.
</event>
<event>
 5   0  0.2615843E-05  0.2506438E+04  0.7818609E-02  0.8400696E-01
       -2   -1    0    0    0  501  0.00000000000E+00  0.00000000000E+00  0.10632584012E+04  0.10632584012E+04  0.25500000920E-02 0.  1.
        2   -1    0    0  501    0  0.00000000000E+00  0.00000000000E+00 -0.14771179137E+04  0.14771179137E+04  0.25500000920E-02 0. -1.
    10030    2    1    2    0    0  0.00000000000E+00  0.00000000000E+00 -0.41385951251E+03  0.25403763148E+04  0.25064381351E+04 0.  0.
        3    1    3    3  502    0 -0.10963958109E+04 -0.40325430350E+03 -0.66679149267E+03  0.13451054651E+04  0.10100000352E+00 0.  1.
       -3    1    3    3    0  502  0.10963958109E+04  0.40325430350E+03  0.25293198016E+03  0.11952708497E+04  0.10100000352E+00 0. -1.
</event>
<event>
 5   0  0.2641216E-05  0.2711055E+04  0.7818609E-02  0.8331427E-01
       -2   -1    0    0    0  501  0.00000000000E+00  0.00000000000E+00  0.92033552932E+03  0.92033552932E+03  0.25500000920E-02 0.  1.
        2   -1    0    0  501    0  0.00000000000E+00  0.00000000000E+00 -0.19965055717E+04  0.19965055717E+04  0.25500000920E-02 0. -1.
    10030    2    1    2    0    0  0.00000000000E+00  0.00000000000E+00 -0.10761700423E+04  0.29168411010E+04  0.27110551541E+04 0.  0.
        5    1    3    3  502    0 -0.38257545196E+03  0.79713594526E+02 -0.19345742783E+04  0.19736559888E+04  0.46999998093E+01 0. -1.
       -5    1    3    3    0  502  0.38257545196E+03 -0.79713594526E+02  0.85840423598E+03  0.94318511223E+03  0.46999998093E+01 0.  1.
</event>
<event>
 5   0  0.2641216E-05  0.2688789E+04  0.7818609E-02  0.8338652E-01
       -2   -1    0    0    0  501  0.00000000000E+00  0.00000000000E+00  0.84915968967E+03  0.84915968968E+03  0.25500000920E-02 0.  1.
        2   -1    0    0  501    0  0.00000000000E+00  0.00000000000E+00 -0.21284533770E+04  0.21284533770E+04  0.25500000920E-02 0. -1.
    10030    2    1    2    0    0  0.00000000000E+00  0.00000000000E+00 -0.12792936874E+04  0.29776130667E+04  0.26887891767E+04 0.  0.
        5    1    3    3  502    0 -0.22623775176E+03 -0.55009719839E+03 -0.19748016326E+04  0.20624388539E+04  0.46999998093E+01 0. -1.
       -5    1    3    3    0  502  0.22623775176E+03  0.55009719839E+03  0.69550794520E+03  0.91517421283E+03  0.46999998093E+01 0.  1.
</event>
<event>
 5   0  0.2615843E-05  0.2554032E+04  0.7818609E-02  0.8383985E-01
        2   -1    0    0  501    0  0.00000000000E+00  0.00000000000E+00  0.16165131086E+04  0.16165131086E+04  0.25500000920E-02 0.  1.
       -2   -1    0    0    0  501  0.00000000000E+00  0.00000000000E+00 -0.10088194819E+04  0.10088194819E+04  0.25500000920E-02 0. -1.
    10030    2    1    2    0    0  0.00000000000E+00  0.00000000000E+00  0.60769362673E+03  0.26253325904E+04  0.25540320410E+04 0.  0.
        3    1    3    3  502    0  0.20183095311E+02  0.74693431384E+03 -0.76065610271E+03  0.10662626052E+04  0.10100000352E+00 0. -1.
       -3    1    3    3    0  502 -0.20183095311E+02 -0.74693431384E+03  0.13683497294E+04  0.15590699852E+04  0.10100000352E+00 0.  1.
</event>
<event>
 5   0  0.1096672E-05  0.2712392E+04  0.7818609E-02  0.8330995E-01
       -1   -1    0    0    0  501  0.00000000000E+00  0.00000000000E+00  0.11261398030E+04  0.11261398030E+04  0.50400001928E-02 0.  1.
        1   -1    0    0  501    0  0.00000000000E+00  0.00000000000E+00 -0.16332500076E+04  0.16332500076E+04  0.50400001928E-02 0. -1.
    10030    2    1    2    0    0  0.00000000000E+00  0.00000000000E+00 -0.50711020464E+03  0.27593898107E+04  0.27123921854E+04 0.  0.
        1    1    3    3  502    0  0.86381169531E+03  0.50982537601E+03  0.67504507146E+03  0.12090402837E+04  0.50400001928E-02 0.  1.
       -1    1    3    3    0  502 -0.86381169531E+03 -0.50982537601E+03 -0.11821552761E+04  0.15503495270E+04  0.50400001928E-02 0. -1.
</event>
<event>
 5   0  0.9971923E-06  0.2320964E+04  0.7818609E-02  0.8469701E-01
        1   -1    0    0  501    0  0.00000000000E+00  0.00000000000E+00  0.16579131550E+04  0.16579131550E+04  0.50400001928E-02 0. -1.
       -1   -1    0    0    0  501  0.00000000000E+00  0.00000000000E+00 -0.81229749619E+03  0.81229749620E+03  0.50400001928E-02 0.  1.
    10030    2    1    2    0    0  0.00000000000E+00  0.00000000000E+00  0.84561565885E+03  0.24702106512E+04  0.23209642003E+04 0.  0.
        2    1    3    3  502    0 -0.63875088192E+03 -0.80227516252E+03 -0.15532615983E+03  0.10371954211E+04  0.25500000920E-02 0.  1.
       -2    1    3    3    0  502  0.63875088192E+03  0.80227516252E+03  0.10009418187E+04  0.14330152302E+04  0.25500000920E-02 0. -1.
</event>
<event>
 5   0  0.1041909E-05  0.1985223E+04  0.7818609E-02  0.8613561E-01
       -1   -1    0    0    0  501  0.00000000000E+00  0.00000000000E+00  0.10730555597E+04  0.10730555597E+04  0.50400001928E-02 0. -1.
        1   -1    0    0  501    0  0.00000000000E+00  0.00000000000E+00 -0.91819821507E+03  0.91819821508E+03  0.50400001928E-02 0.  1.
    10030    2    1    2    0    0  0.00000000000E+00  0.00000000000E+00  0.15485734460E+03  0.19912537748E+04  0.19852231105E+04 0.  0.
        5    1    3    3  502    0  0.44202324728E+03 -0.88669134611E+03  0.13802340540E+03  0.10003392649E+04  0.46999998093E+01 0. -1.
       -5    1    3    3    0  502 -0.44202324728E+03  0.88669134611E+03  0.16833939204E+02  0.99091450989E+03  0.46999998093E+01 0.  1.
</event>
<event>
 5   0  0.2540684E-05  0.2649589E+04  0.7818609E-02  0.8351549E-01
       -2   -1    0    0    0  501  0.00000000000E+00  0.00000000000E+00  0.17687394788E+04  0.17687394788E+04  0.25500000920E-02 0. -1.
        2   -1    0    0  501    0  0.00000000000E+00  0.00000000000E+00 -0.99227785599E+03  0.99227785599E+03  0.25500000920E-02 0.  1.
    10030    2    1    2    0    0  0.00000000000E+00  0.00000000000E+00  0.77646162284E+03  0.27610173348E+04  0.26495894156E+04 0.  0.
        2    1    3    3  502    0  0.62206889787E+03 -0.70573192745E+03  0.13602248356E+04  0.16538557587E+04  0.25500000920E-02 0. -1.
       -2    1    3    3    0  502 -0.62206889787E+03  0.70573192745E+03 -0.58376321275E+03  0.11071615761E+04  0.25500000920E-02 0.  1.
</event>
<event>
 5   0  0.1005265E-05  0.2733781E+04  0.7818609E-02  0.8324127E-01
        1   -1    0    0  501    0  0.00000000000E+00  0.00000000000E+00  0.10532387519E+04  0.10532387519E+04  0.50400001928E-02 0. -1.
       -1   -1    0    0    0  501  0.00000000000E+00  0.00000000000E+00 -0.17739474069E+04  0.17739474069E+04  0.50400001928E-02 0.  1.
    10030    2    1    2    0    0  0.00000000000E+00  0.00000000000E+00 -0.72070865507E+03  0.28271861588E+04  0.27337813759E+04 0.  0.
        3    1    3    3  502    0  0.27650048678E+03  0.12735743239E+04  0.65975955007E+02  0.13049126080E+04  0.10100000352E+00 0.  1.
       -3    1    3    3    0  502 -0.27650048678E+03 -0.12735743239E+04 -0.78668461008E+03  0.15222735508E+04  0.10100000352E+00 0. -1.
</event>
<event>
 5   0  0.1036691E-05  0.2687974E+04  0.7818609E-02  0.8338918E-01
        1   -1    0    0  501    0  0.00000000000E+00  0.00000000000E+00  0.16934287306E+04  0.16934287306E+04  0.50400001928E-02 0.  1.
       -1   -1    0    0    0  501  0.00000000000E+00  0.00000000000E+00 -0.10666527974E+04  0.10666527974E+04  0.50400001928E-02 0. -1.
    10030    2    1    2    0    0  0.00000000000E+00  0.00000000000E+00  0.62677593320E+03  0.27600815281E+04  0.26879735808E+04 0.  0.
        4    1    3    3  502    0 -0.49939842500E+03 -0.10749551059E+04 -0.33714639580E+03  0.12323135038E+04  0.12699999809E+01 0. -1.
       -4    1    3    3    0  502  0.49939842500E+03  0.10749551059E+04  0.96392232899E+03  0.15277680242E+04  0.12699999809E+01 0.  1.
</event>
<event>
 5   0  0.2516518E-05  0.2753382E+04  0.7818609E-02  0.8317889E-01
        2   -1    0    0  501    0  0.00000000000E+00  0.00000000000E+00  0.12463143529E+04  0.12463143529E+04  0.25500000920E-02 0.  1.
       -2   -1    0    0    0  501  0.00000000000E+00  0.00000000000E+00 -0.15207064760E+04  0.15207064760E+04  0.25500000920E-02 0. -1.
    10030    2    1    2    0    0  0.00000000000E+00  0.00000000000E+00 -0.27439212312E+03  0.27670208289E+04  0.27533821439E+04 0.  0.
        4    1    3    3  502    0 -0.99735668438E+03 -0.51467896255E+03 -0.93842943228E+03  0.14629648672E+04  0.12699999809E+01 0. -1.
       -4    1    3    3    0  502  0.99735668438E+03  0.51467896255E+03  0.66403730916E+03  0.13040559617E+04  0.12699999809E+01 0.  1.
</event>
<event>
 5   0  0.1036691E-05  0.2639063E+04  0.7818609E-02  0.8355052E-01
        1   -1    0    0  501    0  0.00000000000E+00  0.00000000000E+00  0.11150246180E+04  0.11150246180E+04  0.50400001928E-02 0. -1.
       -1   -1    0    0    0  501  0.00000000000E+00  0.00000000000E+00 -0.15615475923E+04  0.15615475923E+04  0.50400001928E-02 0.  1.
    10030    2    1    2    0    0  0.00000000000E+00  0.00000000000E+00 -0.44652297429E+03  0.26765722104E+04  0.26390634761E+04 0.  0.
        4    1    3    3  502    0  0.59900800691E+03  0.28167812900E+03 -0.13809797255E+04  0.15314241006E+04  0.12699999809E+01 0.  1.
       -4    1    3    3    0  502 -0.59900800691E+03 -0.28167812900E+03  0.93445675119E+03  0.11451481098E+04  0.12699999809E+01 0. -1.
</event>
<event>
 5   0  0.1036691E-05  0.1843578E+04  0.7818609E-02  0.8683462E-01
       -1   -1    0    0    0  501  0.00000000000E+00  0.00000000000E+00  0.44019830103E+03  0.44019830106E+03  0.50400001928E-02 0. -1.
        1   -1    0    0  501    0  0.00000000000E+00  0.00000000000E+00 -0.19302546490E+04  0.19302546490E+04  0.50400001928E-02 0.  1.
    10030    2    1    2    0    0  0.00000000000E+00  0.00000000000E+00 -0.14900563479E+04  0.23704529500E+04  0.18435778444E+04 0.  0.
        4    1    3    3  502    0  0.24216271455E+03 -0.56468749283E+02 -0.18863151334E+04  0.19026344618E+04  0.12699999809E+01 0.  1.
       -4    1    3    3    0  502 -0.24216271455E+03  0.56468749283E+02  0.39625878546E+03  0.46781848821E+03  0.12699999809E+01 0. -1.
</event>
<event>
 5   0  0.1096672E-05  0.2432627E+04  0.7818609E-02  0.8427388E-01
       -1   -1    0    0    0  501  0.00000000000E+00  0.00000000000E+00  0.13175447142E+04  0.13175447142E+04  0.50400001928E-02 0. -1.
        1   -1    0    0  501    0  0.00000000000E+00  0.00000000000E+00 -0.11228606177E+04  0.11228606177E+04  0.50400001928E-02 0.  1.
    10030    2    1    2    0    0  0.00000000000E+00  0.00000000000E+00  0.19468409651E+03  0.24404053319E+04  0.24326274451E+04 0.  0.
        1    1    3    3  502    0  0.17348618430E+03 -0.13087865040E+03  0.12979108253E+04  0.13159784146E+04  0.50400001928E-02 0. -1.
       -1    1    3    3    0  502 -0.17348618430E+03  0.13087865040E+03 -0.11032267288E+04  0.11244269173E+04  0.50400001928E-02 0.  1.
</event>
<event>
 5   0  0.2540232E-05  0.1956413E+04  0.7818609E-02  0.8627274E-01
        2   -1    0    0  501    0  0.00000000000E+00  0.00000000000E+00  0.14974562619E+04  0.14974562619E+04  0.25500000920E-02 0.  1.
       -2   -1    0    0    0  501  0.00000000000E+00  0.00000000000E+00 -0.63900918393E+03  0.63900918393E+03  0.25500000920E-02 0. -1.
    10030    2    1    2    0    0  0.00000000000E+00  0.00000000000E+00  0.85844707795E+03  0.21364654458E+04  0.19564133550E+04 0.  0.
        1    1    3    3  502    0  0.23068349987E+03 -0.17470192204E+03  0.14496467914E+04  0.14782460751E+04  0.50400001928E-02 0.  1.
       -1    1    3    3    0  502 -0.23068349987E+03  0.17470192204E+03 -0.59119971349E+03  0.65821937068E+03  0.50400001928E-02 0. -1.
</event>
<event>
 5   0  0.1005265E-05  0.2639598E+04  0.7818609E-02  0.8354874E-01
       -1   -1    0    0    0  501  0.00000000000E+00  0.00000000000E+00  0.93611007307E+03  0.93611007308E+03  0.50400001928E-02 0. -1.
        1   -1    0    0  501    0  0.00000000000E+00  0.00000000000E+00 -0.18607529804E+04  0.18607529804E+04  0.50400001928E-02 0.  1.
    10030    2    1    2    0    0  0.00000000000E+00  0.00000000000E+00 -0.92464290736E+03  0.27968630535E+04  0.26395981577E+04 0.  0.
        3    1    3    3  502    0  0.88630206629E+03 -0.62844529939E+02 -0.14963690456E+04  0.17402876539E+04  0.10100000352E+00 0.  1.
       -3    1    3    3    0  502 -0.88630206629E+03  0.62844529939E+02  0.57172613824E+03  0.10565753996E+04  0.10100000352E+00 0. -1.
</event>
<event>
 5   0  0.2540684E-05  0.2696126E+04  0.7818609E-02  0.8336263E-01
       -2   -1    0    0    0  501  0.00000000000E+00  0.00000000000E+00  0.10821072345E+04  0.10821072345E+04  0.25500000920E-02 0. -1.
        2   -1    0    0  501    0  0.00000000000E+00  0.00000000000E+00 -0.16793840661E+04  0.16793840661E+04  0.25500000920E-02 0.  1.
    10030    2    1    2    0    0  0.00000000000E+00  0.00000000000E+00 -0.59727683163E+03  0.27614913006E+04  0.26961258483E+04 0.  0.
        2    1    3    3  502    0  0.55313695715E+03 -0.42692437782E+02 -0.15570384251E+04  0.16529221987E+04  0.25500000920E-02 0.  1.
       -2    1    3    3    0  502 -0.55313695715E+03  0.42692437782E+02  0.95976159346E+03  0.11085691020E+04  0.25500000920E-02 0. -1.
</event>
<event>
 5   0  0.2615843E-05  0.2692773E+04  0.7818609E-02  0.8337354E-01
        2   -1    0    0  501    0  0.00000000000E+00  0.00000000000E+00  0.17160406236E+04  0.17160406236E+04  0.25500000920E-02 0. -1.
       -2   -1    0    0    0  501  0.00000000000E+00  0.00000000000E+00 -0.10563601369E+04  0.10563601369E+04  0.25500000920E-02 0.  1.
    10030    2    1    2    0    0  0.00000000000E+00  0.00000000000E+00  0.65968048664E+03  0.27724007605E+04  0.26927732234E+04 0.  0.
        3    1    3    3  502    0  0.14180788640E+03 -0.12507421244E+04  0.82176780581E+03  0.15032523658E+04  0.10100000352E+00 0.  1.
       -3    1    3    3    0  502 -0.14180788640E+03  0.12507421244E+04 -0.16208731916E+03  0.12691483947E+04  0.10100000352E+00 0. -1.
</event>
<event>
 5   0  0.8740500E-06  0.2137024E+04  0.7818609E-02  0.8545107E-01
       -3   -1    0    0    0  501  0.00000000000E+00  0.00000000000E+00  0.11421614450E+04  0.11421614494E+04  0.10100000352E+00 0.  1.
        3   -1    0    0  501    0  0.00000000000E+00  0.00000000000E+00 -0.99961150327E+03  0.99961150837E+03  0.10100000352E+00 0. -1.
    10030    2    1    2    0    0  0.00000000000E+00  0.00000000000E+00  0.14254994168E+03  0.21417729578E+04  0.21370238456E+04 0.  0.
        5    1    3    3  502    0 -0.10260238678E+04 -0.29794959321E+03  0.57218760919E+02  0.10699509400E+04  0.46999998093E+01 0.  1.
       -5    1    3    3    0  502  0.10260238678E+04  0.29794959321E+03  0.85331180764E+02  0.10718220178E+04  0.46999998093E+01 0. -1.
</event>
<event>
 5   0  0.1041909E-05  0.2694062E+04  0.7818609E-02  0.8336934E-01
        1   -1    0    0  501    0  0.00000000000E+00  0.00000000000E+00  0.11540686368E+04  0.11540686368E+04  0.50400001928E-02 0.  1.
       -1   -1    0    0    0  501  0.00000000000E+00  0.00000000000E+00 -0.15722575662E+04  0.15722575662E+04  0.50400001928E-02 0. -1.
    10030    2    1    2    0    0  0.00000000000E+00  0.00000000000E+00 -0.41818892940E+03  0.27263262029E+04  0.26940624685E+04 0.  0.
        5    1    3    3  502    0 -0.10185394122E+04 -0.39187346208E+03  0.58997164563E+03  0.12405950093E+04  0.46999998093E+01 0.  1.
       -5    1    3    3    0  502  0.10185394122E+04  0.39187346208E+03 -0.10081605750E+04  0.14857311936E+04  0.46999998093E+01 0. -1.
</event>
<event>
 5   0  0.2516518E-05  0.2664625E+04  0.7818609E-02  0.8346575E-01
       -2   -1    0    0    0  501  0.00000000000E+00  0.00000000000E+00  0.70216991741E+03  0.70216991741E+03  0.25500000920E-02 0.  1.
        2   -1    0    0  501    0  0.00000000000E+00  0.00000000000E+00 -0.25279592179E+04  0.25279592179E+04  0.25500000920E-02 0. -1.
    10030    2    1    2    0    0  0.00000000000E+00  0.00000000000E+00 -0.18257893005E+04  0.32301291353E+04  0.26646252384E+04 0.  0.
        4    1    3    3  502    0  0.58192906431E+03  0.11539000867E+04 -0.52022223832E+03  0.13931114945E+04  0.12699999809E+01 0. -1.
       -4    1    3    3    0  502 -0.58192906431E+03 -0.11539000867E+04 -0.13055670621E+04  0.18370176408E+04  0.12699999809E+01 0.  1.
</event>
<event>
 5   0  0.2516518E-05  0.2710471E+04  0.7818609E-02  0.8331615E-01
        2   -1    0    0  501    0  0.00000000000E+00  0.00000000000E+00  0.12018458040E+04  0.12018458040E+04  0.25500000920E-02 0. -1.
       -2   -1    0    0    0  501  0.00000000000E+00  0.00000000000E+00 -0.15282022623E+04  0.15282022623E+04  0.25500000920E-02 0.  1.
    10030    2    1    2    0    0  0.00000000000E+00  0.00000000000E+00 -0.32635645830E+03  0.27300480664E+04  0.27104711596E+04 0.  0.
        4    1    3    3  502    0  0.21941415625E+03 -0.20827237878E+03  0.11674014202E+04  0.12059633678E+04  0.12699999809E+01 0. -1.
       -4    1    3    3    0  502 -0.21941415625E+03  0.20827237878E+03 -0.14937578785E+04  0.15240846985E+04  0.12699999809E+01 0.  1.
</event>
<event>
 5   0  0.2540684E-05  0.2683930E+04  0.7818609E-02  0.8340238E-01
       -2   -1    0    0    0  501  0.00000000000E+00  0.00000000000E+00  0.12184972903E+04  0.12184972903E+04  0.25500000920E-02 0.  1.
        2   -1    0    0  501    0  0.00000000000E+00  0.00000000000E+00 -0.14779435964E+04  0.14779435964E+04  0.25500000920E-02 0. -1.
    10030    2    1    2    0    0  0.00000000000E+00  0.00000000000E+00 -0.25944630610E+03  0.26964408866E+04  0.26839301536E+04 0.  0.
        2    1    3    3  502    0  0.11088196693E+04  0.52762455326E+03 -0.67354248882E+03  0.14005456838E+04  0.25500000920E-02 0. -1.
       -2    1    3    3    0  502 -0.11088196693E+04 -0.52762455326E+03  0.41409618272E+03  0.12958952028E+04  0.25500000920E-02 0.  1.
</event>
<event>
 5   0  0.1041909E-05  0.2668214E+04  0.7818609E-02  0.8345393E-01
        1   -1    0    0  501    0  0.00000000000E+00  0.00000000000E+00  0.12658685081E+04  0.12658685081E+04  0.50400001928E-02 0. -1.
       -1   -1    0    0    0  501  0.00000000000E+00  0.00000000000E+00 -0.14060236921E+04  0.14060236921E+04  0.50400001928E-02 0.  1.
    10030    2    1    2    0    0  0.00000000000E+00  0.00000000000E+00 -0.14015518403E+03  0.26718922002E+04  0.26682137196E+04 0.  0.
        5    1    3    3  502    0 -0.45898286330E+03 -0.48985504828E+03  0.10844193772E+04  0.12753864955E+04  0.46999998093E+01 0. -1.
       -5    1    3    3    0  502  0.45898286330E+03  0.48985504828E+03 -0.12245745613E+04  0.13965057047E+04  0.46999998093E+01 0.  1.
</event>
<event>
 5   0  0.2615843E-05  0.2666063E+04  0.7818609E-02  0.8346101E-01
       -2   -1    0    0    0  501  0.00000000000E+00  0.00000000000E+00  0.12208911891E+04  0.12208911891E+04  0.25500000920E-02 0. -1.
        2   -1    0    0  501    0  0.00000000000E+00  0.00000000000E+00 -0.14554721785E+04  0.14554721785E+04  0.25500000920E-02 0.  1.
    10030    2    1    2    0    0  0.00000000000E+00  0.00000000000E+00 -0.23458098937E+03  0.26763633676E+04  0.26660631341E+04 0.  0.
        3    1    3    3  502    0  0.13303463365E+04 -0.16867625524E+02 -0.20047956854E+03  0.13454731359E+04  0.10100000352E+00 0.  1.
       -3    1    3    3    0  502 -0.13303463365E+04  0.16867625524E+02 -0.34101420827E+02  0.13308902317E+04  0.10100000352E+00 0. -1.
</event>
<event>
 5   0  0.8740500E-06  0.2597800E+04  0.7818609E-02  0.8368949E-01
        3   -1    0    0  501    0  0.00000000000E+00  0.00000000000E+00  0.36050451534E+04  0.36050451548E+04  0.10100000352E+00 0.  1.
       -3   -1    0    0    0  501  0.00000000000E+00  0.00000000000E+00 -0.46799441552E+03  0.46799442642E+03  0.10100000352E+00 0. -1.
    10030    2    1    2    0    0  0.00000000000E+00  0.00000000000E+00  0.31370507379E+04  0.40730395812E+04  0.25977998572E+04 0.  0.
        4    1    3    3  502    0 -0.55452283045E+03  0.66495463328E+03  0.50448520166E+02  0.86729862210E+03  0.12699999809E+01 0. -1.
       -4    1    3    3    0  502  0.55452283045E+03 -0.66495463328E+03  0.30866022177E+04  0.32057409591E+04  0.12699999809E+01 0.  1.
</event>
<event>
 5   0  0.1005265E-05  0.2704840E+04  0.7818609E-02  0.8333436E-01
        1   -1    0    0  501    0  0.00000000000E+00  0.00000000000E+00  0.27920005897E+04  0.27920005897E+04  0.50400001928E-02 0.  1.
       -1   -1    0    0    0  501  0.00000000000E+00  0.00000000000E+00 -0.65510010153E+03  0.65510010155E+03  0.50400001928E-02 0. -1.
    10030    2    1    2    0    0  0.00000000000E+00  0.00000000000E+00  0.21369004882E+04  0.34471006912E+04  0.27048400099E+04 0.  0.
        3    1    3    3  502    0  0.55536498270E+03 -0.12217635100E+04  0.12813336913E+04  0.18555194359E+04  0.10100000352E+00 0. -1.
       -3    1    3    3    0  502 -0.55536498270E+03  0.12217635100E+04  0.85556679682E+03  0.15915812553E+04  0.10100000352E+00 0.  1.
</event>
<event>
 5   0  0.8740500E-06  0.2656886E+04  0.7818609E-02  0.8349131E-01
       -3   -1    0    0    0  501  0.00000000000E+00  0.00000000000E+00  0.15279622328E+04  0.15279622361E+04  0.10100000352E+00 0. -1.
        3   -1    0    0  501    0  0.00000000000E+00  0.00000000000E+00 -0.11549766878E+04  0.11549766922E+04  0.10100000352E+00 0.  1.
    10030    2    1    2    0    0  0.00000000000E+00  0.00000000000E+00  0.37298554502E+03  0.26829389284E+04  0.26568859736E+04 0.  0.
        1    1    3    3  502    0 -0.73618338789E+03 -0.16603661730E+03 -0.91749179209E+03  0.11879921412E+04  0.50400001928E-02 0.  1.
       -1    1    3    3    0  502  0.73618338789E+03  0.16603661730E+03  0.12904773371E+04  0.14949467872E+04  0.50400001928E-02 0. -1.
</event>
<event>
 5   0  0.2516518E-05  0.2643775E+04  0.7818609E-02  0.8353482E-01
       -2   -1    0    0    0  501  0.00000000000E+00  0.00000000000E+00  0.91008385670E+03  0.91008385670E+03  0.25500000920E-02 0. -1.
        2   -1    0    0  501    0  0.00000000000E+00  0.00000000000E+00 -0.19200274950E+04  0.19200274951E+04  0.25500000920E-02 0.  1.
    10030    2    1    2    0    0  0.00000000000E+00  0.00000000000E+00 -0.10099436384E+04  0.28301113518E+04  0.26437745953E+04 0.  0.
        4    1    3    3  502    0  0.61228941646E+03 -0.11004246035E+04 -0.93523577766E+03  0.15685981672E+04  0.12699999809E+01 0.  1.
       -4    1    3    3    0  502 -0.61228941646E+03  0.11004246035E+04 -0.74707860698E+02  0.12615131845E+04  0.12699999809E+01 0. -1.
</event>
<event>
 5   0  0.1036691E-05  0.2631164E+04  0.7818609E-02  0.8357692E-01
        1   -1    0    0  501    0  0.00000000000E+00  0.00000000000E+00  0.14939645605E+04  0.14939645605E+04  0.50400001928E-02 0. -1.
       -1   -1    0    0    0  501  0.00000000000E+00  0.00000000000E+00 -0.11584985348E+04  0.11584985348E+04  0.50400001928E-02 0.  1.
    10030    2    1    2    0    0  0.00000000000E+00  0.00000000000E+00  0.33546602575E+03  0.26524630953E+04  0.26311638143E+04 0.  0.
        4    1    3    3  502    0  0.86754919316E+02 -0.11342060198E+04 -0.49852888796E+03  0.12419671399E+04  0.12699999809E+01 0.  1.
       -4    1    3    3    0  502 -0.86754919316E+02  0.11342060198E+04  0.83399491371E+03  0.14104959555E+04  0.12699999809E+01 0. -1.
</event>
<event>
 5   0  0.1005265E-05  0.2729840E+04  0.7818609E-02  0.8325387E-01
        1   -1    0    0  501    0  0.00000000000E+00  0.00000000000E+00  0.12997860253E+04  0.12997860253E+04  0.50400001928E-02 0.  1.
       -1   -1    0    0    0  501  0.00000000000E+00  0.00000000000E+00 -0.14333177313E+04  0.14333177314E+04  0.50400001928E-02 0. -1.
    10030    2    1    2    0    0  0.00000000000E+00  0.00000000000E+00 -0.13353170604E+03  0.27331037567E+04  0.27298398173E+04 0.  0.
        3    1    3    3  502    0  0.21611475340E+03 -0.84872593578E+03 -0.11149010539E+04  0.14177607946E+04  0.10100000352E+00 0. -1.
       -3    1    3    3    0  502 -0.21611475340E+03  0.84872593578E+03  0.98136934783E+03  0.13153429620E+04  0.10100000352E+00 0.  1.
</event>
<event>
 5   0  0.2540684E-05  0.2650476E+04  0.7818609E-02  0.8351255E-01
        2   -1    0    0  501    0  0.00000000000E+00  0.00000000000E+00  0.12917746750E+04  0.12917746750E+04  0.25500000920E-02 0. -1.
       -2   -1    0    0    0  501  0.00000000000E+00  0.00000000000E+00 -0.13595681625E+04  0.13595681625E+04  0.25500000920E-02 0.  1.
    10030    2    1    2    0    0  0.00000000000E+00  0.00000000000E+00 -0.67793487506E+02  0.26513428375E+04  0.26504759733E+04 0.  0.
        2    1    3    3  502    0 -0.10418133020E+04  0.74198353916E+03  0.31311899507E+03  0.13167984028E+04  0.25500000920E-02 0. -1.
       -2    1    3    3    0  502  0.10418133020E+04 -0.74198353916E+03 -0.38091248257E+03  0.13345444346E+04  0.25500000920E-02 0.  1.
</event>
<event>
 5   0  0.1005265E-05  0.2682791E+04  0.7818609E-02  0.8340610E-01
        1   -1    0    0  501    0  0.00000000000E+00  0.00000000000E+00  0.25394709070E+04  0.25394709071E+04  0.50400001928E-02 0.  1.
       -1   -1    0    0    0  501  0.00000000000E+00  0.00000000000E+00 -0.70854979804E+03  0.70854979806E+03  0.50400001928E-02 0. -1.
    10030    2    1    2    0    0  0.00000000000E+00  0.00000000000E+00  0.18309211090E+04  0.32480207051E+04  0.26827907845E+04 0.  0.
        3    1    3    3  502    0  0.11056810404E+04  0.13701169188E+03  0.11052982846E+02  0.11141925083E+04  0.10100000352E+00 0. -1.
       -3    1    3    3    0  502 -0.11056810404E+04 -0.13701169188E+03  0.18198681262E+04  0.21338281968E+04  0.10100000352E+00 0.  1.
</event>
<event>
 5   0  0.2516518E-05  0.2682891E+04  0.7818609E-02  0.8340578E-01
       -2   -1    0    0    0  501  0.00000000000E+00  0.00000000000E+00  0.14697924243E+04  0.14697924243E+04  0.25500000920E-02 0.  1.
        2   -1    0    0  501    0  0.00000000000E+00  0.00000000000E+00 -0.12243059561E+04  0.12243059561E+04  0.25500000920E-02 0. -1.
    10030    2    1    2    0    0  0.00000000000E+00  0.00000000000E+00  0.24548646818E+03  0.26940983803E+04  0.26828906942E+04 0.  0.
        4    1    3    3  502    0 -0.10806486943E+04  0.64486774276E+03  0.58924608659E+03  0.13895569688E+04  0.12699999809E+01 0.  1.
       -4    1    3    3    0  502  0.10806486943E+04 -0.64486774276E+03 -0.34375961841E+03  0.13045414115E+04  0.12699999809E+01 0. -1.
</event>
<event>
 5   0  0.2540232E-05  0.2661335E+04  0.7818609E-02  0.8347661E-01
        2   -1    0    0  501    0  0.00000000000E+00  0.00000000000E+00  0.15832646217E+04  0.15832646217E+04  0.25500000920E-02 0. -1.
       -2   -1    0    0    0  501  0.00000000000E+00  0.00000000000E+00 -0.11183700071E+04  0.11183700071E+04  0.25500000920E-02 0.  1.
    10030    2    1    2    0    0  0.00000000000E+00  0.00000000000E+00  0.46489461460E+03  0.27016346289E+04  0.26613347526E+04 0.  0.
        1    1    3    3  502    0  0.31710262274E+03 -0.11469581944E+04  0.83695478281E+03  0.14548403629E+04  0.50400001928E-02 0. -1.
       -1    1    3    3    0  502 -0.31710262274E+03  0.11469581944E+04 -0.37206016821E+03  0.12467942660E+04  0.50400001928E-02 0.  1.
</event>
<event>
 5   0  0.2540232E-05  0.2856635E+04  0.7818609E-02  0.8285898E-01
        2   -1    0    0  501    0  0.00000000000E+00  0.00000000000E+00  0.25271622845E+04  0.25271622845E+04  0.25500000920E-02 0. -1.
       -2   -1    0    0    0  501  0.00000000000E+00  0.00000000000E+00 -0.80726532054E+03  0.80726532054E+03  0.25500000920E-02 0.  1.
    10030    2    1    2    0    0  0.00000000000E+00  0.00000000000E+00  0.17198969640E+04  0.33344276050E+04  0.28566347135E+04 0.  0.
        1    1    3    3  502    0 -0.12338506803E+03 -0.13909590753E+04  0.12103190743E+04  0.18479348705E+04  0.50400001928E-02 0. -1.
       -1    1    3    3    0  502  0.12338506803E+03  0.13909590753E+04  0.50957788966E+03  0.14864927345E+04  0.50400001928E-02 0.  1.
</event>
<event>
 5   0  0.2615843E-05  0.2623071E+04  0.7818609E-02  0.8360406E-01
       -2   -1    0    0    0  501  0.00000000000E+00  0.00000000000E+00  0.26273150249E+04  0.26273150249E+04  0.25500000920E-02 0. -1.
        2   -1    0    0  501    0  0.00000000000E+00  0.00000000000E+00 -0.65470849435E+03  0.65470849436E+03  0.25500000920E-02 0.  1.
    10030    2    1    2    0    0  0.00000000000E+00  0.00000000000E+00  0.19726065306E+04  0.32820235193E+04  0.26230710735E+04 0.  0.
        3    1    3    3  502    0 -0.11889128899E+04  0.52885124624E+03  0.11916242349E+04  0.17644165686E+04  0.10100000352E+00 0.  1.
       -3    1    3    3    0  502  0.11889128899E+04 -0.52885124624E+03  0.78098229568E+03  0.15176069507E+04  0.10100000352E+00 0. -1.
</event>
<event>
 5   0  0.2641216E-05  0.2699237E+04  0.7818609E-02  0.8335253E-01
        2   -1    0    0  501    0  0.00000000000E+00  0.00000000000E+00  0.14349832381E+04  0.14349832381E+04  0.25500000920E-02 0.  1.
       -2   -1    0    0    0  501  0.00000000000E+00  0.00000000000E+00 -0.12693318118E+04  0.12693318118E+04  0.25500000920E-02 0. -1.
    10030    2    1    2    0    0  0.00000000000E+00  0.00000000000E+00  0.16565142633E+03  0.27043150499E+04  0.26992368355E+04 0.  0.
        5    1    3    3  502    0  0.96949679403E+03 -0.70482698796E+03  0.70426895391E+03  0.13902237108E+04  0.46999998093E+01 0.  1.
       -5    1    3    3    0  502 -0.96949679403E+03  0.70482698796E+03 -0.53861752757E+03  0.13140913391E+04  0.46999998093E+01 0. -1.
</event>
<event>
 5   0  0.1005265E-05  0.2913145E+04  0.7818609E-02  0.8268977E-01
        1   -1    0    0  501    0  0.00000000000E+00  0.00000000000E+00  0.15269395661E+04  0.15269395661E+04  0.50400001928E-02 0.  1.
       -1   -1    0    0    0  501  0.00000000000E+00  0.00000000000E+00 -0.13894478221E+04  0.13894478221E+04  0.50400001928E-02 0. -1.
    10030    2    1    2    0    0  0.00000000000E+00  0.00000000000E+00  0.13749174399E+03  0.29163873882E+04  0.29131445928E+04 0.  0.
        3    1    3    3  502    0  0.11911704660E+03  0.13044069725E+04 -0.56909475942E+03  0.14281229905E+04  0.10100000352E+00 0. -1.
       -3    1    3    3    0  502 -0.11911704660E+03 -0.13044069725E+04  0.70658650341E+03  0.14882643977E+04  0.10100000352E+00 0.  1.
</event>
<event>
 5   0  0.1036691E-05  0.2745937E+04  0.7818609E-02  0.8320252E-01
        1   -1    0    0  501    0  0.00000000000E+00  0.00000000000E+00  0.20016021841E+04  0.20016021841E+04  0.50400001928E-02 0.  1.
       -1   -1    0    0    0  501  0.00000000000E+00  0.00000000000E+00 -0.94176648751E+03  0.94176648753E+03  0.50400001928E-02 0. -1.
    10030    2    1    2    0    0  0.00000000000E+00  0.00000000000E+00  0.10598356966E+04  0.29433686716E+04  0.27459365312E+04 0.  0.
        4    1    3    3  502    0 -0.45992620204E+03  0.12202155710E+04  0.69397363704E+02  0.13058620747E+04  0.12699999809E+01 0. -1.
       -4    1    3    3    0  502  0.45992620204E+03 -0.12202155710E+04  0.99043833290E+03  0.16375065970E+04  0.12699999809E+01 0.  1.
</event>
<event>
 5   0  0.2516518E-05  0.2705063E+04  0.7818609E-02  0.8333364E-01
        2   -1    0    0  501    0  0.00000000000E+00  0.00000000000E+00  0.12354935031E+04  0.12354935031E+04  0.25500000920E-02 0. -1.
       -2   -1    0    0    0  501  0.00000000000E+00  0.00000000000E+00 -0.14806560575E+04  0.14806560575E+04  0.25500000920E-02 0.  1.
    10030    2    1    2    0    0  0.00000000000E+00  0.00000000000E+00 -0.24516255435E+03  0.27161495606E+04  0.27050626162E+04 0.  0.
        4    1    3    3  502    0 -0.49839642417E+03  0.48646512436E+02 -0.13841438881E+04  0.14719447662E+04  0.12699999809E+01 0.  1.
       -4    1    3    3    0  502  0.49839642417E+03 -0.48646512436E+02  0.11389813338E+04  0.12442047944E+04  0.12699999809E+01 0. -1.
</event>
<event>
 5   0  0.1005265E-05  0.2733744E+04  0.7818609E-02  0.8324139E-01
       -1   -1    0    0    0  501  0.00000000000E+00  0.00000000000E+00  0.10042946923E+04  0.10042946923E+04  0.50400001928E-02 0. -1.
        1   -1    0    0  501    0  0.00000000000E+00  0.00000000000E+00 -0.18603490033E+04  0.18603490033E+04  0.50400001928E-02 0.  1.
    10030    2    1    2    0    0  0.00000000000E+00  0.00000000000E+00 -0.85605431102E+03  0.28646436957E+04  0.27337436822E+04 0.  0.
        3    1    3    3  502    0  0.16718861593E+03 -0.72414355343E+03 -0.16301288518E+04  0.17915512839E+04  0.10100000352E+00 0.  1.
       -3    1    3    3    0  502 -0.16718861593E+03  0.72414355343E+03  0.77407454078E+03  0.10730924117E+04  0.10100000352E+00 0. -1.
</event>
<event>
 5   0  0.9971923E-06  0.2670413E+04  0.7818609E-02  0.8344669E-01
       -1   -1    0    0    0  501  0.00000000000E+00  0.00000000000E+00  0.11348735631E+04  0.11348735631E+04  0.50400001928E-02 0.  1.
        1   -1    0    0  501    0  0.00000000000E+00  0.00000000000E+00 -0.15709034524E+04  0.15709034524E+04  0.50400001928E-02 0. -1.
    10030    2    1    2    0    0  0.00000000000E+00  0.00000000000E+00 -0.43602988925E+03  0.27057770155E+04  0.26704133001E+04 0.  0.
        2    1    3    3  502    0 -0.11009593272E+04 -0.36195414934E+03 -0.88986028270E+03  0.14611548751E+04  0.25500000920E-02 0. -1.
       -2    1    3    3    0  502  0.11009593272E+04  0.36195414934E+03  0.45383039346E+03  0.12446221404E+04  0.25500000920E-02 0.  1.
</event>
<event>
 5   0  0.1005265E-05  0.2739222E+04  0.7818609E-02  0.8322390E-01
       -1   -1    0    0    0  501  0.00000000000E+00  0.00000000000E+00  0.14159087970E+04  0.14159087970E+04  0.50400001928E-02 0. -1.
        1   -1    0    0  501    0  0.00000000000E+00  0.00000000000E+00 -0.13248274343E+04  0.13248274344E+04  0.50400001928E-02 0.  1.
    10030    2    1    2    0    0  0.00000000000E+00  0.00000000000E+00  0.91081362648E+02  0.27407362314E+04  0.27392223851E+04 0.  0.
        3    1    3    3  502    0 -0.12008846191E+03  0.95253628636E+03  0.10228548829E+04  0.14028466549E+04  0.10100000352E+00 0. -1.
       -3    1    3    3    0  502  0.12008846191E+03 -0.95253628636E+03 -0.93177352026E+03  0.13378895765E+04  0.10100000352E+00 0.  1.
</event>
<event>
 5   0  0.1005265E-05  0.2715021E+04  0.7818609E-02  0.8330148E-01
       -1   -1    0    0    0  501  0.00000000000E+00  0.00000000000E+00  0.19495099886E+04  0.19495099886E+04  0.50400001928E-02 0. -1.
        1   -1    0    0  501    0  0.00000000000E+00  0.00000000000E+00 -0.94528116285E+03  0.94528116287E+03  0.50400001928E-02 0.  1.
    10030    2    1    2    0    0  0.00000000000E+00  0.00000000000E+00  0.10042288257E+04  0.28947911514E+04  0.27150212294E+04 0.  0.
        3    1    3    3  502    0  0.12939137902E+04  0.15307892615E+03  0.90838078020E+03  0.15883329959E+04  0.10100000352E+00 0. -1.
       -3    1    3    3    0  502 -0.12939137902E+04 -0.15307892615E+03  0.95848045508E+02  0.13064581555E+04  0.10100000352E+00 0.  1.
</event>
<event>
 5   0  0.1041909E-05  0.2706476E+04  0.7818609E-02  0.8332907E-01
       -1   -1    0    0    0  501  0.00000000000E+00  0.00000000000E+00  0.19064538942E+04  0.19064538942E+04  0.50400001928E-02 0.  1.
        1   -1    0    0  501    0  0.00000000000E+00  0.00000000000E+00 -0.96055458543E+03  0.96055458544E+03  0.50400001928E-02 0. -1.
    10030    2    1    2    0    0  0.00000000000E+00  0.00000000000E+00  0.94589930875E+03  0.28670084796E+04  0.27064759596E+04 0.  0.
        5    1    3    3  502    0  0.79337520872E+03  0.10890832278E+04  0.34028374806E+03  0.13897343696E+04  0.46999998093E+01 0. -1.
       -5    1    3    3    0  502 -0.79337520872E+03 -0.10890832278E+04  0.60561556069E+03  0.14772741100E+04  0.46999998093E+01 0.  1.
</event>
<event>
 5   0  0.9971923E-06  0.2754483E+04  0.7818609E-02  0.8317540E-01
        1   -1    0    0  501    0  0.00000000000E+00  0.00000000000E+00  0.23565063182E+04  0.23565063182E+04  0.50400001928E-02 0. -1.
       -1   -1    0    0    0  501  0.00000000000E+00  0.00000000000E+00 -0.80491809839E+03  0.80491809841E+03  0.50400001928E-02 0.  1.
    10030    2    1    2    0    0  0.00000000000E+00  0.00000000000E+00  0.15515882198E+04  0.31614244166E+04  0.27544833160E+04 0.  0.
        2    1    3    3  502    0  0.54460185711E+03 -0.89561624303E+03  0.18011260726E+04  0.20839325245E+04  0.25500000920E-02 0. -1.
       -2    1    3    3    0  502 -0.54460185711E+03  0.89561624303E+03 -0.24953785275E+03  0.10774918921E+04  0.25500000920E-02 0.  1.
</event>
<event>
 5   0  0.9971923E-06  0.2678906E+04  0.7818609E-02  0.8341882E-01
       -1   -1    0    0    0  501  0.00000000000E+00  0.00000000000E+00  0.65538005754E+03  0.65538005756E+03  0.50400001928E-02 0.  1.
        1   -1    0    0  501    0  0.00000000000E+00  0.00000000000E+00 -0.27375472657E+04  0.27375472657E+04  0.50400001928E-02 0. -1.
    10030    2    1    2    0    0  0.00000000000E+00  0.00000000000E+00 -0.20821672082E+04  0.33929273233E+04  0.26789056606E+04 0.  0.
        2    1    3    3  502    0  0.19870642227E+03  0.43717406068E+03 -0.26247730987E+04  0.26683401622E+04  0.25500000920E-02 0. -1.
       -2    1    3    3    0  502 -0.19870642227E+03 -0.43717406068E+03  0.54260589052E+03  0.72458716109E+03  0.25500000920E-02 0.  1.
</event>
<event>
 5   0  0.2641216E-05  0.2641812E+04  0.7818609E-02  0.8354136E-01
       -2   -1    0    0    0  501  0.00000000000E+00  0.00000000000E+00  0.96589437686E+03  0.96589437686E+03  0.25500000920E-02 0. -1.
        2   -1    0    0  501    0  0.00000000000E+00  0.00000000000E+00 -0.18064010302E+04  0.18064010302E+04  0.25500000920E-02 0.  1.
    10030    2    1    2    0    0  0.00000000000E+00  0.00000000000E+00 -0.84050665333E+03  0.27722954070E+04  0.26418119520E+04 0.  0.
        5    1    3    3  502    0 -0.52097791775E+03 -0.12137581789E+04 -0.40767813737E+03  0.13823351480E+04  0.46999998093E+01 0. -1.
       -5    1    3    3    0  502  0.52097791775E+03  0.12137581789E+04 -0.43282851596E+03  0.13899602591E+04  0.46999998093E+01 0.  1.
</event>
<event>
 5   0  0.1005265E-05  0.2685094E+04  0.7818609E-02  0.8339858E-01
       -1   -1    0    0    0  501  0.00000000000E+00  0.00000000000E+00  0.11217196504E+04  0.11217196504E+04  0.50400001928E-02 0.  1.
        1   -1    0    0  501    0  0.00000000000E+00  0.00000000000E+00 -0.16068480622E+04  0.16068480622E+04  0.50400001928E-02 0. -1.
    10030    2    1    2    0    0  0.00000000000E+00  0.00000000000E+00 -0.48512841183E+03  0.27285677126E+04  0.26850944465E+04 0.  0.
        3    1    3    3  502    0 -0.72889216449E+03  0.54650540704E+03  0.75954661523E+03  0.11861125656E+04  0.10100000352E+00 0.  1.
       -3    1    3    3    0  502  0.72889216449E+03 -0.54650540704E+03 -0.12446750271E+04  0.15424551470E+04  0.10100000352E+00 0. -1.
</event>
<event>
 5   0  0.2641216E-05  0.2665833E+04  0.7818609E-02  0.8346177E-01
        2   -1    0    0  501    0  0.00000000000E+00  0.00000000000E+00  0.20225029792E+04  0.20225029792E+04  0.25500000920E-02 0.  1.
       -2   -1    0    0    0  501  0.00000000000E+00  0.00000000000E+00 -0.87844908138E+03  0.87844908138E+03  0.25500000920E-02 0. -1.
    10030    2    1    2    0    0  0.00000000000E+00  0.00000000000E+00  0.11440538978E+04  0.29009520606E+04  0.26658326160E+04 0.  0.
        5    1    3    3  502    0 -0.71278242140E+03  0.98547800273E+03  0.11654868596E+04  0.16845199269E+04  0.46999998093E+01 0.  1.
       -5    1    3    3    0  502  0.71278242140E+03 -0.98547800273E+03 -0.21432961751E+02  0.12164321337E+04  0.46999998093E+01 0. -1.
</event>
<event>
 5   0  0.1005265E-05  0.2693194E+04  0.7818609E-02  0.8337217E-01
        1   -1    0    0  501    0  0.00000000000E+00  0.00000000000E+00  0.14241846134E+04  0.14241846135E+04  0.50400001928E-02 0. -1.
       -1   -1    0    0    0  501  0.00000000000E+00  0.00000000000E+00 -0.12732362846E+04  0.12732362846E+04  0.50400001928E-02 0.  1.
    10030    2    1    2    0    0  0.00000000000E+00  0.00000000000E+00  0.15094832886E+03  0.26974208980E+04  0.26931940337E+04 0.  0.
        3    1    3    3  502    0 -0.90595230934E+03  0.63154788079E+03  0.84721655064E+03  0.13918973405E+04  0.10100000352E+00 0. -1.
       -3    1    3    3    0  502  0.90595230934E+03 -0.63154788079E+03 -0.69626822178E+03  0.13055235576E+04  0.10100000352E+00 0.  1.
</event>
<event>
 5   0  0.2516518E-05  0.2710809E+04  0.7818609E-02  0.8331506E-01
        2   -1    0    0  501    0  0.00000000000E+00  0.00000000000E+00  0.10422096440E+04  0.10422096440E+04  0.25500000920E-02 0.  1.
       -2   -1    0    0    0  501  0.00000000000E+00  0.00000000000E+00 -0.17627172699E+04  0.17627172699E+04  0.25500000920E-02 0. -1.
    10030    2    1    2    0    0  0.00000000000E+00  0.00000000000E+00 -0.72050762591E+03  0.28049269139E+04  0.27108086899E+04 0.  0.
        4    1    3    3  502    0  0.38009015360E+03 -0.10933688074E+04 -0.10898562130E+04  0.15898779990E+04  0.12699999809E+01 0. -1.
       -4    1    3    3    0  502 -0.38009015360E+03  0.10933688074E+04  0.36934858713E+03  0.12150489149E+04  0.12699999809E+01 0.  1.
</event>
<event>
 5   0  0.1036691E-05  0.2713603E+04  0.7818609E-02  0.8330605E-01
       -1   -1    0    0    0  501  0.00000000000E+00  0.00000000000E+00  0.10554489322E+04  0.10554489322E+04  0.50400001928E-02 0.  1.
        1   -1    0    0  501    0  0.00000000000E+00  0.00000000000E+00 -0.17441970987E+04  0.17441970987E+04  0.50400001928E-02 0. -1.
    10030    2    1    2    0    0  0.00000000000E+00  0.00000000000E+00 -0.68874816654E+03  0.27996460309E+04  0.27136034828E+04 0.  0.
        4    1    3    3  502    0  0.64790660495E+03 -0.14198250170E+03 -0.15655289509E+04  0.17002424852E+04  0.12699999809E+01 0. -1.
       -4    1    3    3    0  502 -0.64790660495E+03  0.14198250170E+03  0.87678078439E+03  0.10994035457E+04  0.12699999809E+01 0.  1.
</event>
<event>
 5   0  0.2516518E-05  0.2618518E+04  0.7818609E-02  0.8361938E-01
        2   -1    0    0  501    0  0.00000000000E+00  0.00000000000E+00  0.15506791344E+04  0.15506791344E+04  0.25500000920E-02 0.  1.
       -2   -1    0    0    0  501  0.00000000000E+00  0.00000000000E+00 -0.11054245312E+04  0.11054245312E+04  0.25500000920E-02 0. -1.
    10030    2    1    2    0    0  0.00000000000E+00  0.00000000000E+00  0.44525460317E+03  0.26561036656E+04  0.26185177145E+04 0.  0.
        4    1    3    3  502    0  0.38787994854E+03  0.10492974479E+04 -0.46734301907E+03  0.12123890049E+04  0.12699999809E+01 0. -1.
       -4    1    3    3    0  502 -0.38787994854E+03 -0.10492974479E+04  0.91259762224E+03  0.14437146608E+04  0.12699999809E+01 0.  1.
</event>
<event>
 5   0  0.2540684E-05  0.2695773E+04  0.7818609E-02  0.8336378E-01
       -2   -1    0    0    0  501  0.00000000000E+00  0.00000000000E+00  0.74338563398E+03  0.74338563398E+03  0.25500000920E-02 0. -1.
        2   -1    0    0  501    0  0.00000000000E+00  0.00000000000E+00 -0.24439517971E+04  0.24439517971E+04  0.25500000920E-02 0.  1.
    10030    2    1    2    0    0  0.00000000000E+00  0.00000000000E+00 -0.17005661632E+04  0.31873374311E+04  0.26957734743E+04 0.  0.
        2    1    3    3  502    0 -0.32716374048E+03  0.74714735642E+03  0.41848694814E+03  0.91673148253E+03  0.25500000920E-02 0. -1.
       -2    1    3    3    0  502  0.32716374048E+03 -0.74714735642E+03 -0.21190531113E+04  0.22706059486E+04  0.25500000920E-02 0.  1.
</event>
<event>
 5   0  0.1096672E-05  0.2807501E+04  0.7818609E-02  0.8300943E-01
       -1   -1    0    0    0  501  0.00000000000E+00  0.00000000000E+00  0.11869455362E+04  0.11869455363E+04  0.50400001928E-02 0. -1.
        1   -1    0    0  501    0  0.00000000000E+00  0.00000000000E+00 -0.16601566592E+04  0.16601566592E+04  0.50400001928E-02 0.  1.
    10030    2    1    2    0    0  0.00000000000E+00  0.00000000000E+00 -0.47321112299E+03  0.28471021955E+04  0.28075010498E+04 0.  0.
        1    1    3    3  502    0 -0.62537911716E+03  0.73258986429E+03 -0.12721500676E+04  0.15956668649E+04  0.50400001928E-02 0.  1.
       -1    1    3    3    0  502  0.62537911716E+03 -0.73258986429E+03  0.79893894456E+03  0.12514353306E+04  0.50400001928E-02 0. -1.
</event>
<event>
 5   0  0.8740500E-06  0.2706913E+04  0.7818609E-02  0.8332765E-01
        3   -1    0    0  501    0  0.00000000000E+00  0.00000000000E+00  0.20257133781E+04  0.20257133806E+04  0.10100000352E+00 0. -1.
       -3   -1    0    0    0  501  0.00000000000E+00  0.00000000000E+00 -0.90429608131E+03  0.90429608695E+03  0.10100000352E+00 0.  1.
    10030    2    1    2    0    0  0.00000000000E+00  0.00000000000E+00  0.11214172968E+04  0.29300094676E+04  0.27069131361E+04 0.  0.
        1    1    3    3  502    0  0.11338129958E+04  0.19754486310E+03  0.13316517748E+04  0.17600716837E+04  0.50400001928E-02 0. -1.
       -1    1    3    3    0  502 -0.11338129958E+04 -0.19754486310E+03 -0.21023447806E+03  0.11699377839E+04  0.50400001928E-02 0.  1.
</event>
<event>
 5   0  0.1096672E-05  0.2715691E+04  0.7818609E-02  0.8329932E-01
        1   -1    0    0  501    0  0.00000000000E+00  0.00000000000E+00  0.12489394222E+04  0.12489394222E+04  0.50400001928E-02 0.  1.
       -1   -1    0    0    0  501  0.00000000000E+00  0.00000000000E+00 -0.14762475248E+04  0.14762475248E+04  0.50400001928E-02 0. -1.
    10030    2    1    2    0    0  0.00000000000E+00  0.00000000000E+00 -0.22730810257E+03  0.27251869471E+04  0.27156905057E+04 0.  0.
        1    1    3    3  502    0  0.36320405504E+03  0.12728563734E+04 -0.41747207064E+03  0.13879349634E+04  0.50400001928E-02 0. -1.
       -1    1    3    3    0  502 -0.36320405504E+03 -0.12728563734E+04  0.19016396807E+03  0.13372519836E+04  0.50400001928E-02 0.  1.
</event>
<event>
 5   0  0.2641216E-05  0.2698680E+04  0.7818609E-02  0.8335433E-01
        2   -1    0    0  501    0  0.00000000000E+00  0.00000000000E+00  0.19892320584E+04  0.19892320584E+04  0.25500000920E-02 0. -1.
       -2   -1    0    0    0  501  0.00000000000E+00  0.00000000000E+00 -0.91528686563E+03  0.91528686563E+03  0.25500000920E-02 0.  1.
    10030    2    1    2    0    0  0.00000000000E+00  0.00000000000E+00  0.10739451928E+04  0.29045189241E+04  0.26986796592E+04 0.  0.
        5    1    3    3  502    0 -0.83378075637E+02  0.15077103697E+03  0.19773361775E+04  0.19848335592E+04  0.46999998093E+01 0. -1.
       -5    1    3    3    0  502  0.83378075637E+02 -0.15077103697E+03 -0.90339098468E+03  0.91968536483E+03  0.46999998093E+01 0.  1.
</event>
<event>
 5   0  0.2615843E-05  0.2724889E+04  0.7818609E-02  0.8326974E-01
        2   -1    0    0  501    0  0.00000000000E+00  0.00000000000E+00  0.11509210596E+04  0.11509210596E+04  0.25500000920E-02 0.  1.
       -2   -1    0    0    0  501  0.00000000000E+00  0.00000000000E+00 -0.16128433854E+04  0.16128433854E+04  0.25500000920E-02 0. -1.
    10030    2    1    2    0    0  0.00000000000E+00  0.00000000000E+00 -0.46192232582E+03  0.27637644450E+04  0.27248892955E+04 0.  0.
        3    1    3    3  502    0 -0.67857996320E+03  0.10450719248E+04  0.32790743450E+03  0.12884756072E+04  0.10100000352E+00 0.  1.
       -3    1    3    3    0  502  0.67857996320E+03 -0.10450719248E+04 -0.78982976033E+03  0.14752888378E+04  0.10100000352E+00 0. -1.
</event>
<event>
 5   0  0.2615843E-05  0.2801783E+04  0.7818609E-02  0.8302715E-01
       -2   -1    0    0    0  501  0.00000000000E+00  0.00000000000E+00  0.10345559864E+04  0.10345559864E+04  0.25500000920E-02 0.  1.
        2   -1    0    0  501    0  0.00000000000E+00  0.00000000000E+00 -0.18969456476E+04  0.18969456476E+04  0.25500000920E-02 0. -1.
    10030    2    1    2    0    0  0.00000000000E+00  0.00000000000E+00 -0.86238966123E+03  0.29315016341E+04  0.28017826295E+04 0.  0.
        3    1    3    3  502    0 -0.25659486246E+03 -0.88820788338E+03  0.67002765796E+03  0.11417929936E+04  0.10100000352E+00 0.  1.
       -3    1    3    3    0  502  0.25659486246E+03  0.88820788338E+03 -0.15324173192E+04  0.17897086405E+04  0.10100000352E+00 0. -1.
</event>
<event>
 5   0  0.9971923E-06  0.2578231E+04  0.7818609E-02  0.8375633E-01
        1   -1    0    0  501    0  0.00000000000E+00  0.00000000000E+00  0.21794362902E+04  0.21794362902E+04  0.50400001928E-02 0.  1.
       -1   -1    0    0    0  501  0.00000000000E+00  0.00000000000E+00 -0.76249943899E+03  0.76249943901E+03  0.50400001928E-02 0. -1.
    10030    2    1    2    0    0  0.00000000000E+00  0.00000000000E+00  0.14169368512E+04  0.29419357292E+04  0.25782311367E+04 0.  0.
        2    1    3    3  502    0 -0.10857737845E+04 -0.60369427423E+03  0.31572323861E+03  0.12818083520E+04  0.25500000920E-02 0. -1.
       -2    1    3    3    0  502  0.10857737845E+04  0.60369427423E+03  0.11012136126E+04  0.16601273772E+04  0.25500000920E-02 0.  1.
</event>
<event>
 5   0  0.2516518E-05  0.2692773E+04  0.7818609E-02  0.8337354E-01
        2   -1    0    0  501    0  0.00000000000E+00  0.00000000000E+00  0.21853138333E+04  0.21853138333E+04  0.25500000920E-02 0.  1.
       -2   -1    0    0    0  501  0.00000000000E+00  0.00000000000E+00 -0.82951753699E+03  0.82951753699E+03  0.25500000920E-02 0. -1.
    10030    2    1    2    0    0  0.00000000000E+00  0.00000000000E+00  0.13557962963E+04  0.30148313703E+04  0.26927726592E+04 0.  0.
        4    1    3    3  502    0 -0.23817647711E+03 -0.12869319478E+04  0.32414552840E+03  0.13483300075E+04  0.12699999809E+01 0. -1.
       -4    1    3    3    0  502  0.23817647711E+03  0.12869319478E+04  0.10316507679E+04  0.16665013628E+04  0.12699999809E+01 0.  1.
</event>
<event>
 5   0  0.1096672E-05  0.2787017E+04  0.7818609E-02  0.8307310E-01
        1   -1    0    0  501    0  0.00000000000E+00  0.00000000000E+00  0.15295575919E+04  0.15295575919E+04  0.50400001928E-02 0.  1.
       -1   -1    0    0    0  501  0.00000000000E+00  0.00000000000E+00 -0.12695604150E+04  0.12695604150E+04  0.50400001928E-02 0. -1.
    10030    2    1    2    0    0  0.00000000000E+00  0.00000000000E+00  0.25999717692E+03  0.27991180069E+04  0.27870168792E+04 0.  0.
        1    1    3    3  502    0 -0.79357347920E+03  0.10426985145E+04 -0.34628268556E+03  0.13553194300E+04  0.50400001928E-02 0. -1.
       -1    1    3    3    0  502  0.79357347920E+03 -0.10426985145E+04  0.60627986248E+03  0.14437985769E+04  0.50400001928E-02 0.  1.
</event>
<event>
 5   0  0.2615843E-05  0.2691302E+04  0.7818609E-02  0.8337833E-01
       -2   -1    0    0    0  501  0.00000000000E+00  0.00000000000E+00  0.11294568806E+04  0.11294568806E+04  0.25500000920E-02 0. -1.
        2   -1    0    0  501    0  0.00000000000E+00  0.00000000000E+00 -0.16032283178E+04  0.16032283178E+04  0.25500000920E-02 0.  1.
    10030    2    1    2    0    0  0.00000000000E+00  0.00000000000E+00 -0.47377143720E+03  0.27326851984E+04  0.26913024763E+04 0.  0.
        3    1    3    3  502    0  0.84556235513E+03  0.82032056687E+03  0.42340237543E+03  0.12518670499E+04  0.10100000352E+00 0. -1.
       -3    1    3    3    0  502 -0.84556235513E+03 -0.82032056687E+03 -0.89717381262E+03  0.14808181486E+04  0.10100000352E+00 0.  1.
</event>
<event>
 5   0  0.1096672E-05  0.2711051E+04  0.7818609E-02  0.8331428E-01
       -1   -1    0    0    0  501  0.00000000000E+00  0.00000000000E+00  0.12199715576E+04  0.12199715576E+04  0.50400001928E-02 0.  1.
        1   -1    0    0  501    0  0.00000000000E+00  0.00000000000E+00 -0.15061412961E+04  0.15061412961E+04  0.50400001928E-02 0. -1.
    10030    2    1    2    0    0  0.00000000000E+00  0.00000000000E+00 -0.28616973848E+03  0.27261128537E+04  0.27110511194E+04 0.  0.
        1    1    3    3  502    0  0.40034343653E+03 -0.12364608608E+04  0.24420319505E+03  0.13224014247E+04  0.50400001928E-02 0.  1.
       -1    1    3    3    0  502 -0.40034343653E+03  0.12364608608E+04 -0.53037293353E+03  0.14037114291E+04  0.50400001928E-02 0. -1.
</event>
<event>
 5   0  0.2641216E-05  0.2694145E+04  0.7818609E-02  0.8336907E-01
        2   -1    0    0  501    0  0.00000000000E+00  0.00000000000E+00  0.16440601363E+04  0.16440601363E+04  0.25500000920E-02 0. -1.
       -2   -1    0    0    0  501  0.00000000000E+00  0.00000000000E+00 -0.11037334424E+04  0.11037334424E+04  0.25500000920E-02 0.  1.
    10030    2    1    2    0    0  0.00000000000E+00  0.00000000000E+00  0.54032669393E+03  0.27477935787E+04  0.26941448764E+04 0.  0.
        5    1    3    3  502    0 -0.12171822470E+04  0.33298564337E+03  0.75089848678E+03  0.14684286460E+04  0.46999998093E+01 0. -1.
       -5    1    3    3    0  502  0.12171822470E+04 -0.33298564337E+03 -0.21057179285E+03  0.12793649327E+04  0.46999998093E+01 0.  1.
</event>
<event>
 5   0  0.8740500E-06  0.2216965E+04  0.7818609E-02  0.8511400E-01
        3   -1    0    0  501    0  0.00000000000E+00  0.00000000000E+00  0.12032071492E+04  0.12032071534E+04  0.10100000352E+00 0. -1.
       -3   -1    0    0    0  501  0.00000000000E+00  0.00000000000E+00 -0.10212149400E+04  0.10212149450E+04  0.10100000352E+00 0.  1.
    10030    2    1    2    0    0  0.00000000000E+00  0.00000000000E+00  0.18199220923E+03  0.22244220984E+04  0.22169647060E+04 0.  0.
        5    1    3    3  502    0 -0.70760451560E+03  0.51962833852E+02  0.94551029934E+03  0.11821235565E+04  0.46999998093E+01 0. -1.
       -5    1    3    3    0  502  0.70760451560E+03 -0.51962833852E+02 -0.76351809012E+03  0.10422985419E+04  0.46999998093E+01 0.  1.
</event>
<event>
 5   0  0.1036691E-05  0.2712046E+04  0.7818609E-02  0.8331107E-01
        1   -1    0    0  501    0  0.00000000000E+00  0.00000000000E+00  0.15106016948E+04  0.15106016948E+04  0.50400001928E-02 0. -1.
       -1   -1    0    0    0  501  0.00000000000E+00  0.00000000000E+00 -0.12172623048E+04  0.12172623048E+04  0.50400001928E-02 0.  1.
    10030    2    1    2    0    0  0.00000000000E+00  0.00000000000E+00  0.29333939004E+03  0.27278639996E+04  0.27120460916E+04 0.  0.
        4    1    3    3  502    0  0.41522165725E+03  0.10351188049E+03 -0.11475647428E+04  0.12247571947E+04  0.12699999809E+01 0.  1.
       -4    1    3    3    0  502 -0.41522165725E+03 -0.10351188049E+03  0.14409041329E+04  0.15031068049E+04  0.12699999809E+01 0. -1.
</event>
<event>
 5   0  0.2540684E-05  0.3100573E+04  0.7818609E-02  0.8215581E-01
       -2   -1    0    0    0  501  0.00000000000E+00  0.00000000000E+00  0.11579356476E+04  0.11579356476E+04  0.25500000920E-02 0. -1.
        2   -1    0    0  501    0  0.00000000000E+00  0.00000000000E+00 -0.20755795636E+04  0.20755795636E+04  0.25500000920E-02 0.  1.
    10030    2    1    2    0    0  0.00000000000E+00  0.00000000000E+00 -0.91764391597E+03  0.32335152112E+04  0.31005725704E+04 0.  0.
        2    1    3    3  502    0 -0.13761120344E+04  0.63570484869E+03 -0.11995506299E+03  0.15205900838E+04  0.25500000920E-02 0. -1.
       -2    1    3    3    0  502  0.13761120344E+04 -0.63570484869E+03 -0.79768885298E+03  0.17129251274E+04  0.25500000920E-02 0.  1.
</event>
<event>
 5   0  0.2615843E-05  0.2651581E+04  0.7818609E-02  0.8350888E-01
        2   -1    0    0  501    0  0.00000000000E+00  0.00000000000E+00  0.13505676572E+04  0.13505676572E+04  0.25500000920E-02 0.  1.
       -2   -1    0    0    0  501  0.00000000000E+00  0.00000000000E+00 -0.13014681228E+04  0.13014681228E+04  0.25500000920E-02 0. -1.
    10030    2    1    2    0    0  0.00000000000E+00  0.00000000000E+00  0.49099534396E+02  0.26520357799E+04  0.26515812290E+04 0.  0.
        3    1    3    3  502    0 -0.46904320226E+00  0.64693874572E+03  0.11819822564E+04  0.13474464833E+04  0.10100000352E+00 0.  1.
       -3    1    3    3    0  502  0.46904320226E+00 -0.64693874572E+03 -0.11328827220E+04  0.13045892966E+04  0.10100000352E+00 0. -1.
</event>
<event>
 5   0  0.1041909E-05  0.2689838E+04  0.7818609E-02  0.8338310E-01
        1   -1    0    0  501    0  0.00000000000E+00  0.00000000000E+00  0.23140676797E+04  0.23140676797E+04  0.50400001928E-02 0. -1.
       -1   -1    0    0    0  501  0.00000000000E+00  0.00000000000E+00 -0.78165673600E+03  0.78165673602E+03  0.50400001928E-02 0.  1.
    10030    2    1    2    0    0  0.00000000000E+00  0.00000000000E+00  0.15324109437E+04  0.30957244157E+04  0.26898376080E+04 0.  0.
        5    1    3    3  502    0  0.12179754551E+04  0.41462730052E+03  0.12169757463E+04  0.17709974773E+04  0.46999998093E+01 0. -1.
       -5    1    3    3    0  502 -0.12179754551E+04 -0.41462730052E+03  0.31543519737E+03  0.13247269384E+04  0.46999998093E+01 0.  1.
</event>
<event>
 5   0  0.8740500E-06  0.2707146E+04  0.7818609E-02  0.8332690E-01
        4   -1    0    0  501    0  0.00000000000E+00  0.00000000000E+00  0.18538837851E+04  0.18538842201E+04  0.12699999809E+01 0. -1.
       -4   -1    0    0    0  501  0.00000000000E+00  0.00000000000E+00 -0.98828084458E+03  0.98828166059E+03  0.12699999809E+01 0.  1.
    10030    2    1    2    0    0  0.00000000000E+00  0.00000000000E+00  0.86560294054E+03  0.28421658807E+04  0.27071458112E+04 0.  0.
        4    1    3    3  502    0 -0.99158668499E+03 -0.10228486850E+02 -0.53445761594E+03  0.11264969294E+04  0.12699999809E+01 0.  1.
       -4    1    3    3    0  502  0.99158668499E+03  0.10228486850E+02  0.14000605565E+04  0.17156689513E+04  0.12699999809E+01 0. -1.
</event>
<event>
 5   0  0.2516518E-05  0.2676995E+04  0.7818609E-02  0.8342508E-01
        2   -1    0    0  501    0  0.00000000000E+00  0.00000000000E+00  0.15169213648E+04  0.15169213648E+04  0.25500000920E-02 0.  1.
       -2   -1    0    0    0  501  0.00000000000E+00  0.00000000000E+00 -0.11810606251E+04  0.11810606251E+04  0.25500000920E-02 0. -1.
    10030    2    1    2    0    0  0.00000000000E+00  0.00000000000E+00  0.33586073976E+03  0.26979819899E+04  0.26769954018E+04 0.  0.
        4    1    3    3  502    0  0.86787622481E+03 -0.82813261290E+03 -0.43049362204E+03  0.12744956405E+04  0.12699999809E+01 0. -1.
       -4    1    3    3    0  502 -0.86787622481E+03  0.82813261290E+03  0.76635436180E+03  0.14234863494E+04  0.12699999809E+01 0.  1.
</event>
<event>
 5   0  0.2540684E-05  0.2669579E+04  0.7818609E-02  0.8344943E-01
       -2   -1    0    0    0  501  0.00000000000E+00  0.00000000000E+00  0.68372515850E+03  0.68372515851E+03  0.25500000920E-02 0. -1.
        2   -1    0    0  501    0  0.00000000000E+00  0.00000000000E+00 -0.26058178491E+04  0.26058178491E+04  0.25500000920E-02 0.  1.
    10030    2    1    2    0    0  0.00000000000E+00  0.00000000000E+00 -0.19220926906E+04  0.32895430076E+04  0.26695791593E+04 0.  0.
        2    1    3    3  502    0 -0.36874535667E+03 -0.12472672527E+04 -0.59134675951E+03  0.14287546073E+04  0.25500000920E-02 0. -1.
       -2    1    3    3    0  502  0.36874535667E+03  0.12472672527E+04 -0.13307459311E+04  0.18607884004E+04  0.25500000920E-02 0.  1.
</event>
<event>
 5   0  0.9971923E-06  0.2730484E+04  0.7818609E-02  0.8325181E-01
        1   -1    0    0  501    0  0.00000000000E+00  0.00000000000E+00  0.12405854266E+04  0.12405854267E+04  0.50400001928E-02 0.  1.
       -1   -1    0    0    0  501  0.00000000000E+00  0.00000000000E+00 -0.15024240418E+04  0.15024240418E+04  0.50400001928E-02 0. -1.
    10030    2    1    2    0    0  0.00000000000E+00  0.00000000000E+00 -0.26183861517E+03  0.27430094685E+04  0.27304837454E+04 0.  0.
        2    1    3    3  502    0  0.64552703761E+03  0.11551854375E+04 -0.46820765569E+03  0.14037011648E+04  0.25500000920E-02 0. -1.
       -2    1    3    3    0  502 -0.64552703761E+03 -0.11551854375E+04  0.20636904053E+03  0.13393083036E+04  0.25500000920E-02 0.  1.
</event>
<event>
 5   0  0.2540684E-05  0.2677436E+04  0.7818609E-02  0.8342364E-01
        2   -1    0    0  501    0  0.00000000000E+00  0.00000000000E+00  0.25709166900E+04  0.25709166900E+04  0.25500000920E-02 0. -1.
       -2   -1    0    0    0  501  0.00000000000E+00  0.00000000000E+00 -0.69709201313E+03  0.69709201313E+03  0.25500000920E-02 0.  1.
    10030    2    1    2    0    0  0.00000000000E+00  0.00000000000E+00  0.18738246769E+04  0.32680087031E+04  0.26774357068E+04 0.  0.
        2    1    3    3  502    0  0.20456528064E+03 -0.20462516567E+03 -0.65847051004E+03  0.71923697421E+03  0.25500000920E-02 0.  1.
       -2    1    3    3    0  502 -0.20456528064E+03  0.20462516567E+03  0.25322951869E+04  0.25487717289E+04  0.25500000920E-02 0. -1.
</event>
<event>
 5   0  0.2641216E-05  0.2707476E+04  0.7818609E-02  0.8332583E-01
       -2   -1    0    0    0  501  0.00000000000E+00  0.00000000000E+00  0.10906877647E+04  0.10906877647E+04  0.25500000920E-02 0. -1.
        2   -1    0    0  501    0  0.00000000000E+00  0.00000000000E+00 -0.16802300325E+04  0.16802300325E+04  0.25500000920E-02 0.  1.
    10030    2    1    2    0    0  0.00000000000E+00  0.00000000000E+00 -0.58954226786E+03  0.27709177972E+04  0.27074758269E+04 0.  0.
        5    1    3    3  502    0 -0.58676041197E+03  0.12199109855E+04 -0.28386042553E+03  0.13831375292E+04  0.46999998093E+01 0.  1.
       -5    1    3    3    0  502  0.58676041197E+03 -0.12199109855E+04 -0.30568184232E+03  0.13877802680E+04  0.46999998093E+01 0. -1.
</event>
<event>
 5   0  0.2516518E-05  0.2667929E+04  0.7818609E-02  0.8345486E-01
       -2   -1    0    0    0  501  0.00000000000E+00  0.00000000000E+00  0.10211279091E+04  0.10211279091E+04  0.25500000920E-02 0. -1.
        2   -1    0    0  501    0  0.00000000000E+00  0.00000000000E+00 -0.17426434616E+04  0.17426434616E+04  0.25500000920E-02 0.  1.
    10030    2    1    2    0    0  0.00000000000E+00  0.00000000000E+00 -0.72151555248E+03  0.27637713707E+04  0.26679294400E+04 0.  0.
        4    1    3    3  502    0  0.42655230345E+03 -0.11333578456E+04 -0.94033222485E+03  0.15331905230E+04  0.12699999809E+01 0.  1.
       -4    1    3    3    0  502 -0.42655230345E+03  0.11333578456E+04  0.21881667237E+03  0.12305808477E+04  0.12699999809E+01 0. -1.
</event>
<event>
 5   0  0.2540684E-05  0.2636875E+04  0.7818609E-02  0.8355782E-01
        2   -1    0    0  501    0  0.00000000000E+00  0.00000000000E+00  0.21665420738E+04  0.21665420738E+04  0.25500000920E-02 0.  1.
       -2   -1    0    0    0  501  0.00000000000E+00  0.00000000000E+00 -0.80232799791E+03  0.80232799791E+03  0.25500000920E-02 0. -1.
    10030    2    1    2    0    0  0.00000000000E+00  0.00000000000E+00  0.13642140759E+04  0.29688700717E+04  0.26368749416E+04 0.  0.
        2    1    3    3  502    0  0.64144488222E+03 -0.13456439796E+03  0.19701333590E+04  0.20762910602E+04  0.25500000920E-02 0.  1.
       -2    1    3    3    0  502 -0.64144488222E+03  0.13456439796E+03 -0.60591928316E+03  0.89257901153E+03  0.25500000920E-02 0. -1.
</event>
<event>
 5   0  0.2641216E-05  0.2603093E+04  0.7818609E-02  0.8367151E-01
        2   -1    0    0  501    0  0.00000000000E+00  0.00000000000E+00  0.22929180604E+04  0.22929180604E+04  0.25500000920E-02 0. -1.
       -2   -1    0    0    0  501  0.00000000000E+00  0.00000000000E+00 -0.73880650728E+03  0.73880650729E+03  0.25500000920E-02 0.  1.
    10030    2    1    2    0    0  0.00000000000E+00  0.00000000000E+00  0.15541115531E+04  0.30317245676E+04  0.26030926097E+04 0.  0.
        5    1    3    3  502    0  0.50514551026E+02 -0.35241779884E+03  0.22350954985E+04  0.22632772703E+04  0.46999998093E+01 0. -1.
       -5    1    3    3    0  502 -0.50514551026E+02  0.35241779884E+03 -0.68098394545E+03  0.76844729733E+03  0.46999998093E+01 0.  1.
</event>
<event>
 5   0  0.1096672E-05  0.2683248E+04  0.7818609E-02  0.8340461E-01
        1   -1    0    0  501    0  0.00000000000E+00  0.00000000000E+00  0.25859182936E+04  0.25859182936E+04  0.50400001928E-02 0. -1.
       -1   -1    0    0    0  501  0.00000000000E+00  0.00000000000E+00 -0.69606046625E+03  0.69606046627E+03  0.50400001928E-02 0.  1.
    10030    2    1    2    0    0  0.00000000000E+00  0.00000000000E+00  0.18898578273E+04  0.32819787599E+04  0.26832483994E+04 0.  0.
        1    1    3    3  502    0 -0.14571164877E+03  0.32308498305E+03 -0.63776406188E+03  0.72962921372E+03  0.50400001928E-02 0.  1.
       -1    1    3    3    0  502  0.14571164877E+03 -0.32308498305E+03  0.25276218892E+04  0.25523495462E+04  0.50400001928E-02 0. -1.
</event>
<event>
 5   0  0.2615843E-05  0.1744937E+04  0.7818609E-02  0.8736142E-01
       -2   -1    0    0    0  501  0.00000000000E+00  0.00000000000E+00  0.99104700045E+03  0.99104700046E+03  0.25500000920E-02 0.  1.
        2   -1    0    0  501    0  0.00000000000E+00  0.00000000000E+00 -0.76807764272E+03  0.76807764273E+03  0.25500000920E-02 0. -1.
    10030    2    1    2    0    0  0.00000000000E+00  0.00000000000E+00  0.22296935773E+03  0.17591246432E+04  0.17449367254E+04 0.  0.
        3    1    3    3  502    0 -0.36826394899E+03 -0.73232941253E+03 -0.18973621413E+03  0.84138252046E+03  0.10100000352E+00 0. -1.
       -3    1    3    3    0  502  0.36826394899E+03  0.73232941253E+03  0.41270557186E+03  0.91774212272E+03  0.10100000352E+00 0.  1.
</event>
<event>
 5   0  0.1096672E-05  0.1907018E+04  0.7818609E-02  0.8651371E-01
       -1   -1    0    0    0  501  0.00000000000E+00  0.00000000000E+00  0.77947152734E+03  0.77947152735E+03  0.50400001928E-02 0. -1.
        1   -1    0    0  501    0  0.00000000000E+00  0.00000000000E+00 -0.11664055022E+04  0.11664055022E+04  0.50400001928E-02 0.  1.
    10030    2    1    2    0    0  0.00000000000E+00  0.00000000000E+00 -0.38693397484E+03  0.19458770295E+04  0.19070184879E+04 0.  0.
        1    1    3    3  502    0 -0.15726641573E+03  0.76610983926E+03 -0.75003810191E+03  0.10836116305E+04  0.50400001928E-02 0.  1.
       -1    1    3    3    0  502  0.15726641573E+03 -0.76610983926E+03  0.36310412707E+03  0.86226539908E+03  0.50400001928E-02 0. -1.
</event>
<event>
 5   0  0.2540684E-05  0.2810649E+04  0.7818609E-02  0.8299970E-01
       -2   -1    0    0    0  501  0.00000000000E+00  0.00000000000E+00  0.28467491051E+04  0.28467491051E+04  0.25500000920E-02 0. -1.
        2   -1    0    0  501    0  0.00000000000E+00  0.00000000000E+00 -0.69375181692E+03  0.69375181693E+03  0.25500000920E-02 0.  1.
    10030    2    1    2    0    0  0.00000000000E+00  0.00000000000E+00  0.21529972881E+04  0.35405009220E+04  0.28106492944E+04 0.  0.
        2    1    3    3  502    0 -0.75212993381E+03  0.95063706377E+03  0.19721320294E+04  0.23148898474E+04  0.25500000920E-02 0. -1.
       -2    1    3    3    0  502  0.75212993381E+03 -0.95063706377E+03  0.18086525879E+03  0.12256110746E+04  0.25500000920E-02 0.  1.
</event>
<event>
 5   0  0.2641216E-05  0.2677305E+04  0.7818609E-02  0.8342407E-01
       -2   -1    0    0    0  501  0.00000000000E+00  0.00000000000E+00  0.96087005804E+03  0.96087005805E+03  0.25500000920E-02 0.  1.
        2   -1    0    0  501    0  0.00000000000E+00  0.00000000000E+00 -0.18649661674E+04  0.18649661674E+04  0.25500000920E-02 0. -1.
    10030    2    1    2    0    0  0.00000000000E+00  0.00000000000E+00 -0.90409610936E+03  0.28258362254E+04  0.26773047264E+04 0.  0.
        5    1    3    3  502    0 -0.66128164945E+03  0.13468194671E+03  0.76817554077E+03  0.10225206101E+04  0.46999998093E+01 0.  1.
       -5    1    3    3    0  502  0.66128164945E+03 -0.13468194671E+03 -0.16722716501E+04  0.18033156153E+04  0.46999998093E+01 0. -1.
</event>
<event>
 5   0  0.1096672E-05  0.2696308E+04  0.7818609E-02  0.8336204E-01
       -1   -1    0    0    0  501  0.00000000000E+00  0.00000000000E+00  0.11249309685E+04  0.11249309685E+04  0.50400001928E-02 0. -1.
        1   -1    0    0  501    0  0.00000000000E+00  0.00000000000E+00 -0.16156717839E+04  0.16156717839E+04  0.50400001928E-02 0.  1.
    10030    2    1    2    0    0  0.00000000000E+00  0.00000000000E+00 -0.49074081546E+03  0.27406027524E+04  0.26963080126E+04 0.  0.
        1    1    3    3  502    0  0.88456776465E+03 -0.67706625772E+03 -0.10172136599E+04  0.15085100191E+04  0.50400001928E-02 0.  1.
       -1    1    3    3    0  502 -0.88456776465E+03  0.67706625772E+03  0.52647284447E+03  0.12320927334E+04  0.50400001928E-02 0. -1.
</event>
<event>
 5   0  0.1036691E-05  0.2750578E+04  0.7818609E-02  0.8318778E-01
       -1   -1    0    0    0  501  0.00000000000E+00  0.00000000000E+00  0.81068602773E+03  0.81068602774E+03  0.50400001928E-02 0.  1.
        1   -1    0    0  501    0  0.00000000000E+00  0.00000000000E+00 -0.23331102296E+04  0.23331102296E+04  0.50400001928E-02 0. -1.
    10030    2    1    2    0    0  0.00000000000E+00  0.00000000000E+00 -0.15224242018E+04  0.31437962573E+04  0.27505780224E+04 0.  0.
        4    1    3    3  502    0 -0.24240742729E+03  0.50159339305E+03  0.67594660929E+03  0.87593534252E+03  0.12699999809E+01 0.  1.
       -4    1    3    3    0  502  0.24240742729E+03 -0.50159339305E+03 -0.21983708111E+04  0.22678609148E+04  0.12699999809E+01 0. -1.
</event>
<event>
 5   0  0.1041909E-05  0.2124796E+04  0.7818609E-02  0.8550399E-01
        1   -1    0    0  501    0  0.00000000000E+00  0.00000000000E+00  0.77045126850E+03  0.77045126851E+03  0.50400001928E-02 0. -1.
       -1   -1    0    0    0  501  0.00000000000E+00  0.00000000000E+00 -0.14649718704E+04  0.14649718704E+04  0.50400001928E-02 0.  1.
    10030    2    1    2    0    0  0.00000000000E+00  0.00000000000E+00 -0.69452060193E+03  0.22354231389E+04  0.21247959299E+04 0.  0.
        5    1    3    3  502    0 -0.43261687723E+02 -0.51305295537E+03 -0.13249294309E+04  0.14214622736E+04  0.46999998093E+01 0.  1.
       -5    1    3    3    0  502  0.43261687723E+02  0.51305295537E+03  0.63040882893E+03  0.81396086530E+03  0.46999998093E+01 0. -1.
</event>
<event>
 5   0  0.8740500E-06  0.2684765E+04  0.7818609E-02  0.8339965E-01
       -3   -1    0    0    0  501  0.00000000000E+00  0.00000000000E+00  0.85820181654E+03  0.85820182248E+03  0.10100000352E+00 0.  1.
        3   -1    0    0  501    0  0.00000000000E+00  0.00000000000E+00 -0.20997286584E+04  0.20997286609E+04  0.10100000352E+00 0. -1.
    10030    2    1    2    0    0  0.00000000000E+00  0.00000000000E+00 -0.12415268419E+04  0.29579304833E+04  0.26847651378E+04 0.  0.
        5    1    3    3  502    0 -0.44246838699E+03 -0.11652649067E+04 -0.11698138747E+04  0.17094172011E+04  0.46999998093E+01 0. -1.
       -5    1    3    3    0  502  0.44246838699E+03  0.11652649067E+04 -0.71712967224E+02  0.12485132822E+04  0.46999998093E+01 0.  1.
</event>
<event>
 5   0  0.8740500E-06  0.2684818E+04  0.7818609E-02  0.8339948E-01
        3   -1    0    0  501    0  0.00000000000E+00  0.00000000000E+00  0.15626875076E+04  0.15626875109E+04  0.10100000352E+00 0.  1.
       -3   -1    0    0    0  501  0.00000000000E+00  0.00000000000E+00 -0.11531811507E+04  0.11531811551E+04  0.10100000352E+00 0. -1.
    10030    2    1    2    0    0  0.00000000000E+00  0.00000000000E+00  0.40950635690E+03  0.27158686660E+04  0.26848178997E+04 0.  0.
        4    1    3    3  502    0  0.89234245587E+02 -0.10322243662E+04 -0.65870553796E+03  0.12277395862E+04  0.12699999809E+01 0. -1.
       -4    1    3    3    0  502 -0.89234245587E+02  0.10322243662E+04  0.10682118949E+04  0.14881290798E+04  0.12699999809E+01 0.  1.
</event>
<event>
 5   0  0.1005265E-05  0.2150249E+04  0.7818609E-02  0.8539425E-01
       -1   -1    0    0    0  501  0.00000000000E+00  0.00000000000E+00  0.70724020259E+03  0.70724020261E+03  0.50400001928E-02 0.  1.
        1   -1    0    0  501    0  0.00000000000E+00  0.00000000000E+00 -0.16343714933E+04  0.16343714934E+04  0.50400001928E-02 0. -1.
    10030    2    1    2    0    0  0.00000000000E+00  0.00000000000E+00 -0.92713129075E+03  0.23416116960E+04  0.21502494982E+04 0.  0.
        3    1    3    3  502    0  0.18381446801E+03 -0.84010895115E+03 -0.11662186648E+04  0.14490123508E+04  0.10100000352E+00 0. -1.
       -3    1    3    3    0  502 -0.18381446801E+03  0.84010895115E+03  0.23908737400E+03  0.89259934520E+03  0.10100000352E+00 0.  1.
</event>
<event>
 5   0  0.2641216E-05  0.2638300E+04  0.7818609E-02  0.8355307E-01
       -2   -1    0    0    0  501  0.00000000000E+00  0.00000000000E+00  0.68429073770E+03  0.68429073771E+03  0.25500000920E-02 0.  1.
        2   -1    0    0  501    0  0.00000000000E+00  0.00000000000E+00 -0.25430072491E+04  0.25430072491E+04  0.25500000920E-02 0. -1.
    10030    2    1    2    0    0  0.00000000000E+00  0.00000000000E+00 -0.18587165114E+04  0.32272979868E+04  0.26382996846E+04 0.  0.
        5    1    3    3  502    0 -0.15084711156E+03  0.13102285289E+04 -0.96126999737E+03  0.16320281085E+04  0.46999998093E+01 0. -1.
       -5    1    3    3    0  502  0.15084711156E+03 -0.13102285289E+04 -0.89744651404E+03  0.15952698783E+04  0.46999998093E+01 0.  1.
</event>
<event>
 5   0  0.8740500E-06  0.2926073E+04  0.7818609E-02  0.8265162E-01
       -3   -1    0    0    0  501  0.00000000000E+00  0.00000000000E+00  0.98456691472E+03  0.98456691990E+03  0.10100000352E+00 0. -1.
        3   -1    0    0  501    0  0.00000000000E+00  0.00000000000E+00 -0.21740279240E+04  0.21740279263E+04  0.10100000352E+00 0.  1.
    10030    2    1    2    0    0  0.00000000000E+00  0.00000000000E+00 -0.11894610093E+04  0.31585948462E+04  0.29260731211E+04 0.  0.
        4    1    3    3  502    0 -0.14032221857E+04  0.11421624577E+03 -0.10243475991E+04  0.17410822698E+04  0.12699999809E+01 0.  1.
       -4    1    3    3    0  502  0.14032221857E+04 -0.11421624577E+03 -0.16511341015E+03  0.14175125765E+04  0.12699999809E+01 0. -1.
</event>
<event>
 5   0  0.2641216E-05  0.2536181E+04  0.7818609E-02  0.8390208E-01
        2   -1    0    0  501    0  0.00000000000E+00  0.00000000000E+00  0.13673332407E+04  0.13673332407E+04  0.25500000920E-02 0. -1.
       -2   -1    0    0    0  501  0.00000000000E+00  0.00000000000E+00 -0.11760510418E+04  0.11760510418E+04  0.25500000920E-02 0.  1.
    10030    2    1    2    0    0  0.00000000000E+00  0.00000000000E+00  0.19128219892E+03  0.25433842825E+04  0.25361811309E+04 0.  0.
        5    1    3    3  502    0 -0.11097049873E+04  0.87257704301E+02  0.70479738660E+03  0.13175054125E+04  0.46999998093E+01 0. -1.
       -5    1    3    3    0  502  0.11097049873E+04 -0.87257704301E+02 -0.51351518768E+03  0.12258788700E+04  0.46999998093E+01 0.  1.
</event>
<event>
 5   0  0.1036691E-05  0.2641911E+04  0.7818609E-02  0.8354103E-01
       -1   -1    0    0    0  501  0.00000000000E+00  0.00000000000E+00  0.96537826082E+03  0.96537826083E+03  0.50400001928E-02 0. -1.
        1   -1    0    0  501    0  0.00000000000E+00  0.00000000000E+00 -0.18075021238E+04  0.18075021238E+04  0.50400001928E-02 0.  1.
    10030    2    1    2    0    0  0.00000000000E+00  0.00000000000E+00 -0.84212386300E+03  0.27728803847E+04  0.26419108666E+04 0.  0.
        4    1    3    3  502    0 -0.40705599680E+03 -0.69238712921E+03  0.67965383461E+03  0.10521527784E+04  0.12699999809E+01 0. -1.
       -4    1    3    3    0  502  0.40705599680E+03  0.69238712921E+03 -0.15217776976E+04  0.17207276063E+04  0.12699999809E+01 0.  1.
</event>
<event>
 5   0  0.1041909E-05  0.2145301E+04  0.7818609E-02  0.8541546E-01
       -1   -1    0    0    0  501  0.00000000000E+00  0.00000000000E+00  0.86722521757E+03  0.86722521758E+03  0.50400001928E-02 0.  1.
        1   -1    0    0  501    0  0.00000000000E+00  0.00000000000E+00 -0.13267359526E+04  0.13267359526E+04  0.50400001928E-02 0. -1.
    10030    2    1    2    0    0  0.00000000000E+00  0.00000000000E+00 -0.45951073502E+03  0.21939611702E+04  0.21453007949E+04 0.  0.
        5    1    3    3  502    0  0.35521768249E+03  0.78343164138E+02  0.80221141981E+03  0.88084192986E+03  0.46999998093E+01 0.  1.
       -5    1    3    3    0  502 -0.35521768249E+03 -0.78343164138E+02 -0.12617221548E+04  0.13131192403E+04  0.46999998093E+01 0. -1.
</event>
<event>
 5   0  0.2615843E-05  0.2683950E+04  0.7818609E-02  0.8340231E-01
        2   -1    0    0  501    0  0.00000000000E+00  0.00000000000E+00  0.73074196113E+03  0.73074196113E+03  0.25500000920E-02 0.  1.
       -2   -1    0    0    0  501  0.00000000000E+00  0.00000000000E+00 -0.24644771432E+04  0.24644771432E+04  0.25500000920E-02 0. -1.
    10030    2    1    2    0    0  0.00000000000E+00  0.00000000000E+00 -0.17337351821E+04  0.31952191043E+04  0.26839499703E+04 0.  0.
        3    1    3    3  502    0  0.38172416537E+03  0.88250288855E+03  0.24760788253E+03  0.99289191779E+03  0.10100000352E+00 0.  1.
       -3    1    3    3    0  502 -0.38172416537E+03 -0.88250288855E+03 -0.19813430646E+04  0.22023271866E+04  0.10100000352E+00 0. -1.
</event>
<event>
 5   0  0.2641216E-05  0.2664979E+04  0.7818609E-02  0.8346458E-01
        2   -1    0    0  501    0  0.00000000000E+00  0.00000000000E+00  0.14369714259E+04  0.14369714259E+04  0.25500000920E-02 0. -1.
       -2   -1    0    0    0  501  0.00000000000E+00  0.00000000000E+00 -0.12356043991E+04  0.12356043991E+04  0.25500000920E-02 0.  1.
    10030    2    1    2    0    0  0.00000000000E+00  0.00000000000E+00  0.20136702674E+03  0.26725758250E+04  0.26649789607E+04 0.  0.
        5    1    3    3  502    0  0.76248283810E+03 -0.88101054690E+03 -0.54764717337E+03  0.12874390000E+04  0.46999998093E+01 0.  1.
       -5    1    3    3    0  502 -0.76248283810E+03  0.88101054690E+03  0.74901420011E+03  0.13851368251E+04  0.46999998093E+01 0. -1.
</event>
<event>
 5   0  0.8740500E-06  0.2670441E+04  0.7818609E-02  0.8344660E-01
        3   -1    0    0  501    0  0.00000000000E+00  0.00000000000E+00  0.13813475732E+04  0.13813475769E+04  0.10100000352E+00 0.  1.
       -3   -1    0    0    0  501  0.00000000000E+00  0.00000000000E+00 -0.12906340580E+04  0.12906340619E+04  0.10100000352E+00 0. -1.
    10030    2    1    2    0    0  0.00000000000E+00  0.00000000000E+00  0.90713515225E+02  0.26719816388E+04  0.26704413373E+04 0.  0.
        1    1    3    3  502    0  0.17131986278E+03 -0.12336586481E+03  0.13645422667E+04  0.13807770384E+04  0.50400001928E-02 0.  1.
       -1    1    3    3    0  502 -0.17131986278E+03  0.12336586481E+03 -0.12738287515E+04  0.12912046004E+04  0.50400001928E-02 0. -1.
</event>
<event>
 5   0  0.2516518E-05  0.2732835E+04  0.7818609E-02  0.8324429E-01
        2   -1    0    0  501    0  0.00000000000E+00  0.00000000000E+00  0.35236002027E+04  0.35236002027E+04  0.25500000920E-02 0.  1.
       -2   -1    0    0    0  501  0.00000000000E+00  0.00000000000E+00 -0.52988328799E+03  0.52988328800E+03  0.25500000920E-02 0. -1.
    10030    2    1    2    0    0  0.00000000000E+00  0.00000000000E+00  0.29937169147E+04  0.40534834907E+04  0.27328350561E+04 0.  0.
        4    1    3    3  502    0 -0.49447616475E+03  0.10950760150E+04  0.24619953654E+04  0.27395475809E+04  0.12699999809E+01 0.  1.
       -4    1    3    3    0  502  0.49447616475E+03 -0.10950760150E+04  0.53172154929E+03  0.13139359097E+04  0.12699999809E+01 0. -1.
</event>
<event>
 5   0  0.1096672E-05  0.2523662E+04  0.7818609E-02  0.8394604E-01
        1   -1    0    0  501    0  0.00000000000E+00  0.00000000000E+00  0.20474674819E+04  0.20474674819E+04  0.50400001928E-02 0.  1.
       -1   -1    0    0    0  501  0.00000000000E+00  0.00000000000E+00 -0.77765224984E+03  0.77765224986E+03  0.50400001928E-02 0. -1.
    10030    2    1    2    0    0  0.00000000000E+00  0.00000000000E+00  0.12698152321E+04  0.28251197318E+04  0.25236621753E+04 0.  0.
        1    1    3    3  502    0 -0.29425809332E+03 -0.10686020333E+04 -0.40224814335E+02  0.11091060214E+04  0.50400001928E-02 0. -1.
       -1    1    3    3    0  502  0.29425809332E+03  0.10686020333E+04  0.13100400464E+04  0.17160137104E+04  0.50400001928E-02 0.  1.
</event>
<event>
 5   0  0.1036691E-05  0.2653515E+04  0.7818609E-02  0.8350247E-01
       -1   -1    0    0    0  501  0.00000000000E+00  0.00000000000E+00  0.17853938271E+04  0.17853938271E+04  0.50400001928E-02 0. -1.
        1   -1    0    0  501    0  0.00000000000E+00  0.00000000000E+00 -0.98593676352E+03  0.98593676353E+03  0.50400001928E-02 0.  1.
    10030    2    1    2    0    0  0.00000000000E+00  0.00000000000E+00  0.79945706361E+03  0.27713305907E+04  0.26535149606E+04 0.  0.
        4    1    3    3  502    0 -0.10473525480E+03  0.63113990318E+03  0.16136503920E+04  0.17358502964E+04  0.12699999809E+01 0. -1.
       -4    1    3    3    0  502  0.10473525480E+03 -0.63113990318E+03 -0.81419332837E+03  0.10354802943E+04  0.12699999809E+01 0.  1.
</event>
<event>
 5   0  0.1036691E-05  0.2720784E+04  0.7818609E-02  0.8328293E-01
       -1   -1    0    0    0  501  0.00000000000E+00  0.00000000000E+00  0.10258626118E+04  0.10258626118E+04  0.50400001928E-02 0. -1.
        1   -1    0    0  501    0  0.00000000000E+00  0.00000000000E+00 -0.18040104793E+04  0.18040104793E+04  0.50400001928E-02 0.  1.
    10030    2    1    2    0    0  0.00000000000E+00  0.00000000000E+00 -0.77814786750E+03  0.28298730910E+04  0.27207843736E+04 0.  0.
        4    1    3    3  502    0  0.12207555689E+04 -0.47815548278E+03 -0.76665615200E+03  0.15187626849E+04  0.12699999809E+01 0. -1.
       -4    1    3    3    0  502 -0.12207555689E+04  0.47815548278E+03 -0.11491715497E+02  0.13111104062E+04  0.12699999809E+01 0.  1.
</event>
<event>
 5   0  0.1036691E-05  0.2736656E+04  0.7818609E-02  0.8323209E-01
        1   -1    0    0  501    0  0.00000000000E+00  0.00000000000E+00  0.18159431793E+04  0.18159431793E+04  0.50400001928E-02 0.  1.
       -1   -1    0    0    0  501  0.00000000000E+00  0.00000000000E+00 -0.10310461769E+04  0.10310461769E+04  0.50400001928E-02 0. -1.
    10030    2    1    2    0    0  0.00000000000E+00  0.00000000000E+00  0.78489700234E+03  0.28469893562E+04  0.27366558224E+04 0.  0.
        4    1    3    3  502    0 -0.30148431026E+03 -0.10684041600E+04 -0.43976564561E+03  0.11940584887E+04  0.12699999809E+01 0. -1.
       -4    1    3    3    0  502  0.30148431026E+03  0.10684041600E+04  0.12246626479E+04  0.16529308675E+04  0.12699999809E+01 0.  1.
</event>
<event>
 5   0  0.1096672E-05  0.2701350E+04  0.7818609E-02  0.8334567E-01
        1   -1    0    0  501    0  0.00000000000E+00  0.00000000000E+00  0.27214054643E+04  0.27214054643E+04  0.50400001928E-02 0.  1.
       -1   -1    0    0    0  501  0.00000000000E+00  0.00000000000E+00 -0.67036067206E+03  0.67036067208E+03  0.50400001928E-02 0. -1.
    10030    2    1    2    0    0  0.00000000000E+00  0.00000000000E+00  0.20510447922E+04  0.33917661364E+04  0.27013501780E+04 0.  0.
        1    1    3    3  502    0  0.73539912544E+03  0.35030152905E+03  0.23782917123E+04  0.25139201466E+04  0.50400001928E-02 0.  1.
       -1    1    3    3    0  502 -0.73539912544E+03 -0.35030152905E+03 -0.32724692006E+03  0.87784598972E+03  0.50400001928E-02 0. -1.
</event>
<event>
 5   0  0.1041909E-05  0.2651988E+04  0.7818609E-02  0.8350753E-01
        1   -1    0    0  501    0  0.00000000000E+00  0.00000000000E+00  0.21587841250E+04  0.21587841250E+04  0.50400001928E-02 0. -1.
       -1   -1    0    0    0  501  0.00000000000E+00  0.00000000000E+00 -0.81446778565E+03  0.81446778567E+03  0.50400001928E-02 0.  1.
    10030    2    1    2    0    0  0.00000000000E+00  0.00000000000E+00  0.13443163393E+04  0.29732519107E+04  0.26519880286E+04 0.  0.
        5    1    3    3  502    0 -0.50836222136E+03  0.11150081828E+04  0.10427780129E+03  0.12298663934E+04  0.46999998093E+01 0.  1.
       -5    1    3    3    0  502  0.50836222136E+03 -0.11150081828E+04  0.12400385380E+04  0.17433855172E+04  0.46999998093E+01 0. -1.
</event>
<event>
 5   0  0.2516518E-05  0.2643353E+04  0.7818609E-02  0.8353623E-01
       -2   -1    0    0    0  501  0.00000000000E+00  0.00000000000E+00  0.10862354256E+04  0.10862354256E+04  0.25500000920E-02 0. -1.
        2   -1    0    0  501    0  0.00000000000E+00  0.00000000000E+00 -0.16081491803E+04  0.16081491803E+04  0.25500000920E-02 0.  1.
    10030    2    1    2    0    0  0.00000000000E+00  0.00000000000E+00 -0.52191375468E+03  0.26943846059E+04  0.26433528779E+04 0.  0.
        4    1    3    3  502    0 -0.96640359016E+03 -0.88998648409E+03 -0.11389697456E+03  0.13187061745E+04  0.12699999809E+01 0.  1.
       -4    1    3    3    0  502  0.96640359016E+03  0.88998648409E+03 -0.40801678011E+03  0.13756784314E+04  0.12699999809E+01 0. -1.
</event>
<event>
 5   0  0.1041909E-05  0.1840598E+04  0.7818609E-02  0.8685003E-01
        1   -1    0    0  501    0  0.00000000000E+00  0.00000000000E+00  0.22446557942E+04  0.22446557942E+04  0.50400001928E-02 0. -1.
       -1   -1    0    0    0  501  0.00000000000E+00  0.00000000000E+00 -0.37731852287E+03  0.37731852290E+03  0.50400001928E-02 0.  1.
    10030    2    1    2    0    0  0.00000000000E+00  0.00000000000E+00  0.18673372713E+04  0.26219743171E+04  0.18405979557E+04 0.  0.
        5    1    3    3  502    0  0.45266389225E+03  0.79273235439E+03  0.10997886367E+04  0.14292957428E+04  0.46999998093E+01 0.  1.
       -5    1    3    3    0  502 -0.45266389225E+03 -0.79273235439E+03  0.76754863465E+03  0.11926785743E+04  0.46999998093E+01 0. -1.
</event>
<event>
 5   0  0.2516518E-05  0.2672051E+04  0.7818609E-02  0.8344131E-01
        2   -1    0    0  501    0  0.00000000000E+00  0.00000000000E+00  0.22610572727E+04  0.22610572727E+04  0.25500000920E-02 0.  1.
       -2   -1    0    0    0  501  0.00000000000E+00  0.00000000000E+00 -0.78943759277E+03  0.78943759278E+03  0.25500000920E-02 0. -1.
    10030    2    1    2    0    0  0.00000000000E+00  0.00000000000E+00  0.14716196800E+04  0.30504948655E+04  0.26720506062E+04 0.  0.
        4    1    3    3  502    0  0.65815326235E+03 -0.96925540851E+03  0.14688933926E+04  0.18789015874E+04  0.12699999809E+01 0.  1.
       -4    1    3    3    0  502 -0.65815326235E+03  0.96925540851E+03  0.27262873916E+01  0.11715932781E+04  0.12699999809E+01 0. -1.
</event>
<event>
 5   0  0.1096672E-05  0.3524363E+04  0.7818609E-02  0.8108040E-01
        1   -1    0    0  501    0  0.00000000000E+00  0.00000000000E+00  0.22572734344E+04  0.22572734344E+04  0.50400001928E-02 0. -1.
       -1   -1    0    0    0  501  0.00000000000E+00  0.00000000000E+00 -0.13756787199E+04  0.13756787199E+04  0.50400001928E-02 0.  1.
    10030    2    1    2    0    0  0.00000000000E+00  0.00000000000E+00  0.88159471455E+03  0.36329521543E+04  0.35243626537E+04 0.  0.
        1    1    3    3  502    0  0.46499781720E+03 -0.46612881370E+03 -0.12441244806E+04  0.14076024880E+04  0.50400001928E-02 0.  1.
       -1    1    3    3    0  502 -0.46499781720E+03  0.46612881370E+03  0.21257191951E+04  0.22253496663E+04  0.50400001928E-02 0. -1.
</event>
<event>
 5   0  0.2540232E-05  0.2703119E+04  0.7818609E-02  0.8333994E-01
        2   -1    0    0  501    0  0.00000000000E+00  0.00000000000E+00  0.19749877049E+04  0.19749877049E+04  0.25500000920E-02 0.  1.
       -2   -1    0    0    0  501  0.00000000000E+00  0.00000000000E+00 -0.92492399779E+03  0.92492399779E+03  0.25500000920E-02 0. -1.
    10030    2    1    2    0    0  0.00000000000E+00  0.00000000000E+00  0.10500637071E+04  0.28999117027E+04  0.27031193267E+04 0.  0.
        1    1    3    3  502    0 -0.42264536052E+03  0.49668094408E+03 -0.74495564411E+03  0.99009089113E+03  0.50400001928E-02 0. -1.
       -1    1    3    3    0  502  0.42264536052E+03 -0.49668094408E+03  0.17950193512E+04  0.19098208115E+04  0.50400001928E-02 0.  1.
</event>
<event>
 5   0  0.1005265E-05  0.2702156E+04  0.7818609E-02  0.8334306E-01
       -1   -1    0    0    0  501  0.00000000000E+00  0.00000000000E+00  0.11317287577E+04  0.11317287577E+04  0.50400001928E-02 0.  1.
        1   -1    0    0  501    0  0.00000000000E+00  0.00000000000E+00 -0.16129404987E+04  0.16129404987E+04  0.50400001928E-02 0. -1.
    10030    2    1    2    0    0  0.00000000000E+00  0.00000000000E+00 -0.48121174097E+03  0.27446692564E+04  0.27021555446E+04 0.  0.
        3    1    3    3  502    0  0.12384170544E+04 -0.13134660899E+03 -0.77275937618E+03  0.14656349464E+04  0.10100000352E+00 0.  1.
       -3    1    3    3    0  502 -0.12384170544E+04  0.13134660899E+03  0.29154763521E+03  0.12790343100E+04  0.10100000352E+00 0. -1.
</event>
<event>
 5   0  0.2540684E-05  0.2674315E+04  0.7818609E-02  0.8343387E-01
        2   -1    0    0  501    0  0.00000000000E+00  0.00000000000E+00  0.13358364803E+04  0.13358364803E+04  0.25500000920E-02 0. -1.
       -2   -1    0    0    0  501  0.00000000000E+00  0.00000000000E+00 -0.13384796517E+04  0.13384796517E+04  0.25500000920E-02 0.  1.
    10030    2    1    2    0    0  0.00000000000E+00  0.00000000000E+00 -0.26431713946E+01  0.26743161320E+04  0.26743148258E+04 0.  0.
        2    1    3    3  502    0 -0.33373050119E+03 -0.68656251878E+03  0.10965158269E+04  0.13360730139E+04  0.25500000920E-02 0. -1.
       -2    1    3    3    0  502  0.33373050119E+03  0.68656251878E+03 -0.10991589983E+04  0.13382431181E+04  0.25500000920E-02 0.  1.
</event>
<event>
 5   0  0.1096672E-05  0.2664867E+04  0.7818609E-02  0.8346495E-01
        1   -1    0    0  501    0  0.00000000000E+00  0.00000000000E+00  0.19938008552E+04  0.19938008552E+04  0.50400001928E-02 0. -1.
       -1   -1    0    0    0  501  0.00000000000E+00  0.00000000000E+00 -0.89044931404E+03  0.89044931405E+03  0.50400001928E-02 0.  1.
    10030    2    1    2    0    0  0.00000000000E+00  0.00000000000E+00  0.11033515412E+04  0.28842501692E+04  0.26648666787E+04 0.  0.
        1    1    3    3  502    0  0.92607877649E+02 -0.41687932198E+03 -0.81437625226E+03  0.91955057956E+03  0.50400001928E-02 0.  1.
       -1    1    3    3    0  502 -0.92607877649E+02  0.41687932198E+03  0.19177277934E+04  0.19646995897E+04  0.50400001928E-02 0. -1.
</event>
<event>
 5   0  0.1005265E-05  0.2657765E+04  0.7818609E-02  0.8348840E-01
       -1   -1    0    0    0  501  0.00000000000E+00  0.00000000000E+00  0.10909440573E+04  0.10909440573E+04  0.50400001928E-02 0. -1.
        1   -1    0    0  501    0  0.00000000000E+00  0.00000000000E+00 -0.16187156165E+04  0.16187156165E+04  0.50400001928E-02 0.  1.
    10030    2    1    2    0    0  0.00000000000E+00  0.00000000000E+00 -0.52777155926E+03  0.27096596738E+04  0.26577646113E+04 0.  0.
        3    1    3    3  502    0  0.14681194277E+02  0.67833381044E+03  0.90104277839E+03  0.11279319104E+04  0.10100000352E+00 0. -1.
       -3    1    3    3    0  502 -0.14681194277E+02 -0.67833381044E+03 -0.14288143377E+04  0.15817277634E+04  0.10100000352E+00 0.  1.
</event>
<event>
 5   0  0.1096672E-05  0.2695505E+04  0.7818609E-02  0.8336465E-01
       -1   -1    0    0    0  501  0.00000000000E+00  0.00000000000E+00  0.11946748480E+04  0.11946748480E+04  0.50400001928E-02 0. -1.
        1   -1    0    0  501    0  0.00000000000E+00  0.00000000000E+00 -0.15204443814E+04  0.15204443814E+04  0.50400001928E-02 0.  1.
    10030    2    1    2    0    0  0.00000000000E+00  0.00000000000E+00 -0.32576953342E+03  0.27151192294E+04  0.26955048953E+04 0.  0.
        1    1    3    3  502    0  0.15767998161E+03  0.91597115340E+03  0.82021445288E+03  0.12396039203E+04  0.50400001928E-02 0. -1.
       -1    1    3    3    0  502 -0.15767998161E+03 -0.91597115340E+03 -0.11459839863E+04  0.14755153091E+04  0.50400001928E-02 0.  1.
</event>
<event>
 5   0  0.2641216E-05  0.2762223E+04  0.7818609E-02  0.8315094E-01
       -2   -1    0    0    0  501  0.00000000000E+00  0.00000000000E+00  0.12627559955E+04  0.12627559955E+04  0.25500000920E-02 0.  1.
        2   -1    0    0  501    0  0.00000000000E+00  0.00000000000E+00 -0.15105601006E+04  0.15105601006E+04  0.25500000920E-02 0. -1.
    10030    2    1    2    0    0  0.00000000000E+00  0.00000000000E+00 -0.24780410506E+03  0.27733160961E+04  0.27622228901E+04 0.  0.
        5    1    3    3  502    0  0.66069506295E+03  0.11776040280E+04 -0.41520086727E+03  0.14126864702E+04  0.46999998093E+01 0.  1.
       -5    1    3    3    0  502 -0.66069506295E+03 -0.11776040280E+04  0.16739676221E+03  0.13606296259E+04  0.46999998093E+01 0. -1.
</event>
<event>
 5   0  0.2615843E-05  0.2611182E+04  0.7818609E-02  0.8364413E-01
       -2   -1    0    0    0  501  0.00000000000E+00  0.00000000000E+00  0.15799533442E+04  0.15799533442E+04  0.25500000920E-02 0. -1.
        2   -1    0    0  501    0  0.00000000000E+00  0.00000000000E+00 -0.10788721711E+04  0.10788721711E+04  0.25500000920E-02 0.  1.
    10030    2    1    2    0    0  0.00000000000E+00  0.00000000000E+00  0.50108117314E+03  0.26588255153E+04  0.26111818739E+04 0.  0.
        3    1    3    3  502    0 -0.94464304471E+03 -0.85674725259E+03 -0.34206857467E+02  0.12757493704E+04  0.10100000352E+00 0.  1.
       -3    1    3    3    0  502  0.94464304471E+03  0.85674725259E+03  0.53528803061E+03  0.13830761449E+04  0.10100000352E+00 0. -1.
</event>
<event>
 5   0  0.2540232E-05  0.2726656E+04  0.7818609E-02  0.8326407E-01
        2   -1    0    0  501    0  0.00000000000E+00  0.00000000000E+00  0.10563391702E+04  0.10563391702E+04  0.25500000920E-02 0. -1.
       -2   -1    0    0    0  501  0.00000000000E+00  0.00000000000E+00 -0.17595331008E+04  0.17595331008E+04  0.25500000920E-02 0.  1.
    10030    2    1    2    0    0  0.00000000000E+00  0.00000000000E+00 -0.70319393066E+03  0.28158722710E+04  0.27266563667E+04 0.  0.
        1    1    3    3  502    0 -0.96788699100E+03  0.24955615912E+03  0.60587430685E+03  0.11688315446E+04  0.50400001928E-02 0. -1.
       -1    1    3    3    0  502  0.96788699100E+03 -0.24955615912E+03 -0.13090682375E+04  0.16470407264E+04  0.50400001928E-02 0.  1.
</event>
<event>
 5   0  0.9971923E-06  0.2688562E+04  0.7818609E-02  0.8338726E-01
        1   -1    0    0  501    0  0.00000000000E+00  0.00000000000E+00  0.28327037766E+04  0.28327037767E+04  0.50400001928E-02 0.  1.
       -1   -1    0    0    0  501  0.00000000000E+00  0.00000000000E+00 -0.63793881611E+03  0.63793881613E+03  0.50400001928E-02 0. -1.
    10030    2    1    2    0    0  0.00000000000E+00  0.00000000000E+00  0.21947649605E+04  0.34706425928E+04  0.26885622133E+04 0.  0.
        2    1    3    3  502    0  0.65992098428E+03  0.10910082032E+04  0.54773376531E+03  0.13877344424E+04  0.25500000920E-02 0. -1.
       -2    1    3    3    0  502 -0.65992098428E+03 -0.10910082032E+04  0.16470311952E+04  0.20829081504E+04  0.25500000920E-02 0.  1.
</event>
<event>
 5   0  0.1096672E-05  0.2695861E+04  0.7818609E-02  0.8336349E-01
       -1   -1    0    0    0  501  0.00000000000E+00  0.00000000000E+00  0.10758311776E+04  0.10758311776E+04  0.50400001928E-02 0.  1.
        1   -1    0    0  501    0  0.00000000000E+00  0.00000000000E+00 -0.16888487852E+04  0.16888487852E+04  0.50400001928E-02 0. -1.
    10030    2    1    2    0    0  0.00000000000E+00  0.00000000000E+00 -0.61301760760E+03  0.27646799628E+04  0.26958606621E+04 0.  0.
        1    1    3    3  502    0  0.77273297324E+03  0.52143448520E+03 -0.13049674018E+04  0.16037300552E+04  0.50400001928E-02 0. -1.
       -1    1    3    3    0  502 -0.77273297324E+03 -0.52143448520E+03  0.69194979419E+03  0.11609499076E+04  0.50400001928E-02 0.  1.
</event>
<event>
 5   0  0.2641216E-05  0.2657674E+04  0.7818609E-02  0.8348870E-01
        2   -1    0    0  501    0  0.00000000000E+00  0.00000000000E+00  0.17951983599E+04  0.17951983599E+04  0.25500000920E-02 0.  1.
       -2   -1    0    0    0  501  0.00000000000E+00  0.00000000000E+00 -0.98362817291E+03  0.98362817292E+03  0.25500000920E-02 0. -1.
    10030    2    1    2    0    0  0.00000000000E+00  0.00000000000E+00  0.81157018701E+03  0.27788265328E+04  0.26576739324E+04 0.  0.
        5    1    3    3  502    0 -0.76275142904E+03 -0.24025570940E+03 -0.70385358205E+03  0.10653377415E+04  0.46999998093E+01 0. -1.
       -5    1    3    3    0  502  0.76275142904E+03  0.24025570940E+03  0.15154237691E+04  0.17134887914E+04  0.46999998093E+01 0.  1.
</event>
<event>
 5   0  0.1005265E-05  0.2765750E+04  0.7818609E-02  0.8313981E-01
       -1   -1    0    0    0  501  0.00000000000E+00  0.00000000000E+00  0.13118075323E+04  0.13118075323E+04  0.50400001928E-02 0.  1.
        1   -1    0    0  501    0  0.00000000000E+00  0.00000000000E+00 -0.14577929621E+04  0.14577929621E+04  0.50400001928E-02 0. -1.
    10030    2    1    2    0    0  0.00000000000E+00  0.00000000000E+00 -0.14598542976E+03  0.27696004944E+04  0.27657503779E+04 0.  0.
        3    1    3    3  502    0 -0.13823753980E+04 -0.33834771567E+02 -0.88416920391E+02  0.13856132559E+04  0.10100000352E+00 0. -1.
       -3    1    3    3    0  502  0.13823753980E+04  0.33834771567E+02 -0.57568509374E+02  0.13839872385E+04  0.10100000352E+00 0.  1.
</event>
<event>
 5   0  0.1036691E-05  0.2718816E+04  0.7818609E-02  0.8328925E-01
        1   -1    0    0  501    0  0.00000000000E+00  0.00000000000E+00  0.17052417122E+04  0.17052417122E+04  0.50400001928E-02 0. -1.
       -1   -1    0    0    0  501  0.00000000000E+00  0.00000000000E+00 -0.10837119127E+04  0.10837119127E+04  0.50400001928E-02 0.  1.
    10030    2    1    2    0    0  0.00000000000E+00  0.00000000000E+00  0.62152979947E+03  0.27889536249E+04  0.27188164760E+04 0.  0.
        4    1    3    3  502    0 -0.13460680371E+04 -0.17369829415E+03  0.38968386997E+03  0.14120642299E+04  0.12699999809E+01 0. -1.
       -4    1    3    3    0  502  0.13460680371E+04  0.17369829415E+03  0.23184592950E+03  0.13768893950E+04  0.12699999809E+01 0.  1.
</event>
<event>
 5   0  0.2615843E-05  0.2717535E+04  0.7818609E-02  0.8329338E-01
        2   -1    0    0  501    0  0.00000000000E+00  0.00000000000E+00  0.20262166216E+04  0.20262166216E+04  0.25500000920E-02 0.  1.
       -2   -1    0    0    0  501  0.00000000000E+00  0.00000000000E+00 -0.91118029779E+03  0.91118029779E+03  0.25500000920E-02 0. -1.
    10030    2    1    2    0    0  0.00000000000E+00  0.00000000000E+00  0.11150363238E+04  0.29373969194E+04  0.27175346656E+04 0.  0.
        3    1    3    3  502    0 -0.10363803592E+04  0.46137648622E+03  0.13658849362E+04  0.17755546119E+04  0.10100000352E+00 0.  1.
       -3    1    3    3    0  502  0.10363803592E+04 -0.46137648622E+03 -0.25084861237E+03  0.11618423075E+04  0.10100000352E+00 0. -1.
</event>
<event>
 5   0  0.1041909E-05  0.2706348E+04  0.7818609E-02  0.8332948E-01
        1   -1    0    0  501    0  0.00000000000E+00  0.00000000000E+00  0.13137689193E+04  0.13137689193E+04  0.50400001928E-02 0.  1.
       -1   -1    0    0    0  501  0.00000000000E+00  0.00000000000E+00 -0.13937608334E+04  0.13937608334E+04  0.50400001928E-02 0. -1.
    10030    2    1    2    0    0  0.00000000000E+00  0.00000000000E+00 -0.79991914058E+02  0.27075297527E+04  0.27063478445E+04 0.  0.
        5    1    3    3  502    0  0.12674887912E+04  0.31985184999E+03 -0.38975488893E+03  0.13640982389E+04  0.46999998093E+01 0. -1.
       -5    1    3    3    0  502 -0.12674887912E+04 -0.31985184999E+03  0.30976297487E+03  0.13434315138E+04  0.46999998093E+01 0.  1.
</event>
<event>
 5   0  0.2641216E-05  0.2720441E+04  0.7818609E-02  0.8328403E-01
        2   -1    0    0  501    0  0.00000000000E+00  0.00000000000E+00  0.23254041294E+04  0.23254041294E+04  0.25500000920E-02 0.  1.
       -2   -1    0    0    0  501  0.00000000000E+00  0.00000000000E+00 -0.79564667963E+03  0.79564667964E+03  0.25500000920E-02 0. -1.
    10030    2    1    2    0    0  0.00000000000E+00  0.00000000000E+00  0.15297574498E+04  0.31210508091E+04  0.27204411954E+04 0.  0.
        5    1    3    3  502    0 -0.53391185330E+03 -0.12496638839E+04  0.83232638297E+03  0.15935843208E+04  0.46999998093E+01 0. -1.
       -5    1    3    3    0  502  0.53391185330E+03  0.12496638839E+04  0.69743106682E+03  0.15274664882E+04  0.46999998093E+01 0.  1.
</event>
<event>
 5   0  0.2516518E-05  0.2697204E+04  0.7818609E-02  0.8335913E-01
        2   -1    0    0  501    0  0.00000000000E+00  0.00000000000E+00  0.10091247121E+04  0.10091247121E+04  0.25500000920E-02 0. -1.
       -2   -1    0    0    0  501  0.00000000000E+00  0.00000000000E+00 -0.18022825072E+04  0.18022825072E+04  0.25500000920E-02 0.  1.
    10030    2    1    2    0    0  0.00000000000E+00  0.00000000000E+00 -0.79315779513E+03  0.28114072192E+04  0.26972043424E+04 0.  0.
        4    1    3    3  502    0  0.13835603417E+03 -0.51569237367E+03 -0.16874187157E+04  0.17698769876E+04  0.12699999809E+01 0.  1.
       -4    1    3    3    0  502 -0.13835603417E+03  0.51569237367E+03  0.89426092054E+03  0.10415302316E+04  0.12699999809E+01 0. -1.
</event>
<event>
 5   0  0.2540232E-05  0.2684183E+04  0.7818609E-02  0.8340155E-01
        2   -1    0    0  501    0  0.00000000000E+00  0.00000000000E+00  0.18603409586E+04  0.18603409586E+04  0.25500000920E-02 0.  1.
       -2   -1    0    0    0  501  0.00000000000E+00  0.00000000000E+00 -0.96821456200E+03  0.96821456200E+03  0.25500000920E-02 0. -1.
    10030    2    1    2    0    0  0.00000000000E+00  0.00000000000E+00  0.89212639659E+03  0.28285555206E+04  0.26841827109E+04 0.  0.
        1    1    3    3  502    0  0.61127000135E+03 -0.91371547838E+03  0.12573297700E+04  0.16701512328E+04  0.50400001928E-02 0.  1.
       -1    1    3    3    0  502 -0.61127000135E+03  0.91371547838E+03 -0.36520337338E+03  0.11584042878E+04  0.50400001928E-02 0. -1.
</event>
<event>
 5   0  0.2540232E-05  0.1672946E+04  0.7818609E-02  0.8776947E-01
       -2   -1    0    0    0  501  0.00000000000E+00  0.00000000000E+00  0.12108866360E+04  0.12108866360E+04  0.25500000920E-02 0.  1.
        2   -1    0    0  501    0  0.00000000000E+00  0.00000000000E+00 -0.57783013745E+03  0.57783013746E+03  0.25500000920E-02 0. -1.
    10030    2    1    2    0    0  0.00000000000E+00  0.00000000000E+00  0.63305649855E+03  0.17887167735E+04  0.16729456552E+04 0.  0.
        1    1    3    3  502    0 -0.28486714681E+03  0.27510767329E+03 -0.47124453804E+03  0.61555254682E+03  0.50400001928E-02 0. -1.
       -1    1    3    3    0  502  0.28486714681E+03 -0.27510767329E+03  0.11043010366E+04  0.11731642266E+04  0.50400001928E-02 0.  1.
</event>
<event>
 5   0  0.9971923E-06  0.2687179E+04  0.7818609E-02  0.8339177E-01
        1   -1    0    0  501    0  0.00000000000E+00  0.00000000000E+00  0.19804141761E+04  0.19804141761E+04  0.50400001928E-02 0. -1.
       -1   -1    0    0    0  501  0.00000000000E+00  0.00000000000E+00 -0.91154314509E+03  0.91154314511E+03  0.50400001928E-02 0.  1.
    10030    2    1    2    0    0  0.00000000000E+00  0.00000000000E+00  0.10688710310E+04  0.28919573213E+04  0.26871791654E+04 0.  0.
        2    1    3    3  502    0 -0.70192743050E+03 -0.11324633993E+04  0.72101834347E+03  0.15149399064E+04  0.25500000920E-02 0. -1.
       -2    1    3    3    0  502  0.70192743050E+03  0.11324633993E+04  0.34785268758E+03  0.13770174148E+04  0.25500000920E-02 0.  1.
</event>
<event>
 5   0  0.2540232E-05  0.2660353E+04  0.7818609E-02  0.8347985E-01
        2   -1    0    0  501    0  0.00000000000E+00  0.00000000000E+00  0.87238519215E+03  0.87238519216E+03  0.25500000920E-02 0.  1.
       -2   -1    0    0    0  501  0.00000000000E+00  0.00000000000E+00 -0.20281982463E+04  0.20281982463E+04  0.25500000920E-02 0. -1.
    10030    2    1    2    0    0  0.00000000000E+00  0.00000000000E+00 -0.11558130541E+04  0.29005834384E+04  0.26603534478E+04 0.  0.
        1    1    3    3  502    0 -0.42898234255E+03  0.56261276488E+03  0.65022396819E+03  0.96091112090E+03  0.50400001928E-02 0.  1.
       -1    1    3    3    0  502  0.42898234255E+03 -0.56261276488E+03 -0.18060370223E+04  0.19396723175E+04  0.50400001928E-02 0. -1.
</event>
<event>
 5   0  0.1041909E-05  0.2646022E+04  0.7818609E-02  0.8352735E-01
       -1   -1    0    0    0  501  0.00000000000E+00  0.00000000000E+00  0.22530950611E+04  0.22530950611E+04  0.50400001928E-02 0. -1.
        1   -1    0    0  501    0  0.00000000000E+00  0.00000000000E+00 -0.77686800685E+03  0.77686800687E+03  0.50400001928E-02 0.  1.
    10030    2    1    2    0    0  0.00000000000E+00  0.00000000000E+00  0.14762270542E+04  0.30299630680E+04  0.26460215187E+04 0.  0.
        5    1    3    3  502    0  0.93847463519E+03 -0.37067677319E+03 -0.24173437648E+03  0.10375902418E+04  0.46999998093E+01 0.  1.
       -5    1    3    3    0  502 -0.93847463519E+03  0.37067677319E+03  0.17179614307E+04  0.19923728262E+04  0.46999998093E+01 0. -1.
</event>
<event>
 5   0  0.1005265E-05  0.3071438E+04  0.7818609E-02  0.8223620E-01
       -1   -1    0    0    0  501  0.00000000000E+00  0.00000000000E+00  0.12858183517E+04  0.12858183517E+04  0.50400001928E-02 0.  1.
        1   -1    0    0  501    0  0.00000000000E+00  0.00000000000E+00 -0.18341886253E+04  0.18341886253E+04  0.50400001928E-02 0. -1.
    10030    2    1    2    0    0  0.00000000000E+00  0.00000000000E+00 -0.54837027357E+03  0.31200069770E+04  0.30714383568E+04 0.  0.
        3    1    3    3  502    0 -0.74699770892E+03  0.10633903656E+04 -0.11054335006E+04  0.17061031274E+04  0.10100000352E+00 0. -1.
       -3    1    3    3    0  502  0.74699770892E+03 -0.10633903656E+04  0.55706322707E+03  0.14139038496E+04  0.10100000352E+00 0.  1.
</event>
<event>
 5   0  0.2516518E-05  0.2591052E+04  0.7818609E-02  0.8371247E-01
       -2   -1    0    0    0  501  0.00000000000E+00  0.00000000000E+00  0.80830111076E+03  0.80830111077E+03  0.25500000920E-02 0.  1.
        2   -1    0    0  501    0  0.00000000000E+00  0.00000000000E+00 -0.20764387031E+04  0.20764387031E+04  0.25500000920E-02 0. -1.
    10030    2    1    2    0    0  0.00000000000E+00  0.00000000000E+00 -0.12681375923E+04  0.28847398139E+04  0.25910520721E+04 0.  0.
        4    1    3    3  502    0  0.67384846976E+03 -0.10204173047E+04 -0.15771390319E+03  0.12329633101E+04  0.12699999809E+01 0.  1.
       -4    1    3    3    0  502 -0.67384846976E+03  0.10204173047E+04 -0.11104236891E+04  0.16517765037E+04  0.12699999809E+01 0. -1.
</event>
<event>
 5   0  0.1036691E-05  0.2279078E+04  0.7818609E-02  0.8486216E-01
       -1   -1    0    0    0  501  0.00000000000E+00  0.00000000000E+00  0.10393910639E+04  0.10393910639E+04  0.50400001928E-02 0.  1.
        1   -1    0    0  501    0  0.00000000000E+00  0.00000000000E+00 -0.12493362316E+04  0.12493362316E+04  0.50400001928E-02 0. -1.
    10030    2    1    2    0    0  0.00000000000E+00  0.00000000000E+00 -0.20994516775E+03  0.22887272955E+04  0.22790778091E+04 0.  0.
        4    1    3    3  502    0 -0.44344759189E+03  0.71060891204E+02  0.94676862246E+03  0.10478873290E+04  0.12699999809E+01 0.  1.
       -4    1    3    3    0  502  0.44344759189E+03 -0.71060891204E+02 -0.11567137902E+04  0.12408399665E+04  0.12699999809E+01 0. -1.
</event>
<event>
 5   0  0.2615843E-05  0.2883755E+04  0.7818609E-02  0.8277727E-01
       -2   -1    0    0    0  501  0.00000000000E+00  0.00000000000E+00  0.14287631863E+04  0.14287631863E+04  0.25500000920E-02 0. -1.
        2   -1    0    0  501    0  0.00000000000E+00  0.00000000000E+00 -0.14551119211E+04  0.14551119211E+04  0.25500000920E-02 0.  1.
    10030    2    1    2    0    0  0.00000000000E+00  0.00000000000E+00 -0.26348734815E+02  0.28838751075E+04  0.28837547364E+04 0.  0.
        3    1    3    3  502    0  0.17836581297E+03  0.91320407241E+03 -0.11146985754E+04  0.14520017098E+04  0.10100000352E+00 0.  1.
       -3    1    3    3    0  502 -0.17836581297E+03 -0.91320407241E+03  0.10883498406E+04  0.14318733976E+04  0.10100000352E+00 0. -1.
</event>
<event>
 5   0  0.2615843E-05  0.2733786E+04  0.7818609E-02  0.8324125E-01
       -2   -1    0    0    0  501  0.00000000000E+00  0.00000000000E+00  0.11308573539E+04  0.11308573539E+04  0.25500000920E-02 0.  1.
        2   -1    0    0  501    0  0.00000000000E+00  0.00000000000E+00 -0.16521951526E+04  0.16521951526E+04  0.25500000920E-02 0. -1.
    10030    2    1    2    0    0  0.00000000000E+00  0.00000000000E+00 -0.52133779877E+03  0.27830525065E+04  0.27337864133E+04 0.  0.
        3    1    3    3  502    0  0.79328063737E+03 -0.43554075628E+03 -0.13035356472E+04  0.15868821991E+04  0.10100000352E+00 0. -1.
       -3    1    3    3    0  502 -0.79328063737E+03  0.43554075628E+03  0.78219784845E+03  0.11961703074E+04  0.10100000352E+00 0.  1.
</event>
<event>
 5   0  0.2615843E-05  0.2734794E+04  0.7818609E-02  0.8323803E-01
        2   -1    0    0  501    0  0.00000000000E+00  0.00000000000E+00  0.14525879758E+04  0.14525879758E+04  0.25500000920E-02 0. -1.
       -2   -1    0    0    0  501  0.00000000000E+00  0.00000000000E+00 -0.12872021908E+04  0.12872021908E+04  0.25500000920E-02 0.  1.
    10030    2    1    2    0    0  0.00000000000E+00  0.00000000000E+00  0.16538578498E+03  0.27397901666E+04  0.27347939044E+04 0.  0.
        3    1    3    3  502    0  0.67637964933E+03 -0.57427952950E+03  0.11250205125E+04  0.14328145630E+04  0.10100000352E+00 0. -1.
       -3    1    3    3    0  502 -0.67637964933E+03  0.57427952950E+03 -0.95963472756E+03  0.13069756037E+04  0.10100000352E+00 0.  1.
</event>
<event>
 5   0  0.9971923E-06  0.2033555E+04  0.7818609E-02  0.8591091E-01
        1   -1    0    0  501    0  0.00000000000E+00  0.00000000000E+00  0.15410881520E+04  0.15410881520E+04  0.50400001928E-02 0.  1.
       -1   -1    0    0    0  501  0.00000000000E+00  0.00000000000E+00 -0.67084842130E+03  0.67084842132E+03  0.50400001928E-02 0. -1.
    10030    2    1    2    0    0  0.00000000000E+00  0.00000000000E+00  0.87023973067E+03  0.22119365733E+04  0.20335550682E+04 0.  0.
        2    1    3    3  502    0  0.52283285738E+03 -0.86971991692E+03  0.50450937726E+03  0.11332681247E+04  0.25500000920E-02 0.  1.
       -2    1    3    3    0  502 -0.52283285738E+03  0.86971991692E+03  0.36573035341E+03  0.10786684486E+04  0.25500000920E-02 0. -1.
</event>
<event>
 5   0  0.2641216E-05  0.2670786E+04  0.7818609E-02  0.8344546E-01
       -2   -1    0    0    0  501  0.00000000000E+00  0.00000000000E+00  0.11338671010E+04  0.11338671010E+04  0.25500000920E-02 0. -1.
        2   -1    0    0  501    0  0.00000000000E+00  0.00000000000E+00 -0.15727370598E+04  0.15727370598E+04  0.25500000920E-02 0.  1.
    10030    2    1    2    0    0  0.00000000000E+00  0.00000000000E+00 -0.43886995884E+03  0.27066041608E+04  0.26707862593E+04 0.  0.
        5    1    3    3  502    0 -0.50832228035E+03 -0.11840256708E+04  0.13590164454E+03  0.12956850222E+04  0.46999998093E+01 0. -1.
       -5    1    3    3    0  502  0.50832228035E+03  0.11840256708E+04 -0.57477160338E+03  0.14109191386E+04  0.46999998093E+01 0.  1.
</event>
<event>
 5   0  0.2641216E-05  0.2681106E+04  0.7818609E-02  0.8341162E-01
        2   -1    0    0  501    0  0.00000000000E+00  0.00000000000E+00  0.16464419862E+04  0.16464419862E+04  0.25500000920E-02 0.  1.
       -2   -1    0    0    0  501  0.00000000000E+00  0.00000000000E+00 -0.10914942155E+04  0.10914942155E+04  0.25500000920E-02 0. -1.
    10030    2    1    2    0    0  0.00000000000E+00  0.00000000000E+00  0.55494777069E+03  0.27379362017E+04  0.26811056705E+04 0.  0.
        5    1    3    3  502    0 -0.35741278501E+03  0.12670785377E+04  0.53547088302E+03  0.14212610866E+04  0.46999998093E+01 0.  1.
       -5    1    3    3    0  502  0.35741278501E+03 -0.12670785377E+04  0.19476887672E+02  0.13166751151E+04  0.46999998093E+01 0. -1.
</event>
<event>
 5   0  0.2516518E-05  0.2742713E+04  0.7818609E-02  0.8321278E-01
        2   -1    0    0  501    0  0.00000000000E+00  0.00000000000E+00  0.21301914566E+04  0.21301914566E+04  0.25500000920E-02 0. -1.
       -2   -1    0    0    0  501  0.00000000000E+00  0.00000000000E+00 -0.88284029578E+03  0.88284029578E+03  0.25500000920E-02 0.  1.
    10030    2    1    2    0    0  0.00000000000E+00  0.00000000000E+00  0.12473511608E+04  0.30130317524E+04  0.27427131499E+04 0.  0.
        4    1    3    3  502    0  0.40376819662E+03  0.51192252230E+03 -0.70168172991E+03  0.95783729747E+03  0.12699999809E+01 0.  1.
       -4    1    3    3    0  502 -0.40376819662E+03 -0.51192252230E+03  0.19490328907E+04  0.20551944549E+04  0.12699999809E+01 0. -1.
</event>
<event>
 5   0  0.2516518E-05  0.2129575E+04  0.7818609E-02  0.8548326E-01
       -2   -1    0    0    0  501  0.00000000000E+00  0.00000000000E+00  0.53134071977E+03  0.53134071978E+03  0.25500000920E-02 0.  1.
        2   -1    0    0  501    0  0.00000000000E+00  0.00000000000E+00 -0.21337963959E+04  0.21337963959E+04  0.25500000920E-02 0. -1.
    10030    2    1    2    0    0  0.00000000000E+00  0.00000000000E+00 -0.16024556761E+04  0.26651371157E+04  0.21295754627E+04 0.  0.
        4    1    3    3  502    0  0.36760570703E+03 -0.81932548061E+03 -0.15172527284E+04  0.17630898031E+04  0.12699999809E+01 0. -1.
       -4    1    3    3    0  502 -0.36760570703E+03  0.81932548061E+03 -0.85202947780E+02  0.90204731263E+03  0.12699999809E+01 0.  1.
</event>
<event>
 5   0  0.9971923E-06  0.2655816E+04  0.7818609E-02  0.8349485E-01
       -1   -1    0    0    0  501  0.00000000000E+00  0.00000000000E+00  0.11477242800E+04  0.11477242800E+04  0.50400001928E-02 0. -1.
        1   -1    0    0  501    0  0.00000000000E+00  0.00000000000E+00 -0.15363786660E+04  0.15363786660E+04  0.50400001928E-02 0.  1.
    10030    2    1    2    0    0  0.00000000000E+00  0.00000000000E+00 -0.38865438603E+03  0.26841029460E+04  0.26558155796E+04 0.  0.
        2    1    3    3  502    0 -0.65962810118E+03  0.70467105598E+02 -0.13569117367E+04  0.15103921034E+04  0.25500000920E-02 0.  1.
       -2    1    3    3    0  502  0.65962810118E+03 -0.70467105598E+02  0.96825735066E+03  0.11737108426E+04  0.25500000920E-02 0. -1.
</event>
<event>
 5   0  0.2615843E-05  0.2715943E+04  0.7818609E-02  0.8329850E-01
       -2   -1    0    0    0  501  0.00000000000E+00  0.00000000000E+00  0.73377399911E+03  0.73377399911E+03  0.25500000920E-02 0. -1.
        2   -1    0    0  501    0  0.00000000000E+00  0.00000000000E+00 -0.25131537759E+04  0.25131537759E+04  0.25500000920E-02 0.  1.
    10030    2    1    2    0    0  0.00000000000E+00  0.00000000000E+00 -0.17793797767E+04  0.32469277750E+04  0.27159432222E+04 0.  0.
        3    1    3    3  502    0 -0.59812854054E+03 -0.12011263839E+04 -0.11393892306E+04  0.17603039993E+04  0.10100000352E+00 0.  1.
       -3    1    3    3    0  502  0.59812854054E+03  0.12011263839E+04 -0.63999054614E+03  0.14866237757E+04  0.10100000352E+00 0. -1.
</event>
<event>
 5   0  0.1036691E-05  0.2643763E+04  0.7818609E-02  0.8353486E-01
        1   -1    0    0  501    0  0.00000000000E+00  0.00000000000E+00  0.17611070902E+04  0.17611070902E+04  0.50400001928E-02 0. -1.
       -1   -1    0    0    0  501  0.00000000000E+00  0.00000000000E+00 -0.99220020016E+03  0.99220020018E+03  0.50400001928E-02 0.  1.
    10030    2    1    2    0    0  0.00000000000E+00  0.00000000000E+00  0.76890689006E+03  0.27533072904E+04  0.26437630813E+04 0.  0.
        4    1    3    3  502    0  0.11826347547E+04 -0.24474617382E+03 -0.17525709082E+03  0.12203451616E+04  0.12699999809E+01 0.  1.
       -4    1    3    3    0  502 -0.11826347547E+04  0.24474617382E+03  0.94416398088E+03  0.15329621288E+04  0.12699999809E+01 0. -1.
</event>
<event>
 5   0  0.2540232E-05  0.2654214E+04  0.7818609E-02  0.8350016E-01
       -2   -1    0    0    0  501  0.00000000000E+00  0.00000000000E+00  0.10951185144E+04  0.10951185144E+04  0.25500000920E-02 0.  1.
        2   -1    0    0  501    0  0.00000000000E+00  0.00000000000E+00 -0.16082393350E+04  0.16082393350E+04  0.25500000920E-02 0. -1.
    10030    2    1    2    0    0  0.00000000000E+00  0.00000000000E+00 -0.51312082059E+03  0.27033578494E+04  0.26542137603E+04 0.  0.
        1    1    3    3  502    0  0.66550203041E+03  0.45189693532E+03 -0.13316173309E+04  0.15557340739E+04  0.50400001928E-02 0. -1.
       -1    1    3    3    0  502 -0.66550203041E+03 -0.45189693532E+03  0.81849651035E+03  0.11476237755E+04  0.50400001928E-02 0.  1.
</event>
<event>
 5   0  0.2540684E-05  0.2704763E+04  0.7818609E-02  0.8333461E-01
        2   -1    0    0  501    0  0.00000000000E+00  0.00000000000E+00  0.68378969683E+03  0.68378969683E+03  0.25500000920E-02 0.  1.
       -2   -1    0    0    0  501  0.00000000000E+00  0.00000000000E+00 -0.26747042015E+04  0.26747042015E+04  0.25500000920E-02 0. -1.
    10030    2    1    2    0    0  0.00000000000E+00  0.00000000000E+00 -0.19909145047E+04  0.33584938984E+04  0.27047625959E+04 0.  0.
        2    1    3    3  502    0  0.11484525502E+03 -0.43010076552E+03  0.59020363396E+03  0.73926749600E+03  0.25500000920E-02 0.  1.
       -2    1    3    3    0  502 -0.11484525502E+03  0.43010076552E+03 -0.25811181387E+04  0.26192264024E+04  0.25500000920E-02 0. -1.
</event>
<event>
 5   0  0.1036691E-05  0.2670946E+04  0.7818609E-02  0.8344494E-01
       -1   -1    0    0    0  501  0.00000000000E+00  0.00000000000E+00  0.78752166288E+03  0.78752166289E+03  0.50400001928E-02 0. -1.
        1   -1    0    0  501    0  0.00000000000E+00  0.00000000000E+00 -0.22646852720E+04  0.22646852720E+04  0.50400001928E-02 0.  1.
    10030    2    1    2    0    0  0.00000000000E+00  0.00000000000E+00 -0.14771636091E+04  0.30522069349E+04  0.26709464325E+04 0.  0.
        4    1    3    3  502    0 -0.13313998686E+04  0.57301331568E+02 -0.63910372151E+03  0.14779594827E+04  0.12699999809E+01 0. -1.
       -4    1    3    3    0  502  0.13313998686E+04 -0.57301331568E+02 -0.83805988759E+03  0.15742474522E+04  0.12699999809E+01 0.  1.
</event>
<event>
 5   0  0.9971923E-06  0.2568415E+04  0.7818609E-02  0.8379010E-01
        1   -1    0    0  501    0  0.00000000000E+00  0.00000000000E+00  0.14401731919E+04  0.14401731919E+04  0.50400001928E-02 0. -1.
       -1   -1    0    0    0  501  0.00000000000E+00  0.00000000000E+00 -0.11451324263E+04  0.11451324263E+04  0.50400001928E-02 0.  1.
    10030    2    1    2    0    0  0.00000000000E+00  0.00000000000E+00  0.29504076560E+03  0.25853056183E+04  0.25684150923E+04 0.  0.
        2    1    3    3  502    0  0.42409499025E+03 -0.11428968697E+04  0.55405658555E+03  0.13390476151E+04  0.25500000920E-02 0. -1.
       -2    1    3    3    0  502 -0.42409499025E+03  0.11428968697E+04 -0.25901581995E+03  0.12462580032E+04  0.25500000920E-02 0.  1.
</event>
<event>
 5   0  0.2516518E-05  0.2708137E+04  0.7818609E-02  0.8332370E-01
       -2   -1    0    0    0  501  0.00000000000E+00  0.00000000000E+00  0.20371623115E+04  0.20371623115E+04  0.25500000920E-02 0.  1.
        2   -1    0    0  501    0  0.00000000000E+00  0.00000000000E+00 -0.90002690152E+03  0.90002690153E+03  0.25500000920E-02 0. -1.
    10030    2    1    2    0    0  0.00000000000E+00  0.00000000000E+00  0.11371354100E+04  0.29371892131E+04  0.27081365425E+04 0.  0.
        4    1    3    3  502    0 -0.11296312249E+03  0.12010454841E+04 -0.98451602647E+02  0.12103574897E+04  0.12699999809E+01 0. -1.
       -4    1    3    3    0  502  0.11296312249E+03 -0.12010454841E+04  0.12355870127E+04  0.17268317233E+04  0.12699999809E+01 0.  1.
</event>
<event>
 5   0  0.2516518E-05  0.2415083E+04  0.7818609E-02  0.8433878E-01
       -2   -1    0    0    0  501  0.00000000000E+00  0.00000000000E+00  0.58792234240E+03  0.58792234240E+03  0.25500000920E-02 0.  1.
        2   -1    0    0  501    0  0.00000000000E+00  0.00000000000E+00 -0.24801857011E+04  0.24801857011E+04  0.25500000920E-02 0. -1.
    10030    2    1    2    0    0  0.00000000000E+00  0.00000000000E+00 -0.18922633587E+04  0.30681080435E+04  0.24150830934E+04 0.  0.
        4    1    3    3  502    0 -0.93071688950E+03  0.69426099027E+03 -0.52493754860E+03  0.12742814814E+04  0.12699999809E+01 0.  1.
       -4    1    3    3    0  502  0.93071688950E+03 -0.69426099027E+03 -0.13673258101E+04  0.17938265621E+04  0.12699999809E+01 0. -1.
</event>
<event>
 5   0  0.1036691E-05  0.2295161E+04  0.7818609E-02  0.8479832E-01
        1   -1    0    0  501    0  0.00000000000E+00  0.00000000000E+00  0.77098464289E+03  0.77098464290E+03  0.50400001928E-02 0. -1.
       -1   -1    0    0    0  501  0.00000000000E+00  0.00000000000E+00 -0.17081281212E+04  0.17081281212E+04  0.50400001928E-02 0.  1.
    10030    2    1    2    0    0  0.00000000000E+00  0.00000000000E+00 -0.93714347827E+03  0.24791127641E+04  0.22951606040E+04 0.  0.
        4    1    3    3  502    0  0.79433922064E+03 -0.77777400967E+03 -0.77604740712E+03  0.13557870034E+04  0.12699999809E+01 0. -1.
       -4    1    3    3    0  502 -0.79433922064E+03  0.77777400967E+03 -0.16109607115E+03  0.11233257607E+04  0.12699999809E+01 0.  1.
</event>
<event>
 5   0  0.9971923E-06  0.2679419E+04  0.7818609E-02  0.8341714E-01
        1   -1    0    0  501    0  0.00000000000E+00  0.00000000000E+00  0.12857814397E+04  0.12857814397E+04  0.50400001928E-02 0.  1.
       -1   -1    0    0    0  501  0.00000000000E+00  0.00000000000E+00 -0.13958991661E+04  0.13958991661E+04  0.50400001928E-02 0. -1.
    10030    2    1    2    0    0  0.00000000000E+00  0.00000000000E+00 -0.11011772644E+03  0.26816806059E+04  0.26794187724E+04 0.  0.
        2    1    3    3  502    0 -0.80432448037E+01  0.66209413477E+03  0.11105649443E+04  0.12929763465E+04  0.25500000920E-02 0.  1.
       -2    1    3    3    0  502  0.80432448037E+01 -0.66209413477E+03 -0.12206826708E+04  0.13887042593E+04  0.25500000920E-02 0. -1.
</event>
<event>
 5   0  0.2641216E-05  0.2702249E+04  0.7818609E-02  0.8334276E-01
        2   -1    0    0  501    0  0.00000000000E+00  0.00000000000E+00  0.16465629143E+04  0.16465629143E+04  0.25500000920E-02 0. -1.
       -2   -1    0    0    0  501  0.00000000000E+00  0.00000000000E+00 -0.11086960113E+04  0.11086960113E+04  0.25500000920E-02 0.  1.
    10030    2    1    2    0    0  0.00000000000E+00  0.00000000000E+00  0.53786690302E+03  0.27552589256E+04  0.27022492375E+04 0.  0.
        5    1    3    3  502    0 -0.10233215064E+04 -0.75673517888E+03  0.73135034295E+03  0.14679000138E+04  0.46999998093E+01 0. -1.
       -5    1    3    3    0  502  0.10233215064E+04  0.75673517888E+03 -0.19348343993E+03  0.12873589118E+04  0.46999998093E+01 0.  1.
</event>
<event>
 5   0  0.2641216E-05  0.2673697E+04  0.7818609E-02  0.8343590E-01
        2   -1    0    0  501    0  0.00000000000E+00  0.00000000000E+00  0.12915731364E+04  0.12915731364E+04  0.25500000920E-02 0. -1.
       -2   -1    0    0    0  501  0.00000000000E+00  0.00000000000E+00 -0.13837108513E+04  0.13837108513E+04  0.25500000920E-02 0.  1.
    10030    2    1    2    0    0  0.00000000000E+00  0.00000000000E+00 -0.92137714867E+02  0.26752839878E+04  0.26736968894E+04 0.  0.
        5    1    3    3  502    0 -0.52402572558E+02 -0.67991912526E+03 -0.11965799131E+04  0.13772659964E+04  0.46999998093E+01 0.  1.
       -5    1    3    3    0  502  0.52402572558E+02  0.67991912526E+03  0.11044421982E+04  0.12980179913E+04  0.46999998093E+01 0. -1.
</event>
<event>
 5   0  0.1041909E-05  0.2811952E+04  0.7818609E-02  0.8299567E-01
        1   -1    0    0  501    0  0.00000000000E+00  0.00000000000E+00  0.12741950724E+04  0.12741950724E+04  0.50400001928E-02 0.  1.
       -1   -1    0    0    0  501  0.00000000000E+00  0.00000000000E+00 -0.15513863457E+04  0.15513863457E+04  0.50400001928E-02 0. -1.
    10030    2    1    2    0    0  0.00000000000E+00  0.00000000000E+00 -0.27719127331E+03  0.28255814181E+04  0.28119522308E+04 0.  0.
        5    1    3    3  502    0  0.11304941477E+04  0.17984038265E+03  0.68168639680E+03  0.13323205375E+04  0.46999998093E+01 0.  1.
       -5    1    3    3    0  502 -0.11304941477E+04 -0.17984038265E+03 -0.95887767011E+03  0.14932608806E+04  0.46999998093E+01 0. -1.
</event>
<event>
 5   0  0.2540684E-05  0.1745809E+04  0.7818609E-02  0.8735661E-01
       -2   -1    0    0    0  501  0.00000000000E+00  0.00000000000E+00  0.63170811372E+03  0.63170811372E+03  0.25500000920E-02 0. -1.
        2   -1    0    0  501    0  0.00000000000E+00  0.00000000000E+00 -0.12061933723E+04  0.12061933723E+04  0.25500000920E-02 0.  1.
    10030    2    1    2    0    0  0.00000000000E+00  0.00000000000E+00 -0.57448525862E+03  0.18379014861E+04  0.17458088555E+04 0.  0.
        2    1    3    3  502    0 -0.67951109176E+03 -0.40741593886E+03 -0.67295627409E+03  0.10395158575E+04  0.25500000920E-02 0.  1.
       -2    1    3    3    0  502  0.67951109176E+03  0.40741593886E+03  0.98471015468E+02  0.79838562860E+03  0.25500000920E-02 0. -1.
</event>
<event>
 5   0  0.1036691E-05  0.1881129E+04  0.7818609E-02  0.8664307E-01
        1   -1    0    0  501    0  0.00000000000E+00  0.00000000000E+00  0.19040831652E+04  0.19040831652E+04  0.50400001928E-02 0.  1.
       -1   -1    0    0    0  501  0.00000000000E+00  0.00000000000E+00 -0.46461296351E+03  0.46461296353E+03  0.50400001928E-02 0. -1.
    10030    2    1    2    0    0  0.00000000000E+00  0.00000000000E+00  0.14394702017E+04  0.23686961287E+04  0.18811291526E+04 0.  0.
        4    1    3    3  502    0  0.93569603817E+03  0.93728924597E+02  0.74322232909E+03  0.11986213875E+04  0.12699999809E+01 0. -1.
       -4    1    3    3    0  502 -0.93569603817E+03 -0.93728924597E+02  0.69624787260E+03  0.11700747413E+04  0.12699999809E+01 0.  1.
</event>
<event>
 5   0  0.2615843E-05  0.2059301E+04  0.7818609E-02  0.8579387E-01
       -2   -1    0    0    0  501  0.00000000000E+00  0.00000000000E+00  0.67437396754E+03  0.67437396754E+03  0.25500000920E-02 0. -1.
        2   -1    0    0  501    0  0.00000000000E+00  0.00000000000E+00 -0.15720949728E+04  0.15720949728E+04  0.25500000920E-02 0.  1.
    10030    2    1    2    0    0  0.00000000000E+00  0.00000000000E+00 -0.89772100530E+03  0.22464689404E+04  0.20593007786E+04 0.  0.
        3    1    3    3  502    0  0.41520289426E+03 -0.28268397403E+03 -0.14293728181E+04  0.15150611657E+04  0.10100000352E+00 0.  1.
       -3    1    3    3    0  502 -0.41520289426E+03  0.28268397403E+03  0.53165181280E+03  0.73140777466E+03  0.10100000352E+00 0. -1.
</event>
<event>
 5   0  0.2641216E-05  0.2608807E+04  0.7818609E-02  0.8365216E-01
       -2   -1    0    0    0  501  0.00000000000E+00  0.00000000000E+00  0.14853712497E+04  0.14853712497E+04  0.25500000920E-02 0. -1.
        2   -1    0    0  501    0  0.00000000000E+00  0.00000000000E+00 -0.11454837099E+04  0.11454837099E+04  0.25500000920E-02 0.  1.
    10030    2    1    2    0    0  0.00000000000E+00  0.00000000000E+00  0.33988753981E+03  0.26308549595E+04  0.26088070604E+04 0.  0.
        5    1    3    3  502    0  0.31042827872E+03 -0.12644597463E+04  0.24949206590E+03  0.13257045475E+04  0.46999998093E+01 0.  1.
       -5    1    3    3    0  502 -0.31042827872E+03  0.12644597463E+04  0.90395473911E+02  0.13051504120E+04  0.46999998093E+01 0. -1.
</event>
<event>
 5   0  0.2540684E-05  0.2700104E+04  0.7818609E-02  0.8334971E-01
        2   -1    0    0  501    0  0.00000000000E+00  0.00000000000E+00  0.26461783277E+04  0.26461783277E+04  0.25500000920E-02 0. -1.
       -2   -1    0    0    0  501  0.00000000000E+00  0.00000000000E+00 -0.68878199868E+03  0.68878199868E+03  0.25500000920E-02 0.  1.
    10030    2    1    2    0    0  0.00000000000E+00  0.00000000000E+00  0.19573963290E+04  0.33349603264E+04  0.27001036998E+04 0.  0.
        2    1    3    3  502    0  0.11061366907E+04  0.50032241166E+03  0.17081312469E+04  0.20956080862E+04  0.25500000920E-02 0. -1.
       -2    1    3    3    0  502 -0.11061366907E+04 -0.50032241166E+03  0.24926508208E+03  0.12393522402E+04  0.25500000920E-02 0.  1.
</event>
<event>
 5   0  0.1005265E-05  0.2741880E+04  0.7818609E-02  0.8321543E-01
        1   -1    0    0  501    0  0.00000000000E+00  0.00000000000E+00  0.14524748082E+04  0.14524748082E+04  0.50400001928E-02 0.  1.
       -1   -1    0    0    0  501  0.00000000000E+00  0.00000000000E+00 -0.12939824521E+04  0.12939824522E+04  0.50400001928E-02 0. -1.
    10030    2    1    2    0    0  0.00000000000E+00  0.00000000000E+00  0.15849235602E+03  0.27464572603E+04  0.27418803139E+04 0.  0.
        3    1    3    3  502    0  0.53599510110E+03  0.12558070526E+04 -0.43982764631E+02  0.13661173433E+04  0.10100000352E+00 0.  1.
       -3    1    3    3    0  502 -0.53599510110E+03 -0.12558070526E+04  0.20247512065E+03  0.13803399170E+04  0.10100000352E+00 0. -1.
</event>
<event>
 5   0  0.2540684E-05  0.2700944E+04  0.7818609E-02  0.8334699E-01
        2   -1    0    0  501    0  0.00000000000E+00  0.00000000000E+00  0.14617608337E+04  0.14617608337E+04  0.25500000920E-02 0.  1.
       -2   -1    0    0    0  501  0.00000000000E+00  0.00000000000E+00 -0.12476563184E+04  0.12476563184E+04  0.25500000920E-02 0. -1.
    10030    2    1    2    0    0  0.00000000000E+00  0.00000000000E+00  0.21410451528E+03  0.27094171521E+04  0.27009443831E+04 0.  0.
        2    1    3    3  502    0  0.55739408618E+03  0.11700319356E+04  0.48786429914E+03  0.13848012391E+04  0.25500000920E-02 0.  1.
       -2    1    3    3    0  502 -0.55739408618E+03 -0.11700319356E+04 -0.27375978386E+03  0.13246159129E+04  0.25500000920E-02 0. -1.
</event>
<event>
 5   0  0.1041909E-05  0.2558022E+04  0.7818609E-02  0.8382601E-01
       -1   -1    0    0    0  501  0.00000000000E+00  0.00000000000E+00  0.13743249265E+04  0.13743249265E+04  0.50400001928E-02 0.  1.
        1   -1    0    0  501    0  0.00000000000E+00  0.00000000000E+00 -0.11903077018E+04  0.11903077018E+04  0.50400001928E-02 0. -1.
    10030    2    1    2    0    0  0.00000000000E+00  0.00000000000E+00  0.18401722469E+03  0.25646326283E+04  0.25580223179E+04 0.  0.
        5    1    3    3  502    0 -0.79020221187E+03 -0.42301716857E+03  0.10067722324E+04  0.13479523279E+04  0.46999998093E+01 0.  1.
       -5    1    3    3    0  502  0.79020221187E+03  0.42301716857E+03 -0.82275500767E+03  0.12166803003E+04  0.46999998093E+01 0. -1.
</event>
<event>
 5   0  0.1036691E-05  0.2734073E+04  0.7818609E-02  0.8324033E-01
       -1   -1    0    0    0  501  0.00000000000E+00  0.00000000000E+00  0.10146235676E+04  0.10146235677E+04  0.50400001928E-02 0. -1.
        1   -1    0    0  501    0  0.00000000000E+00  0.00000000000E+00 -0.18418542775E+04  0.18418542775E+04  0.50400001928E-02 0.  1.
    10030    2    1    2    0    0  0.00000000000E+00  0.00000000000E+00 -0.82723070985E+03  0.28564778452E+04  0.27340729750E+04 0.  0.
        4    1    3    3  502    0 -0.77375421879E+03 -0.17977522895E+02 -0.15909041455E+04  0.17691795826E+04  0.12699999809E+01 0.  1.
       -4    1    3    3    0  502  0.77375421879E+03  0.17977522895E+02  0.76367343569E+03  0.10872982625E+04  0.12699999809E+01 0. -1.
</event>
<event>
 5   0  0.2615843E-05  0.2673923E+04  0.7818609E-02  0.8343516E-01
        2   -1    0    0  501    0  0.00000000000E+00  0.00000000000E+00  0.16720919131E+04  0.16720919131E+04  0.25500000920E-02 0.  1.
       -2   -1    0    0    0  501  0.00000000000E+00  0.00000000000E+00 -0.10689995608E+04  0.10689995608E+04  0.25500000920E-02 0. -1.
    10030    2    1    2    0    0  0.00000000000E+00  0.00000000000E+00  0.60309235230E+03  0.27410914739E+04  0.26739226023E+04 0.  0.
        3    1    3    3  502    0 -0.35368313022E+03  0.12980356073E+02  0.16231978892E+04  0.16613342962E+04  0.10100000352E+00 0.  1.
       -3    1    3    3    0  502  0.35368313022E+03 -0.12980356073E+02 -0.10201055369E+04  0.10797571777E+04  0.10100000352E+00 0. -1.
</event>
<event>
 5   0  0.1005265E-05  0.1732645E+04  0.7818609E-02  0.8742962E-01
       -1   -1    0    0    0  501  0.00000000000E+00  0.00000000000E+00  0.43858600371E+03  0.43858600373E+03  0.50400001928E-02 0. -1.
        1   -1    0    0  501    0  0.00000000000E+00  0.00000000000E+00 -0.17112138239E+04  0.17112138240E+04  0.50400001928E-02 0.  1.
    10030    2    1    2    0    0  0.00000000000E+00  0.00000000000E+00 -0.12726278202E+04  0.21497998277E+04  0.17326447213E+04 0.  0.
        3    1    3    3  502    0 -0.10479643380E+03  0.63599330872E+03  0.81876897163E+02  0.64974888824E+03  0.10100000352E+00 0. -1.
       -3    1    3    3    0  502  0.10479643380E+03 -0.63599330872E+03 -0.13545047174E+04  0.15000509395E+04  0.10100000352E+00 0.  1.
</event>
<event>
 5   0  0.9971923E-06  0.2710861E+04  0.7818609E-02  0.8331489E-01
        1   -1    0    0  501    0  0.00000000000E+00  0.00000000000E+00  0.17620511200E+04  0.17620511200E+04  0.50400001928E-02 0.  1.
       -1   -1    0    0    0  501  0.00000000000E+00  0.00000000000E+00 -0.10426440976E+04  0.10426440976E+04  0.50400001928E-02 0. -1.
    10030    2    1    2    0    0  0.00000000000E+00  0.00000000000E+00  0.71940702238E+03  0.28046952177E+04  0.27108612654E+04 0.  0.
        2    1    3    3  502    0  0.22127296164E+03 -0.21903041237E+03 -0.10051466365E+04  0.10522622325E+04  0.25500000920E-02 0. -1.
       -2    1    3    3    0  502 -0.22127296164E+03  0.21903041237E+03  0.17245536589E+04  0.17524329851E+04  0.25500000920E-02 0.  1.
</event>
<event>
 5   0  0.9971923E-06  0.2769414E+04  0.7818609E-02  0.8312827E-01
        1   -1    0    0  501    0  0.00000000000E+00  0.00000000000E+00  0.15656869642E+04  0.15656869643E+04  0.50400001928E-02 0.  1.
       -1   -1    0    0    0  501  0.00000000000E+00  0.00000000000E+00 -0.12246468008E+04  0.12246468008E+04  0.50400001928E-02 0. -1.
    10030    2    1    2    0    0  0.00000000000E+00  0.00000000000E+00  0.34104016348E+03  0.27903337650E+04  0.27694140404E+04 0.  0.
        2    1    3    3  502    0 -0.49933281848E+03  0.54659695096E+03  0.13495354833E+04  0.15392684987E+04  0.25500000920E-02 0.  1.
       -2    1    3    3    0  502  0.49933281848E+03 -0.54659695096E+03 -0.10084953198E+04  0.12510652663E+04  0.25500000920E-02 0. -1.
</event>
<event>
 5   0  0.2516518E-05  0.2640130E+04  0.7818609E-02  0.8354696E-01
        2   -1    0    0  501    0  0.00000000000E+00  0.00000000000E+00  0.19409050143E+04  0.19409050143E+04  0.25500000920E-02 0. -1.
       -2   -1    0    0    0  501  0.00000000000E+00  0.00000000000E+00 -0.89781427446E+03  0.89781427447E+03  0.25500000920E-02 0.  1.
    10030    2    1    2    0    0  0.00000000000E+00  0.00000000000E+00  0.10430907398E+04  0.28387192888E+04  0.26401304719E+04 0.  0.
        4    1    3    3  502    0 -0.33816048882E+03  0.11829734428E+02 -0.85039325657E+03  0.91523918324E+03  0.12699999809E+01 0.  1.
       -4    1    3    3    0  502  0.33816048882E+03 -0.11829734428E+02  0.18934839964E+04  0.19234801055E+04  0.12699999809E+01 0. -1.
</event>
<event>
 5   0  0.1096672E-05  0.2795528E+04  0.7818609E-02  0.8304658E-01
        1   -1    0    0  501    0  0.00000000000E+00  0.00000000000E+00  0.18199698336E+04  0.18199698336E+04  0.50400001928E-02 0.  1.
       -1   -1    0    0    0  501  0.00000000000E+00  0.00000000000E+00 -0.10735034834E+04  0.10735034834E+04  0.50400001928E-02 0. -1.
    10030    2    1    2    0    0  0.00000000000E+00  0.00000000000E+00  0.74646635015E+03  0.28934733170E+04  0.27955278257E+04 0.  0.
        1    1    3    3  502    0  0.89338769583E+02 -0.10183092299E+04  0.13599486439E+04  0.17012922787E+04  0.50400001928E-02 0.  1.
       -1    1    3    3    0  502 -0.89338769583E+02  0.10183092299E+04 -0.61348229372E+03  0.11921810383E+04  0.50400001928E-02 0. -1.
</event>
<event>
 5   0  0.1096672E-05  0.2752759E+04  0.7818609E-02  0.8318087E-01
       -1   -1    0    0    0  501  0.00000000000E+00  0.00000000000E+00  0.93613670063E+03  0.93613670064E+03  0.50400001928E-02 0.  1.
        1   -1    0    0  501    0  0.00000000000E+00  0.00000000000E+00 -0.20236584148E+04  0.20236584149E+04  0.50400001928E-02 0. -1.
    10030    2    1    2    0    0  0.00000000000E+00  0.00000000000E+00 -0.10875217142E+04  0.29597951155E+04  0.27527592788E+04 0.  0.
        1    1    3    3  502    0  0.12310023943E+04  0.60861707632E+03 -0.44382255377E+03  0.14431770853E+04  0.50400001928E-02 0. -1.
       -1    1    3    3    0  502 -0.12310023943E+04 -0.60861707632E+03 -0.64369916045E+03  0.15166180302E+04  0.50400001928E-02 0.  1.
</event>
<event>
 5   0  0.2641216E-05  0.2667676E+04  0.7818609E-02  0.8345570E-01
        2   -1    0    0  501    0  0.00000000000E+00  0.00000000000E+00  0.15117170067E+04  0.15117170067E+04  0.25500000920E-02 0. -1.
       -2   -1    0    0    0  501  0.00000000000E+00  0.00000000000E+00 -0.11768894656E+04  0.11768894656E+04  0.25500000920E-02 0.  1.
    10030    2    1    2    0    0  0.00000000000E+00  0.00000000000E+00  0.33482754108E+03  0.26886064723E+04  0.26676760074E+04 0.  0.
        5    1    3    3  502    0  0.49371340624E+03 -0.71041479984E+03 -0.85576562640E+03  0.12168808539E+04  0.46999998093E+01 0.  1.
       -5    1    3    3    0  502 -0.49371340624E+03  0.71041479984E+03  0.11905931675E+04  0.14717256184E+04  0.46999998093E+01 0. -1.
</event>
<event>
 5   0  0.2540232E-05  0.2518550E+04  0.7818609E-02  0.8396407E-01
        2   -1    0    0  501    0  0.00000000000E+00  0.00000000000E+00  0.18761419070E+04  0.18761419070E+04  0.25500000920E-02 0.  1.
       -2   -1    0    0    0  501  0.00000000000E+00  0.00000000000E+00 -0.84523123571E+03  0.84523123571E+03  0.25500000920E-02 0. -1.
    10030    2    1    2    0    0  0.00000000000E+00  0.00000000000E+00  0.10309106713E+04  0.27213731427E+04  0.25185501722E+04 0.  0.
        1    1    3    3  502    0 -0.42210528340E+03 -0.57672807901E+03  0.16357668765E+04  0.17850830293E+04  0.50400001928E-02 0.  1.
       -1    1    3    3    0  502  0.42210528340E+03  0.57672807901E+03 -0.60485620520E+03  0.93629011337E+03  0.50400001928E-02 0. -1.
</event>
<event>
 5   0  0.2540232E-05  0.2698970E+04  0.7818609E-02  0.8335339E-01
       -2   -1    0    0    0  501  0.00000000000E+00  0.00000000000E+00  0.14775971251E+04  0.14775971251E+04  0.25500000920E-02 0.  1.
        2   -1    0    0  501    0  0.00000000000E+00  0.00000000000E+00 -0.12324807455E+04  0.12324807455E+04  0.25500000920E-02 0. -1.
    10030    2    1    2    0    0  0.00000000000E+00  0.00000000000E+00  0.24511637952E+03  0.27100778706E+04  0.26989701786E+04 0.  0.
        1    1    3    3  502    0  0.43594805172E+03 -0.10091932399E+04 -0.66334316124E+03  0.12839571055E+04  0.50400001928E-02 0. -1.
       -1    1    3    3    0  502 -0.43594805172E+03  0.10091932399E+04  0.90845954076E+03  0.14261207651E+04  0.50400001928E-02 0.  1.
</event>
<event>
 5   0  0.1005265E-05  0.2634168E+04  0.7818609E-02  0.8356687E-01
        1   -1    0    0  501    0  0.00000000000E+00  0.00000000000E+00  0.10799575435E+04  0.10799575435E+04  0.50400001928E-02 0. -1.
       -1   -1    0    0    0  501  0.00000000000E+00  0.00000000000E+00 -0.16062762302E+04  0.16062762302E+04  0.50400001928E-02 0.  1.
    10030    2    1    2    0    0  0.00000000000E+00  0.00000000000E+00 -0.52631868670E+03  0.26862337738E+04  0.26341679004E+04 0.  0.
        3    1    3    3  502    0  0.48143693521E+03 -0.19789331161E+03  0.97061661617E+03  0.11013809110E+04  0.10100000352E+00 0. -1.
       -3    1    3    3    0  502 -0.48143693521E+03  0.19789331161E+03 -0.14969353029E+04  0.15848528627E+04  0.10100000352E+00 0.  1.
</event>
<event>
 5   0  0.2641216E-05  0.2706770E+04  0.7818609E-02  0.8332812E-01
        2   -1    0    0  501    0  0.00000000000E+00  0.00000000000E+00  0.16844707711E+04  0.16844707711E+04  0.25500000920E-02 0. -1.
       -2   -1    0    0    0  501  0.00000000000E+00  0.00000000000E+00 -0.10873747858E+04  0.10873747858E+04  0.25500000920E-02 0.  1.
    10030    2    1    2    0    0  0.00000000000E+00  0.00000000000E+00  0.59709598531E+03  0.27718455568E+04  0.27067700632E+04 0.  0.
        5    1    3    3  502    0 -0.11379320265E+04 -0.61681732095E+03  0.70336977803E+03  0.14731272990E+04  0.46999998093E+01 0. -1.
       -5    1    3    3    0  502  0.11379320265E+04  0.61681732095E+03 -0.10627379273E+03  0.12987182579E+04  0.46999998093E+01 0.  1.
</event>
<event>
 5   0  0.2540684E-05  0.2710081E+04  0.7818609E-02  0.8331741E-01
        2   -1    0    0  501    0  0.00000000000E+00  0.00000000000E+00  0.14336307512E+04  0.14336307512E+04  0.25500000920E-02 0.  1.
       -2   -1    0    0    0  501  0.00000000000E+00  0.00000000000E+00 -0.12807585285E+04  0.12807585285E+04  0.25500000920E-02 0. -1.
    10030    2    1    2    0    0  0.00000000000E+00  0.00000000000E+00  0.15287222262E+03  0.27143892797E+04  0.27100810404E+04 0.  0.
        2    1    3    3  502    0 -0.87851914716E+03  0.52650644331E+03  0.96504991279E+03  0.14072406550E+04  0.25500000920E-02 0.  1.
       -2    1    3    3    0  502  0.87851914716E+03 -0.52650644331E+03 -0.81217769017E+03  0.13071486248E+04  0.25500000920E-02 0. -1.
</event>
<event>
 5   0  0.1041909E-05  0.2856309E+04  0.7818609E-02  0.8285997E-01
       -1   -1    0    0    0  501  0.00000000000E+00  0.00000000000E+00  0.98614888495E+03  0.98614888496E+03  0.50400001928E-02 0. -1.
        1   -1    0    0  501    0  0.00000000000E+00  0.00000000000E+00 -0.20682729218E+04  0.20682729218E+04  0.50400001928E-02 0.  1.
    10030    2    1    2    0    0  0.00000000000E+00  0.00000000000E+00 -0.10821240368E+04  0.30544218067E+04  0.28563088318E+04 0.  0.
        5    1    3    3  502    0  0.72720034491E+03 -0.98869352128E+03 -0.13219639530E+04  0.18038697302E+04  0.46999998093E+01 0.  1.
       -5    1    3    3    0  502 -0.72720034491E+03  0.98869352128E+03  0.23983991617E+03  0.12505520765E+04  0.46999998093E+01 0. -1.
</event>
<event>
 5   0  0.2540232E-05  0.2801011E+04  0.7818609E-02  0.8302955E-01
        2   -1    0    0  501    0  0.00000000000E+00  0.00000000000E+00  0.14661771328E+04  0.14661771328E+04  0.25500000920E-02 0.  1.
       -2   -1    0    0    0  501  0.00000000000E+00  0.00000000000E+00 -0.13377752342E+04  0.13377752342E+04  0.25500000920E-02 0. -1.
    10030    2    1    2    0    0  0.00000000000E+00  0.00000000000E+00  0.12840189858E+03  0.28039523670E+04  0.28010108584E+04 0.  0.
        1    1    3    3  502    0  0.40258184943E+02  0.12653191324E+04 -0.53539569841E+03  0.13745187456E+04  0.50400001928E-02 0. -1.
       -1    1    3    3    0  502 -0.40258184943E+02 -0.12653191324E+04  0.66379759699E+03  0.14294336214E+04  0.50400001928E-02 0.  1.
</event>
<event>
 5   0  0.2516518E-05  0.2554515E+04  0.7818609E-02  0.8383818E-01
        2   -1    0    0  501    0  0.00000000000E+00  0.00000000000E+00  0.15391187220E+04  0.15391187220E+04  0.25500000920E-02 0. -1.
       -2   -1    0    0    0  501  0.00000000000E+00  0.00000000000E+00 -0.10599486195E+04  0.10599486195E+04  0.25500000920E-02 0.  1.
    10030    2    1    2    0    0  0.00000000000E+00  0.00000000000E+00  0.47917010245E+03  0.25990673415E+04  0.25545150339E+04 0.  0.
        4    1    3    3  502    0 -0.27351569694E+03  0.97291108027E+03  0.10342435219E+04  0.14460387554E+04  0.12699999809E+01 0. -1.
       -4    1    3    3    0  502  0.27351569694E+03 -0.97291108027E+03 -0.55507341944E+03  0.11530285861E+04  0.12699999809E+01 0.  1.
</event>
<event>
 5   0  0.2540232E-05  0.2735886E+04  0.7818609E-02  0.8323454E-01
        2   -1    0    0  501    0  0.00000000000E+00  0.00000000000E+00  0.98907836146E+03  0.98907836147E+03  0.25500000920E-02 0. -1.
       -2   -1    0    0    0  501  0.00000000000E+00  0.00000000000E+00 -0.18919303911E+04  0.18919303911E+04  0.25500000920E-02 0.  1.
    10030    2    1    2    0    0  0.00000000000E+00  0.00000000000E+00 -0.90285202964E+03  0.28810087526E+04  0.27358855321E+04 0.  0.
        1    1    3    3  502    0  0.31773509778E+03  0.83676534541E+03  0.63792051900E+03  0.10991243898E+04  0.50400001928E-02 0. -1.
       -1    1    3    3    0  502 -0.31773509778E+03 -0.83676534541E+03 -0.15407725486E+04  0.17818843628E+04  0.50400001928E-02 0.  1.
</event>
<event>
 5   0  0.2540684E-05  0.2505159E+04  0.7818609E-02  0.8401150E-01
        2   -1    0    0  501    0  0.00000000000E+00  0.00000000000E+00  0.14145959059E+04  0.14145959059E+04  0.25500000920E-02 0.  1.
       -2   -1    0    0    0  501  0.00000000000E+00  0.00000000000E+00 -0.11091188985E+04  0.11091188985E+04  0.25500000920E-02 0. -1.
    10030    2    1    2    0    0  0.00000000000E+00  0.00000000000E+00  0.30547700749E+03  0.25237148044E+04  0.25051587199E+04 0.  0.
        2    1    3    3  502    0  0.52155207598E+03  0.32366531029E+02 -0.99406562396E+03  0.11230452462E+04  0.25500000920E-02 0. -1.
       -2    1    3    3    0  502 -0.52155207598E+03 -0.32366531029E+02  0.12995426314E+04  0.14006695582E+04  0.25500000920E-02 0.  1.
</event>
<event>
 5   0  0.9971923E-06  0.2610740E+04  0.7818609E-02  0.8364562E-01
        1   -1    0    0  501    0  0.00000000000E+00  0.00000000000E+00  0.10825292605E+04  0.10825292605E+04  0.50400001928E-02 0. -1.
       -1   -1    0    0    0  501  0.00000000000E+00  0.00000000000E+00 -0.15740835231E+04  0.15740835231E+04  0.50400001928E-02 0.  1.
    10030    2    1    2    0    0  0.00000000000E+00  0.00000000000E+00 -0.49155426260E+03  0.26566127836E+04  0.26107404867E+04 0.  0.
        2    1    3    3  502    0  0.61001150003E+03  0.98337315541E+03 -0.86042235930E+03  0.14420344758E+04  0.25500000920E-02 0.  1.
       -2    1    3    3    0  502 -0.61001150003E+03 -0.98337315541E+03  0.36886809670E+03  0.12145783078E+04  0.25500000920E-02 0. -1.
</event>
<event>
 5   0  0.9971923E-06  0.1932765E+04  0.7818609E-02  0.8638717E-01
        1   -1    0    0  501    0  0.00000000000E+00  0.00000000000E+00  0.18890859328E+04  0.18890859329E+04  0.50400001928E-02 0. -1.
       -1   -1    0    0    0  501  0.00000000000E+00  0.00000000000E+00 -0.49436336986E+03  0.49436336989E+03  0.50400001928E-02 0.  1.
    10030    2    1    2    0    0  0.00000000000E+00  0.00000000000E+00  0.13947225630E+04  0.23834493027E+04  0.19327647428E+04 0.  0.
        2    1    3    3  502    0  0.63757115631E+03  0.66843234069E+03  0.10474547239E+04  0.13965887627E+04  0.25500000920E-02 0. -1.
       -2    1    3    3    0  502 -0.63757115631E+03 -0.66843234069E+03  0.34726783906E+03  0.98686054004E+03  0.25500000920E-02 0.  1.
</event>
<event>
 5   0  0.2540232E-05  0.2183488E+04  0.7818609E-02  0.8525332E-01
        2   -1    0    0  501    0  0.00000000000E+00  0.00000000000E+00  0.18373876894E+04  0.18373876894E+04  0.25500000920E-02 0. -1.
       -2   -1    0    0    0  501  0.00000000000E+00  0.00000000000E+00 -0.64869564893E+03  0.64869564893E+03  0.25500000920E-02 0.  1.
    10030    2    1    2    0    0  0.00000000000E+00  0.00000000000E+00  0.11886920404E+04  0.24860833383E+04  0.21834884011E+04 0.  0.
        1    1    3    3  502    0  0.46689412624E+03  0.58676177524E+03  0.14978001007E+04  0.16750178052E+04  0.50400001928E-02 0. -1.
       -1    1    3    3    0  502 -0.46689412624E+03 -0.58676177524E+03 -0.30910806029E+03  0.81106553309E+03  0.50400001928E-02 0.  1.
</event>
<event>
 5   0  0.1096672E-05  0.2706990E+04  0.7818609E-02  0.8332740E-01
       -1   -1    0    0    0  501  0.00000000000E+00  0.00000000000E+00  0.12430932436E+04  0.12430932436E+04  0.50400001928E-02 0.  1.
        1   -1    0    0  501    0  0.00000000000E+00  0.00000000000E+00 -0.14737022624E+04  0.14737022624E+04  0.50400001928E-02 0. -1.
    10030    2    1    2    0    0  0.00000000000E+00  0.00000000000E+00 -0.23060901873E+03  0.27167955060E+04  0.27069904510E+04 0.  0.
        1    1    3    3  502    0 -0.57129095672E+02 -0.16213785735E+03  0.12320920782E+04  0.12440270526E+04  0.50400001928E-02 0.  1.
       -1    1    3    3    0  502  0.57129095672E+02  0.16213785735E+03 -0.14627010970E+04  0.14727684534E+04  0.50400001928E-02 0. -1.
</event>
<event>
 5   0  0.1041909E-05  0.2676314E+04  0.7818609E-02  0.8342732E-01
        1   -1    0    0  501    0  0.00000000000E+00  0.00000000000E+00  0.12279184406E+04  0.12279184406E+04  0.50400001928E-02 0. -1.
       -1   -1    0    0    0  501  0.00000000000E+00  0.00000000000E+00 -0.14582919945E+04  0.14582919945E+04  0.50400001928E-02 0.  1.
    10030    2    1    2    0    0  0.00000000000E+00  0.00000000000E+00 -0.23037355388E+03  0.26862104350E+04  0.26763136077E+04 0.  0.
        5    1    3    3  502    0  0.93641942478E+03  0.95282991489E+03 -0.38252456852E+02  0.13365072115E+04  0.46999998093E+01 0. -1.
       -5    1    3    3    0  502 -0.93641942478E+03 -0.95282991489E+03 -0.19212109703E+03  0.13497032236E+04  0.46999998093E+01 0.  1.
</event>
<event>
 5   0  0.2540232E-05  0.2717916E+04  0.7818609E-02  0.8329215E-01
        2   -1    0    0  501    0  0.00000000000E+00  0.00000000000E+00  0.11912276643E+04  0.11912276643E+04  0.25500000920E-02 0. -1.
       -2   -1    0    0    0  501  0.00000000000E+00  0.00000000000E+00 -0.15503056143E+04  0.15503056143E+04  0.25500000920E-02 0.  1.
    10030    2    1    2    0    0  0.00000000000E+00  0.00000000000E+00 -0.35907795001E+03  0.27415332786E+04  0.27179160663E+04 0.  0.
        1    1    3    3  502    0  0.64003831751E+03  0.11982573246E+04 -0.14320833976E+03  0.13660081598E+04  0.50400001928E-02 0.  1.
       -1    1    3    3    0  502 -0.64003831751E+03 -0.11982573246E+04 -0.21586961025E+03  0.13755251188E+04  0.50400001928E-02 0. -1.
</event>
<event>
 5   0  0.1036691E-05  0.2691349E+04  0.7818609E-02  0.8337817E-01
        1   -1    0    0  501    0  0.00000000000E+00  0.00000000000E+00  0.10181536233E+04  0.10181536233E+04  0.50400001928E-02 0. -1.
       -1   -1    0    0    0  501  0.00000000000E+00  0.00000000000E+00 -0.17785524348E+04  0.17785524348E+04  0.50400001928E-02 0.  1.
    10030    2    1    2    0    0  0.00000000000E+00  0.00000000000E+00 -0.76039881150E+03  0.27967060582E+04  0.26913488112E+04 0.  0.
        4    1    3    3  502    0 -0.11828497408E+04  0.63670089892E+03 -0.46278671829E+03  0.14208077644E+04  0.12699999809E+01 0.  1.
       -4    1    3    3    0  502  0.11828497408E+04 -0.63670089892E+03 -0.29761209321E+03  0.13758982938E+04  0.12699999809E+01 0. -1.
</event>
<event>
 5   0  0.2540684E-05  0.2719954E+04  0.7818609E-02  0.8328559E-01
       -2   -1    0    0    0  501  0.00000000000E+00  0.00000000000E+00  0.13040768028E+04  0.13040768028E+04  0.25500000920E-02 0.  1.
        2   -1    0    0  501    0  0.00000000000E+00  0.00000000000E+00 -0.14182737101E+04  0.14182737101E+04  0.25500000920E-02 0. -1.
    10030    2    1    2    0    0  0.00000000000E+00  0.00000000000E+00 -0.11419690729E+03  0.27223505128E+04  0.27199542976E+04 0.  0.
        2    1    3    3  502    0 -0.81960040647E+03  0.64049334004E+02 -0.11414229439E+04  0.14066603998E+04  0.25500000920E-02 0. -1.
       -2    1    3    3    0  502  0.81960040647E+03 -0.64049334004E+02  0.10272260366E+04  0.13156901131E+04  0.25500000920E-02 0.  1.
</event>
<event>
 5   0  0.1036691E-05  0.2683133E+04  0.7818609E-02  0.8340499E-01
       -1   -1    0    0    0  501  0.00000000000E+00  0.00000000000E+00  0.14223407488E+04  0.14223407488E+04  0.50400001928E-02 0.  1.
        1   -1    0    0  501    0  0.00000000000E+00  0.00000000000E+00 -0.12653793985E+04  0.12653793985E+04  0.50400001928E-02 0. -1.
    10030    2    1    2    0    0  0.00000000000E+00  0.00000000000E+00  0.15696135033E+03  0.26877201473E+04  0.26831330054E+04 0.  0.
        4    1    3    3  502    0  0.10362783649E+03 -0.72677424893E+03 -0.10463190409E+04  0.12781724006E+04  0.12699999809E+01 0. -1.
       -4    1    3    3    0  502 -0.10362783649E+03  0.72677424893E+03  0.12032803912E+04  0.14095477467E+04  0.12699999809E+01 0.  1.
</event>
<event>
 5   0  0.1096672E-05  0.2694436E+04  0.7818609E-02  0.8336812E-01
        1   -1    0    0  501    0  0.00000000000E+00  0.00000000000E+00  0.20644062077E+04  0.20644062077E+04  0.50400001928E-02 0.  1.
       -1   -1    0    0    0  501  0.00000000000E+00  0.00000000000E+00 -0.87918588424E+03  0.87918588426E+03  0.50400001928E-02 0. -1.
    10030    2    1    2    0    0  0.00000000000E+00  0.00000000000E+00  0.11852203234E+04  0.29435920919E+04  0.26944363397E+04 0.  0.
        1    1    3    3  502    0 -0.27872458523E+03 -0.79493737616E+03 -0.55598314622E+03  0.10093215966E+04  0.50400001928E-02 0. -1.
       -1    1    3    3    0  502  0.27872458523E+03  0.79493737616E+03  0.17412034696E+04  0.19342704953E+04  0.50400001928E-02 0.  1.
</event>
<event>
 5   0  0.2641216E-05  0.2601831E+04  0.7818609E-02  0.8367580E-01
       -2   -1    0    0    0  501  0.00000000000E+00  0.00000000000E+00  0.15659981993E+04  0.15659981993E+04  0.25500000920E-02 0.  1.
        2   -1    0    0  501    0  0.00000000000E+00  0.00000000000E+00 -0.10807042815E+04  0.10807042815E+04  0.25500000920E-02 0. -1.
    10030    2    1    2    0    0  0.00000000000E+00  0.00000000000E+00  0.48529391781E+03  0.26467024808E+04  0.26018308622E+04 0.  0.
        5    1    3    3  502    0 -0.87225495855E+03 -0.40373458482E+02 -0.73829705238E+03  0.11434873661E+04  0.46999998093E+01 0. -1.
       -5    1    3    3    0  502  0.87225495855E+03  0.40373458482E+02  0.12235909702E+04  0.15032151147E+04  0.46999998093E+01 0.  1.
</event>
<event>
 5   0  0.1005265E-05  0.2696717E+04  0.7818609E-02  0.8336071E-01
        1   -1    0    0  501    0  0.00000000000E+00  0.00000000000E+00  0.11967509786E+04  0.11967509786E+04  0.50400001928E-02 0. -1.
       -1   -1    0    0    0  501  0.00000000000E+00  0.00000000000E+00 -0.15191716474E+04  0.15191716474E+04  0.50400001928E-02 0.  1.
    10030    2    1    2    0    0  0.00000000000E+00  0.00000000000E+00 -0.32242066879E+03  0.27159226260E+04  0.26967166375E+04 0.  0.
        3    1    3    3  502    0  0.20365241482E+03  0.64781198949E+03 -0.13343822973E+04  0.14972343855E+04  0.10100000352E+00 0.  1.
       -3    1    3    3    0  502 -0.20365241482E+03 -0.64781198949E+03  0.10119616285E+04  0.12186882405E+04  0.10100000352E+00 0. -1.
</event>
<event>
 5   0  0.1005265E-05  0.2687448E+04  0.7818609E-02  0.8339089E-01
        1   -1    0    0  501    0  0.00000000000E+00  0.00000000000E+00  0.21704681804E+04  0.21704681804E+04  0.50400001928E-02 0. -1.
       -1   -1    0    0    0  501  0.00000000000E+00  0.00000000000E+00 -0.83189136581E+03  0.83189136583E+03  0.50400001928E-02 0.  1.
    10030    2    1    2    0    0  0.00000000000E+00  0.00000000000E+00  0.13385768146E+04  0.30023595463E+04  0.26874476658E+04 0.  0.
        3    1    3    3  502    0 -0.65474011630E+03  0.63688522662E+03  0.17703112249E+04  0.19920615590E+04  0.10100000352E+00 0. -1.
       -3    1    3    3    0  502  0.65474011630E+03 -0.63688522662E+03 -0.43173441028E+03  0.10102979872E+04  0.10100000352E+00 0.  1.
</event>
<event>
 5   0  0.2540684E-05  0.2722176E+04  0.7818609E-02  0.8327845E-01
        2   -1    0    0  501    0  0.00000000000E+00  0.00000000000E+00  0.18138367300E+04  0.18138367300E+04  0.25500000920E-02 0. -1.
       -2   -1    0    0    0  501  0.00000000000E+00  0.00000000000E+00 -0.10213491617E+04  0.10213491617E+04  0.25500000920E-02 0.  1.
    10030    2    1    2    0    0  0.00000000000E+00  0.00000000000E+00  0.79248756837E+03  0.28351858917E+04  0.27221760587E+04 0.  0.
        2    1    3    3  502    0 -0.11781834050E+04  0.57977821938E+03  0.23181331281E+02  0.13133150017E+04  0.25500000920E-02 0.  1.
       -2    1    3    3    0  502  0.11781834050E+04 -0.57977821938E+03  0.76930623709E+03  0.15218708900E+04  0.25500000920E-02 0. -1.
</event>
<event>
 5   0  0.2516518E-05  0.2701743E+04  0.7818609E-02  0.8334440E-01
       -2   -1    0    0    0  501  0.00000000000E+00  0.00000000000E+00  0.91646956279E+03  0.91646956280E+03  0.25500000920E-02 0. -1.
        2   -1    0    0  501    0  0.00000000000E+00  0.00000000000E+00 -0.19911770941E+04  0.19911770941E+04  0.25500000920E-02 0.  1.
    10030    2    1    2    0    0  0.00000000000E+00  0.00000000000E+00 -0.10747075313E+04  0.29076466569E+04  0.27017425495E+04 0.  0.
        4    1    3    3  502    0  0.86701008402E+03  0.83835067381E+03  0.11755724541E+03  0.12117589104E+04  0.12699999809E+01 0. -1.
       -4    1    3    3    0  502 -0.86701008402E+03 -0.83835067381E+03 -0.11922647768E+04  0.16958877465E+04  0.12699999809E+01 0.  1.
</event>
<event>
 5   0  0.1005265E-05  0.2285070E+04  0.7818609E-02  0.8483831E-01
        1   -1    0    0  501    0  0.00000000000E+00  0.00000000000E+00  0.17244601623E+04  0.17244601623E+04  0.50400001928E-02 0. -1.
       -1   -1    0    0    0  501  0.00000000000E+00  0.00000000000E+00 -0.75698244684E+03  0.75698244686E+03  0.50400001928E-02 0.  1.
    10030    2    1    2    0    0  0.00000000000E+00  0.00000000000E+00  0.96747771545E+03  0.24814426092E+04  0.22850698660E+04 0.  0.
        3    1    3    3  502    0  0.74719649261E+03  0.30084294081E+03 -0.39619004128E+03  0.89765006133E+03  0.10100000352E+00 0.  1.
       -3    1    3    3    0  502 -0.74719649261E+03 -0.30084294081E+03  0.13636677567E+04  0.15837925478E+04  0.10100000352E+00 0. -1.
</event>
<event>
 5   0  0.2540684E-05  0.2264288E+04  0.7818609E-02  0.8492136E-01
        2   -1    0    0  501    0  0.00000000000E+00  0.00000000000E+00  0.12734411249E+04  0.12734411249E+04  0.25500000920E-02 0. -1.
       -2   -1    0    0    0  501  0.00000000000E+00  0.00000000000E+00 -0.10065249269E+04  0.10065249269E+04  0.25500000920E-02 0.  1.
    10030    2    1    2    0    0  0.00000000000E+00  0.00000000000E+00  0.26691619805E+03  0.22799660518E+04  0.22642881753E+04 0.  0.
        2    1    3    3  502    0 -0.31192715399E+03  0.10877157060E+04  0.96788523267E+02  0.11356901095E+04  0.25500000920E-02 0.  1.
       -2    1    3    3    0  502  0.31192715399E+03 -0.10877157060E+04  0.17012767478E+03  0.11442759423E+04  0.25500000920E-02 0. -1.
</event>
<event>
 5   0  0.2516518E-05  0.2656039E+04  0.7818609E-02  0.8349411E-01
        2   -1    0    0  501    0  0.00000000000E+00  0.00000000000E+00  0.17469172262E+04  0.17469172262E+04  0.25500000920E-02 0. -1.
       -2   -1    0    0    0  501  0.00000000000E+00  0.00000000000E+00 -0.10095702081E+04  0.10095702081E+04  0.25500000920E-02 0.  1.
    10030    2    1    2    0    0  0.00000000000E+00  0.00000000000E+00  0.73734701805E+03  0.27564874343E+04  0.26560388458E+04 0.  0.
        4    1    3    3  502    0 -0.53424755441E+03  0.72497723295E+03  0.13816090103E+04  0.16491990504E+04  0.12699999809E+01 0. -1.
       -4    1    3    3    0  502  0.53424755441E+03 -0.72497723295E+03 -0.64426199221E+03  0.11072883839E+04  0.12699999809E+01 0.  1.
</event>
<event>
 5   0  0.2615843E-05  0.2689164E+04  0.7818609E-02  0.8338530E-01
       -2   -1    0    0    0  501  0.00000000000E+00  0.00000000000E+00  0.87493874208E+03  0.87493874208E+03  0.25500000920E-02 0. -1.
        2   -1    0    0  501    0  0.00000000000E+00  0.00000000000E+00 -0.20663164711E+04  0.20663164711E+04  0.25500000920E-02 0.  1.
    10030    2    1    2    0    0  0.00000000000E+00  0.00000000000E+00 -0.11913777291E+04  0.29412552132E+04  0.26891636871E+04 0.  0.
        3    1    3    3  502    0  0.13376966572E+04 -0.11748439880E+03 -0.67039557133E+03  0.15008881247E+04  0.10100000352E+00 0.  1.
       -3    1    3    3    0  502 -0.13376966572E+04  0.11748439880E+03 -0.52098215773E+03  0.14403670885E+04  0.10100000352E+00 0. -1.
</event>
<event>
 5   0  0.1005265E-05  0.2629894E+04  0.7818609E-02  0.8358117E-01
        1   -1    0    0  501    0  0.00000000000E+00  0.00000000000E+00  0.20761255606E+04  0.20761255606E+04  0.50400001928E-02 0.  1.
       -1   -1    0    0    0  501  0.00000000000E+00  0.00000000000E+00 -0.83284252371E+03  0.83284252373E+03  0.50400001928E-02 0. -1.
    10030    2    1    2    0    0  0.00000000000E+00  0.00000000000E+00  0.12432830369E+04  0.29089680844E+04  0.26298940294E+04 0.  0.
        3    1    3    3  502    0 -0.34744863568E+02 -0.50821760260E+03 -0.71926743176E+03  0.88138413063E+03  0.10100000352E+00 0. -1.
       -3    1    3    3    0  502  0.34744863568E+02  0.50821760260E+03  0.19625504687E+04  0.20275839537E+04  0.10100000352E+00 0.  1.
</event>
<event>
 5   0  0.2540684E-05  0.2667177E+04  0.7818609E-02  0.8345734E-01
        2   -1    0    0  501    0  0.00000000000E+00  0.00000000000E+00  0.56004523267E+03  0.56004523267E+03  0.25500000920E-02 0. -1.
       -2   -1    0    0    0  501  0.00000000000E+00  0.00000000000E+00 -0.31755626508E+04  0.31755626508E+04  0.25500000920E-02 0.  1.
    10030    2    1    2    0    0  0.00000000000E+00  0.00000000000E+00 -0.26155174182E+04  0.37356078835E+04  0.26671773272E+04 0.  0.
        2    1    3    3  502    0 -0.13068865322E+04 -0.14811933775E+03 -0.99909900878E+03  0.16516932450E+04  0.25500000920E-02 0. -1.
       -2    1    3    3    0  502  0.13068865322E+04  0.14811933775E+03 -0.16164184094E+04  0.20839146385E+04  0.25500000920E-02 0.  1.
</event>
<event>
 5   0  0.8740500E-06  0.2436212E+04  0.7818609E-02  0.8426069E-01
       -3   -1    0    0    0  501  0.00000000000E+00  0.00000000000E+00  0.15958722897E+04  0.15958722929E+04  0.10100000352E+00 0.  1.
        3   -1    0    0  501    0  0.00000000000E+00  0.00000000000E+00 -0.92976241000E+03  0.92976241548E+03  0.10100000352E+00 0. -1.
    10030    2    1    2    0    0  0.00000000000E+00  0.00000000000E+00  0.66610987971E+03  0.25256347084E+04  0.24362118767E+04 0.  0.
        2    1    3    3  502    0 -0.71413812355E+02  0.11282167928E+03  0.15882625556E+04  0.15938653047E+04  0.25500000920E-02 0.  1.
       -2    1    3    3    0  502  0.71413812355E+02 -0.11282167928E+03 -0.92215267592E+03  0.93176940368E+03  0.25500000920E-02 0. -1.
</event>
<event>
 5   0  0.1036691E-05  0.2701519E+04  0.7818609E-02  0.8334512E-01
       -1   -1    0    0    0  501  0.00000000000E+00  0.00000000000E+00  0.24124466575E+04  0.24124466575E+04  0.50400001928E-02 0. -1.
        1   -1    0    0  501    0  0.00000000000E+00  0.00000000000E+00 -0.75630756606E+03  0.75630756608E+03  0.50400001928E-02 0.  1.
    10030    2    1    2    0    0  0.00000000000E+00  0.00000000000E+00  0.16561390914E+04  0.31687542236E+04  0.27015193205E+04 0.  0.
        4    1    3    3  502    0 -0.43307021025E+03 -0.11873725359E+04  0.13870977175E+04  0.18765513680E+04  0.12699999809E+01 0. -1.
       -4    1    3    3    0  502  0.43307021025E+03  0.11873725359E+04  0.26904137396E+03  0.12922028556E+04  0.12699999809E+01 0.  1.
</event>
<event>
 5   0  0.2540684E-05  0.2629865E+04  0.7818609E-02  0.8358127E-01
        2   -1    0    0  501    0  0.00000000000E+00  0.00000000000E+00  0.13809774949E+04  0.13809774949E+04  0.25500000920E-02 0. -1.
       -2   -1    0    0    0  501  0.00000000000E+00  0.00000000000E+00 -0.12520457185E+04  0.12520457185E+04  0.25500000920E-02 0.  1.
    10030    2    1    2    0    0  0.00000000000E+00  0.00000000000E+00  0.12893177637E+03  0.26330232133E+04  0.26298646047E+04 0.  0.
        2    1    3    3  502    0 -0.87901045992E+03 -0.16042141260E+03  0.10303278925E+04  0.13638071654E+04  0.25500000920E-02 0. -1.
       -2    1    3    3    0  502  0.87901045992E+03  0.16042141260E+03 -0.90139611612E+03  0.12692160480E+04  0.25500000920E-02 0.  1.
</event>
<event>
 5   0  0.1041909E-05  0.2692295E+04  0.7818609E-02  0.8337509E-01
        1   -1    0    0  501    0  0.00000000000E+00  0.00000000000E+00  0.16300700255E+04  0.16300700255E+04  0.50400001928E-02 0. -1.
       -1   -1    0    0    0  501  0.00000000000E+00  0.00000000000E+00 -0.11116777848E+04  0.11116777848E+04  0.50400001928E-02 0.  1.
    10030    2    1    2    0    0  0.00000000000E+00  0.00000000000E+00  0.51839224072E+03  0.27417478104E+04  0.26922946608E+04 0.  0.
        5    1    3    3  502    0  0.15153554531E+03  0.13325887451E+04  0.14159877464E+03  0.13486393469E+04  0.46999998093E+01 0. -1.
       -5    1    3    3    0  502 -0.15153554531E+03 -0.13325887451E+04  0.37679346608E+03  0.13931084635E+04  0.46999998093E+01 0.  1.
</event>
<event>
 5   0  0.1005265E-05  0.1863843E+04  0.7818609E-02  0.8673066E-01
       -1   -1    0    0    0  501  0.00000000000E+00  0.00000000000E+00  0.11782966679E+04  0.11782966679E+04  0.50400001928E-02 0. -1.
        1   -1    0    0  501    0  0.00000000000E+00  0.00000000000E+00 -0.73706171275E+03  0.73706171276E+03  0.50400001928E-02 0.  1.
    10030    2    1    2    0    0  0.00000000000E+00  0.00000000000E+00  0.44123495514E+03  0.19153583807E+04  0.18638426545E+04 0.  0.
        3    1    3    3  502    0  0.54036461577E+03 -0.75060339751E+03  0.10309769058E+03  0.93060653465E+03  0.10100000352E+00 0.  1.
       -3    1    3    3    0  502 -0.54036461577E+03  0.75060339751E+03  0.33813726456E+03  0.98475184601E+03  0.10100000352E+00 0. -1.
</event>
<event>
 5   0  0.1005265E-05  0.2774655E+04  0.7818609E-02  0.8311180E-01
        1   -1    0    0  501    0  0.00000000000E+00  0.00000000000E+00  0.26882918950E+04  0.26882918950E+04  0.50400001928E-02 0.  1.
       -1   -1    0    0    0  501  0.00000000000E+00  0.00000000000E+00 -0.71594811737E+03  0.71594811739E+03  0.50400001928E-02 0. -1.
    10030    2    1    2    0    0  0.00000000000E+00  0.00000000000E+00  0.19723437776E+04  0.34042400124E+04  0.27746549488E+04 0.  0.
        3    1    3    3  502    0 -0.13504047245E+03  0.13805846411E+04  0.96080042586E+03  0.16874203238E+04  0.10100000352E+00 0. -1.
       -3    1    3    3    0  502  0.13504047245E+03 -0.13805846411E+04  0.10115433517E+04  0.17168196886E+04  0.10100000352E+00 0.  1.
</event>
<event>
 5   0  0.9971923E-06  0.2709348E+04  0.7818609E-02  0.8331978E-01
        1   -1    0    0  501    0  0.00000000000E+00  0.00000000000E+00  0.12107223401E+04  0.12107223401E+04  0.50400001928E-02 0.  1.
       -1   -1    0    0    0  501  0.00000000000E+00  0.00000000000E+00 -0.15157406364E+04  0.15157406364E+04  0.50400001928E-02 0. -1.
    10030    2    1    2    0    0  0.00000000000E+00  0.00000000000E+00 -0.30501829624E+03  0.27264629765E+04  0.27093475601E+04 0.  0.
        2    1    3    3  502    0 -0.56213780186E+03  0.71798907378E+03  0.85563476034E+03  0.12504471446E+04  0.25500000920E-02 0.  1.
       -2    1    3    3    0  502  0.56213780186E+03 -0.71798907378E+03 -0.11606530566E+04  0.14760158319E+04  0.25500000920E-02 0. -1.
</event>
<event>
 5   0  0.2641216E-05  0.2678601E+04  0.7818609E-02  0.8341982E-01
       -2   -1    0    0    0  501  0.00000000000E+00  0.00000000000E+00  0.10685994863E+04  0.10685994863E+04  0.25500000920E-02 0. -1.
        2   -1    0    0  501    0  0.00000000000E+00  0.00000000000E+00 -0.16785760978E+04  0.16785760978E+04  0.25500000920E-02 0.  1.
    10030    2    1    2    0    0  0.00000000000E+00  0.00000000000E+00 -0.60997661153E+03  0.27471755841E+04  0.26786007958E+04 0.  0.
        5    1    3    3  502    0  0.34796349558E+03 -0.67792731564E+03 -0.14345654147E+04  0.16243965214E+04  0.46999998093E+01 0.  1.
       -5    1    3    3    0  502 -0.34796349558E+03  0.67792731564E+03  0.82458880316E+03  0.11227790628E+04  0.46999998093E+01 0. -1.
</event>
<event>
 5   0  0.1036691E-05  0.2736386E+04  0.7818609E-02  0.8323295E-01
       -1   -1    0    0    0  501  0.00000000000E+00  0.00000000000E+00  0.77173181185E+03  0.77173181186E+03  0.50400001928E-02 0. -1.
        1   -1    0    0  501    0  0.00000000000E+00  0.00000000000E+00 -0.24256513777E+04  0.24256513777E+04  0.50400001928E-02 0.  1.
    10030    2    1    2    0    0  0.00000000000E+00  0.00000000000E+00 -0.16539195658E+04  0.31973831896E+04  0.27363861808E+04 0.  0.
        4    1    3    3  502    0 -0.79236327514E+03  0.10832746817E+04 -0.11374894229E+04  0.17593201516E+04  0.12699999809E+01 0. -1.
       -4    1    3    3    0  502  0.79236327514E+03 -0.10832746817E+04 -0.51643014297E+03  0.14380630380E+04  0.12699999809E+01 0.  1.
</event>
<event>
 5   0  0.1005265E-05  0.2775342E+04  0.7818609E-02  0.8310965E-01
        1   -1    0    0  501    0  0.00000000000E+00  0.00000000000E+00  0.20134081735E+04  0.20134081735E+04  0.50400001928E-02 0. -1.
       -1   -1    0    0    0  501  0.00000000000E+00  0.00000000000E+00 -0.95640379069E+03  0.95640379070E+03  0.50400001928E-02 0.  1.
    10030    2    1    2    0    0  0.00000000000E+00  0.00000000000E+00  0.10570043828E+04  0.29698119642E+04  0.27753422919E+04 0.  0.
        3    1    3    3  502    0  0.76679945656E+03 -0.50962029369E+02  0.17649095971E+04  0.19249634883E+04  0.10100000352E+00 0. -1.
       -3    1    3    3    0  502 -0.76679945656E+03  0.50962029369E+02 -0.70790521430E+03  0.10448484759E+04  0.10100000352E+00 0.  1.
</event>
<event>
 5   0  0.2540684E-05  0.2683545E+04  0.7818609E-02  0.8340364E-01
        2   -1    0    0  501    0  0.00000000000E+00  0.00000000000E+00  0.12223431461E+04  0.12223431461E+04  0.25500000920E-02 0. -1.
       -2   -1    0    0    0  501  0.00000000000E+00  0.00000000000E+00 -0.14728703057E+04  0.14728703057E+04  0.25500000920E-02 0.  1.
    10030    2    1    2    0    0  0.00000000000E+00  0.00000000000E+00 -0.25052715955E+03  0.26952134518E+04  0.26835446136E+04 0.  0.
        2    1    3    3  502    0  0.75885595147E+02  0.10523324677E+04 -0.95783783058E+03  0.14249966862E+04  0.25500000920E-02 0.  1.
       -2    1    3    3    0  502 -0.75885595147E+02 -0.10523324677E+04  0.70731067103E+03  0.12702167655E+04  0.25500000920E-02 0. -1.
</event>
<event>
 5   0  0.9971923E-06  0.2101789E+04  0.7818609E-02  0.8560456E-01
       -1   -1    0    0    0  501  0.00000000000E+00  0.00000000000E+00  0.13491631008E+04  0.13491631008E+04  0.50400001928E-02 0. -1.
        1   -1    0    0  501    0  0.00000000000E+00  0.00000000000E+00 -0.81856636248E+03  0.81856636250E+03  0.50400001928E-02 0.  1.
    10030    2    1    2    0    0  0.00000000000E+00  0.00000000000E+00  0.53059673830E+03  0.21677294633E+04  0.21017892681E+04 0.  0.
        2    1    3    3  502    0  0.71074873316E+03  0.84002892562E+02 -0.52836289004E+03  0.88959968032E+03  0.25500000920E-02 0.  1.
       -2    1    3    3    0  502 -0.71074873316E+03 -0.84002892562E+02  0.10589596283E+04  0.12781297830E+04  0.25500000920E-02 0. -1.
</event>
<event>
 5   0  0.2641216E-05  0.2715970E+04  0.7818609E-02  0.8329842E-01
        2   -1    0    0  501    0  0.00000000000E+00  0.00000000000E+00  0.12720041782E+04  0.12720041782E+04  0.25500000920E-02 0.  1.
       -2   -1    0    0    0  501  0.00000000000E+00  0.00000000000E+00 -0.14497780610E+04  0.14497780610E+04  0.25500000920E-02 0. -1.
    10030    2    1    2    0    0  0.00000000000E+00  0.00000000000E+00 -0.17777388274E+03  0.27217822392E+04  0.27159703614E+04 0.  0.
        5    1    3    3  502    0  0.35494027754E+03  0.60959071654E+03 -0.12517657770E+04  0.14368448395E+04  0.46999998093E+01 0. -1.
       -5    1    3    3    0  502 -0.35494027754E+03 -0.60959071654E+03  0.10739918942E+04  0.12849373997E+04  0.46999998093E+01 0.  1.
</event>
<event>
 5   0  0.1096672E-05  0.2809982E+04  0.7818609E-02  0.8300176E-01
       -1   -1    0    0    0  501  0.00000000000E+00  0.00000000000E+00  0.11641767302E+04  0.11641767302E+04  0.50400001928E-02 0.  1.
        1   -1    0    0  501    0  0.00000000000E+00  0.00000000000E+00 -0.16956185600E+04  0.16956185600E+04  0.50400001928E-02 0. -1.
    10030    2    1    2    0    0  0.00000000000E+00  0.00000000000E+00 -0.53144182986E+03  0.28597952902E+04  0.28099819721E+04 0.  0.
        1    1    3    3  502    0  0.10184894366E+04  0.87306611464E+03  0.15933650583E+03  0.13509083223E+04  0.50400001928E-02 0.  1.
       -1    1    3    3    0  502 -0.10184894366E+04 -0.87306611464E+03 -0.69077833570E+03  0.15088869680E+04  0.50400001928E-02 0. -1.
</event>
<event>
 5   0  0.2615843E-05  0.2644992E+04  0.7818609E-02  0.8353077E-01
       -2   -1    0    0    0  501  0.00000000000E+00  0.00000000000E+00  0.13292991878E+04  0.13292991878E+04  0.25500000920E-02 0. -1.
        2   -1    0    0  501    0  0.00000000000E+00  0.00000000000E+00 -0.13157280792E+04  0.13157280792E+04  0.25500000920E-02 0.  1.
    10030    2    1    2    0    0  0.00000000000E+00  0.00000000000E+00  0.13571108624E+02  0.26450272670E+04  0.26449924514E+04 0.  0.
        3    1    3    3  502    0 -0.92269450295E+03 -0.44884379009E+02 -0.93959707517E+03  0.13176579325E+04  0.10100000352E+00 0.  1.
       -3    1    3    3    0  502  0.92269450295E+03  0.44884379009E+02  0.95316818380E+03  0.13273693345E+04  0.10100000352E+00 0. -1.
</event>
<event>
 5   0  0.2641216E-05  0.2784311E+04  0.7818609E-02  0.8308156E-01
       -2   -1    0    0    0  501  0.00000000000E+00  0.00000000000E+00  0.65297940635E+03  0.65297940635E+03  0.25500000920E-02 0.  1.
        2   -1    0    0  501    0  0.00000000000E+00  0.00000000000E+00 -0.29680818168E+04  0.29680818168E+04  0.25500000920E-02 0. -1.
    10030    2    1    2    0    0  0.00000000000E+00  0.00000000000E+00 -0.23151024104E+04  0.36210612231E+04  0.27843105450E+04 0.  0.
        5    1    3    3  502    0 -0.79694400165E+03 -0.47485691722E+03  0.19240555399E+03  0.94744436291E+03  0.46999998093E+01 0.  1.
       -5    1    3    3    0  502  0.79694400165E+03  0.47485691722E+03 -0.25075079644E+04  0.26736168602E+04  0.46999998093E+01 0. -1.
</event>
<event>
 5   0  0.1096672E-05  0.2733750E+04  0.7818609E-02  0.8324137E-01
       -1   -1    0    0    0  501  0.00000000000E+00  0.00000000000E+00  0.12083457387E+04  0.12083457388E+04  0.50400001928E-02 0. -1.
        1   -1    0    0  501    0  0.00000000000E+00  0.00000000000E+00 -0.15462029916E+04  0.15462029916E+04  0.50400001928E-02 0.  1.
    10030    2    1    2    0    0  0.00000000000E+00  0.00000000000E+00 -0.33785725282E+03  0.27545487303E+04  0.27337503881E+04 0.  0.
        1    1    3    3  502    0 -0.17309056629E+03 -0.21831141520E+03 -0.15172901872E+04  0.15426567117E+04  0.50400001928E-02 0.  1.
       -1    1    3    3    0  502  0.17309056629E+03  0.21831141520E+03  0.11794329343E+04  0.12118920186E+04  0.50400001928E-02 0. -1.
</event>
<event>
 5   0  0.2540684E-05  0.2690198E+04  0.7818609E-02  0.8338192E-01
        2   -1    0    0  501    0  0.00000000000E+00  0.00000000000E+00  0.14252724349E+04  0.14252724349E+04  0.25500000920E-02 0.  1.
       -2   -1    0    0    0  501  0.00000000000E+00  0.00000000000E+00 -0.12694353793E+04  0.12694353793E+04  0.25500000920E-02 0. -1.
    10030    2    1    2    0    0  0.00000000000E+00  0.00000000000E+00  0.15583705557E+03  0.26947078142E+04  0.26901979511E+04 0.  0.
        2    1    3    3  502    0  0.51941599937E+02  0.93892416515E+03  0.10413077200E+04  0.14030674558E+04  0.25500000920E-02 0.  1.
       -2    1    3    3    0  502 -0.51941599937E+02 -0.93892416515E+03 -0.88547066448E+03  0.12916403584E+04  0.25500000920E-02 0. -1.
</event>
<event>
 5   0  0.2641216E-05  0.2684924E+04  0.7818609E-02  0.8339913E-01
       -2   -1    0    0    0  501  0.00000000000E+00  0.00000000000E+00  0.89763151777E+03  0.89763151777E+03  0.25500000920E-02 0.  1.
        2   -1    0    0  501    0  0.00000000000E+00  0.00000000000E+00 -0.20077323404E+04  0.20077323404E+04  0.25500000920E-02 0. -1.
    10030    2    1    2    0    0  0.00000000000E+00  0.00000000000E+00 -0.11101008227E+04  0.29053638582E+04  0.26849237069E+04 0.  0.
        5    1    3    3  502    0  0.29868170846E+03  0.40507002175E+03 -0.19017749185E+04  0.19672474212E+04  0.46999998093E+01 0. -1.
       -5    1    3    3    0  502 -0.29868170846E+03 -0.40507002175E+03  0.79167409581E+03  0.93811643705E+03  0.46999998093E+01 0.  1.
</event>
<event>
 5   0  0.9971923E-06  0.2633848E+04  0.7818609E-02  0.8356794E-01
       -1   -1    0    0    0  501  0.00000000000E+00  0.00000000000E+00  0.12250449714E+04  0.12250449714E+04  0.50400001928E-02 0.  1.
        1   -1    0    0  501    0  0.00000000000E+00  0.00000000000E+00 -0.14156936658E+04  0.14156936658E+04  0.50400001928E-02 0. -1.
    10030    2    1    2    0    0  0.00000000000E+00  0.00000000000E+00 -0.19064869438E+03  0.26407386371E+04  0.26338476845E+04 0.  0.
        2    1    3    3  502    0  0.75813371535E+03  0.41186208921E+03  0.90221151141E+03  0.12483520025E+04  0.25500000920E-02 0.  1.
       -2    1    3    3    0  502 -0.75813371535E+03 -0.41186208921E+03 -0.10928602058E+04  0.13923866346E+04  0.25500000920E-02 0. -1.
</event>
<event>
 5   0  0.2641216E-05  0.2718311E+04  0.7818609E-02  0.8329088E-01
        2   -1    0    0  501    0  0.00000000000E+00  0.00000000000E+00  0.12895531431E+04  0.12895531431E+04  0.25500000920E-02 0.  1.
       -2   -1    0    0    0  501  0.00000000000E+00  0.00000000000E+00 -0.14325144510E+04  0.14325144510E+04  0.25500000920E-02 0. -1.
    10030    2    1    2    0    0  0.00000000000E+00  0.00000000000E+00 -0.14296130793E+03  0.27220675941E+04  0.27183108821E+04 0.  0.
        5    1    3    3  502    0  0.57479231250E+02 -0.40845856272E+03  0.12253531778E+04  0.12929248856E+04  0.46999998093E+01 0.  1.
       -5    1    3    3    0  502 -0.57479231250E+02  0.40845856272E+03 -0.13683144857E+04  0.14291427085E+04  0.46999998093E+01 0. -1.
</event>
<event>
 5   0  0.1036691E-05  0.2641816E+04  0.7818609E-02  0.8354135E-01
        1   -1    0    0  501    0  0.00000000000E+00  0.00000000000E+00  0.16035234522E+04  0.16035234522E+04  0.50400001928E-02 0.  1.
       -1   -1    0    0    0  501  0.00000000000E+00  0.00000000000E+00 -0.10881022243E+04  0.10881022243E+04  0.50400001928E-02 0. -1.
    10030    2    1    2    0    0  0.00000000000E+00  0.00000000000E+00  0.51542122790E+03  0.26916256765E+04  0.26418156143E+04 0.  0.
        4    1    3    3  502    0  0.26824076463E+03 -0.32390173415E+03  0.15334899028E+04  0.15901126803E+04  0.12699999809E+01 0.  1.
       -4    1    3    3    0  502 -0.26824076463E+03  0.32390173415E+03 -0.10180686749E+04  0.11015129962E+04  0.12699999809E+01 0. -1.
</event>
<event>
 5   0  0.1041909E-05  0.2672224E+04  0.7818609E-02  0.8344074E-01
        1   -1    0    0  501    0  0.00000000000E+00  0.00000000000E+00  0.11094104055E+04  0.11094104055E+04  0.50400001928E-02 0.  1.
       -1   -1    0    0    0  501  0.00000000000E+00  0.00000000000E+00 -0.16091388089E+04  0.16091388089E+04  0.50400001928E-02 0. -1.
    10030    2    1    2    0    0  0.00000000000E+00  0.00000000000E+00 -0.49972840338E+03  0.27185492144E+04  0.26722240464E+04 0.  0.
        5    1    3    3  502    0 -0.77449418978E+03 -0.94283072267E+03 -0.80373065681E+03  0.14610872939E+04  0.46999998093E+01 0. -1.
       -5    1    3    3    0  502  0.77449418978E+03  0.94283072267E+03  0.30400225343E+03  0.12574619206E+04  0.46999998093E+01 0.  1.
</event>
<event>
 5   0  0.1041909E-05  0.1969750E+04  0.7818609E-02  0.8620896E-01
       -1   -1    0    0    0  501  0.00000000000E+00  0.00000000000E+00  0.70514595856E+03  0.70514595858E+03  0.50400001928E-02 0. -1.
        1   -1    0    0  501    0  0.00000000000E+00  0.00000000000E+00 -0.13755710141E+04  0.13755710141E+04  0.50400001928E-02 0.  1.
    10030    2    1    2    0    0  0.00000000000E+00  0.00000000000E+00 -0.67042505554E+03  0.20807169727E+04  0.19697495692E+04 0.  0.
        5    1    3    3  502    0 -0.67778676204E+03 -0.69701891968E+03 -0.50131602312E+03  0.10938784732E+04  0.46999998093E+01 0.  1.
       -5    1    3    3    0  502  0.67778676204E+03  0.69701891968E+03 -0.16910903243E+03  0.98683849946E+03  0.46999998093E+01 0. -1.
</event>
<event>
 5   0  0.8740500E-06  0.2697188E+04  0.7818609E-02  0.8335918E-01
        3   -1    0    0  501    0  0.00000000000E+00  0.00000000000E+00  0.12786933021E+04  0.12786933061E+04  0.10100000352E+00 0.  1.
       -3   -1    0    0    0  501  0.00000000000E+00  0.00000000000E+00 -0.14223159040E+04  0.14223159076E+04  0.10100000352E+00 0. -1.
    10030    2    1    2    0    0  0.00000000000E+00  0.00000000000E+00 -0.14362260190E+03  0.27010092138E+04  0.26971880396E+04 0.  0.
        4    1    3    3  502    0  0.23678715838E+03 -0.36394524681E+03 -0.13504051466E+04  0.14184921480E+04  0.12699999809E+01 0. -1.
       -4    1    3    3    0  502 -0.23678715838E+03  0.36394524681E+03  0.12067825447E+04  0.12825170658E+04  0.12699999809E+01 0.  1.
</event>
<event>
 5   0  0.2615843E-05  0.2708691E+04  0.7818609E-02  0.8332190E-01
       -2   -1    0    0    0  501  0.00000000000E+00  0.00000000000E+00  0.18670341237E+04  0.18670341237E+04  0.25500000920E-02 0. -1.
        2   -1    0    0  501    0  0.00000000000E+00  0.00000000000E+00 -0.98244175419E+03  0.98244175419E+03  0.25500000920E-02 0.  1.
    10030    2    1    2    0    0  0.00000000000E+00  0.00000000000E+00  0.88459236948E+03  0.28494758779E+04  0.27086914033E+04 0.  0.
        3    1    3    3  502    0 -0.60810824345E+03 -0.12071714056E+04  0.35307138662E+03  0.13970389588E+04  0.10100000352E+00 0. -1.
       -3    1    3    3    0  502  0.60810824345E+03  0.12071714056E+04  0.53152098286E+03  0.14524369190E+04  0.10100000352E+00 0.  1.
</event>
<event>
 5   0  0.1041909E-05  0.2724907E+04  0.7818609E-02  0.8326968E-01
        1   -1    0    0  501    0  0.00000000000E+00  0.00000000000E+00  0.13995803400E+04  0.13995803400E+04  0.50400001928E-02 0. -1.
       -1   -1    0    0    0  501  0.00000000000E+00  0.00000000000E+00 -0.13263116817E+04  0.13263116818E+04  0.50400001928E-02 0.  1.
    10030    2    1    2    0    0  0.00000000000E+00  0.00000000000E+00  0.73268658223E+02  0.27258920217E+04  0.27249071577E+04 0.  0.
        5    1    3    3  502    0 -0.43324012372E+03  0.84495640118E+03  0.10140285761E+04  0.13892171780E+04  0.46999998093E+01 0. -1.
       -5    1    3    3    0  502  0.43324012372E+03 -0.84495640118E+03 -0.94075991785E+03  0.13366748437E+04  0.46999998093E+01 0.  1.
</event>
<event>
 5   0  0.1041909E-05  0.2690963E+04  0.7818609E-02  0.8337943E-01
        1   -1    0    0  501    0  0.00000000000E+00  0.00000000000E+00  0.15824172827E+04  0.15824172827E+04  0.50400001928E-02 0.  1.
       -1   -1    0    0    0  501  0.00000000000E+00  0.00000000000E+00 -0.11440222482E+04  0.11440222482E+04  0.50400001928E-02 0. -1.
    10030    2    1    2    0    0  0.00000000000E+00  0.00000000000E+00  0.43839503451E+03  0.27264395309E+04  0.26909630822E+04 0.  0.
        5    1    3    3  502    0  0.28421859624E+02  0.46077422952E+03  0.14996538200E+04  0.15691094170E+04  0.46999998093E+01 0.  1.
       -5    1    3    3    0  502 -0.28421859624E+02 -0.46077422952E+03 -0.10612587855E+04  0.11573301139E+04  0.46999998093E+01 0. -1.
</event>
<event>
 5   0  0.2615843E-05  0.2613937E+04  0.7818609E-02  0.8363482E-01
        2   -1    0    0  501    0  0.00000000000E+00  0.00000000000E+00  0.21705760887E+04  0.21705760887E+04  0.25500000920E-02 0.  1.
       -2   -1    0    0    0  501  0.00000000000E+00  0.00000000000E+00 -0.78696473167E+03  0.78696473167E+03  0.25500000920E-02 0. -1.
    10030    2    1    2    0    0  0.00000000000E+00  0.00000000000E+00  0.13836113570E+04  0.29575408203E+04  0.26139371295E+04 0.  0.
        3    1    3    3  502    0  0.11243954496E+04  0.57729722864E+03  0.10681377961E+04  0.16548279605E+04  0.10100000352E+00 0.  1.
       -3    1    3    3    0  502 -0.11243954496E+04 -0.57729722864E+03  0.31547356091E+03  0.13027128598E+04  0.10100000352E+00 0. -1.
</event>
<event>
 5   0  0.2540232E-05  0.2723042E+04  0.7818609E-02  0.8327567E-01
       -2   -1    0    0    0  501  0.00000000000E+00  0.00000000000E+00  0.63548709653E+03  0.63548709653E+03  0.25500000920E-02 0.  1.
        2   -1    0    0  501    0  0.00000000000E+00  0.00000000000E+00 -0.29170371881E+04  0.29170371881E+04  0.25500000920E-02 0. -1.
    10030    2    1    2    0    0  0.00000000000E+00  0.00000000000E+00 -0.22815500916E+04  0.35525242847E+04  0.27230420439E+04 0.  0.
        1    1    3    3  502    0  0.56163963293E+03 -0.10397727836E+04 -0.25866456312E+03  0.12097412430E+04  0.50400001928E-02 0.  1.
       -1    1    3    3    0  502 -0.56163963293E+03  0.10397727836E+04 -0.20228855285E+04  0.23427830417E+04  0.50400001928E-02 0. -1.
</event>
<event>
 5   0  0.2516518E-05  0.2632491E+04  0.7818609E-02  0.8357248E-01
       -2   -1    0    0    0  501  0.00000000000E+00  0.00000000000E+00  0.14959948618E+04  0.14959948618E+04  0.25500000920E-02 0. -1.
        2   -1    0    0  501    0  0.00000000000E+00  0.00000000000E+00 -0.11580936271E+04  0.11580936271E+04  0.25500000920E-02 0.  1.
    10030    2    1    2    0    0  0.00000000000E+00  0.00000000000E+00  0.33790123469E+03  0.26540884889E+04  0.26324909236E+04 0.  0.
        4    1    3    3  502    0 -0.55053542245E+03 -0.62009859873E+02  0.13727169280E+04  0.14802999194E+04  0.12699999809E+01 0. -1.
       -4    1    3    3    0  502  0.55053542245E+03  0.62009859873E+02 -0.10348156933E+04  0.11737885696E+04  0.12699999809E+01 0.  1.
</event>
<event>
 5   0  0.9971923E-06  0.2560244E+04  0.7818609E-02  0.8381832E-01
       -1   -1    0    0    0  501  0.00000000000E+00  0.00000000000E+00  0.90845396215E+03  0.90845396217E+03  0.50400001928E-02 0. -1.
        1   -1    0    0  501    0  0.00000000000E+00  0.00000000000E+00 -0.18038478313E+04  0.18038478313E+04  0.50400001928E-02 0.  1.
    10030    2    1    2    0    0  0.00000000000E+00  0.00000000000E+00 -0.89539386914E+03  0.27123017935E+04  0.25602442926E+04 0.  0.
        2    1    3    3  502    0 -0.11375456084E+04  0.15388764073E+03 -0.10479349864E+04  0.15543034301E+04  0.25500000920E-02 0.  1.
       -2    1    3    3    0  502  0.11375456084E+04 -0.15388764073E+03  0.15254111724E+03  0.11579983634E+04  0.25500000920E-02 0. -1.
</event>
<event>
 5   0  0.2641216E-05  0.2336148E+04  0.7818609E-02  0.8463803E-01
        2   -1    0    0  501    0  0.00000000000E+00  0.00000000000E+00  0.14518467552E+04  0.14518467552E+04  0.25500000920E-02 0. -1.
       -2   -1    0    0    0  501  0.00000000000E+00  0.00000000000E+00 -0.93976662891E+03  0.93976662891E+03  0.25500000920E-02 0.  1.
    10030    2    1    2    0    0  0.00000000000E+00  0.00000000000E+00  0.51208012631E+03  0.23916133841E+04  0.23361482238E+04 0.  0.
        5    1    3    3  502    0  0.31404487885E+03  0.30528633736E+03 -0.85251296169E+03  0.95844894154E+03  0.46999998093E+01 0.  1.
       -5    1    3    3    0  502 -0.31404487885E+03 -0.30528633736E+03  0.13645930880E+04  0.14331644426E+04  0.46999998093E+01 0. -1.
</event>
<event>
 5   0  0.1036691E-05  0.1866850E+04  0.7818609E-02  0.8671535E-01
       -1   -1    0    0    0  501  0.00000000000E+00  0.00000000000E+00  0.93773747778E+03  0.93773747779E+03  0.50400001928E-02 0. -1.
        1   -1    0    0  501    0  0.00000000000E+00  0.00000000000E+00 -0.92913281706E+03  0.92913281707E+03  0.50400001928E-02 0.  1.
    10030    2    1    2    0    0  0.00000000000E+00  0.00000000000E+00  0.86046607194E+01  0.18668702949E+04  0.18668504647E+04 0.  0.
        4    1    3    3  502    0 -0.67440989018E+03  0.20365915824E+03  0.61666110184E+03  0.93625759283E+03  0.12699999809E+01 0. -1.
       -4    1    3    3    0  502  0.67440989018E+03 -0.20365915824E+03 -0.60805644112E+03  0.93061270204E+03  0.12699999809E+01 0.  1.
</event>
<event>
 5   0  0.2540232E-05  0.2656327E+04  0.7818609E-02  0.8349316E-01
       -2   -1    0    0    0  501  0.00000000000E+00  0.00000000000E+00  0.16036281927E+04  0.16036281927E+04  0.25500000920E-02 0.  1.
        2   -1    0    0  501    0  0.00000000000E+00  0.00000000000E+00 -0.11000172549E+04  0.11000172549E+04  0.25500000920E-02 0. -1.
    10030    2    1    2    0    0  0.00000000000E+00  0.00000000000E+00  0.50361093780E+03  0.27036454477E+04  0.26563273010E+04 0.  0.
        1    1    3    3  502    0  0.13100302560E+03  0.12482030743E+04  0.69411064216E+03  0.14342113829E+04  0.50400001928E-02 0.  1.
       -1    1    3    3    0  502 -0.13100302560E+03 -0.12482030743E+04 -0.19049970436E+03  0.12694340647E+04  0.50400001928E-02 0. -1.
</event>
<event>
 5   0  0.2641216E-05  0.2782495E+04  0.7818609E-02  0.8308724E-01
       -2   -1    0    0    0  501  0.00000000000E+00  0.00000000000E+00  0.11534409918E+04  0.11534409918E+04  0.25500000920E-02 0. -1.
        2   -1    0    0  501    0  0.00000000000E+00  0.00000000000E+00 -0.16780832084E+04  0.16780832084E+04  0.25500000920E-02 0.  1.
    10030    2    1    2    0    0  0.00000000000E+00  0.00000000000E+00 -0.52464221659E+03  0.28315242003E+04  0.27824952545E+04 0.  0.
        5    1    3    3  502    0 -0.78386863869E+03 -0.97110249835E+03 -0.88801933898E+03  0.15316953161E+04  0.46999998093E+01 0.  1.
       -5    1    3    3    0  502  0.78386863869E+03  0.97110249835E+03  0.36337712240E+03  0.12998288842E+04  0.46999998093E+01 0. -1.
</event>
<event>
 5   0  0.2540684E-05  0.2706632E+04  0.7818609E-02  0.8332856E-01
        2   -1    0    0  501    0  0.00000000000E+00  0.00000000000E+00  0.14033587299E+04  0.14033587299E+04  0.25500000920E-02 0. -1.
       -2   -1    0    0    0  501  0.00000000000E+00  0.00000000000E+00 -0.13050574216E+04  0.13050574216E+04  0.25500000920E-02 0.  1.
    10030    2    1    2    0    0  0.00000000000E+00  0.00000000000E+00  0.98301308363E+02  0.27084161515E+04  0.27066316526E+04 0.  0.
        2    1    3    3  502    0  0.39639429582E+03  0.11039560295E+04  0.72458929114E+03  0.13787229575E+04  0.25500000920E-02 0. -1.
       -2    1    3    3    0  502 -0.39639429582E+03 -0.11039560295E+04 -0.62628798278E+03  0.13296931940E+04  0.25500000920E-02 0.  1.
</event>
<event>
 5   0  0.1096672E-05  0.2781260E+04  0.7818609E-02  0.8309110E-01
       -1   -1    0    0    0  501  0.00000000000E+00  0.00000000000E+00  0.72578594394E+03  0.72578594396E+03  0.50400001928E-02 0. -1.
        1   -1    0    0  501    0  0.00000000000E+00  0.00000000000E+00 -0.26644935891E+04  0.26644935891E+04  0.50400001928E-02 0.  1.
    10030    2    1    2    0    0  0.00000000000E+00  0.00000000000E+00 -0.19387076451E+04  0.33902795330E+04  0.27812601422E+04 0.  0.
        1    1    3    3  502    0 -0.12910958781E+04 -0.72824324038E+02 -0.15928436969E+04  0.20516780915E+04  0.50400001928E-02 0.  1.
       -1    1    3    3    0  502  0.12910958781E+04  0.72824324038E+02 -0.34586394826E+03  0.13386014415E+04  0.50400001928E-02 0. -1.
</event>
<event>
 5   0  0.1036691E-05  0.2629398E+04  0.7818609E-02  0.8358283E-01
       -1   -1    0    0    0  501  0.00000000000E+00  0.00000000000E+00  0.62895055813E+03  0.62895055815E+03  0.50400001928E-02 0.  1.
        1   -1    0    0  501    0  0.00000000000E+00  0.00000000000E+00 -0.27481227875E+04  0.27481227875E+04  0.50400001928E-02 0. -1.
    10030    2    1    2    0    0  0.00000000000E+00  0.00000000000E+00 -0.21191722293E+04  0.33770733456E+04  0.26293979243E+04 0.  0.
        4    1    3    3  502    0  0.42154126453E+03 -0.11763168961E+04 -0.53470654641E+03  0.13591656195E+04  0.12699999809E+01 0.  1.
       -4    1    3    3    0  502 -0.42154126453E+03  0.11763168961E+04 -0.15844656829E+04  0.20179077261E+04  0.12699999809E+01 0. -1.
</event>
<event>
 5   0  0.2540684E-05  0.2757785E+04  0.7818609E-02  0.8316496E-01
        2   -1    0    0  501    0  0.00000000000E+00  0.00000000000E+00  0.17340228080E+04  0.17340228080E+04  0.25500000920E-02 0.  1.
       -2   -1    0    0    0  501  0.00000000000E+00  0.00000000000E+00 -0.10964932090E+04  0.10964932090E+04  0.25500000920E-02 0. -1.
    10030    2    1    2    0    0  0.00000000000E+00  0.00000000000E+00  0.63752959909E+03  0.28305160170E+04  0.27577847873E+04 0.  0.
        2    1    3    3  502    0 -0.85670961285E+03 -0.82170717571E+03 -0.40130023364E+03  0.12530745871E+04  0.25500000920E-02 0. -1.
       -2    1    3    3    0  502  0.85670961285E+03  0.82170717571E+03  0.10388298327E+04  0.15774414299E+04  0.25500000920E-02 0.  1.
</event>
<event>
 5   0  0.2641216E-05  0.2837070E+04  0.7818609E-02  0.8291851E-01
       -2   -1    0    0    0  501  0.00000000000E+00  0.00000000000E+00  0.11644322818E+04  0.11644322818E+04  0.25500000920E-02 0. -1.
        2   -1    0    0  501    0  0.00000000000E+00  0.00000000000E+00 -0.17280876942E+04  0.17280876942E+04  0.25500000920E-02 0.  1.
    10030    2    1    2    0    0  0.00000000000E+00  0.00000000000E+00 -0.56365541237E+03  0.28925199761E+04  0.28370696833E+04 0.  0.
        5    1    3    3  502    0 -0.78824241520E+03 -0.11793120128E+04 -0.27084316189E+03  0.14441194677E+04  0.46999998093E+01 0.  1.
       -5    1    3    3    0  502  0.78824241520E+03  0.11793120128E+04 -0.29281225048E+03  0.14484005084E+04  0.46999998093E+01 0. -1.
</event>
<event>
 5   0  0.1036691E-05  0.2637090E+04  0.7818609E-02  0.8355711E-01
       -1   -1    0    0    0  501  0.00000000000E+00  0.00000000000E+00  0.11694051155E+04  0.11694051155E+04  0.50400001928E-02 0. -1.
        1   -1    0    0  501    0  0.00000000000E+00  0.00000000000E+00 -0.14867056572E+04  0.14867056572E+04  0.50400001928E-02 0.  1.
    10030    2    1    2    0    0  0.00000000000E+00  0.00000000000E+00 -0.31730054169E+03  0.26561107727E+04  0.26370902152E+04 0.  0.
        4    1    3    3  502    0 -0.45837909963E+02 -0.56240833688E+03 -0.13589483773E+04  0.14714436980E+04  0.12699999809E+01 0.  1.
       -4    1    3    3    0  502  0.45837909963E+02  0.56240833688E+03  0.10416478356E+04  0.11846670747E+04  0.12699999809E+01 0. -1.
</event>
<event>
 5   0  0.9971923E-06  0.2758509E+04  0.7818609E-02  0.8316267E-01
        1   -1    0    0  501    0  0.00000000000E+00  0.00000000000E+00  0.11578220238E+04  0.11578220238E+04  0.50400001928E-02 0.  1.
       -1   -1    0    0    0  501  0.00000000000E+00  0.00000000000E+00 -0.16430356093E+04  0.16430356094E+04  0.50400001928E-02 0. -1.
    10030    2    1    2    0    0  0.00000000000E+00  0.00000000000E+00 -0.48521358559E+03  0.28008576331E+04  0.27585088830E+04 0.  0.
        2    1    3    3  502    0 -0.54010412729E+03 -0.11773657382E+04  0.23841752637E+03  0.13170973641E+04  0.25500000920E-02 0.  1.
       -2    1    3    3    0  502  0.54010412729E+03  0.11773657382E+04 -0.72363111195E+03  0.14837602690E+04  0.25500000920E-02 0. -1.
</event>
<event>
 5   0  0.2516518E-05  0.2370255E+04  0.7818609E-02  0.8450724E-01
       -2   -1    0    0    0  501  0.00000000000E+00  0.00000000000E+00  0.82837062069E+03  0.82837062069E+03  0.25500000920E-02 0.  1.
        2   -1    0    0  501    0  0.00000000000E+00  0.00000000000E+00 -0.16955299850E+04  0.16955299850E+04  0.25500000920E-02 0. -1.
    10030    2    1    2    0    0  0.00000000000E+00  0.00000000000E+00 -0.86715936431E+03  0.25239006057E+04  0.23702550294E+04 0.  0.
        4    1    3    3  502    0  0.33299746398E+03 -0.11214258320E+04 -0.63573448094E+03  0.13314064559E+04  0.12699999809E+01 0. -1.
       -4    1    3    3    0  502 -0.33299746398E+03  0.11214258320E+04 -0.23142488337E+03  0.11924941498E+04  0.12699999809E+01 0.  1.
</event>
<event>
 5   0  0.1041909E-05  0.2707611E+04  0.7818609E-02  0.8332540E-01
       -1   -1    0    0    0  501  0.00000000000E+00  0.00000000000E+00  0.82542521081E+03  0.82542521082E+03  0.50400001928E-02 0. -1.
        1   -1    0    0  501    0  0.00000000000E+00  0.00000000000E+00 -0.22204189835E+04  0.22204189836E+04  0.50400001928E-02 0.  1.
    10030    2    1    2    0    0  0.00000000000E+00  0.00000000000E+00 -0.13949937727E+04  0.30458441944E+04  0.27076113514E+04 0.  0.
        5    1    3    3  502    0 -0.49320641551E+03 -0.10578290515E+04 -0.14691233269E+04  0.18763262803E+04  0.46999998093E+01 0. -1.
       -5    1    3    3    0  502  0.49320641551E+03  0.10578290515E+04  0.74129554151E+02  0.11695179141E+04  0.46999998093E+01 0.  1.
</event>
<event>
 5   0  0.2516518E-05  0.2097027E+04  0.7818609E-02  0.8562554E-01
        2   -1    0    0  501    0  0.00000000000E+00  0.00000000000E+00  0.18445699480E+04  0.18445699480E+04  0.25500000920E-02 0. -1.
       -2   -1    0    0    0  501  0.00000000000E+00  0.00000000000E+00 -0.59600898374E+03  0.59600898375E+03  0.25500000920E-02 0.  1.
    10030    2    1    2    0    0  0.00000000000E+00  0.00000000000E+00  0.12485609642E+04  0.24405789317E+04  0.20970267143E+04 0.  0.
        4    1    3    3  502    0 -0.38447259437E+03 -0.78707117054E+03 -0.46390069739E+02  0.87718518842E+03  0.12699999809E+01 0.  1.
       -4    1    3    3    0  502  0.38447259437E+03  0.78707117054E+03  0.12949510340E+04  0.15633937433E+04  0.12699999809E+01 0. -1.
</event>
<event>
 5   0  0.2516518E-05  0.2695311E+04  0.7818609E-02  0.8336528E-01
       -2   -1    0    0    0  501  0.00000000000E+00  0.00000000000E+00  0.14555751661E+04  0.14555751661E+04  0.25500000920E-02 0.  1.
        2   -1    0    0  501    0  0.00000000000E+00  0.00000000000E+00 -0.12477377032E+04  0.12477377032E+04  0.25500000920E-02 0. -1.
    10030    2    1    2    0    0  0.00000000000E+00  0.00000000000E+00  0.20783746296E+03  0.27033128693E+04  0.26953114956E+04 0.  0.
        4    1    3    3  502    0 -0.16876936536E+03 -0.12187169013E+04  0.65547890894E+03  0.13940617623E+04  0.12699999809E+01 0.  1.
       -4    1    3    3    0  502  0.16876936536E+03  0.12187169013E+04 -0.44764144598E+03  0.13092511070E+04  0.12699999809E+01 0. -1.
</event>
<event>
 5   0  0.2615843E-05  0.2717825E+04  0.7818609E-02  0.8329244E-01
       -2   -1    0    0    0  501  0.00000000000E+00  0.00000000000E+00  0.16131194001E+04  0.16131194001E+04  0.25500000920E-02 0. -1.
        2   -1    0    0  501    0  0.00000000000E+00  0.00000000000E+00 -0.11447656671E+04  0.11447656671E+04  0.25500000920E-02 0.  1.
    10030    2    1    2    0    0  0.00000000000E+00  0.00000000000E+00  0.46835373306E+03  0.27578850672E+04  0.27178253853E+04 0.  0.
        3    1    3    3  502    0 -0.40485549048E+03  0.11679220844E+04  0.80702746868E+03  0.14762260358E+04  0.10100000352E+00 0. -1.
       -3    1    3    3    0  502  0.40485549048E+03 -0.11679220844E+04 -0.33867373563E+03  0.12816590314E+04  0.10100000352E+00 0.  1.
</event>
<event>
 5   0  0.9971923E-06  0.2612741E+04  0.7818609E-02  0.8363886E-01
       -1   -1    0    0    0  501  0.00000000000E+00  0.00000000000E+00  0.12494969325E+04  0.12494969325E+04  0.50400001928E-02 0.  1.
        1   -1    0    0  501    0  0.00000000000E+00  0.00000000000E+00 -0.13658332986E+04  0.13658332986E+04  0.50400001928E-02 0. -1.
    10030    2    1    2    0    0  0.00000000000E+00  0.00000000000E+00 -0.11633636610E+03  0.26153302310E+04  0.26127414850E+04 0.  0.
        2    1    3    3  502    0  0.59603681424E+03 -0.10672870445E+04  0.40298666453E+03  0.12871518057E+04  0.25500000920E-02 0.  1.
       -2    1    3    3    0  502 -0.59603681424E+03  0.10672870445E+04 -0.51932303063E+03  0.13281784253E+04  0.25500000920E-02 0. -1.
</event>
<event>
 5   0  0.1096672E-05  0.2693620E+04  0.7818609E-02  0.8337078E-01
        1   -1    0    0  501    0  0.00000000000E+00  0.00000000000E+00  0.15720955212E+04  0.15720955212E+04  0.50400001928E-02 0.  1.
       -1   -1    0    0    0  501  0.00000000000E+00  0.00000000000E+00 -0.11538086490E+04  0.11538086490E+04  0.50400001928E-02 0. -1.
    10030    2    1    2    0    0  0.00000000000E+00  0.00000000000E+00  0.41828687220E+03  0.27259041703E+04  0.26936201733E+04 0.  0.
        1    1    3    3  502    0  0.86793144191E+03  0.86590857390E+03  0.77331484655E+03  0.14495235418E+04  0.50400001928E-02 0.  1.
       -1    1    3    3    0  502 -0.86793144191E+03 -0.86590857390E+03 -0.35502797436E+03  0.12763806285E+04  0.50400001928E-02 0. -1.
</event>
<event>
 5   0  0.1041909E-05  0.2630353E+04  0.7818609E-02  0.8357963E-01
        1   -1    0    0  501    0  0.00000000000E+00  0.00000000000E+00  0.15808852172E+04  0.15808852173E+04  0.50400001928E-02 0. -1.
       -1   -1    0    0    0  501  0.00000000000E+00  0.00000000000E+00 -0.10941273620E+04  0.10941273620E+04  0.50400001928E-02 0.  1.
    10030    2    1    2    0    0  0.00000000000E+00  0.00000000000E+00  0.48675785521E+03  0.26750125793E+04  0.26303534154E+04 0.  0.
        5    1    3    3  502    0  0.12715460609E+04  0.16324275622E+03 -0.55187118360E+02  0.12831778094E+04  0.46999998093E+01 0.  1.
       -5    1    3    3    0  502 -0.12715460609E+04 -0.16324275622E+03  0.54194497357E+03  0.13918347699E+04  0.46999998093E+01 0. -1.
</event>
<event>
 5   0  0.2540232E-05  0.2094092E+04  0.7818609E-02  0.8563850E-01
       -2   -1    0    0    0  501  0.00000000000E+00  0.00000000000E+00  0.56459055138E+03  0.56459055139E+03  0.25500000920E-02 0.  1.
        2   -1    0    0  501    0  0.00000000000E+00  0.00000000000E+00 -0.19417707241E+04  0.19417707241E+04  0.25500000920E-02 0. -1.
    10030    2    1    2    0    0  0.00000000000E+00  0.00000000000E+00 -0.13771801728E+04  0.25063612755E+04  0.20940920742E+04 0.  0.
        1    1    3    3  502    0  0.61903655156E+03 -0.37010209090E+03 -0.15970499181E+04  0.17523556291E+04  0.50400001928E-02 0. -1.
       -1    1    3    3    0  502 -0.61903655156E+03  0.37010209090E+03  0.21986974538E+03  0.75400564641E+03  0.50400001928E-02 0.  1.
</event>
<event>
 5   0  0.2641216E-05  0.2707242E+04  0.7818609E-02  0.8332659E-01
       -2   -1    0    0    0  501  0.00000000000E+00  0.00000000000E+00  0.77174204285E+03  0.77174204285E+03  0.25500000920E-02 0. -1.
        2   -1    0    0  501    0  0.00000000000E+00  0.00000000000E+00 -0.23742258279E+04  0.23742258279E+04  0.25500000920E-02 0.  1.
    10030    2    1    2    0    0  0.00000000000E+00  0.00000000000E+00 -0.16024837850E+04  0.31459678707E+04  0.27072420583E+04 0.  0.
        5    1    3    3  502    0  0.12964511027E+04 -0.18644941246E+03 -0.40423514247E+03  0.13707578143E+04  0.46999998093E+01 0. -1.
       -5    1    3    3    0  502 -0.12964511027E+04  0.18644941246E+03 -0.11982486426E+04  0.17752100564E+04  0.46999998093E+01 0.  1.
</event>
<event>
 5   0  0.2516518E-05  0.2654831E+04  0.7818609E-02  0.8349811E-01
        2   -1    0    0  501    0  0.00000000000E+00  0.00000000000E+00  0.92509759111E+03  0.92509759112E+03  0.25500000920E-02 0.  1.
       -2   -1    0    0    0  501  0.00000000000E+00  0.00000000000E+00 -0.19046984231E+04  0.19046984231E+04  0.25500000920E-02 0. -1.
    10030    2    1    2    0    0  0.00000000000E+00  0.00000000000E+00 -0.97960083194E+03  0.28297960142E+04  0.26548310100E+04 0.  0.
        4    1    3    3  502    0 -0.36996126088E+03 -0.19963350352E+03  0.85226820945E+03  0.95030920443E+03  0.12699999809E+01 0.  1.
       -4    1    3    3    0  502  0.36996126088E+03  0.19963350352E+03 -0.18318690414E+04  0.18794868097E+04  0.12699999809E+01 0. -1.
</event>
<event>
 5   0  0.1041909E-05  0.2691394E+04  0.7818609E-02  0.8337803E-01
        1   -1    0    0  501    0  0.00000000000E+00  0.00000000000E+00  0.12544888171E+04  0.12544888172E+04  0.50400001928E-02 0. -1.
       -1   -1    0    0    0  501  0.00000000000E+00  0.00000000000E+00 -0.14435369838E+04  0.14435369838E+04  0.50400001928E-02 0.  1.
    10030    2    1    2    0    0  0.00000000000E+00  0.00000000000E+00 -0.18904816663E+03  0.26980258010E+04  0.26913944366E+04 0.  0.
        5    1    3    3  502    0  0.10548994137E+04 -0.55412110824E+02 -0.93024214373E+03  0.14075708902E+04  0.46999998093E+01 0.  1.
       -5    1    3    3    0  502 -0.10548994137E+04  0.55412110824E+02  0.74119397709E+03  0.12904549107E+04  0.46999998093E+01 0. -1.
</event>
<event>
 5   0  0.1096672E-05  0.2638704E+04  0.7818609E-02  0.8355172E-01
       -1   -1    0    0    0  501  0.00000000000E+00  0.00000000000E+00  0.10145683888E+04  0.10145683888E+04  0.50400001928E-02 0.  1.
        1   -1    0    0  501    0  0.00000000000E+00  0.00000000000E+00 -0.17156950643E+04  0.17156950643E+04  0.50400001928E-02 0. -1.
    10030    2    1    2    0    0  0.00000000000E+00  0.00000000000E+00 -0.70112667549E+03  0.27302634531E+04  0.26387042101E+04 0.  0.
        1    1    3    3  502    0  0.38899630142E+03 -0.83761822778E+03  0.62434431884E+03  0.11147772183E+04  0.50400001928E-02 0.  1.
       -1    1    3    3    0  502 -0.38899630142E+03  0.83761822778E+03 -0.13254709943E+04  0.16154862348E+04  0.50400001928E-02 0. -1.
</event>
<event>
 5   0  0.9971923E-06  0.2682702E+04  0.7818609E-02  0.8340639E-01
        1   -1    0    0  501    0  0.00000000000E+00  0.00000000000E+00  0.13421766021E+04  0.13421766021E+04  0.50400001928E-02 0. -1.
       -1   -1    0    0    0  501  0.00000000000E+00  0.00000000000E+00 -0.13405258470E+04  0.13405258470E+04  0.50400001928E-02 0.  1.
    10030    2    1    2    0    0  0.00000000000E+00  0.00000000000E+00  0.16507550539E+01  0.26827024491E+04  0.26827019412E+04 0.  0.
        2    1    3    3  502    0  0.18244860509E+03  0.61381257719E+03  0.11794557602E+04  0.13420764746E+04  0.25500000920E-02 0. -1.
       -2    1    3    3    0  502 -0.18244860509E+03 -0.61381257719E+03 -0.11778050051E+04  0.13406259745E+04  0.25500000920E-02 0.  1.
</event>
<event>
 5   0  0.9971923E-06  0.2711378E+04  0.7818609E-02  0.8331323E-01
        1   -1    0    0  501    0  0.00000000000E+00  0.00000000000E+00  0.17677606905E+04  0.17677606905E+04  0.50400001928E-02 0.  1.
       -1   -1    0    0    0  501  0.00000000000E+00  0.00000000000E+00 -0.10396727895E+04  0.10396727895E+04  0.50400001928E-02 0. -1.
    10030    2    1    2    0    0  0.00000000000E+00  0.00000000000E+00  0.72808790093E+03  0.28074334800E+04  0.27113780174E+04 0.  0.
        2    1    3    3  502    0 -0.10075170557E+04 -0.61957926085E+03  0.10500277754E+04  0.15816217649E+04  0.25500000920E-02 0.  1.
       -2    1    3    3    0  502  0.10075170557E+04  0.61957926085E+03 -0.32193987452E+03  0.12258117151E+04  0.25500000920E-02 0. -1.
</event>
<event>
 5   0  0.1041909E-05  0.2749936E+04  0.7818609E-02  0.8318982E-01
        1   -1    0    0  501    0  0.00000000000E+00  0.00000000000E+00  0.15490450183E+04  0.15490450183E+04  0.50400001928E-02 0. -1.
       -1   -1    0    0    0  501  0.00000000000E+00  0.00000000000E+00 -0.12204528906E+04  0.12204528906E+04  0.50400001928E-02 0.  1.
    10030    2    1    2    0    0  0.00000000000E+00  0.00000000000E+00  0.32859212767E+03  0.27694979089E+04  0.27499356140E+04 0.  0.
        5    1    3    3  502    0  0.16169097090E+03 -0.13158379722E+04  0.53150033748E+03  0.14283165748E+04  0.46999998093E+01 0. -1.
       -5    1    3    3    0  502 -0.16169097090E+03  0.13158379722E+04 -0.20290820981E+03  0.13411813341E+04  0.46999998093E+01 0.  1.
</event>
<event>
 5   0  0.2540232E-05  0.2631906E+04  0.7818609E-02  0.8357444E-01
        2   -1    0    0  501    0  0.00000000000E+00  0.00000000000E+00  0.16731269035E+04  0.16731269035E+04  0.25500000920E-02 0.  1.
       -2   -1    0    0    0  501  0.00000000000E+00  0.00000000000E+00 -0.10350272799E+04  0.10350272799E+04  0.25500000920E-02 0. -1.
    10030    2    1    2    0    0  0.00000000000E+00  0.00000000000E+00  0.63809962364E+03  0.27081541834E+04  0.26319057642E+04 0.  0.
        1    1    3    3  502    0  0.10244832083E+04 -0.24945860385E+02  0.11685235404E+04  0.15542314514E+04  0.50400001928E-02 0.  1.
       -1    1    3    3    0  502 -0.10244832083E+04  0.24945860385E+02 -0.53042391675E+03  0.11539227320E+04  0.50400001928E-02 0. -1.
</event>
<event>
 5   0  0.9971923E-06  0.2659616E+04  0.7818609E-02  0.8348228E-01
        1   -1    0    0  501    0  0.00000000000E+00  0.00000000000E+00  0.19507703098E+04  0.19507703098E+04  0.50400001928E-02 0. -1.
       -1   -1    0    0    0  501  0.00000000000E+00  0.00000000000E+00 -0.90650807707E+03  0.90650807709E+03  0.50400001928E-02 0.  1.
    10030    2    1    2    0    0  0.00000000000E+00  0.00000000000E+00  0.10442622327E+04  0.28572783869E+04  0.26596157936E+04 0.  0.
        2    1    3    3  502    0  0.79111446085E+03 -0.64591297534E+03 -0.39282337072E+03  0.10942467101E+04  0.25500000920E-02 0.  1.
       -2    1    3    3    0  502 -0.79111446085E+03  0.64591297534E+03  0.14370856034E+04  0.17630316768E+04  0.25500000920E-02 0. -1.
</event>
<event>
 5   0  0.1096672E-05  0.2747077E+04  0.7818609E-02  0.8319890E-01
       -1   -1    0    0    0  501  0.00000000000E+00  0.00000000000E+00  0.13722962221E+04  0.13722962221E+04  0.50400001928E-02 0. -1.
        1   -1    0    0  501    0  0.00000000000E+00  0.00000000000E+00 -0.13747814287E+04  0.13747814287E+04  0.50400001928E-02 0.  1.
    10030    2    1    2    0    0  0.00000000000E+00  0.00000000000E+00 -0.24852066389E+01  0.27470776508E+04  0.27470765267E+04 0.  0.
        1    1    3    3  502    0  0.72924306223E+03  0.11634608503E+04 -0.35459087424E+02  0.13735697801E+04  0.50400001928E-02 0. -1.
       -1    1    3    3    0  502 -0.72924306223E+03 -0.11634608503E+04  0.32973880785E+02  0.13735078707E+04  0.50400001928E-02 0.  1.
</event>
<event>
 5   0  0.2516518E-05  0.2732387E+04  0.7818609E-02  0.8324573E-01
        2   -1    0    0  501    0  0.00000000000E+00  0.00000000000E+00  0.98246492289E+03  0.98246492289E+03  0.25500000920E-02 0.  1.
       -2   -1    0    0    0  501  0.00000000000E+00  0.00000000000E+00 -0.18997970884E+04  0.18997970884E+04  0.25500000920E-02 0. -1.
    10030    2    1    2    0    0  0.00000000000E+00  0.00000000000E+00 -0.91733216547E+03  0.28822620112E+04  0.27323865026E+04 0.  0.
        4    1    3    3  502    0 -0.11778192027E+04 -0.58557105795E+03 -0.84814898348E+03  0.15650910035E+04  0.12699999809E+01 0. -1.
       -4    1    3    3    0  502  0.11778192027E+04  0.58557105795E+03 -0.69183181986E+02  0.13171710078E+04  0.12699999809E+01 0.  1.
</event>
<event>
 5   0  0.1041909E-05  0.2667399E+04  0.7818609E-02  0.8345661E-01
       -1   -1    0    0    0  501  0.00000000000E+00  0.00000000000E+00  0.13659708664E+04  0.13659708664E+04  0.50400001928E-02 0.  1.
        1   -1    0    0  501    0  0.00000000000E+00  0.00000000000E+00 -0.13021907008E+04  0.13021907008E+04  0.50400001928E-02 0. -1.
    10030    2    1    2    0    0  0.00000000000E+00  0.00000000000E+00  0.63780165630E+02  0.26681615672E+04  0.26673991525E+04 0.  0.
        5    1    3    3  502    0  0.93372494140E+03  0.63292141977E+03 -0.67986138369E+03  0.13170669614E+04  0.46999998093E+01 0. -1.
       -5    1    3    3    0  502 -0.93372494140E+03 -0.63292141977E+03  0.74364154932E+03  0.13510946057E+04  0.46999998093E+01 0.  1.
</event>
<event>
 5   0  0.1041909E-05  0.1774228E+04  0.7818609E-02  0.8720126E-01
       -1   -1    0    0    0  501  0.00000000000E+00  0.00000000000E+00  0.90850069413E+03  0.90850069414E+03  0.50400001928E-02 0. -1.
        1   -1    0    0  501    0  0.00000000000E+00  0.00000000000E+00 -0.86623091374E+03  0.86623091375E+03  0.50400001928E-02 0.  1.
    10030    2    1    2    0    0  0.00000000000E+00  0.00000000000E+00  0.42269780393E+02  0.17747316079E+04  0.17742281549E+04 0.  0.
        5    1    3    3  502    0 -0.62024411708E+03  0.47264087719E+03  0.44416993823E+03  0.89744146750E+03  0.46999998093E+01 0. -1.
       -5    1    3    3    0  502  0.62024411708E+03 -0.47264087719E+03 -0.40190015784E+03  0.87729014039E+03  0.46999998093E+01 0.  1.
</event>
<event>
 5   0  0.9971923E-06  0.2221540E+04  0.7818609E-02  0.8509516E-01
        1   -1    0    0  501    0  0.00000000000E+00  0.00000000000E+00  0.13877997372E+04  0.13877997373E+04  0.50400001928E-02 0.  1.
       -1   -1    0    0    0  501  0.00000000000E+00  0.00000000000E+00 -0.88904072912E+03  0.88904072914E+03  0.50400001928E-02 0. -1.
    10030    2    1    2    0    0  0.00000000000E+00  0.00000000000E+00  0.49875900812E+03  0.22768404664E+04  0.22215404478E+04 0.  0.
        2    1    3    3  502    0  0.59550830877E+03  0.86396485608E+03 -0.12403190256E+03  0.10566216595E+04  0.25500000920E-02 0. -1.
       -2    1    3    3    0  502 -0.59550830877E+03 -0.86396485608E+03  0.62279091069E+03  0.12202188069E+04  0.25500000920E-02 0.  1.
</event>
<event>
 5   0  0.2540232E-05  0.3017136E+04  0.7818609E-02  0.8238854E-01
        2   -1    0    0  501    0  0.00000000000E+00  0.00000000000E+00  0.23203972706E+04  0.23203972706E+04  0.25500000920E-02 0.  1.
       -2   -1    0    0    0  501  0.00000000000E+00  0.00000000000E+00 -0.98077066822E+03  0.98077066822E+03  0.25500000920E-02 0. -1.
    10030    2    1    2    0    0  0.00000000000E+00  0.00000000000E+00  0.13396266024E+04  0.33011679388E+04  0.30171361134E+04 0.  0.
        1    1    3    3  502    0 -0.73911339342E+03  0.13028314821E+04  0.86590283570E+03  0.17301578541E+04  0.50400001928E-02 0. -1.
       -1    1    3    3    0  502  0.73911339342E+03 -0.13028314821E+04  0.47372376671E+03  0.15710100847E+04  0.50400001928E-02 0.  1.
</event>
<event>
 5   0  0.9971923E-06  0.2737500E+04  0.7818609E-02  0.8322939E-01
        1   -1    0    0  501    0  0.00000000000E+00  0.00000000000E+00  0.24617155816E+04  0.24617155816E+04  0.50400001928E-02 0.  1.
       -1   -1    0    0    0  501  0.00000000000E+00  0.00000000000E+00 -0.76104504599E+03  0.76104504601E+03  0.50400001928E-02 0. -1.
    10030    2    1    2    0    0  0.00000000000E+00  0.00000000000E+00  0.17006705356E+04  0.32227606276E+04  0.27374999164E+04 0.  0.
        2    1    3    3  502    0 -0.63132097727E+03  0.16576388202E+03  0.22666934985E+04  0.23588012330E+04  0.25500000920E-02 0.  1.
       -2    1    3    3    0  502  0.63132097727E+03 -0.16576388202E+03 -0.56602296289E+03  0.86395939456E+03  0.25500000920E-02 0. -1.
</event>
<event>
 5   0  0.2540232E-05  0.2723332E+04  0.7818609E-02  0.8327474E-01
       -2   -1    0    0    0  501  0.00000000000E+00  0.00000000000E+00  0.17593231174E+04  0.17593231174E+04  0.25500000920E-02 0. -1.
        2   -1    0    0  501    0  0.00000000000E+00  0.00000000000E+00 -0.10538904743E+04  0.10538904743E+04  0.25500000920E-02 0.  1.
    10030    2    1    2    0    0  0.00000000000E+00  0.00000000000E+00  0.70543264304E+03  0.28132135917E+04  0.27233316909E+04 0.  0.
        1    1    3    3  502    0 -0.12954079420E+03  0.87750974503E+03  0.14199302023E+04  0.16742180113E+04  0.50400001928E-02 0. -1.
       -1    1    3    3    0  502  0.12954079420E+03 -0.87750974503E+03 -0.71449755923E+03  0.11389955804E+04  0.50400001928E-02 0.  1.
</event>
<event>
 5   0  0.2615843E-05  0.2564430E+04  0.7818609E-02  0.8380385E-01
        2   -1    0    0  501    0  0.00000000000E+00  0.00000000000E+00  0.13382546693E+04  0.13382546693E+04  0.25500000920E-02 0. -1.
       -2   -1    0    0    0  501  0.00000000000E+00  0.00000000000E+00 -0.12285222371E+04  0.12285222371E+04  0.25500000920E-02 0.  1.
    10030    2    1    2    0    0  0.00000000000E+00  0.00000000000E+00  0.10973243220E+03  0.25667769065E+04  0.25644302449E+04 0.  0.
        3    1    3    3  502    0  0.46254939144E+03 -0.11851746868E+04  0.21465136713E+03  0.12902194377E+04  0.10100000352E+00 0.  1.
       -3    1    3    3    0  502 -0.46254939144E+03  0.11851746868E+04 -0.10491893494E+03  0.12765574687E+04  0.10100000352E+00 0. -1.
</event>
<event>
 5   0  0.2615843E-05  0.2945043E+04  0.7818609E-02  0.8259601E-01
       -2   -1    0    0    0  501  0.00000000000E+00  0.00000000000E+00  0.13828691177E+04  0.13828691177E+04  0.25500000920E-02 0. -1.
        2   -1    0    0  501    0  0.00000000000E+00  0.00000000000E+00 -0.15679860711E+04  0.15679860711E+04  0.25500000920E-02 0.  1.
    10030    2    1    2    0    0  0.00000000000E+00  0.00000000000E+00 -0.18511695339E+03  0.29508551888E+04  0.29450429638E+04 0.  0.
        3    1    3    3  502    0  0.10752228807E+04  0.96288937169E+03 -0.38478337324E+03  0.14937598334E+04  0.10100000352E+00 0.  1.
       -3    1    3    3    0  502 -0.10752228807E+04 -0.96288937169E+03  0.19966641985E+03  0.14570953554E+04  0.10100000352E+00 0. -1.
</event>
<event>
 5   0  0.1096672E-05  0.2525599E+04  0.7818609E-02  0.8393922E-01
        1   -1    0    0  501    0  0.00000000000E+00  0.00000000000E+00  0.14270769509E+04  0.14270769509E+04  0.50400001928E-02 0.  1.
       -1   -1    0    0    0  501  0.00000000000E+00  0.00000000000E+00 -0.11174325791E+04  0.11174325791E+04  0.50400001928E-02 0. -1.
    10030    2    1    2    0    0  0.00000000000E+00  0.00000000000E+00  0.30964437182E+03  0.25445095300E+04  0.25255987630E+04 0.  0.
        1    1    3    3  502    0  0.70208228384E+02  0.97095429381E+03 -0.65555169705E+03  0.11736394095E+04  0.50400001928E-02 0. -1.
       -1    1    3    3    0  502 -0.70208228384E+02 -0.97095429381E+03  0.96519606887E+03  0.13708701205E+04  0.50400001928E-02 0.  1.
</event>
<event>
 5   0  0.1041909E-05  0.2599053E+04  0.7818609E-02  0.8368523E-01
       -1   -1    0    0    0  501  0.00000000000E+00  0.00000000000E+00  0.18650820926E+04  0.18650820926E+04  0.50400001928E-02 0. -1.
        1   -1    0    0  501    0  0.00000000000E+00  0.00000000000E+00 -0.90546610760E+03  0.90546610761E+03  0.50400001928E-02 0.  1.
    10030    2    1    2    0    0  0.00000000000E+00  0.00000000000E+00  0.95961598500E+03  0.27705482002E+04  0.25990526141E+04 0.  0.
        5    1    3    3  502    0 -0.10318808635E+04 -0.64302060171E+03 -0.92601649175E+01  0.12158788802E+04  0.46999998093E+01 0.  1.
       -5    1    3    3    0  502  0.10318808635E+04  0.64302060171E+03  0.96887614991E+03  0.15546693200E+04  0.46999998093E+01 0. -1.
</event>
<event>
 5   0  0.2615843E-05  0.2679711E+04  0.7818609E-02  0.8341618E-01
        2   -1    0    0  501    0  0.00000000000E+00  0.00000000000E+00  0.14357674475E+04  0.14357674475E+04  0.25500000920E-02 0.  1.
       -2   -1    0    0    0  501  0.00000000000E+00  0.00000000000E+00 -0.12503508121E+04  0.12503508121E+04  0.25500000920E-02 0. -1.
    10030    2    1    2    0    0  0.00000000000E+00  0.00000000000E+00  0.18541663539E+03  0.26861182596E+04  0.26797111740E+04 0.  0.
        3    1    3    3  502    0  0.96889719555E+03 -0.47738694673E+03  0.88741719261E+03  0.13979160763E+04  0.10100000352E+00 0.  1.
       -3    1    3    3    0  502 -0.96889719555E+03  0.47738694673E+03 -0.70200055722E+03  0.12882021833E+04  0.10100000352E+00 0. -1.
</event>
<event>
 5   0  0.1041909E-05  0.2250506E+04  0.7818609E-02  0.8497696E-01
       -1   -1    0    0    0  501  0.00000000000E+00  0.00000000000E+00  0.55351326729E+03  0.55351326732E+03  0.50400001928E-02 0. -1.
        1   -1    0    0  501    0  0.00000000000E+00  0.00000000000E+00 -0.22875592118E+04  0.22875592118E+04  0.50400001928E-02 0.  1.
    10030    2    1    2    0    0  0.00000000000E+00  0.00000000000E+00 -0.17340459445E+04  0.28410724792E+04  0.22505060529E+04 0.  0.
        5    1    3    3  502    0 -0.64488830537E+03 -0.20662331495E+03  0.26746472090E+03  0.72810273149E+03  0.46999998093E+01 0. -1.
       -5    1    3    3    0  502  0.64488830537E+03  0.20662331495E+03 -0.20015106654E+04  0.21129697477E+04  0.46999998093E+01 0.  1.
</event>
<event>
 5   0  0.2540684E-05  0.1949536E+04  0.7818609E-02  0.8630585E-01
        2   -1    0    0  501    0  0.00000000000E+00  0.00000000000E+00  0.64260378026E+03  0.64260378026E+03  0.25500000920E-02 0.  1.
       -2   -1    0    0    0  501  0.00000000000E+00  0.00000000000E+00 -0.14786288047E+04  0.14786288047E+04  0.25500000920E-02 0. -1.
    10030    2    1    2    0    0  0.00000000000E+00  0.00000000000E+00 -0.83602502443E+03  0.21212325849E+04  0.19495358006E+04 0.  0.
        2    1    3    3  502    0  0.30073335250E+03  0.75562652463E+03 -0.10027028831E+04  0.12910557950E+04  0.25500000920E-02 0. -1.
       -2    1    3    3    0  502 -0.30073335250E+03 -0.75562652463E+03  0.16667785865E+03  0.83017678996E+03  0.25500000920E-02 0.  1.
</event>
<event>
 5   0  0.1005265E-05  0.2541399E+04  0.7818609E-02  0.8388383E-01
        1   -1    0    0  501    0  0.00000000000E+00  0.00000000000E+00  0.14913735414E+04  0.14913735414E+04  0.50400001928E-02 0.  1.
       -1   -1    0    0    0  501  0.00000000000E+00  0.00000000000E+00 -0.10826783153E+04  0.10826783153E+04  0.50400001928E-02 0. -1.
    10030    2    1    2    0    0  0.00000000000E+00  0.00000000000E+00  0.40869522605E+03  0.25740518567E+04  0.25413994518E+04 0.  0.
        3    1    3    3  502    0  0.12433214915E+04  0.26074120140E+03  0.17493177533E+03  0.12823554271E+04  0.10100000352E+00 0. -1.
       -3    1    3    3    0  502 -0.12433214915E+04 -0.26074120140E+03  0.23376345072E+03  0.12916964296E+04  0.10100000352E+00 0.  1.
</event>
<event>
 5   0  0.1096672E-05  0.2764638E+04  0.7818609E-02  0.8314332E-01
       -1   -1    0    0    0  501  0.00000000000E+00  0.00000000000E+00  0.13700501831E+04  0.13700501831E+04  0.50400001928E-02 0. -1.
        1   -1    0    0  501    0  0.00000000000E+00  0.00000000000E+00 -0.13946976760E+04  0.13946976760E+04  0.50400001928E-02 0.  1.
    10030    2    1    2    0    0  0.00000000000E+00  0.00000000000E+00 -0.24647492866E+02  0.27647478591E+04  0.27646379918E+04 0.  0.
        1    1    3    3  502    0  0.12426418011E+04  0.15601173361E+03  0.57277001251E+03  0.13771578683E+04  0.50400001928E-02 0. -1.
       -1    1    3    3    0  502 -0.12426418011E+04 -0.15601173361E+03 -0.59741750538E+03  0.13875899909E+04  0.50400001928E-02 0.  1.
</event>
<event>
 5   0  0.1036691E-05  0.3101125E+04  0.7818609E-02  0.8215429E-01
       -1   -1    0    0    0  501  0.00000000000E+00  0.00000000000E+00  0.13878855483E+04  0.13878855483E+04  0.50400001928E-02 0.  1.
        1   -1    0    0  501    0  0.00000000000E+00  0.00000000000E+00 -0.17323073364E+04  0.17323073364E+04  0.50400001928E-02 0. -1.
    10030    2    1    2    0    0  0.00000000000E+00  0.00000000000E+00 -0.34442178807E+03  0.31201928848E+04  0.31011251619E+04 0.  0.
        4    1    3    3  502    0  0.80761698141E+03  0.26441466972E+03 -0.14771365822E+04  0.17041403702E+04  0.12699999809E+01 0. -1.
       -4    1    3    3    0  502 -0.80761698141E+03 -0.26441466972E+03  0.11327147941E+04  0.14160525145E+04  0.12699999809E+01 0.  1.
</event>
<event>
 5   0  0.2516518E-05  0.2751995E+04  0.7818609E-02  0.8318329E-01
        2   -1    0    0  501    0  0.00000000000E+00  0.00000000000E+00  0.17480955680E+04  0.17480955680E+04  0.25500000920E-02 0. -1.
       -2   -1    0    0    0  501  0.00000000000E+00  0.00000000000E+00 -0.10831036529E+04  0.10831036529E+04  0.25500000920E-02 0.  1.
    10030    2    1    2    0    0  0.00000000000E+00  0.00000000000E+00  0.66499191508E+03  0.28311992209E+04  0.27519946913E+04 0.  0.
        4    1    3    3  502    0  0.93144908825E+03 -0.10101618030E+04  0.40769420374E+03  0.14332621703E+04  0.12699999809E+01 0.  1.
       -4    1    3    3    0  502 -0.93144908825E+03  0.10101618030E+04  0.25729771134E+03  0.13979370506E+04  0.12699999809E+01 0. -1.
</event>
<event>
 5   0  0.1005265E-05  0.2668994E+04  0.7818609E-02  0.8345136E-01
        1   -1    0    0  501    0  0.00000000000E+00  0.00000000000E+00  0.12104063518E+04  0.12104063518E+04  0.50400001928E-02 0. -1.
       -1   -1    0    0    0  501  0.00000000000E+00  0.00000000000E+00 -0.14713092281E+04  0.14713092281E+04  0.50400001928E-02 0.  1.
    10030    2    1    2    0    0  0.00000000000E+00  0.00000000000E+00 -0.26090287626E+03  0.26817155799E+04  0.26689938443E+04 0.  0.
        3    1    3    3  502    0  0.12315506677E+04 -0.20009410303E+03  0.34522599646E+03  0.12945793510E+04  0.10100000352E+00 0. -1.
       -3    1    3    3    0  502 -0.12315506677E+04  0.20009410303E+03 -0.60612887272E+03  0.13871362290E+04  0.10100000352E+00 0.  1.
</event>
<event>
 5   0  0.1041909E-05  0.2687234E+04  0.7818609E-02  0.8339159E-01
       -1   -1    0    0    0  501  0.00000000000E+00  0.00000000000E+00  0.13214156821E+04  0.13214156821E+04  0.50400001928E-02 0. -1.
        1   -1    0    0  501    0  0.00000000000E+00  0.00000000000E+00 -0.13661917707E+04  0.13661917707E+04  0.50400001928E-02 0.  1.
    10030    2    1    2    0    0  0.00000000000E+00  0.00000000000E+00 -0.44776088568E+02  0.26876074528E+04  0.26872344376E+04 0.  0.
        5    1    3    3  502    0  0.75810318669E+03 -0.52979614556E+01  0.10870614931E+04  0.13253200707E+04  0.46999998093E+01 0. -1.
       -5    1    3    3    0  502 -0.75810318669E+03  0.52979614556E+01 -0.11318375817E+04  0.13622873821E+04  0.46999998093E+01 0.  1.
</event>
<event>
 5   0  0.1036691E-05  0.2604475E+04  0.7818609E-02  0.8366683E-01
       -1   -1    0    0    0  501  0.00000000000E+00  0.00000000000E+00  0.13330270617E+04  0.13330270617E+04  0.50400001928E-02 0. -1.
        1   -1    0    0  501    0  0.00000000000E+00  0.00000000000E+00 -0.12721595281E+04  0.12721595281E+04  0.50400001928E-02 0.  1.
    10030    2    1    2    0    0  0.00000000000E+00  0.00000000000E+00  0.60867533596E+02  0.26051865899E+04  0.26044754388E+04 0.  0.
        4    1    3    3  502    0 -0.44283918819E+03 -0.84029472982E+03  0.92153036072E+03  0.13234128601E+04  0.12699999809E+01 0. -1.
       -4    1    3    3    0  502  0.44283918819E+03  0.84029472982E+03 -0.86066282712E+03  0.12817737298E+04  0.12699999809E+01 0.  1.
</event>
<event>
 5   0  0.2540684E-05  0.2674902E+04  0.7818609E-02  0.8343194E-01
       -2   -1    0    0    0  501  0.00000000000E+00  0.00000000000E+00  0.83057416304E+03  0.83057416305E+03  0.25500000920E-02 0. -1.
        2   -1    0    0  501    0  0.00000000000E+00  0.00000000000E+00 -0.21536616787E+04  0.21536616787E+04  0.25500000920E-02 0.  1.
    10030    2    1    2    0    0  0.00000000000E+00  0.00000000000E+00 -0.13230875156E+04  0.29842358417E+04  0.26749024253E+04 0.  0.
        2    1    3    3  502    0  0.32162213890E+03  0.23789820139E+02  0.78654565300E+03  0.85009459476E+03  0.25500000920E-02 0. -1.
       -2    1    3    3    0  502 -0.32162213890E+03 -0.23789820139E+02 -0.21096331686E+04  0.21341412470E+04  0.25500000920E-02 0.  1.
</event>
<event>
 5   0  0.2516518E-05  0.2681791E+04  0.7818609E-02  0.8340937E-01
       -2   -1    0    0    0  501  0.00000000000E+00  0.00000000000E+00  0.92830129574E+03  0.92830129575E+03  0.25500000920E-02 0.  1.
        2   -1    0    0  501    0  0.00000000000E+00  0.00000000000E+00 -0.19368717817E+04  0.19368717817E+04  0.25500000920E-02 0. -1.
    10030    2    1    2    0    0  0.00000000000E+00  0.00000000000E+00 -0.10085704859E+04  0.28651730774E+04  0.26817908827E+04 0.  0.
        4    1    3    3  502    0  0.93272113496E+03  0.17810762898E+03 -0.15157588868E+04  0.17886356977E+04  0.12699999809E+01 0. -1.
       -4    1    3    3    0  502 -0.93272113496E+03 -0.17810762898E+03  0.50718840089E+03  0.10765373797E+04  0.12699999809E+01 0.  1.
</event>
<event>
 5   0  0.2516518E-05  0.2754146E+04  0.7818609E-02  0.8317647E-01
        2   -1    0    0  501    0  0.00000000000E+00  0.00000000000E+00  0.10886174298E+04  0.10886174298E+04  0.25500000920E-02 0. -1.
       -2   -1    0    0    0  501  0.00000000000E+00  0.00000000000E+00 -0.17419622455E+04  0.17419622455E+04  0.25500000920E-02 0.  1.
    10030    2    1    2    0    0  0.00000000000E+00  0.00000000000E+00 -0.65334481575E+03  0.28305796753E+04  0.27541463015E+04 0.  0.
        4    1    3    3  502    0  0.54853518574E+03 -0.47860095175E+03  0.87468985907E+03  0.11379954672E+04  0.12699999809E+01 0. -1.
       -4    1    3    3    0  502 -0.54853518574E+03  0.47860095175E+03 -0.15280346748E+04  0.16925842081E+04  0.12699999809E+01 0.  1.
</event>
<event>
 5   0  0.1036691E-05  0.2658119E+04  0.7818609E-02  0.8348723E-01
       -1   -1    0    0    0  501  0.00000000000E+00  0.00000000000E+00  0.14272376003E+04  0.14272376003E+04  0.50400001928E-02 0. -1.
        1   -1    0    0  501    0  0.00000000000E+00  0.00000000000E+00 -0.12376348211E+04  0.12376348211E+04  0.50400001928E-02 0.  1.
    10030    2    1    2    0    0  0.00000000000E+00  0.00000000000E+00  0.18960277921E+03  0.26648724214E+04  0.26581188477E+04 0.  0.
        4    1    3    3  502    0 -0.78062224006E+02  0.47061863363E+03 -0.11488429076E+04  0.12439522693E+04  0.12699999809E+01 0.  1.
       -4    1    3    3    0  502  0.78062224006E+02 -0.47061863363E+03  0.13384456868E+04  0.14209201521E+04  0.12699999809E+01 0. -1.
</event>
<event>
 5   0  0.2540684E-05  0.2782287E+04  0.7818609E-02  0.8308789E-01
        2   -1    0    0  501    0  0.00000000000E+00  0.00000000000E+00  0.10405099718E+04  0.10405099718E+04  0.25500000920E-02 0.  1.
       -2   -1    0    0    0  501  0.00000000000E+00  0.00000000000E+00 -0.18599349703E+04  0.18599349703E+04  0.25500000920E-02 0. -1.
    10030    2    1    2    0    0  0.00000000000E+00  0.00000000000E+00 -0.81942499855E+03  0.29004449421E+04  0.27822874643E+04 0.  0.
        2    1    3    3  502    0 -0.56896436714E+03 -0.42944226926E+03  0.83565027872E+03  0.10983863173E+04  0.25500000920E-02 0.  1.
       -2    1    3    3    0  502  0.56896436714E+03  0.42944226926E+03 -0.16550752773E+04  0.18020586248E+04  0.25500000920E-02 0. -1.
</event>
<event>
 5   0  0.2516518E-05  0.2650974E+04  0.7818609E-02  0.8351090E-01
       -2   -1    0    0    0  501  0.00000000000E+00  0.00000000000E+00  0.91350711799E+03  0.91350711800E+03  0.25500000920E-02 0.  1.
        2   -1    0    0  501    0  0.00000000000E+00  0.00000000000E+00 -0.19232647783E+04  0.19232647783E+04  0.25500000920E-02 0. -1.
    10030    2    1    2    0    0  0.00000000000E+00  0.00000000000E+00 -0.10097576603E+04  0.28367718963E+04  0.26509742095E+04 0.  0.
        4    1    3    3  502    0 -0.34672965882E+03 -0.42945602663E+03  0.78468005525E+03  0.95936350625E+03  0.12699999809E+01 0.  1.
       -4    1    3    3    0  502  0.34672965882E+03  0.42945602663E+03 -0.17944377156E+04  0.18774083901E+04  0.12699999809E+01 0. -1.
</event>
<event>
 5   0  0.2641216E-05  0.2694955E+04  0.7818609E-02  0.8336644E-01
       -2   -1    0    0    0  501  0.00000000000E+00  0.00000000000E+00  0.14266368853E+04  0.14266368853E+04  0.25500000920E-02 0.  1.
        2   -1    0    0  501    0  0.00000000000E+00  0.00000000000E+00 -0.12727104604E+04  0.12727104604E+04  0.25500000920E-02 0. -1.
    10030    2    1    2    0    0  0.00000000000E+00  0.00000000000E+00  0.15392642487E+03  0.26993473457E+04  0.26949550550E+04 0.  0.
        5    1    3    3  502    0 -0.19266216809E+03  0.51963977537E+03  0.13071870371E+04  0.14198254284E+04  0.46999998093E+01 0.  1.
       -5    1    3    3    0  502  0.19266216809E+03 -0.51963977537E+03 -0.11532606123E+04  0.12795219173E+04  0.46999998093E+01 0. -1.
</event>
<event>
 5   0  0.8740500E-06  0.2651532E+04  0.7818609E-02  0.8350905E-01
        4   -1    0    0  501    0  0.00000000000E+00  0.00000000000E+00  0.13129231458E+04  0.13129237601E+04  0.12699999809E+01 0.  1.
       -4   -1    0    0    0  501  0.00000000000E+00  0.00000000000E+00 -0.13387329697E+04  0.13387335721E+04  0.12699999809E+01 0. -1.
    10030    2    1    2    0    0  0.00000000000E+00  0.00000000000E+00 -0.25809823831E+02  0.26516573321E+04  0.26515317196E+04 0.  0.
        5    1    3    3  502    0 -0.15494980650E+03 -0.10862227269E+04 -0.75707978174E+03  0.13330720689E+04  0.46999998093E+01 0. -1.
       -5    1    3    3    0  502  0.15494980650E+03  0.10862227269E+04  0.73126995791E+03  0.13185852632E+04  0.46999998093E+01 0.  1.
</event>
<event>
 5   0  0.2615843E-05  0.2791254E+04  0.7818609E-02  0.8305989E-01
        2   -1    0    0  501    0  0.00000000000E+00  0.00000000000E+00  0.18350366669E+04  0.18350366669E+04  0.25500000920E-02 0. -1.
       -2   -1    0    0    0  501  0.00000000000E+00  0.00000000000E+00 -0.10614364924E+04  0.10614364924E+04  0.25500000920E-02 0.  1.
    10030    2    1    2    0    0  0.00000000000E+00  0.00000000000E+00  0.77360017456E+03  0.28964731593E+04  0.27912541146E+04 0.  0.
        3    1    3    3  502    0  0.34810657882E+03 -0.49079970936E+03 -0.91991929636E+03  0.10992333997E+04  0.10100000352E+00 0.  1.
       -3    1    3    3    0  502 -0.34810657882E+03  0.49079970936E+03  0.16935194709E+04  0.17972397596E+04  0.10100000352E+00 0. -1.
</event>
<event>
 5   0  0.1041909E-05  0.2617055E+04  0.7818609E-02  0.8362431E-01
        1   -1    0    0  501    0  0.00000000000E+00  0.00000000000E+00  0.21203047579E+04  0.21203047579E+04  0.50400001928E-02 0.  1.
       -1   -1    0    0    0  501  0.00000000000E+00  0.00000000000E+00 -0.80754605506E+03  0.80754605507E+03  0.50400001928E-02 0. -1.
    10030    2    1    2    0    0  0.00000000000E+00  0.00000000000E+00  0.13127587028E+04  0.29278508130E+04  0.26170546366E+04 0.  0.
        5    1    3    3  502    0 -0.98863570214E+03  0.36557982426E+03 -0.21105317849E+03  0.10749952063E+04  0.46999998093E+01 0. -1.
       -5    1    3    3    0  502  0.98863570214E+03 -0.36557982426E+03  0.15238118813E+04  0.18528556067E+04  0.46999998093E+01 0.  1.
</event>
<event>
 5   0  0.9971923E-06  0.2657312E+04  0.7818609E-02  0.8348990E-01
        1   -1    0    0  501    0  0.00000000000E+00  0.00000000000E+00  0.23583020818E+04  0.23583020818E+04  0.50400001928E-02 0. -1.
       -1   -1    0    0    0  501  0.00000000000E+00  0.00000000000E+00 -0.74855824121E+03  0.74855824123E+03  0.50400001928E-02 0.  1.
    10030    2    1    2    0    0  0.00000000000E+00  0.00000000000E+00  0.16097438406E+04  0.31068603230E+04  0.26573117684E+04 0.  0.
        2    1    3    3  502    0 -0.89237285990E+03 -0.62863433401E+03 -0.80785058731E+02  0.10945486160E+04  0.25500000920E-02 0.  1.
       -2    1    3    3    0  502  0.89237285990E+03  0.62863433401E+03  0.16905288993E+04  0.20123117071E+04  0.25500000920E-02 0. -1.
</event>
<event>
 5   0  0.2540232E-05  0.2687734E+04  0.7818609E-02  0.8338996E-01
       -2   -1    0    0    0  501  0.00000000000E+00  0.00000000000E+00  0.11280921308E+04  0.11280921308E+04  0.25500000920E-02 0.  1.
        2   -1    0    0  501    0  0.00000000000E+00  0.00000000000E+00 -0.16009134352E+04  0.16009134352E+04  0.25500000920E-02 0. -1.
    10030    2    1    2    0    0  0.00000000000E+00  0.00000000000E+00 -0.47282130441E+03  0.27290055659E+04  0.26877335048E+04 0.  0.
        1    1    3    3  502    0  0.11022287074E+04 -0.68823827419E+03 -0.58430566289E+03  0.14247782821E+04  0.50400001928E-02 0. -1.
       -1    1    3    3    0  502 -0.11022287074E+04  0.68823827419E+03  0.11148435849E+03  0.13042272838E+04  0.50400001928E-02 0.  1.
</event>
<event>
 5   0  0.1036691E-05  0.2663759E+04  0.7818609E-02  0.8346860E-01
        1   -1    0    0  501    0  0.00000000000E+00  0.00000000000E+00  0.16994036282E+04  0.16994036282E+04  0.50400001928E-02 0. -1.
       -1   -1    0    0    0  501  0.00000000000E+00  0.00000000000E+00 -0.10438388254E+04  0.10438388254E+04  0.50400001928E-02 0.  1.
    10030    2    1    2    0    0  0.00000000000E+00  0.00000000000E+00  0.65556480279E+03  0.27432424537E+04  0.26637593639E+04 0.  0.
        4    1    3    3  502    0  0.22823933610E+03  0.82266531663E+03 -0.72498802766E+03  0.11200360132E+04  0.12699999809E+01 0.  1.
       -4    1    3    3    0  502 -0.22823933610E+03 -0.82266531663E+03  0.13805528305E+04  0.16232064404E+04  0.12699999809E+01 0. -1.
</event>
<event>
 5   0  0.2615843E-05  0.2722764E+04  0.7818609E-02  0.8327656E-01
        2   -1    0    0  501    0  0.00000000000E+00  0.00000000000E+00  0.18824765673E+04  0.18824765673E+04  0.25500000920E-02 0.  1.
       -2   -1    0    0    0  501  0.00000000000E+00  0.00000000000E+00 -0.98453339229E+03  0.98453339229E+03  0.25500000920E-02 0. -1.
    10030    2    1    2    0    0  0.00000000000E+00  0.00000000000E+00  0.89794317502E+03  0.28670099596E+04  0.27227640667E+04 0.  0.
        3    1    3    3  502    0 -0.13344526730E+04  0.48255866462E+02  0.16984614450E+03  0.13460833140E+04  0.10100000352E+00 0. -1.
       -3    1    3    3    0  502  0.13344526730E+04 -0.48255866462E+02  0.72809703053E+03  0.15209266456E+04  0.10100000352E+00 0.  1.
</event>
<event>
 5   0  0.1041909E-05  0.2256484E+04  0.7818609E-02  0.8495279E-01
        1   -1    0    0  501    0  0.00000000000E+00  0.00000000000E+00  0.10171276535E+04  0.10171276535E+04  0.50400001928E-02 0.  1.
       -1   -1    0    0    0  501  0.00000000000E+00  0.00000000000E+00 -0.12514949635E+04  0.12514949635E+04  0.50400001928E-02 0. -1.
    10030    2    1    2    0    0  0.00000000000E+00  0.00000000000E+00 -0.23436731001E+03  0.22686226170E+04  0.22564841108E+04 0.  0.
        5    1    3    3  502    0  0.96352271942E+02 -0.81460187060E+03  0.66161107149E+03  0.10538554302E+04  0.46999998093E+01 0.  1.
       -5    1    3    3    0  502 -0.96352271942E+02  0.81460187060E+03 -0.89597838151E+03  0.12147671868E+04  0.46999998093E+01 0. -1.
</event>
<event>
 5   0  0.1005265E-05  0.2736609E+04  0.7818609E-02  0.8323223E-01
       -1   -1    0    0    0  501  0.00000000000E+00  0.00000000000E+00  0.80517186881E+03  0.80517186882E+03  0.50400001928E-02 0. -1.
        1   -1    0    0  501    0  0.00000000000E+00  0.00000000000E+00 -0.23252890903E+04  0.23252890904E+04  0.50400001928E-02 0.  1.
    10030    2    1    2    0    0  0.00000000000E+00  0.00000000000E+00 -0.15201172215E+04  0.31304609592E+04  0.27366091153E+04 0.  0.
        3    1    3    3  502    0 -0.13763649282E+03 -0.77871663298E+03 -0.20374199430E+04  0.21855030160E+04  0.10100000352E+00 0.  1.
       -3    1    3    3    0  502  0.13763649282E+03  0.77871663298E+03  0.51730272142E+03  0.94495794320E+03  0.10100000352E+00 0. -1.
</event>
<event>
 5   0  0.8740500E-06  0.2514743E+04  0.7818609E-02  0.8397752E-01
        3   -1    0    0  501    0  0.00000000000E+00  0.00000000000E+00  0.14006756736E+04  0.14006756773E+04  0.10100000352E+00 0. -1.
       -3   -1    0    0    0  501  0.00000000000E+00  0.00000000000E+00 -0.11287285372E+04  0.11287285417E+04  0.10100000352E+00 0.  1.
    10030    2    1    2    0    0  0.00000000000E+00  0.00000000000E+00  0.27194713641E+03  0.25294042190E+04  0.25147426226E+04 0.  0.
        4    1    3    3  502    0 -0.10889667143E+04 -0.57171543868E+03  0.39878982339E+03  0.12929586165E+04  0.12699999809E+01 0.  1.
       -4    1    3    3    0  502  0.10889667143E+04  0.57171543868E+03 -0.12684268698E+03  0.12364456025E+04  0.12699999809E+01 0. -1.
</event>
<event>
 5   0  0.2540684E-05  0.2741747E+04  0.7818609E-02  0.8321585E-01
       -2   -1    0    0    0  501  0.00000000000E+00  0.00000000000E+00  0.85774567753E+03  0.85774567753E+03  0.25500000920E-02 0. -1.
        2   -1    0    0  501    0  0.00000000000E+00  0.00000000000E+00 -0.21909697039E+04  0.21909697039E+04  0.25500000920E-02 0.  1.
    10030    2    1    2    0    0  0.00000000000E+00  0.00000000000E+00 -0.13332240263E+04  0.30487153814E+04  0.27417474669E+04 0.  0.
        2    1    3    3  502    0 -0.57053406985E+03  0.89258692236E+03 -0.16341291581E+04  0.19474595360E+04  0.25500000920E-02 0.  1.
       -2    1    3    3    0  502  0.57053406985E+03 -0.89258692236E+03  0.30090513175E+03  0.11012558455E+04  0.25500000920E-02 0. -1.
</event>
<event>
 5   0  0.2641216E-05  0.2644436E+04  0.7818609E-02  0.8353262E-01
       -2   -1    0    0    0  501  0.00000000000E+00  0.00000000000E+00  0.13117929321E+04  0.13117929321E+04  0.25500000920E-02 0.  1.
        2   -1    0    0  501    0  0.00000000000E+00  0.00000000000E+00 -0.13327260025E+04  0.13327260025E+04  0.25500000920E-02 0. -1.
    10030    2    1    2    0    0  0.00000000000E+00  0.00000000000E+00 -0.20933070389E+02  0.26445189346E+04  0.26444360839E+04 0.  0.
        5    1    3    3  502    0  0.18037243681E+03  0.12986528239E+04  0.16043377931E+03  0.13209066812E+04  0.46999998093E+01 0.  1.
       -5    1    3    3    0  502 -0.18037243681E+03 -0.12986528239E+04 -0.18136684970E+03  0.13236122533E+04  0.46999998093E+01 0. -1.
</event>
<event>
 5   0  0.1036691E-05  0.2745700E+04  0.7818609E-02  0.8320327E-01
        1   -1    0    0  501    0  0.00000000000E+00  0.00000000000E+00  0.12161444833E+04  0.12161444834E+04  0.50400001928E-02 0.  1.
       -1   -1    0    0    0  501  0.00000000000E+00  0.00000000000E+00 -0.15497474693E+04  0.15497474693E+04  0.50400001928E-02 0. -1.
    10030    2    1    2    0    0  0.00000000000E+00  0.00000000000E+00 -0.33360298599E+03  0.27658919527E+04  0.27456997909E+04 0.  0.
        4    1    3    3  502    0 -0.46918985317E+03 -0.52601510640E+03  0.10199472430E+04  0.12398084537E+04  0.12699999809E+01 0.  1.
       -4    1    3    3    0  502  0.46918985317E+03  0.52601510640E+03 -0.13535502290E+04  0.15260834990E+04  0.12699999809E+01 0. -1.
</event>
<event>
 5   0  0.2516518E-05  0.2744432E+04  0.7818609E-02  0.8320731E-01
       -2   -1    0    0    0  501  0.00000000000E+00  0.00000000000E+00  0.13055786226E+04  0.13055786226E+04  0.25500000920E-02 0. -1.
        2   -1    0    0  501    0  0.00000000000E+00  0.00000000000E+00 -0.14422544352E+04  0.14422544352E+04  0.25500000920E-02 0.  1.
    10030    2    1    2    0    0  0.00000000000E+00  0.00000000000E+00 -0.13667581259E+03  0.27478330578E+04  0.27444318603E+04 0.  0.
        4    1    3    3  502    0 -0.52734060251E+03  0.10655121600E+04 -0.75443941392E+03  0.14080428674E+04  0.12699999809E+01 0.  1.
       -4    1    3    3    0  502  0.52734060251E+03 -0.10655121600E+04  0.61776360133E+03  0.13397901904E+04  0.12699999809E+01 0. -1.
</event>
<event>
 5   0  0.1041909E-05  0.2706444E+04  0.7818609E-02  0.8332917E-01
        1   -1    0    0  501    0  0.00000000000E+00  0.00000000000E+00  0.16120966360E+04  0.16120966360E+04  0.50400001928E-02 0. -1.
       -1   -1    0    0    0  501  0.00000000000E+00  0.00000000000E+00 -0.11359179596E+04  0.11359179596E+04  0.50400001928E-02 0.  1.
    10030    2    1    2    0    0  0.00000000000E+00  0.00000000000E+00  0.47617867642E+03  0.27480145957E+04  0.27064438081E+04 0.  0.
        5    1    3    3  502    0 -0.29498800902E+03 -0.22400527093E+03 -0.10834362857E+04  0.11450120358E+04  0.46999998093E+01 0.  1.
       -5    1    3    3    0  502  0.29498800902E+03  0.22400527093E+03  0.15596149621E+04  0.16030025599E+04  0.46999998093E+01 0. -1.
</event>
<event>
 5   0  0.2540684E-05  0.2571197E+04  0.7818609E-02  0.8378051E-01
        2   -1    0    0  501    0  0.00000000000E+00  0.00000000000E+00  0.13923599412E+04  0.13923599412E+04  0.25500000920E-02 0.  1.
       -2   -1    0    0    0  501  0.00000000000E+00  0.00000000000E+00 -0.11870230870E+04  0.11870230870E+04  0.25500000920E-02 0. -1.
    10030    2    1    2    0    0  0.00000000000E+00  0.00000000000E+00  0.20533685416E+03  0.25793830282E+04  0.25711969164E+04 0.  0.
        2    1    3    3  502    0  0.19580068296E+03 -0.10634161482E+04 -0.59493866272E+03  0.12341571310E+04  0.25500000920E-02 0. -1.
       -2    1    3    3    0  502 -0.19580068296E+03  0.10634161482E+04  0.80027551689E+03  0.13452258972E+04  0.25500000920E-02 0.  1.
</event>
<event>
 5   0  0.2615843E-05  0.2704949E+04  0.7818609E-02  0.8333401E-01
        2   -1    0    0  501    0  0.00000000000E+00  0.00000000000E+00  0.15678054392E+04  0.15678054392E+04  0.25500000920E-02 0.  1.
       -2   -1    0    0    0  501  0.00000000000E+00  0.00000000000E+00 -0.11667186718E+04  0.11667186718E+04  0.25500000920E-02 0. -1.
    10030    2    1    2    0    0  0.00000000000E+00  0.00000000000E+00  0.40108676737E+03  0.27345241110E+04  0.27049494485E+04 0.  0.
        3    1    3    3  502    0  0.57048735000E+03  0.97939796115E+03  0.94652170460E+03  0.14766785467E+04  0.10100000352E+00 0.  1.
       -3    1    3    3    0  502 -0.57048735000E+03 -0.97939796115E+03 -0.54543493723E+03  0.12578455643E+04  0.10100000352E+00 0. -1.
</event>
<event>
 5   0  0.9971923E-06  0.2709087E+04  0.7818609E-02  0.8332063E-01
       -1   -1    0    0    0  501  0.00000000000E+00  0.00000000000E+00  0.99912985766E+03  0.99912985767E+03  0.50400001928E-02 0.  1.
        1   -1    0    0  501    0  0.00000000000E+00  0.00000000000E+00 -0.18363859980E+04  0.18363859980E+04  0.50400001928E-02 0. -1.
    10030    2    1    2    0    0  0.00000000000E+00  0.00000000000E+00 -0.83725614037E+03  0.28355158557E+04  0.27090869907E+04 0.  0.
        2    1    3    3  502    0  0.26403688759E+03  0.11474420682E+04  0.28228765893E+03  0.12107952347E+04  0.25500000920E-02 0.  1.
       -2    1    3    3    0  502 -0.26403688759E+03 -0.11474420682E+04 -0.11195437993E+04  0.16247206210E+04  0.25500000920E-02 0. -1.
</event>
<event>
 5   0  0.1041909E-05  0.2715871E+04  0.7818609E-02  0.8329874E-01
        1   -1    0    0  501    0  0.00000000000E+00  0.00000000000E+00  0.14644304773E+04  0.14644304773E+04  0.50400001928E-02 0.  1.
       -1   -1    0    0    0  501  0.00000000000E+00  0.00000000000E+00 -0.12591852643E+04  0.12591852643E+04  0.50400001928E-02 0. -1.
    10030    2    1    2    0    0  0.00000000000E+00  0.00000000000E+00  0.20524521299E+03  0.27236157417E+04  0.27158713355E+04 0.  0.
        5    1    3    3  502    0 -0.55797930413E+03  0.21884809683E+03 -0.11193476881E+04  0.12697230919E+04  0.46999998093E+01 0. -1.
       -5    1    3    3    0  502  0.55797930413E+03 -0.21884809683E+03  0.13245929011E+04  0.14538926497E+04  0.46999998093E+01 0.  1.
</event>
<event>
 5   0  0.2615843E-05  0.2683238E+04  0.7818609E-02  0.8340464E-01
        2   -1    0    0  501    0  0.00000000000E+00  0.00000000000E+00  0.22163712161E+04  0.22163712161E+04  0.25500000920E-02 0. -1.
       -2   -1    0    0    0  501  0.00000000000E+00  0.00000000000E+00 -0.81211202657E+03  0.81211202657E+03  0.25500000920E-02 0.  1.
    10030    2    1    2    0    0  0.00000000000E+00  0.00000000000E+00  0.14042591895E+04  0.30284832427E+04  0.26832381333E+04 0.  0.
        3    1    3    3  502    0 -0.77273553159E+03 -0.68385617483E+03 -0.26560786836E+03  0.10655172545E+04  0.10100000352E+00 0. -1.
       -3    1    3    3    0  502  0.77273553159E+03  0.68385617483E+03  0.16698670579E+04  0.19629659882E+04  0.10100000352E+00 0.  1.
</event>
<event>
 5   0  0.2615843E-05  0.2662919E+04  0.7818609E-02  0.8347138E-01
        2   -1    0    0  501    0  0.00000000000E+00  0.00000000000E+00  0.27836982112E+04  0.27836982112E+04  0.25500000920E-02 0.  1.
       -2   -1    0    0    0  501  0.00000000000E+00  0.00000000000E+00 -0.63684496069E+03  0.63684496070E+03  0.25500000920E-02 0. -1.
    10030    2    1    2    0    0  0.00000000000E+00  0.00000000000E+00  0.21468532505E+04  0.34205431719E+04  0.26629188331E+04 0.  0.
        3    1    3    3  502    0  0.12680043411E+04  0.27581077283E+03  0.69048440754E+03  0.14699235758E+04  0.10100000352E+00 0. -1.
       -3    1    3    3    0  502 -0.12680043411E+04 -0.27581077283E+03  0.14563688430E+04  0.19506195960E+04  0.10100000352E+00 0.  1.
</event>
<event>
 5   0  0.2540684E-05  0.2666498E+04  0.7818609E-02  0.8345958E-01
        2   -1    0    0  501    0  0.00000000000E+00  0.00000000000E+00  0.16651979958E+04  0.16651979958E+04  0.25500000920E-02 0.  1.
       -2   -1    0    0    0  501  0.00000000000E+00  0.00000000000E+00 -0.10674726133E+04  0.10674726133E+04  0.25500000920E-02 0. -1.
    10030    2    1    2    0    0  0.00000000000E+00  0.00000000000E+00  0.59772538250E+03  0.27326706091E+04  0.26664982702E+04 0.  0.
        2    1    3    3  502    0 -0.12742917906E+04  0.14223932159E+01 -0.10295369697E+03  0.12784447796E+04  0.25500000920E-02 0. -1.
       -2    1    3    3    0  502  0.12742917906E+04 -0.14223932159E+01  0.70067907947E+03  0.14542258295E+04  0.25500000920E-02 0.  1.
</event>
<event>
 5   0  0.1096672E-05  0.2399756E+04  0.7818609E-02  0.8439595E-01
        1   -1    0    0  501    0  0.00000000000E+00  0.00000000000E+00  0.14500633853E+04  0.14500633853E+04  0.50400001928E-02 0.  1.
       -1   -1    0    0    0  501  0.00000000000E+00  0.00000000000E+00 -0.99285792781E+03  0.99285792782E+03  0.50400001928E-02 0. -1.
    10030    2    1    2    0    0  0.00000000000E+00  0.00000000000E+00  0.45720545748E+03  0.24429213131E+04  0.23997557608E+04 0.  0.
        1    1    3    3  502    0 -0.10035600140E+04 -0.15279843594E+03 -0.42261243319E+03  0.10995823445E+04  0.50400001928E-02 0. -1.
       -1    1    3    3    0  502  0.10035600140E+04  0.15279843594E+03  0.87981789068E+03  0.13433389686E+04  0.50400001928E-02 0.  1.
</event>
<event>
 5   0  0.2516518E-05  0.2739781E+04  0.7818609E-02  0.8322212E-01
        2   -1    0    0  501    0  0.00000000000E+00  0.00000000000E+00  0.25962480802E+04  0.25962480802E+04  0.25500000920E-02 0.  1.
       -2   -1    0    0    0  501  0.00000000000E+00  0.00000000000E+00 -0.72281222155E+03  0.72281222156E+03  0.25500000920E-02 0. -1.
    10030    2    1    2    0    0  0.00000000000E+00  0.00000000000E+00  0.18734358586E+04  0.33190603017E+04  0.27397808982E+04 0.  0.
        4    1    3    3  502    0 -0.88843396824E+03 -0.10131009080E+04  0.12356986085E+04  0.18282890990E+04  0.12699999809E+01 0.  1.
       -4    1    3    3    0  502  0.88843396824E+03  0.10131009080E+04  0.63773725016E+03  0.14907712027E+04  0.12699999809E+01 0. -1.
</event>
<event>
 5   0  0.2615843E-05  0.2655460E+04  0.7818609E-02  0.8349603E-01
        2   -1    0    0  501    0  0.00000000000E+00  0.00000000000E+00  0.13617236597E+04  0.13617236597E+04  0.25500000920E-02 0. -1.
       -2   -1    0    0    0  501  0.00000000000E+00  0.00000000000E+00 -0.12945850602E+04  0.12945850602E+04  0.25500000920E-02 0.  1.
    10030    2    1    2    0    0  0.00000000000E+00  0.00000000000E+00  0.67138599537E+02  0.26563087199E+04  0.26554601153E+04 0.  0.
        3    1    3    3  502    0  0.85203332889E+03  0.13266832547E+03 -0.97635990567E+03  0.13026282485E+04  0.10100000352E+00 0.  1.
       -3    1    3    3    0  502 -0.85203332889E+03 -0.13266832547E+03  0.10434985052E+04  0.13536804714E+04  0.10100000352E+00 0. -1.
</event>
<event>
 5   0  0.9971923E-06  0.2714963E+04  0.7818609E-02  0.8330166E-01
       -1   -1    0    0    0  501  0.00000000000E+00  0.00000000000E+00  0.17212496946E+04  0.17212496946E+04  0.50400001928E-02 0.  1.
        1   -1    0    0  501    0  0.00000000000E+00  0.00000000000E+00 -0.10705917967E+04  0.10705917968E+04  0.50400001928E-02 0. -1.
    10030    2    1    2    0    0  0.00000000000E+00  0.00000000000E+00  0.65065789780E+03  0.27918414913E+04  0.27149628382E+04 0.  0.
        2    1    3    3  502    0  0.75277332802E+03 -0.10146377507E+04 -0.18531942726E+03  0.12769106228E+04  0.25500000920E-02 0. -1.
       -2    1    3    3    0  502 -0.75277332802E+03  0.10146377507E+04  0.83597732506E+03  0.15149308685E+04  0.25500000920E-02 0.  1.
</event>
<event>
 5   0  0.1096672E-05  0.2298223E+04  0.7818609E-02  0.8478622E-01
       -1   -1    0    0    0  501  0.00000000000E+00  0.00000000000E+00  0.17081369480E+04  0.17081369480E+04  0.50400001928E-02 0. -1.
        1   -1    0    0  501    0  0.00000000000E+00  0.00000000000E+00 -0.77303957020E+03  0.77303957022E+03  0.50400001928E-02 0.  1.
    10030    2    1    2    0    0  0.00000000000E+00  0.00000000000E+00  0.93509737782E+03  0.24811765182E+04  0.22982231851E+04 0.  0.
        1    1    3    3  502    0 -0.23662029847E+03  0.62324615707E+02 -0.74458729415E+03  0.78376256737E+03  0.50400001928E-02 0.  1.
       -1    1    3    3    0  502  0.23662029847E+03 -0.62324615707E+02  0.16796846720E+04  0.16974139509E+04  0.50400001928E-02 0. -1.
</event>
<event>
 5   0  0.2540232E-05  0.2700149E+04  0.7818609E-02  0.8334957E-01
       -2   -1    0    0    0  501  0.00000000000E+00  0.00000000000E+00  0.13164441572E+04  0.13164441572E+04  0.25500000920E-02 0.  1.
        2   -1    0    0  501    0  0.00000000000E+00  0.00000000000E+00 -0.13845635690E+04  0.13845635690E+04  0.25500000920E-02 0. -1.
    10030    2    1    2    0    0  0.00000000000E+00  0.00000000000E+00 -0.68119411859E+02  0.27010077262E+04  0.27001486038E+04 0.  0.
        1    1    3    3  502    0 -0.10755244707E+04 -0.12267634529E+03 -0.84109905704E+03  0.13708573947E+04  0.50400001928E-02 0. -1.
       -1    1    3    3    0  502  0.10755244707E+04  0.12267634529E+03  0.77297964518E+03  0.13301503316E+04  0.50400001928E-02 0.  1.
</event>
<event>
 5   0  0.1041909E-05  0.1706831E+04  0.7818609E-02  0.8757478E-01
        1   -1    0    0  501    0  0.00000000000E+00  0.00000000000E+00  0.19850661912E+04  0.19850661912E+04  0.50400001928E-02 0.  1.
       -1   -1    0    0    0  501  0.00000000000E+00  0.00000000000E+00 -0.36689851799E+03  0.36689851802E+03  0.50400001928E-02 0. -1.
    10030    2    1    2    0    0  0.00000000000E+00  0.00000000000E+00  0.16181676732E+04  0.23519647092E+04  0.17068307985E+04 0.  0.
        5    1    3    3  502    0  0.14927786710E+03 -0.40143748421E+03  0.18262284905E+04  0.18757847757E+04  0.46999998093E+01 0.  1.
       -5    1    3    3    0  502 -0.14927786710E+03  0.40143748421E+03 -0.20806081732E+03  0.47617993347E+03  0.46999998093E+01 0. -1.
</event>
<event>
 5   0  0.1096672E-05  0.2583932E+04  0.7818609E-02  0.8373680E-01
        1   -1    0    0  501    0  0.00000000000E+00  0.00000000000E+00  0.20055408923E+04  0.20055408923E+04  0.50400001928E-02 0. -1.
       -1   -1    0    0    0  501  0.00000000000E+00  0.00000000000E+00 -0.83228227509E+03  0.83228227510E+03  0.50400001928E-02 0.  1.
    10030    2    1    2    0    0  0.00000000000E+00  0.00000000000E+00  0.11732586172E+04  0.28378231674E+04  0.25839319934E+04 0.  0.
        1    1    3    3  502    0  0.50018785123E+03  0.32764017888E+02  0.18943931151E+04  0.19595883859E+04  0.50400001928E-02 0. -1.
       -1    1    3    3    0  502 -0.50018785123E+03 -0.32764017888E+02 -0.72113449792E+03  0.87823478153E+03  0.50400001928E-02 0.  1.
</event>
<event>
 5   0  0.2615843E-05  0.2666653E+04  0.7818609E-02  0.8345907E-01
       -2   -1    0    0    0  501  0.00000000000E+00  0.00000000000E+00  0.13233830915E+04  0.13233830915E+04  0.25500000920E-02 0. -1.
        2   -1    0    0  501    0  0.00000000000E+00  0.00000000000E+00 -0.13433444410E+04  0.13433444410E+04  0.25500000920E-02 0.  1.
    10030    2    1    2    0    0  0.00000000000E+00  0.00000000000E+00 -0.19961349550E+02  0.26667275325E+04  0.26666528227E+04 0.  0.
        3    1    3    3  502    0  0.71331927043E+03  0.93516163776E+03  0.61805574035E+03  0.13286627031E+04  0.10100000352E+00 0. -1.
       -3    1    3    3    0  502 -0.71331927043E+03 -0.93516163776E+03 -0.63801708990E+03  0.13380648293E+04  0.10100000352E+00 0.  1.
</event>
<event>
 5   0  0.1036691E-05  0.2794631E+04  0.7818609E-02  0.8304937E-01
        1   -1    0    0  501    0  0.00000000000E+00  0.00000000000E+00  0.17187485509E+04  0.17187485509E+04  0.50400001928E-02 0. -1.
       -1   -1    0    0    0  501  0.00000000000E+00  0.00000000000E+00 -0.11359955909E+04  0.11359955909E+04  0.50400001928E-02 0.  1.
    10030    2    1    2    0    0  0.00000000000E+00  0.00000000000E+00  0.58275295994E+03  0.28547441418E+04  0.27946311211E+04 0.  0.
        4    1    3    3  502    0  0.94789219047E+03  0.49156882846E+03 -0.62931515394E+03  0.12394267601E+04  0.12699999809E+01 0.  1.
       -4    1    3    3    0  502 -0.94789219047E+03 -0.49156882846E+03  0.12120681139E+04  0.16153173816E+04  0.12699999809E+01 0. -1.
</event>
<event>
 5   0  0.1096672E-05  0.1821945E+04  0.7818609E-02  0.8694716E-01
       -1   -1    0    0    0  501  0.00000000000E+00  0.00000000000E+00  0.42015065663E+03  0.42015065666E+03  0.50400001928E-02 0.  1.
        1   -1    0    0  501    0  0.00000000000E+00  0.00000000000E+00 -0.19751751876E+04  0.19751751876E+04  0.50400001928E-02 0. -1.
    10030    2    1    2    0    0  0.00000000000E+00  0.00000000000E+00 -0.15550245310E+04  0.23953258443E+04  0.18219452814E+04 0.  0.
        1    1    3    3  502    0  0.23997044851E+03  0.87863961507E+03 -0.75560106096E+03  0.11834383603E+04  0.50400001928E-02 0. -1.
       -1    1    3    3    0  502 -0.23997044851E+03 -0.87863961507E+03 -0.79942347003E+03  0.12118874840E+04  0.50400001928E-02 0.  1.
</event>
<event>
 5   0  0.9971923E-06  0.2697270E+04  0.7818609E-02  0.8335891E-01
        1   -1    0    0  501    0  0.00000000000E+00  0.00000000000E+00  0.29844301065E+04  0.29844301065E+04  0.50400001928E-02 0. -1.
       -1   -1    0    0    0  501  0.00000000000E+00  0.00000000000E+00 -0.60943512975E+03  0.60943512977E+03  0.50400001928E-02 0.  1.
    10030    2    1    2    0    0  0.00000000000E+00  0.00000000000E+00  0.23749949768E+04  0.35938652363E+04  0.26972701379E+04 0.  0.
        2    1    3    3  502    0  0.67784368823E+03 -0.11483015314E+04  0.91853550424E+03  0.16191899040E+04  0.25500000920E-02 0. -1.
       -2    1    3    3    0  502 -0.67784368823E+03  0.11483015314E+04  0.14564594725E+04  0.19746753323E+04  0.25500000920E-02 0.  1.
</event>
<event>
 5   0  0.2540232E-05  0.2693789E+04  0.7818609E-02  0.8337023E-01
       -2   -1    0    0    0  501  0.00000000000E+00  0.00000000000E+00  0.15283497176E+04  0.15283497176E+04  0.25500000920E-02 0.  1.
        2   -1    0    0  501    0  0.00000000000E+00  0.00000000000E+00 -0.11869823986E+04  0.11869823986E+04  0.25500000920E-02 0. -1.
    10030    2    1    2    0    0  0.00000000000E+00  0.00000000000E+00  0.34136731901E+03  0.27153321161E+04  0.26937885690E+04 0.  0.
        1    1    3    3  502    0 -0.58171744016E+03  0.73648451383E+03  0.11444945844E+04  0.14800920489E+04  0.50400001928E-02 0.  1.
       -1    1    3    3    0  502  0.58171744016E+03 -0.73648451383E+03 -0.80312726543E+03  0.12352400673E+04  0.50400001928E-02 0. -1.
</event>
<event>
 5   0  0.8740500E-06  0.2606831E+04  0.7818609E-02  0.8365885E-01
       -3   -1    0    0    0  501  0.00000000000E+00  0.00000000000E+00  0.94354876205E+03  0.94354876745E+03  0.10100000352E+00 0. -1.
        3   -1    0    0  501    0  0.00000000000E+00  0.00000000000E+00 -0.18005337697E+04  0.18005337726E+04  0.10100000352E+00 0.  1.
    10030    2    1    2    0    0  0.00000000000E+00  0.00000000000E+00 -0.85698500770E+03  0.27440825400E+04  0.26068305820E+04 0.  0.
        4    1    3    3  502    0  0.30905810520E+03 -0.52743421572E+03  0.78328473266E+03  0.99359969284E+03  0.12699999809E+01 0. -1.
       -4    1    3    3    0  502 -0.30905810520E+03  0.52743421572E+03 -0.16402697404E+04  0.17504828472E+04  0.12699999809E+01 0.  1.
</event>
<event>
 5   0  0.2615843E-05  0.2791943E+04  0.7818609E-02  0.8305774E-01
       -2   -1    0    0    0  501  0.00000000000E+00  0.00000000000E+00  0.12320163878E+04  0.12320163878E+04  0.25500000920E-02 0.  1.
        2   -1    0    0  501    0  0.00000000000E+00  0.00000000000E+00 -0.15817450654E+04  0.15817450654E+04  0.25500000920E-02 0. -1.
    10030    2    1    2    0    0  0.00000000000E+00  0.00000000000E+00 -0.34972867765E+03  0.28137614532E+04  0.27919425796E+04 0.  0.
        3    1    3    3  502    0  0.11896091456E+04  0.34034146900E+03 -0.82623845426E+03  0.14878414661E+04  0.10100000352E+00 0. -1.
       -3    1    3    3    0  502 -0.11896091456E+04 -0.34034146900E+03  0.47650977661E+03  0.13259199871E+04  0.10100000352E+00 0.  1.
</event>
<event>
 5   0  0.2540684E-05  0.2134481E+04  0.7818609E-02  0.8546205E-01
       -2   -1    0    0    0  501  0.00000000000E+00  0.00000000000E+00  0.10377273087E+04  0.10377273087E+04  0.25500000920E-02 0. -1.
        2   -1    0    0  501    0  0.00000000000E+00  0.00000000000E+00 -0.10975927340E+04  0.10975927340E+04  0.25500000920E-02 0.  1.
    10030    2    1    2    0    0  0.00000000000E+00  0.00000000000E+00 -0.59865425302E+02  0.21353200427E+04  0.21344806899E+04 0.  0.
        2    1    3    3  502    0 -0.85687708655E+03  0.72728214922E+02  0.60235555667E+03  0.10499333081E+04  0.25500000920E-02 0. -1.
       -2    1    3    3    0  502  0.85687708655E+03 -0.72728214922E+02 -0.66222098198E+03  0.10853867346E+04  0.25500000920E-02 0.  1.
</event>
<event>
 5   0  0.2516518E-05  0.2744859E+04  0.7818609E-02  0.8320595E-01
       -2   -1    0    0    0  501  0.00000000000E+00  0.00000000000E+00  0.60543695307E+03  0.60543695308E+03  0.25500000920E-02 0. -1.
        2   -1    0    0  501    0  0.00000000000E+00  0.00000000000E+00 -0.31110789803E+04  0.31110789803E+04  0.25500000920E-02 0.  1.
    10030    2    1    2    0    0  0.00000000000E+00  0.00000000000E+00 -0.25056420272E+04  0.37165159333E+04  0.27448585964E+04 0.  0.
        4    1    3    3  502    0  0.58565043057E+03  0.10548253733E+04 -0.36710176609E+03  0.12611139182E+04  0.12699999809E+01 0.  1.
       -4    1    3    3    0  502 -0.58565043057E+03 -0.10548253733E+04 -0.21385402611E+04  0.24554020152E+04  0.12699999809E+01 0. -1.
</event>
<event>
 5   0  0.2615843E-05  0.2752042E+04  0.7818609E-02  0.8318314E-01
       -2   -1    0    0    0  501  0.00000000000E+00  0.00000000000E+00  0.10989753675E+04  0.10989753675E+04  0.25500000920E-02 0. -1.
        2   -1    0    0  501    0  0.00000000000E+00  0.00000000000E+00 -0.17229087246E+04  0.17229087246E+04  0.25500000920E-02 0.  1.
    10030    2    1    2    0    0  0.00000000000E+00  0.00000000000E+00 -0.62393335707E+03  0.28218840921E+04  0.27520423317E+04 0.  0.
        3    1    3    3  502    0  0.74875402600E+03  0.10320192371E+04  0.21859883958E+03  0.12936312303E+04  0.10100000352E+00 0. -1.
       -3    1    3    3    0  502 -0.74875402600E+03 -0.10320192371E+04 -0.84253219665E+03  0.15282528618E+04  0.10100000352E+00 0.  1.
</event>
<event>
 5   0  0.1096672E-05  0.2699352E+04  0.7818609E-02  0.8335215E-01
        1   -1    0    0  501    0  0.00000000000E+00  0.00000000000E+00  0.11490890942E+04  0.11490890942E+04  0.50400001928E-02 0. -1.
       -1   -1    0    0    0  501  0.00000000000E+00  0.00000000000E+00 -0.15852774708E+04  0.15852774708E+04  0.50400001928E-02 0.  1.
    10030    2    1    2    0    0  0.00000000000E+00  0.00000000000E+00 -0.43618837658E+03  0.27343665650E+04  0.26993518133E+04 0.  0.
        1    1    3    3  502    0  0.46792913180E+03  0.62905812972E+03 -0.13309591483E+04  0.15447084053E+04  0.50400001928E-02 0.  1.
       -1    1    3    3    0  502 -0.46792913180E+03 -0.62905812972E+03  0.89477077172E+03  0.11896581597E+04  0.50400001928E-02 0. -1.
</event>
<event>
 5   0  0.8740500E-06  0.2920657E+04  0.7818609E-02  0.8266758E-01
       -3   -1    0    0    0  501  0.00000000000E+00  0.00000000000E+00  0.22148465294E+04  0.22148465317E+04  0.10100000352E+00 0.  1.
        3   -1    0    0  501    0  0.00000000000E+00  0.00000000000E+00 -0.96284740938E+03  0.96284741467E+03  0.10100000352E+00 0. -1.
    10030    2    1    2    0    0  0.00000000000E+00  0.00000000000E+00  0.12519991200E+04  0.31776939463E+04  0.29206569501E+04 0.  0.
        2    1    3    3  502    0  0.62362502983E+03  0.10803899296E+04  0.14520313705E+04  0.19143003105E+04  0.25500000920E-02 0.  1.
       -2    1    3    3    0  502 -0.62362502983E+03 -0.10803899296E+04 -0.20003225051E+03  0.12633936358E+04  0.25500000920E-02 0. -1.
</event>
<event>
 5   0  0.8740500E-06  0.2676343E+04  0.7818609E-02  0.8342722E-01
        3   -1    0    0  501    0  0.00000000000E+00  0.00000000000E+00  0.93590275475E+03  0.93590276020E+03  0.10100000352E+00 0. -1.
       -3   -1    0    0    0  501  0.00000000000E+00  0.00000000000E+00 -0.19133425898E+04  0.19133425925E+04  0.10100000352E+00 0.  1.
    10030    2    1    2    0    0  0.00000000000E+00  0.00000000000E+00 -0.97743983509E+03  0.28492453527E+04  0.26763427375E+04 0.  0.
        5    1    3    3  502    0 -0.75387553358E+03  0.10765502221E+04 -0.75676308049E+03  0.15165754682E+04  0.46999998093E+01 0.  1.
       -5    1    3    3    0  502  0.75387553358E+03 -0.10765502221E+04 -0.22067675459E+03  0.13326698844E+04  0.46999998093E+01 0. -1.
</event>
<event>
 5   0  0.2516518E-05  0.2717463E+04  0.7818609E-02  0.8329361E-01
        2   -1    0    0  501    0  0.00000000000E+00  0.00000000000E+00  0.16103800953E+04  0.16103800953E+04  0.25500000920E-02 0.  1.
       -2   -1    0    0    0  501  0.00000000000E+00  0.00000000000E+00 -0.11464071076E+04  0.11464071076E+04  0.25500000920E-02 0. -1.
    10030    2    1    2    0    0  0.00000000000E+00  0.00000000000E+00  0.46397298768E+03  0.27567872029E+04  0.27174629250E+04 0.  0.
        4    1    3    3  502    0 -0.10695959867E+04  0.69471544823E+03  0.70725768543E+03  0.14583827259E+04  0.12699999809E+01 0.  1.
       -4    1    3    3    0  502  0.10695959867E+04 -0.69471544823E+03 -0.24328469776E+03  0.12984044770E+04  0.12699999809E+01 0. -1.
</event>
<event>
 5   0  0.2540684E-05  0.2692531E+04  0.7818609E-02  0.8337432E-01
        2   -1    0    0  501    0  0.00000000000E+00  0.00000000000E+00  0.31847070339E+04  0.31847070339E+04  0.25500000920E-02 0. -1.
       -2   -1    0    0    0  501  0.00000000000E+00  0.00000000000E+00 -0.56910436428E+03  0.56910436429E+03  0.25500000920E-02 0.  1.
    10030    2    1    2    0    0  0.00000000000E+00  0.00000000000E+00  0.26156026696E+04  0.37538113981E+04  0.26925309075E+04 0.  0.
        2    1    3    3  502    0 -0.11820927423E+04  0.15069788553E+03  0.21811020923E+04  0.24854093106E+04  0.25500000920E-02 0. -1.
       -2    1    3    3    0  502  0.11820927423E+04 -0.15069788553E+03  0.43450057728E+03  0.12684020876E+04  0.25500000920E-02 0.  1.
</event>
<event>
 5   0  0.9971923E-06  0.2705732E+04  0.7818609E-02  0.8333147E-01
        1   -1    0    0  501    0  0.00000000000E+00  0.00000000000E+00  0.16631134599E+04  0.16631134600E+04  0.50400001928E-02 0. -1.
       -1   -1    0    0    0  501  0.00000000000E+00  0.00000000000E+00 -0.11004941350E+04  0.11004941350E+04  0.50400001928E-02 0.  1.
    10030    2    1    2    0    0  0.00000000000E+00  0.00000000000E+00  0.56261932492E+03  0.27636075950E+04  0.27057321439E+04 0.  0.
        2    1    3    3  502    0  0.12181655893E+04  0.56013948719E+03  0.46562162241E+03  0.14193262991E+04  0.25500000920E-02 0. -1.
       -2    1    3    3    0  502 -0.12181655893E+04 -0.56013948719E+03  0.96997702512E+02  0.13442812959E+04  0.25500000920E-02 0.  1.
</event>
<event>
 5   0  0.9971923E-06  0.2740817E+04  0.7818609E-02  0.8321881E-01
       -1   -1    0    0    0  501  0.00000000000E+00  0.00000000000E+00  0.96779846539E+03  0.96779846541E+03  0.50400001928E-02 0.  1.
        1   -1    0    0  501    0  0.00000000000E+00  0.00000000000E+00 -0.19405073579E+04  0.19405073579E+04  0.50400001928E-02 0. -1.
    10030    2    1    2    0    0  0.00000000000E+00  0.00000000000E+00 -0.97270889254E+03  0.29083058234E+04  0.27408174278E+04 0.  0.
        2    1    3    3  502    0 -0.13553959698E+04  0.60560135464E+02 -0.69116297724E+03  0.15226529565E+04  0.25500000920E-02 0.  1.
       -2    1    3    3    0  502  0.13553959698E+04 -0.60560135464E+02 -0.28154591530E+03  0.13856528668E+04  0.25500000920E-02 0. -1.
</event>
<event>
 5   0  0.2540232E-05  0.2671126E+04  0.7818609E-02  0.8344435E-01
       -2   -1    0    0    0  501  0.00000000000E+00  0.00000000000E+00  0.11051415286E+04  0.11051415286E+04  0.25500000920E-02 0.  1.
        2   -1    0    0  501    0  0.00000000000E+00  0.00000000000E+00 -0.16140273023E+04  0.16140273023E+04  0.25500000920E-02 0. -1.
    10030    2    1    2    0    0  0.00000000000E+00  0.00000000000E+00 -0.50888577367E+03  0.27191688309E+04  0.26711260548E+04 0.  0.
        1    1    3    3  502    0  0.11517649736E+04 -0.47938432487E+03  0.23095254232E+03  0.12687438521E+04  0.50400001928E-02 0.  1.
       -1    1    3    3    0  502 -0.11517649736E+04  0.47938432487E+03 -0.73983831599E+03  0.14504249788E+04  0.50400001928E-02 0. -1.
</event>
<event>
 5   0  0.1036691E-05  0.2699387E+04  0.7818609E-02  0.8335204E-01
        1   -1    0    0  501    0  0.00000000000E+00  0.00000000000E+00  0.19133791686E+04  0.19133791686E+04  0.50400001928E-02 0.  1.
       -1   -1    0    0    0  501  0.00000000000E+00  0.00000000000E+00 -0.95207074258E+03  0.95207074259E+03  0.50400001928E-02 0. -1.
    10030    2    1    2    0    0  0.00000000000E+00  0.00000000000E+00  0.96130842602E+03  0.28654499112E+04  0.26993868385E+04 0.  0.
        4    1    3    3  502    0 -0.62291904960E+03 -0.74851252518E+02 -0.78786736826E+03  0.10071581083E+04  0.12699999809E+01 0. -1.
       -4    1    3    3    0  502  0.62291904960E+03  0.74851252518E+02  0.17491757943E+04  0.18582918028E+04  0.12699999809E+01 0.  1.
</event>
<event>
 5   0  0.1041909E-05  0.2633694E+04  0.7818609E-02  0.8356845E-01
       -1   -1    0    0    0  501  0.00000000000E+00  0.00000000000E+00  0.13292422255E+04  0.13292422255E+04  0.50400001928E-02 0. -1.
        1   -1    0    0  501    0  0.00000000000E+00  0.00000000000E+00 -0.13045670571E+04  0.13045670571E+04  0.50400001928E-02 0.  1.
    10030    2    1    2    0    0  0.00000000000E+00  0.00000000000E+00  0.24675168407E+02  0.26338092826E+04  0.26336936939E+04 0.  0.
        5    1    3    3  502    0  0.78802873790E+03  0.40302533526E+03  0.98739053771E+03  0.13260395456E+04  0.46999998093E+01 0. -1.
       -5    1    3    3    0  502 -0.78802873790E+03 -0.40302533526E+03 -0.96271536930E+03  0.13077697370E+04  0.46999998093E+01 0.  1.
</event>
<event>
 5   0  0.1096672E-05  0.2747032E+04  0.7818609E-02  0.8319904E-01
       -1   -1    0    0    0  501  0.00000000000E+00  0.00000000000E+00  0.16639984966E+04  0.16639984966E+04  0.50400001928E-02 0. -1.
        1   -1    0    0  501    0  0.00000000000E+00  0.00000000000E+00 -0.11337424932E+04  0.11337424932E+04  0.50400001928E-02 0.  1.
    10030    2    1    2    0    0  0.00000000000E+00  0.00000000000E+00  0.53025600338E+03  0.27977409898E+04  0.27470317102E+04 0.  0.
        1    1    3    3  502    0 -0.69758739787E+03  0.85886390307E+03  0.10939504645E+04  0.15559572618E+04  0.50400001928E-02 0. -1.
       -1    1    3    3    0  502  0.69758739787E+03 -0.85886390307E+03 -0.56369446116E+03  0.12417837280E+04  0.50400001928E-02 0.  1.
</event>
<event>
 5   0  0.1005265E-05  0.2683744E+04  0.7818609E-02  0.8340299E-01
       -1   -1    0    0    0  501  0.00000000000E+00  0.00000000000E+00  0.12491503779E+04  0.12491503779E+04  0.50400001928E-02 0. -1.
        1   -1    0    0  501    0  0.00000000000E+00  0.00000000000E+00 -0.14414765797E+04  0.14414765797E+04  0.50400001928E-02 0.  1.
    10030    2    1    2    0    0  0.00000000000E+00  0.00000000000E+00 -0.19232620186E+03  0.26906269576E+04  0.26837444098E+04 0.  0.
        3    1    3    3  502    0 -0.51042121674E+02 -0.13311556545E+04  0.65620900402E+02  0.13337491472E+04  0.10100000352E+00 0. -1.
       -3    1    3    3    0  502  0.51042121674E+02  0.13311556545E+04 -0.25794710226E+03  0.13568778105E+04  0.10100000352E+00 0.  1.
</event>
<event>
 5   0  0.2540232E-05  0.2684548E+04  0.7818609E-02  0.8340036E-01
       -2   -1    0    0    0  501  0.00000000000E+00  0.00000000000E+00  0.18045192521E+04  0.18045192521E+04  0.25500000920E-02 0.  1.
        2   -1    0    0  501    0  0.00000000000E+00  0.00000000000E+00 -0.99843716959E+03  0.99843716959E+03  0.25500000920E-02 0. -1.
    10030    2    1    2    0    0  0.00000000000E+00  0.00000000000E+00  0.80608208250E+03  0.28029564217E+04  0.26845477046E+04 0.  0.
        1    1    3    3  502    0 -0.80037470104E+03  0.10417700236E+04  0.69053040933E+03  0.14841552110E+04  0.50400001928E-02 0.  1.
       -1    1    3    3    0  502  0.80037470104E+03 -0.10417700236E+04  0.11555167317E+03  0.13188012107E+04  0.50400001928E-02 0. -1.
</event>
<event>
 5   0  0.2540232E-05  0.2721142E+04  0.7818609E-02  0.8328178E-01
        2   -1    0    0  501    0  0.00000000000E+00  0.00000000000E+00  0.28624676675E+04  0.28624676675E+04  0.25500000920E-02 0.  1.
       -2   -1    0    0    0  501  0.00000000000E+00  0.00000000000E+00 -0.64669828857E+03  0.64669828857E+03  0.25500000920E-02 0. -1.
    10030    2    1    2    0    0  0.00000000000E+00  0.00000000000E+00  0.22157693789E+04  0.35091659561E+04  0.27211416293E+04 0.  0.
        1    1    3    3  502    0 -0.11562068420E+04 -0.59861356935E+03  0.16172339982E+04  0.20761980329E+04  0.50400001928E-02 0.  1.
       -1    1    3    3    0  502  0.11562068420E+04  0.59861356935E+03  0.59853538075E+03  0.14329679232E+04  0.50400001928E-02 0. -1.
</event>
<event>
 5   0  0.8740500E-06  0.2616631E+04  0.7818609E-02  0.8362574E-01
       -3   -1    0    0    0  501  0.00000000000E+00  0.00000000000E+00  0.13967092413E+04  0.13967092450E+04  0.10100000352E+00 0. -1.
        3   -1    0    0  501    0  0.00000000000E+00  0.00000000000E+00 -0.12255161437E+04  0.12255161478E+04  0.10100000352E+00 0.  1.
    10030    2    1    2    0    0  0.00000000000E+00  0.00000000000E+00  0.17119309769E+03  0.26222253928E+04  0.26166312186E+04 0.  0.
        1    1    3    3  502    0 -0.11942027125E+04 -0.37630570723E+02 -0.44860365210E+03  0.12762372096E+04  0.50400001928E-02 0.  1.
       -1    1    3    3    0  502  0.11942027125E+04  0.37630570723E+02  0.61979674979E+03  0.13459881832E+04  0.50400001928E-02 0. -1.
</event>
<event>
 5   0  0.2516518E-05  0.2683914E+04  0.7818609E-02  0.8340243E-01
        2   -1    0    0  501    0  0.00000000000E+00  0.00000000000E+00  0.13233511284E+04  0.13233511284E+04  0.25500000920E-02 0.  1.
       -2   -1    0    0    0  501  0.00000000000E+00  0.00000000000E+00 -0.13608242282E+04  0.13608242282E+04  0.25500000920E-02 0. -1.
    10030    2    1    2    0    0  0.00000000000E+00  0.00000000000E+00 -0.37473099805E+02  0.26841753566E+04  0.26839137676E+04 0.  0.
        4    1    3    3  502    0  0.22616228771E+03  0.13215226142E+04  0.38498957705E+02  0.13412886277E+04  0.12699999809E+01 0. -1.
       -4    1    3    3    0  502 -0.22616228771E+03 -0.13215226142E+04 -0.75972057510E+02  0.13428867289E+04  0.12699999809E+01 0.  1.
</event>
<event>
 5   0  0.9971923E-06  0.2260659E+04  0.7818609E-02  0.8493596E-01
        1   -1    0    0  501    0  0.00000000000E+00  0.00000000000E+00  0.21900050777E+04  0.21900050777E+04  0.50400001928E-02 0.  1.
       -1   -1    0    0    0  501  0.00000000000E+00  0.00000000000E+00 -0.58339789806E+03  0.58339789808E+03  0.50400001928E-02 0. -1.
    10030    2    1    2    0    0  0.00000000000E+00  0.00000000000E+00  0.16066071796E+04  0.27734029758E+04  0.22606586289E+04 0.  0.
        2    1    3    3  502    0 -0.13822466592E+03 -0.70955858435E+03  0.18693353317E+04  0.20042440034E+04  0.25500000920E-02 0.  1.
       -2    1    3    3    0  502  0.13822466592E+03  0.70955858435E+03 -0.26272815205E+03  0.76915897237E+03  0.25500000920E-02 0. -1.
</event>
<event>
 5   0  0.2641216E-05  0.2693670E+04  0.7818609E-02  0.8337062E-01
        2   -1    0    0  501    0  0.00000000000E+00  0.00000000000E+00  0.10890741052E+04  0.10890741052E+04  0.25500000920E-02 0.  1.
       -2   -1    0    0    0  501  0.00000000000E+00  0.00000000000E+00 -0.16656019595E+04  0.16656019595E+04  0.25500000920E-02 0. -1.
    10030    2    1    2    0    0  0.00000000000E+00  0.00000000000E+00 -0.57652785425E+03  0.27546760647E+04  0.26936695890E+04 0.  0.
        5    1    3    3  502    0 -0.74472694349E+03 -0.53540541554E+03 -0.12968379737E+04  0.15884231172E+04  0.46999998093E+01 0. -1.
       -5    1    3    3    0  502  0.74472694349E+03  0.53540541554E+03  0.72031011941E+03  0.11662529475E+04  0.46999998093E+01 0.  1.
</event>
<event>
 5   0  0.2641216E-05  0.2742078E+04  0.7818609E-02  0.8321480E-01
       -2   -1    0    0    0  501  0.00000000000E+00  0.00000000000E+00  0.18815314485E+04  0.18815314485E+04  0.25500000920E-02 0.  1.
        2   -1    0    0  501    0  0.00000000000E+00  0.00000000000E+00 -0.99905219326E+03  0.99905219326E+03  0.25500000920E-02 0. -1.
    10030    2    1    2    0    0  0.00000000000E+00  0.00000000000E+00  0.88247925519E+03  0.28805836417E+04  0.27420781318E+04 0.  0.
        5    1    3    3  502    0  0.89016027135E+03  0.10119663301E+04  0.17700972222E+03  0.13593438467E+04  0.46999998093E+01 0. -1.
       -5    1    3    3    0  502 -0.89016027135E+03 -0.10119663301E+04  0.70546953297E+03  0.15212397950E+04  0.46999998093E+01 0.  1.
</event>
<event>
 5   0  0.2615843E-05  0.2720722E+04  0.7818609E-02  0.8328312E-01
        2   -1    0    0  501    0  0.00000000000E+00  0.00000000000E+00  0.21243624286E+04  0.21243624286E+04  0.25500000920E-02 0. -1.
       -2   -1    0    0    0  501  0.00000000000E+00  0.00000000000E+00 -0.87112377542E+03  0.87112377542E+03  0.25500000920E-02 0.  1.
    10030    2    1    2    0    0  0.00000000000E+00  0.00000000000E+00  0.12532386532E+04  0.29954862040E+04  0.27207224182E+04 0.  0.
        3    1    3    3  502    0 -0.93841755002E+03  0.98363001640E+03  0.57237840356E+03  0.14750500176E+04  0.10100000352E+00 0. -1.
       -3    1    3    3    0  502  0.93841755002E+03 -0.98363001640E+03  0.68086024964E+03  0.15204361865E+04  0.10100000352E+00 0.  1.
</event>
<event>
 5   0  0.2641216E-05  0.2795164E+04  0.7818609E-02  0.8304771E-01
       -2   -1    0    0    0  501  0.00000000000E+00  0.00000000000E+00  0.83078382751E+03  0.83078382752E+03  0.25500000920E-02 0. -1.
        2   -1    0    0  501    0  0.00000000000E+00  0.00000000000E+00 -0.23510754975E+04  0.23510754975E+04  0.25500000920E-02 0.  1.
    10030    2    1    2    0    0  0.00000000000E+00  0.00000000000E+00 -0.15202916700E+04  0.31818593250E+04  0.27951640385E+04 0.  0.
        5    1    3    3  502    0 -0.16736052369E+03  0.58497003606E+03  0.67209496728E+03  0.90660532925E+03  0.46999998093E+01 0. -1.
       -5    1    3    3    0  502  0.16736052369E+03 -0.58497003606E+03 -0.21923866372E+04  0.22752539957E+04  0.46999998093E+01 0.  1.
</event>
<event>
 5   0  0.2540684E-05  0.2800212E+04  0.7818609E-02  0.8303203E-01
       -2   -1    0    0    0  501  0.00000000000E+00  0.00000000000E+00  0.18201656468E+04  0.18201656468E+04  0.25500000920E-02 0.  1.
        2   -1    0    0  501    0  0.00000000000E+00  0.00000000000E+00 -0.10769882226E+04  0.10769882226E+04  0.25500000920E-02 0. -1.
    10030    2    1    2    0    0  0.00000000000E+00  0.00000000000E+00  0.74317742412E+03  0.28971538694E+04  0.28002121097E+04 0.  0.
        2    1    3    3  502    0  0.56184433363E+03 -0.28882012440E+03  0.16643293813E+04  0.17801905541E+04  0.25500000920E-02 0.  1.
       -2    1    3    3    0  502 -0.56184433363E+03  0.28882012440E+03 -0.92115195717E+03  0.11169633153E+04  0.25500000920E-02 0. -1.
</event>
<event>
 5   0  0.2641216E-05  0.2651388E+04  0.7818609E-02  0.8350952E-01
       -2   -1    0    0    0  501  0.00000000000E+00  0.00000000000E+00  0.69693009507E+03  0.69693009508E+03  0.25500000920E-02 0.  1.
        2   -1    0    0  501    0  0.00000000000E+00  0.00000000000E+00 -0.25217234839E+04  0.25217234839E+04  0.25500000920E-02 0. -1.
    10030    2    1    2    0    0  0.00000000000E+00  0.00000000000E+00 -0.18247933888E+04  0.32186535789E+04  0.26513883061E+04 0.  0.
        5    1    3    3  502    0 -0.54636788682E+03  0.12072009797E+04 -0.96081526984E+03  0.16367773660E+04  0.46999998093E+01 0. -1.
       -5    1    3    3    0  502  0.54636788682E+03 -0.12072009797E+04 -0.86397811896E+03  0.15818762130E+04  0.46999998093E+01 0.  1.
</event>
<event>
 5   0  0.2540684E-05  0.2690503E+04  0.7818609E-02  0.8338093E-01
        2   -1    0    0  501    0  0.00000000000E+00  0.00000000000E+00  0.11780935752E+04  0.11780935752E+04  0.25500000920E-02 0.  1.
       -2   -1    0    0    0  501  0.00000000000E+00  0.00000000000E+00 -0.15361273404E+04  0.15361273404E+04  0.25500000920E-02 0. -1.
    10030    2    1    2    0    0  0.00000000000E+00  0.00000000000E+00 -0.35803376526E+03  0.27142209156E+04  0.26905031131E+04 0.  0.
        2    1    3    3  502    0  0.77910159211E+03 -0.76135613855E+03 -0.97530348980E+03  0.14621488836E+04  0.25500000920E-02 0. -1.
       -2    1    3    3    0  502 -0.77910159211E+03  0.76135613855E+03  0.61726972454E+03  0.12520720320E+04  0.25500000920E-02 0.  1.
</event>
<event>
 5   0  0.2516518E-05  0.2636971E+04  0.7818609E-02  0.8355751E-01
        2   -1    0    0  501    0  0.00000000000E+00  0.00000000000E+00  0.15804301833E+04  0.15804301833E+04  0.25500000920E-02 0. -1.
       -2   -1    0    0    0  501  0.00000000000E+00  0.00000000000E+00 -0.10999558519E+04  0.10999558519E+04  0.25500000920E-02 0.  1.
    10030    2    1    2    0    0  0.00000000000E+00  0.00000000000E+00  0.48047433138E+03  0.26803860353E+04  0.26369705563E+04 0.  0.
        4    1    3    3  502    0  0.13845115319E+03 -0.74404149244E+03 -0.85718422509E+03  0.11434740368E+04  0.12699999809E+01 0.  1.
       -4    1    3    3    0  502 -0.13845115319E+03  0.74404149244E+03  0.13376585565E+04  0.15369119984E+04  0.12699999809E+01 0. -1.
</event>
<event>
 5   0  0.2540232E-05  0.2740596E+04  0.7818609E-02  0.8321952E-01
        2   -1    0    0  501    0  0.00000000000E+00  0.00000000000E+00  0.15368262687E+04  0.15368262687E+04  0.25500000920E-02 0.  1.
       -2   -1    0    0    0  501  0.00000000000E+00  0.00000000000E+00 -0.12218148265E+04  0.12218148265E+04  0.25500000920E-02 0. -1.
    10030    2    1    2    0    0  0.00000000000E+00  0.00000000000E+00  0.31501144229E+03  0.27586410952E+04  0.27405963737E+04 0.  0.
        1    1    3    3  502    0 -0.44983034632E+03 -0.12558498280E+04 -0.15794401406E+03  0.13432990890E+04  0.50400001928E-02 0. -1.
       -1    1    3    3    0  502  0.44983034632E+03  0.12558498280E+04  0.47295545635E+03  0.14153420062E+04  0.50400001928E-02 0.  1.
</event>
<event>
 5   0  0.1096672E-05  0.2673292E+04  0.7818609E-02  0.8343723E-01
        1   -1    0    0  501    0  0.00000000000E+00  0.00000000000E+00  0.28563601013E+04  0.28563601013E+04  0.50400001928E-02 0. -1.
       -1   -1    0    0    0  501  0.00000000000E+00  0.00000000000E+00 -0.62548937328E+03  0.62548937330E+03  0.50400001928E-02 0.  1.
    10030    2    1    2    0    0  0.00000000000E+00  0.00000000000E+00  0.22308707280E+04  0.34818494746E+04  0.26732922696E+04 0.  0.
        1    1    3    3  502    0  0.11777379641E+04  0.31909420456E+03  0.40474808302E+03  0.12855772378E+04  0.50400001928E-02 0. -1.
       -1    1    3    3    0  502 -0.11777379641E+04 -0.31909420456E+03  0.18261226450E+04  0.21962722368E+04  0.50400001928E-02 0.  1.
</event>
<event>
 5   0  0.1041909E-05  0.2641258E+04  0.7818609E-02  0.8354320E-01
       -1   -1    0    0    0  501  0.00000000000E+00  0.00000000000E+00  0.11721666740E+04  0.11721666740E+04  0.50400001928E-02 0.  1.
        1   -1    0    0  501    0  0.00000000000E+00  0.00000000000E+00 -0.14878948621E+04  0.14878948621E+04  0.50400001928E-02 0. -1.
    10030    2    1    2    0    0  0.00000000000E+00  0.00000000000E+00 -0.31572818814E+03  0.26600615362E+04  0.26412578608E+04 0.  0.
        5    1    3    3  502    0 -0.92392457989E+03  0.92970899946E+03  0.46639445820E+01  0.13107399801E+04  0.46999998093E+01 0. -1.
       -5    1    3    3    0  502  0.92392457989E+03 -0.92970899946E+03 -0.32039213272E+03  0.13493215561E+04  0.46999998093E+01 0.  1.
</event>
<event>
 5   0  0.9971923E-06  0.2689459E+04  0.7818609E-02  0.8338433E-01
        1   -1    0    0  501    0  0.00000000000E+00  0.00000000000E+00  0.21350232192E+04  0.21350232192E+04  0.50400001928E-02 0.  1.
       -1   -1    0    0    0  501  0.00000000000E+00  0.00000000000E+00 -0.84696830885E+03  0.84696830887E+03  0.50400001928E-02 0. -1.
    10030    2    1    2    0    0  0.00000000000E+00  0.00000000000E+00  0.12880549103E+04  0.29819915280E+04  0.26894586856E+04 0.  0.
        2    1    3    3  502    0  0.97443389199E+03  0.20103682554E+01 -0.38346904967E+03  0.10471742756E+04  0.25500000920E-02 0. -1.
       -2    1    3    3    0  502 -0.97443389199E+03 -0.20103682554E+01  0.16715239600E+04  0.19348172524E+04  0.25500000920E-02 0.  1.
</event>
<event>
 5   0  0.1041909E-05  0.2713488E+04  0.7818609E-02  0.8330642E-01
        1   -1    0    0  501    0  0.00000000000E+00  0.00000000000E+00  0.22604611330E+04  0.22604611330E+04  0.50400001928E-02 0. -1.
       -1   -1    0    0    0  501  0.00000000000E+00  0.00000000000E+00 -0.81432692795E+03  0.81432692797E+03  0.50400001928E-02 0.  1.
    10030    2    1    2    0    0  0.00000000000E+00  0.00000000000E+00  0.14461342050E+04  0.30747880609E+04  0.27134880653E+04 0.  0.
        5    1    3    3  502    0 -0.70107408835E+03 -0.90551135244E+03  0.15474493187E+04  0.19251174433E+04  0.46999998093E+01 0. -1.
       -5    1    3    3    0  502  0.70107408835E+03  0.90551135244E+03 -0.10131511366E+03  0.11496706176E+04  0.46999998093E+01 0.  1.
</event>
<event>
 5   0  0.2540232E-05  0.2728363E+04  0.7818609E-02  0.8325860E-01
       -2   -1    0    0    0  501  0.00000000000E+00  0.00000000000E+00  0.11684057701E+04  0.11684057701E+04  0.25500000920E-02 0. -1.
        2   -1    0    0  501    0  0.00000000000E+00  0.00000000000E+00 -0.15927614686E+04  0.15927614686E+04  0.25500000920E-02 0.  1.
    10030    2    1    2    0    0  0.00000000000E+00  0.00000000000E+00 -0.42435569854E+03  0.27611672387E+04  0.27283633851E+04 0.  0.
        1    1    3    3  502    0 -0.81260116599E+02 -0.11421922731E+04  0.53821218746E+03  0.12652583744E+04  0.50400001928E-02 0. -1.
       -1    1    3    3    0  502  0.81260116599E+02  0.11421922731E+04 -0.96256788601E+03  0.14959088643E+04  0.50400001928E-02 0.  1.
</event>
<event>
 5   0  0.2516518E-05  0.2759317E+04  0.7818609E-02  0.8316011E-01
        2   -1    0    0  501    0  0.00000000000E+00  0.00000000000E+00  0.16190684393E+04  0.16190684393E+04  0.25500000920E-02 0.  1.
       -2   -1    0    0    0  501  0.00000000000E+00  0.00000000000E+00 -0.11756495277E+04  0.11756495277E+04  0.25500000920E-02 0. -1.
    10030    2    1    2    0    0  0.00000000000E+00  0.00000000000E+00  0.44341891167E+03  0.27947179670E+04  0.27593166154E+04 0.  0.
        4    1    3    3  502    0 -0.73017777296E+03 -0.52640185768E+02 -0.96270600139E+03  0.12094358302E+04  0.12699999809E+01 0. -1.
       -4    1    3    3    0  502  0.73017777296E+03  0.52640185768E+02  0.14061249131E+04  0.15852821368E+04  0.12699999809E+01 0.  1.
</event>
<event>
 5   0  0.1036691E-05  0.2682186E+04  0.7818609E-02  0.8340808E-01
        1   -1    0    0  501    0  0.00000000000E+00  0.00000000000E+00  0.11081105883E+04  0.11081105883E+04  0.50400001928E-02 0. -1.
       -1   -1    0    0    0  501  0.00000000000E+00  0.00000000000E+00 -0.16230599883E+04  0.16230599883E+04  0.50400001928E-02 0.  1.
    10030    2    1    2    0    0  0.00000000000E+00  0.00000000000E+00 -0.51494940005E+03  0.27311705766E+04  0.26821856449E+04 0.  0.
        4    1    3    3  502    0  0.10353207175E+04  0.10039654563E+03 -0.11194329661E+04  0.15281034758E+04  0.12699999809E+01 0.  1.
       -4    1    3    3    0  502 -0.10353207175E+04 -0.10039654563E+03  0.60448356604E+03  0.12030671007E+04  0.12699999809E+01 0. -1.
</event>
<event>
 5   0  0.9971923E-06  0.2761551E+04  0.7818609E-02  0.8315305E-01
        1   -1    0    0  501    0  0.00000000000E+00  0.00000000000E+00  0.96128955369E+03  0.96128955371E+03  0.50400001928E-02 0. -1.
       -1   -1    0    0    0  501  0.00000000000E+00  0.00000000000E+00 -0.19833166502E+04  0.19833166503E+04  0.50400001928E-02 0.  1.
    10030    2    1    2    0    0  0.00000000000E+00  0.00000000000E+00 -0.10220270966E+04  0.29446062040E+04  0.27615514318E+04 0.  0.
        2    1    3    3  502    0  0.13693341316E+03  0.11250082192E+04 -0.13520613998E+04  0.17642177534E+04  0.25500000920E-02 0.  1.
       -2    1    3    3    0  502 -0.13693341316E+03 -0.11250082192E+04  0.33003430320E+03  0.11803884505E+04  0.25500000920E-02 0. -1.
</event>
<event>
 5   0  0.9971923E-06  0.2462729E+04  0.7818609E-02  0.8416385E-01
       -1   -1    0    0    0  501  0.00000000000E+00  0.00000000000E+00  0.90861125871E+03  0.90861125873E+03  0.50400001928E-02 0. -1.
        1   -1    0    0  501    0  0.00000000000E+00  0.00000000000E+00 -0.16687653993E+04  0.16687653993E+04  0.50400001928E-02 0.  1.
    10030    2    1    2    0    0  0.00000000000E+00  0.00000000000E+00 -0.76015414061E+03  0.25773766581E+04  0.24627294045E+04 0.  0.
        2    1    3    3  502    0 -0.67150788382E+03  0.82510509940E+03  0.26890200632E+03  0.10972828041E+04  0.25500000920E-02 0. -1.
       -2    1    3    3    0  502  0.67150788382E+03 -0.82510509940E+03 -0.10290561469E+04  0.14800938540E+04  0.25500000920E-02 0.  1.
</event>
<event>
 5   0  0.2540684E-05  0.2531353E+04  0.7818609E-02  0.8391900E-01
       -2   -1    0    0    0  501  0.00000000000E+00  0.00000000000E+00  0.97460199660E+03  0.97460199660E+03  0.25500000920E-02 0.  1.
        2   -1    0    0  501    0  0.00000000000E+00  0.00000000000E+00 -0.16436828544E+04  0.16436828544E+04  0.25500000920E-02 0. -1.
    10030    2    1    2    0    0  0.00000000000E+00  0.00000000000E+00 -0.66908085777E+03  0.26182848510E+04  0.25313526753E+04 0.  0.
        2    1    3    3  502    0 -0.63908908748E+03  0.56194116423E+03  0.63450288211E+03  0.10615114890E+04  0.25500000920E-02 0.  1.
       -2    1    3    3    0  502  0.63908908748E+03 -0.56194116423E+03 -0.13035837399E+04  0.15567733620E+04  0.25500000920E-02 0. -1.
</event>
<event>
 5   0  0.1096672E-05  0.2669190E+04  0.7818609E-02  0.8345071E-01
        1   -1    0    0  501    0  0.00000000000E+00  0.00000000000E+00  0.10017496977E+04  0.10017496977E+04  0.50400001928E-02 0.  1.
       -1   -1    0    0    0  501  0.00000000000E+00  0.00000000000E+00 -0.17780332477E+04  0.17780332477E+04  0.50400001928E-02 0. -1.
    10030    2    1    2    0    0  0.00000000000E+00  0.00000000000E+00 -0.77628354998E+03  0.27797829454E+04  0.26691903405E+04 0.  0.
        1    1    3    3  502    0 -0.12872724675E+04  0.35129835609E+03 -0.36131950990E+03  0.13824010738E+04  0.50400001928E-02 0.  1.
       -1    1    3    3    0  502  0.12872724675E+04 -0.35129835609E+03 -0.41496404008E+03  0.13973818716E+04  0.50400001928E-02 0. -1.
</event>
<event>
 5   0  0.9971923E-06  0.2595295E+04  0.7818609E-02  0.8369801E-01
       -1   -1    0    0    0  501  0.00000000000E+00  0.00000000000E+00  0.13425412702E+04  0.13425412703E+04  0.50400001928E-02 0.  1.
        1   -1    0    0  501    0  0.00000000000E+00  0.00000000000E+00 -0.12542545254E+04  0.12542545254E+04  0.50400001928E-02 0. -1.
    10030    2    1    2    0    0  0.00000000000E+00  0.00000000000E+00  0.88286744815E+02  0.25967957957E+04  0.25952945604E+04 0.  0.
        2    1    3    3  502    0 -0.10994377211E+04  0.66005209920E+03  0.24289459253E+03  0.13051551093E+04  0.25500000920E-02 0. -1.
       -2    1    3    3    0  502  0.10994377211E+04 -0.66005209920E+03 -0.15460784772E+03  0.12916406864E+04  0.25500000920E-02 0.  1.
</event>
<event>
 5   0  0.1005265E-05  0.2493771E+04  0.7818609E-02  0.8405208E-01
       -1   -1    0    0    0  501  0.00000000000E+00  0.00000000000E+00  0.12652805228E+04  0.12652805228E+04  0.50400001928E-02 0. -1.
        1   -1    0    0  501    0  0.00000000000E+00  0.00000000000E+00 -0.12287574482E+04  0.12287574482E+04  0.50400001928E-02 0.  1.
    10030    2    1    2    0    0  0.00000000000E+00  0.00000000000E+00  0.36523074643E+02  0.24940379710E+04  0.24937705319E+04 0.  0.
        3    1    3    3  502    0 -0.96704152249E+03  0.56085213212E+03  0.57058739882E+03  0.12551073302E+04  0.10100000352E+00 0. -1.
       -3    1    3    3    0  502  0.96704152249E+03 -0.56085213212E+03 -0.53406432418E+03  0.12389306409E+04  0.10100000352E+00 0.  1.
</event>
<event>
 5   0  0.1036691E-05  0.2680099E+04  0.7818609E-02  0.8341491E-01
        1   -1    0    0  501    0  0.00000000000E+00  0.00000000000E+00  0.21336309442E+04  0.21336309442E+04  0.50400001928E-02 0.  1.
       -1   -1    0    0    0  501  0.00000000000E+00  0.00000000000E+00 -0.84163244438E+03  0.84163244440E+03  0.50400001928E-02 0. -1.
    10030    2    1    2    0    0  0.00000000000E+00  0.00000000000E+00  0.12919984999E+04  0.29752633886E+04  0.26800992721E+04 0.  0.
        4    1    3    3  502    0 -0.65153630944E+02  0.57030029366E+03  0.19902418686E+04  0.20713647021E+04  0.12699999809E+01 0.  1.
       -4    1    3    3    0  502  0.65153630944E+02 -0.57030029366E+03 -0.69824336878E+03  0.90389868653E+03  0.12699999809E+01 0. -1.
</event>
<event>
 5   0  0.2516518E-05  0.1846045E+04  0.7818609E-02  0.8682189E-01
       -2   -1    0    0    0  501  0.00000000000E+00  0.00000000000E+00  0.91338995634E+03  0.91338995635E+03  0.25500000920E-02 0. -1.
        2   -1    0    0  501    0  0.00000000000E+00  0.00000000000E+00 -0.93275646098E+03  0.93275646098E+03  0.25500000920E-02 0.  1.
    10030    2    1    2    0    0  0.00000000000E+00  0.00000000000E+00 -0.19366504631E+02  0.18461464173E+04  0.18460448350E+04 0.  0.
        4    1    3    3  502    0 -0.11402405027E+03 -0.85559519668E+02 -0.92168017307E+03  0.93264026815E+03  0.12699999809E+01 0.  1.
       -4    1    3    3    0  502  0.11402405027E+03  0.85559519668E+02  0.90231366843E+03  0.91350614918E+03  0.12699999809E+01 0. -1.
</event>
<event>
 5   0  0.2540684E-05  0.2602721E+04  0.7818609E-02  0.8367277E-01
        2   -1    0    0  501    0  0.00000000000E+00  0.00000000000E+00  0.18685950630E+04  0.18685950630E+04  0.25500000920E-02 0. -1.
       -2   -1    0    0    0  501  0.00000000000E+00  0.00000000000E+00 -0.90631697484E+03  0.90631697484E+03  0.25500000920E-02 0.  1.
    10030    2    1    2    0    0  0.00000000000E+00  0.00000000000E+00  0.96227808819E+03  0.27749120379E+04  0.26027212104E+04 0.  0.
        2    1    3    3  502    0  0.78236700611E+03  0.50862954501E+02 -0.62625697638E+03  0.10034355848E+04  0.25500000920E-02 0.  1.
       -2    1    3    3    0  502 -0.78236700611E+03 -0.50862954501E+02  0.15885350646E+04  0.17714764531E+04  0.25500000920E-02 0. -1.
</event>
<event>
 5   0  0.2641216E-05  0.2683658E+04  0.7818609E-02  0.8340327E-01
       -2   -1    0    0    0  501  0.00000000000E+00  0.00000000000E+00  0.12996940713E+04  0.12996940713E+04  0.25500000920E-02 0. -1.
        2   -1    0    0  501    0  0.00000000000E+00  0.00000000000E+00 -0.13853298158E+04  0.13853298158E+04  0.25500000920E-02 0.  1.
    10030    2    1    2    0    0  0.00000000000E+00  0.00000000000E+00 -0.85635744480E+02  0.26850238872E+04  0.26836579130E+04 0.  0.
        5    1    3    3  502    0  0.77325445491E+02  0.58700783190E+03 -0.12475592680E+04  0.13809357829E+04  0.46999998093E+01 0.  1.
       -5    1    3    3    0  502 -0.77325445491E+02 -0.58700783190E+03  0.11619235235E+04  0.13040881043E+04  0.46999998093E+01 0. -1.
</event>
<event>
 5   0  0.2615843E-05  0.2584906E+04  0.7818609E-02  0.8373346E-01
        2   -1    0    0  501    0  0.00000000000E+00  0.00000000000E+00  0.10147659727E+04  0.10147659727E+04  0.25500000920E-02 0. -1.
       -2   -1    0    0    0  501  0.00000000000E+00  0.00000000000E+00 -0.16461281735E+04  0.16461281735E+04  0.25500000920E-02 0.  1.
    10030    2    1    2    0    0  0.00000000000E+00  0.00000000000E+00 -0.63136220081E+03  0.26608941462E+04  0.25849060773E+04 0.  0.
        3    1    3    3  502    0  0.11518579256E+03  0.12749457860E+04 -0.13245909567E+03  0.12869731723E+04  0.10100000352E+00 0. -1.
       -3    1    3    3    0  502 -0.11518579256E+03 -0.12749457860E+04 -0.49890310514E+03  0.13739209739E+04  0.10100000352E+00 0.  1.
</event>
<event>
 5   0  0.2540232E-05  0.2670684E+04  0.7818609E-02  0.8344580E-01
        2   -1    0    0  501    0  0.00000000000E+00  0.00000000000E+00  0.29476401446E+04  0.29476401446E+04  0.25500000920E-02 0.  1.
       -2   -1    0    0    0  501  0.00000000000E+00  0.00000000000E+00 -0.60493749219E+03  0.60493749219E+03  0.25500000920E-02 0. -1.
    10030    2    1    2    0    0  0.00000000000E+00  0.00000000000E+00  0.23427026524E+04  0.35525776368E+04  0.26706838353E+04 0.  0.
        1    1    3    3  502    0  0.12996424428E+03 -0.50279299621E+03 -0.46510583732E+03  0.69714771875E+03  0.50400001928E-02 0. -1.
       -1    1    3    3    0  502 -0.12996424428E+03  0.50279299621E+03  0.28078084898E+04  0.28554299181E+04  0.50400001928E-02 0.  1.
</event>
<event>
 5   0  0.1005265E-05  0.2609633E+04  0.7818609E-02  0.8364936E-01
        1   -1    0    0  501    0  0.00000000000E+00  0.00000000000E+00  0.12841586313E+04  0.12841586313E+04  0.50400001928E-02 0. -1.
       -1   -1    0    0    0  501  0.00000000000E+00  0.00000000000E+00 -0.13258069654E+04  0.13258069654E+04  0.50400001928E-02 0.  1.
    10030    2    1    2    0    0  0.00000000000E+00  0.00000000000E+00 -0.41648334126E+02  0.26099655967E+04  0.26096332754E+04 0.  0.
        3    1    3    3  502    0  0.14752994577E+03  0.86305176641E+03  0.94673016995E+03  0.12895431211E+04  0.10100000352E+00 0. -1.
       -3    1    3    3    0  502 -0.14752994577E+03 -0.86305176641E+03 -0.98837850407E+03  0.13204224755E+04  0.10100000352E+00 0.  1.
</event>
<event>
 5   0  0.1005265E-05  0.2678026E+04  0.7818609E-02  0.8342170E-01
        1   -1    0    0  501    0  0.00000000000E+00  0.00000000000E+00  0.11304919949E+04  0.11304919949E+04  0.50400001928E-02 0. -1.
       -1   -1    0    0    0  501  0.00000000000E+00  0.00000000000E+00 -0.15859960443E+04  0.15859960443E+04  0.50400001928E-02 0.  1.
    10030    2    1    2    0    0  0.00000000000E+00  0.00000000000E+00 -0.45550404937E+03  0.27164880392E+04  0.26780260134E+04 0.  0.
        3    1    3    3  502    0 -0.94437423634E+03 -0.57648849029E+03  0.53725060616E+03  0.12299674393E+04  0.10100000352E+00 0.  1.
       -3    1    3    3    0  502  0.94437423634E+03  0.57648849029E+03 -0.99275465554E+03  0.14865205999E+04  0.10100000352E+00 0. -1.
</event>
<event>
 5   0  0.2615843E-05  0.2698060E+04  0.7818609E-02  0.8335635E-01
        2   -1    0    0  501    0  0.00000000000E+00  0.00000000000E+00  0.11582055121E+04  0.11582055121E+04  0.25500000920E-02 0.  1.
       -2   -1    0    0    0  501  0.00000000000E+00  0.00000000000E+00 -0.15712941407E+04  0.15712941407E+04  0.25500000920E-02 0. -1.
    10030    2    1    2    0    0  0.00000000000E+00  0.00000000000E+00 -0.41308862860E+03  0.27294996529E+04  0.26980596991E+04 0.  0.
        3    1    3    3  502    0  0.43472453108E+03 -0.26159491398E+02 -0.14982200550E+04  0.15602349439E+04  0.10100000352E+00 0. -1.
       -3    1    3    3    0  502 -0.43472453108E+03  0.26159491398E+02  0.10851314264E+04  0.11692647090E+04  0.10100000352E+00 0.  1.
</event>
<event>
 5   0  0.1036691E-05  0.2408547E+04  0.7818609E-02  0.8436311E-01
        1   -1    0    0  501    0  0.00000000000E+00  0.00000000000E+00  0.17392416548E+04  0.17392416548E+04  0.50400001928E-02 0.  1.
       -1   -1    0    0    0  501  0.00000000000E+00  0.00000000000E+00 -0.83385464555E+03  0.83385464556E+03  0.50400001928E-02 0. -1.
    10030    2    1    2    0    0  0.00000000000E+00  0.00000000000E+00  0.90538700924E+03  0.25730963004E+04  0.24085470588E+04 0.  0.
        4    1    3    3  502    0  0.11313830418E+04 -0.32015587959E+03  0.17463132693E+03  0.11887073179E+04  0.12699999809E+01 0. -1.
       -4    1    3    3    0  502 -0.11313830418E+04  0.32015587959E+03  0.73075568231E+03  0.13843889824E+04  0.12699999809E+01 0.  1.
</event>
<event>
 5   0  0.2540232E-05  0.2680906E+04  0.7818609E-02  0.8341227E-01
       -2   -1    0    0    0  501  0.00000000000E+00  0.00000000000E+00  0.12122873951E+04  0.12122873951E+04  0.25500000920E-02 0. -1.
        2   -1    0    0  501    0  0.00000000000E+00  0.00000000000E+00 -0.14821689809E+04  0.14821689809E+04  0.25500000920E-02 0.  1.
    10030    2    1    2    0    0  0.00000000000E+00  0.00000000000E+00 -0.26988158574E+03  0.26944563760E+04  0.26809063937E+04 0.  0.
        1    1    3    3  502    0  0.56523016812E+03  0.12153748830E+04 -0.12095920043E+03  0.13458277666E+04  0.50400001928E-02 0.  1.
       -1    1    3    3    0  502 -0.56523016812E+03 -0.12153748830E+04 -0.14892238532E+03  0.13486286094E+04  0.50400001928E-02 0. -1.
</event>
<event>
 5   0  0.2615843E-05  0.2620269E+04  0.7818609E-02  0.8361349E-01
        2   -1    0    0  501    0  0.00000000000E+00  0.00000000000E+00  0.18636317817E+04  0.18636317817E+04  0.25500000920E-02 0. -1.
       -2   -1    0    0    0  501  0.00000000000E+00  0.00000000000E+00 -0.92102551509E+03  0.92102551509E+03  0.25500000920E-02 0.  1.
    10030    2    1    2    0    0  0.00000000000E+00  0.00000000000E+00  0.94260626659E+03  0.27846572968E+04  0.26202690104E+04 0.  0.
        3    1    3    3  502    0  0.93403508308E+03  0.75566666361E+03 -0.83969434330E+02  0.12043689298E+04  0.10100000352E+00 0.  1.
       -3    1    3    3    0  502 -0.93403508308E+03 -0.75566666361E+03  0.10265757009E+04  0.15802883670E+04  0.10100000352E+00 0. -1.
</event>
<event>
 5   0  0.1096672E-05  0.2599219E+04  0.7818609E-02  0.8368467E-01
       -1   -1    0    0    0  501  0.00000000000E+00  0.00000000000E+00  0.14060510554E+04  0.14060510554E+04  0.50400001928E-02 0. -1.
        1   -1    0    0  501    0  0.00000000000E+00  0.00000000000E+00 -0.12012255083E+04  0.12012255083E+04  0.50400001928E-02 0.  1.
    10030    2    1    2    0    0  0.00000000000E+00  0.00000000000E+00  0.20482554714E+03  0.26072765637E+04  0.25992186470E+04 0.  0.
        1    1    3    3  502    0 -0.20968448858E+02  0.57153282147E+03  0.12730331837E+04  0.13956012785E+04  0.50400001928E-02 0. -1.
       -1    1    3    3    0  502  0.20968448858E+02 -0.57153282147E+03 -0.10682076366E+04  0.12116752852E+04  0.50400001928E-02 0.  1.
</event>
<event>
 5   0  0.2615843E-05  0.2672997E+04  0.7818609E-02  0.8343820E-01
        2   -1    0    0  501    0  0.00000000000E+00  0.00000000000E+00  0.20923787573E+04  0.20923787573E+04  0.25500000920E-02 0. -1.
       -2   -1    0    0    0  501  0.00000000000E+00  0.00000000000E+00 -0.85368277261E+03  0.85368277261E+03  0.25500000920E-02 0.  1.
    10030    2    1    2    0    0  0.00000000000E+00  0.00000000000E+00  0.12386959847E+04  0.29460615300E+04  0.26729965948E+04 0.  0.
        3    1    3    3  502    0  0.36106297782E+03 -0.93087275938E+03  0.15985553569E+04  0.18847466163E+04  0.10100000352E+00 0. -1.
       -3    1    3    3    0  502 -0.36106297782E+03  0.93087275938E+03 -0.35985937219E+03  0.10613149137E+04  0.10100000352E+00 0.  1.
</event>
<event>
 5   0  0.2540232E-05  0.2713566E+04  0.7818609E-02  0.8330617E-01
       -2   -1    0    0    0  501  0.00000000000E+00  0.00000000000E+00  0.71993623737E+03  0.71993623737E+03  0.25500000920E-02 0.  1.
        2   -1    0    0  501    0  0.00000000000E+00  0.00000000000E+00 -0.25569772177E+04  0.25569772177E+04  0.25500000920E-02 0. -1.
    10030    2    1    2    0    0  0.00000000000E+00  0.00000000000E+00 -0.18370409803E+04  0.32769134550E+04  0.27135663302E+04 0.  0.
        1    1    3    3  502    0 -0.73763512358E+03  0.10065450998E+04 -0.27539689403E+03  0.12779209924E+04  0.50400001928E-02 0.  1.
       -1    1    3    3    0  502  0.73763512358E+03 -0.10065450998E+04 -0.15616440863E+04  0.19989924626E+04  0.50400001928E-02 0. -1.
</event>
<event>
 5   0  0.9971923E-06  0.2700628E+04  0.7818609E-02  0.8334801E-01
        1   -1    0    0  501    0  0.00000000000E+00  0.00000000000E+00  0.21360687991E+04  0.21360687991E+04  0.50400001928E-02 0. -1.
       -1   -1    0    0    0  501  0.00000000000E+00  0.00000000000E+00 -0.85359981402E+03  0.85359981403E+03  0.50400001928E-02 0.  1.
    10030    2    1    2    0    0  0.00000000000E+00  0.00000000000E+00  0.12824689850E+04  0.29896686131E+04  0.27006280230E+04 0.  0.
        2    1    3    3  502    0  0.81502984512E+03 -0.33013896416E+03 -0.49317539223E+03  0.10082099740E+04  0.25500000920E-02 0.  1.
       -2    1    3    3    0  502 -0.81502984512E+03  0.33013896416E+03  0.17756443773E+04  0.19814586391E+04  0.25500000920E-02 0. -1.
</event>
<event>
 5   0  0.2516518E-05  0.2711613E+04  0.7818609E-02  0.8331247E-01
       -2   -1    0    0    0  501  0.00000000000E+00  0.00000000000E+00  0.10349226168E+04  0.10349226168E+04  0.25500000920E-02 0. -1.
        2   -1    0    0  501    0  0.00000000000E+00  0.00000000000E+00 -0.17761825367E+04  0.17761825367E+04  0.25500000920E-02 0.  1.
    10030    2    1    2    0    0  0.00000000000E+00  0.00000000000E+00 -0.74125991990E+03  0.28111051534E+04  0.27116131573E+04 0.  0.
        4    1    3    3  502    0  0.30186566749E+03  0.26695496992E+03 -0.17126633035E+04  0.17594331591E+04  0.12699999809E+01 0.  1.
       -4    1    3    3    0  502 -0.30186566749E+03 -0.26695496992E+03  0.97140338359E+03  0.10516719944E+04  0.12699999809E+01 0. -1.
</event>
<event>
 5   0  0.2540684E-05  0.2708868E+04  0.7818609E-02  0.8332133E-01
       -2   -1    0    0    0  501  0.00000000000E+00  0.00000000000E+00  0.93088191499E+03  0.93088191500E+03  0.25500000920E-02 0. -1.
        2   -1    0    0  501    0  0.00000000000E+00  0.00000000000E+00 -0.19707025831E+04  0.19707025831E+04  0.25500000920E-02 0.  1.
    10030    2    1    2    0    0  0.00000000000E+00  0.00000000000E+00 -0.10398206682E+04  0.29015844981E+04  0.27088679514E+04 0.  0.
        2    1    3    3  502    0 -0.59653049820E+03 -0.50060882603E+03  0.66709454868E+03  0.10254135599E+04  0.25500000920E-02 0. -1.
       -2    1    3    3    0  502  0.59653049820E+03  0.50060882603E+03 -0.17069152168E+04  0.18761709382E+04  0.25500000920E-02 0.  1.
</event>
<event>
 5   0  0.1005265E-05  0.2707282E+04  0.7818609E-02  0.8332646E-01
       -1   -1    0    0    0  501  0.00000000000E+00  0.00000000000E+00  0.75434395794E+03  0.75434395795E+03  0.50400001928E-02 0.  1.
        1   -1    0    0  501    0  0.00000000000E+00  0.00000000000E+00 -0.24290558288E+04  0.24290558288E+04  0.50400001928E-02 0. -1.
    10030    2    1    2    0    0  0.00000000000E+00  0.00000000000E+00 -0.16747118708E+04  0.31833997867E+04  0.27072817275E+04 0.  0.
        3    1    3    3  502    0  0.81415463891E+03  0.10154931237E+04 -0.12745970115E+04  0.18217221556E+04  0.10100000352E+00 0. -1.
       -3    1    3    3    0  502 -0.81415463891E+03 -0.10154931237E+04 -0.40011485936E+03  0.13616776311E+04  0.10100000352E+00 0.  1.
</event>
<event>
 5   0  0.1036691E-05  0.2637104E+04  0.7818609E-02  0.8355706E-01
        1   -1    0    0  501    0  0.00000000000E+00  0.00000000000E+00  0.10636071857E+04  0.10636071857E+04  0.50400001928E-02 0.  1.
       -1   -1    0    0    0  501  0.00000000000E+00  0.00000000000E+00 -0.16346064673E+04  0.16346064673E+04  0.50400001928E-02 0. -1.
    10030    2    1    2    0    0  0.00000000000E+00  0.00000000000E+00 -0.57099928160E+03  0.26982136530E+04  0.26371038542E+04 0.  0.
        4    1    3    3  502    0  0.10168698222E+04  0.55802249607E+03  0.35605862030E+03  0.12133394807E+04  0.12699999809E+01 0.  1.
       -4    1    3    3    0  502 -0.10168698222E+04 -0.55802249607E+03 -0.92705790191E+03  0.14848741724E+04  0.12699999809E+01 0. -1.
</event>
<event>
 5   0  0.1041909E-05  0.2582178E+04  0.7818609E-02  0.8374280E-01
        1   -1    0    0  501    0  0.00000000000E+00  0.00000000000E+00  0.13989400966E+04  0.13989400967E+04  0.50400001928E-02 0.  1.
       -1   -1    0    0    0  501  0.00000000000E+00  0.00000000000E+00 -0.11915529258E+04  0.11915529258E+04  0.50400001928E-02 0. -1.
    10030    2    1    2    0    0  0.00000000000E+00  0.00000000000E+00  0.20738717089E+03  0.25904930224E+04  0.25821782782E+04 0.  0.
        5    1    3    3  502    0 -0.44890316273E+03 -0.25948629671E+03  0.12898891486E+04  0.13902098019E+04  0.46999998093E+01 0.  1.
       -5    1    3    3    0  502  0.44890316273E+03  0.25948629671E+03 -0.10825019777E+04  0.12002832205E+04  0.46999998093E+01 0. -1.
</event>
<event>
 5   0  0.1036691E-05  0.2778949E+04  0.7818609E-02  0.8309834E-01
       -1   -1    0    0    0  501  0.00000000000E+00  0.00000000000E+00  0.17040491767E+04  0.17040491768E+04  0.50400001928E-02 0. -1.
        1   -1    0    0  501    0  0.00000000000E+00  0.00000000000E+00 -0.11329718766E+04  0.11329718766E+04  0.50400001928E-02 0.  1.
    10030    2    1    2    0    0  0.00000000000E+00  0.00000000000E+00  0.57107730018E+03  0.28370210533E+04  0.27789492932E+04 0.  0.
        4    1    3    3  502    0 -0.88875109325E+03 -0.13358717048E+01 -0.80484335846E+03  0.11990224080E+04  0.12699999809E+01 0.  1.
       -4    1    3    3    0  502  0.88875109325E+03  0.13358717048E+01  0.13759206586E+04  0.16379986453E+04  0.12699999809E+01 0. -1.
</event>
<event>
 5   0  0.1096672E-05  0.2683070E+04  0.7818609E-02  0.8340519E-01
       -1   -1    0    0    0  501  0.00000000000E+00  0.00000000000E+00  0.14084910684E+04  0.14084910684E+04  0.50400001928E-02 0.  1.
        1   -1    0    0  501    0  0.00000000000E+00  0.00000000000E+00 -0.12777613979E+04  0.12777613979E+04  0.50400001928E-02 0. -1.
    10030    2    1    2    0    0  0.00000000000E+00  0.00000000000E+00  0.13072967058E+03  0.26862524663E+04  0.26830695231E+04 0.  0.
        1    1    3    3  502    0 -0.44721636246E+02 -0.82071050910E+03  0.11268819132E+04  0.13947862240E+04  0.50400001928E-02 0.  1.
       -1    1    3    3    0  502  0.44721636246E+02  0.82071050910E+03 -0.99615224259E+03  0.12914662423E+04  0.50400001928E-02 0. -1.
</event>
<event>
 5   0  0.2641216E-05  0.2639617E+04  0.7818609E-02  0.8354867E-01
        2   -1    0    0  501    0  0.00000000000E+00  0.00000000000E+00  0.22508505946E+04  0.22508505946E+04  0.25500000920E-02 0.  1.
       -2   -1    0    0    0  501  0.00000000000E+00  0.00000000000E+00 -0.77388295657E+03  0.77388295658E+03  0.25500000920E-02 0. -1.
    10030    2    1    2    0    0  0.00000000000E+00  0.00000000000E+00  0.14769676380E+04  0.30247335511E+04  0.26396173305E+04 0.  0.
        5    1    3    3  502    0 -0.48555398315E+03  0.10136165598E+04 -0.54335210947E+02  0.11252358002E+04  0.46999998093E+01 0. -1.
       -5    1    3    3    0  502  0.48555398315E+03 -0.10136165598E+04  0.15313028489E+04  0.18994977510E+04  0.46999998093E+01 0.  1.
</event>
<event>
 5   0  0.1036691E-05  0.2686315E+04  0.7818609E-02  0.8339459E-01
       -1   -1    0    0    0  501  0.00000000000E+00  0.00000000000E+00  0.12362633642E+04  0.12362633642E+04  0.50400001928E-02 0. -1.
        1   -1    0    0  501    0  0.00000000000E+00  0.00000000000E+00 -0.14592948056E+04  0.14592948056E+04  0.50400001928E-02 0.  1.
    10030    2    1    2    0    0  0.00000000000E+00  0.00000000000E+00 -0.22303144137E+03  0.26955581698E+04  0.26863154734E+04 0.  0.
        4    1    3    3  502    0  0.38912567323E+03 -0.75955718843E+03  0.92922455575E+03  0.12616678644E+04  0.12699999809E+01 0. -1.
       -4    1    3    3    0  502 -0.38912567323E+03  0.75955718843E+03 -0.11522559971E+04  0.14338903054E+04  0.12699999809E+01 0.  1.
</event>
<event>
 5   0  0.8740500E-06  0.2825175E+04  0.7818609E-02  0.8295495E-01
        4   -1    0    0  501    0  0.00000000000E+00  0.00000000000E+00  0.11360291800E+04  0.11360298899E+04  0.12699999809E+01 0.  1.
       -4   -1    0    0    0  501  0.00000000000E+00  0.00000000000E+00 -0.17564703998E+04  0.17564708589E+04  0.12699999809E+01 0. -1.
    10030    2    1    2    0    0  0.00000000000E+00  0.00000000000E+00 -0.62044121984E+03  0.28925007488E+04  0.28251749104E+04 0.  0.
        2    1    3    3  502    0  0.94930194348E+03  0.50921638048E+02  0.75949193500E+03  0.12167971041E+04  0.25500000920E-02 0.  1.
       -2    1    3    3    0  502 -0.94930194348E+03 -0.50921638048E+02 -0.13799331548E+04  0.16757036447E+04  0.25500000920E-02 0. -1.
</event>
<event>
 5   0  0.2615843E-05  0.2687270E+04  0.7818609E-02  0.8339147E-01
       -2   -1    0    0    0  501  0.00000000000E+00  0.00000000000E+00  0.89428297794E+03  0.89428297794E+03  0.25500000920E-02 0.  1.
        2   -1    0    0  501    0  0.00000000000E+00  0.00000000000E+00 -0.20187736494E+04  0.20187736494E+04  0.25500000920E-02 0. -1.
    10030    2    1    2    0    0  0.00000000000E+00  0.00000000000E+00 -0.11244906714E+04  0.29130566273E+04  0.26872699239E+04 0.  0.
        3    1    3    3  502    0  0.20638401687E+03 -0.12252341221E+04 -0.11166474326E+04  0.16705371936E+04  0.10100000352E+00 0. -1.
       -3    1    3    3    0  502 -0.20638401687E+03  0.12252341221E+04 -0.78432388435E+01  0.12425194337E+04  0.10100000352E+00 0.  1.
</event>
<event>
 5   0  0.2615843E-05  0.1775976E+04  0.7818609E-02  0.8719180E-01
        2   -1    0    0  501    0  0.00000000000E+00  0.00000000000E+00  0.14660055244E+04  0.14660055244E+04  0.25500000920E-02 0.  1.
       -2   -1    0    0    0  501  0.00000000000E+00  0.00000000000E+00 -0.53787180610E+03  0.53787180611E+03  0.25500000920E-02 0. -1.
    10030    2    1    2    0    0  0.00000000000E+00  0.00000000000E+00  0.92813371827E+03  0.20038773305E+04  0.17759763953E+04 0.  0.
        3    1    3    3  502    0  0.11828934844E+03 -0.31776891468E+03  0.13900861117E+04  0.14308420113E+04  0.10100000352E+00 0.  1.
       -3    1    3    3    0  502 -0.11828934844E+03  0.31776891468E+03 -0.46195239341E+03  0.57303531922E+03  0.10100000352E+00 0. -1.
</event>
<event>
 5   0  0.1041909E-05  0.2757549E+04  0.7818609E-02  0.8316570E-01
       -1   -1    0    0    0  501  0.00000000000E+00  0.00000000000E+00  0.11865521854E+04  0.11865521854E+04  0.50400001928E-02 0.  1.
        1   -1    0    0  501    0  0.00000000000E+00  0.00000000000E+00 -0.16021364532E+04  0.16021364532E+04  0.50400001928E-02 0. -1.
    10030    2    1    2    0    0  0.00000000000E+00  0.00000000000E+00 -0.41558426784E+03  0.27886886386E+04  0.27575485561E+04 0.  0.
        5    1    3    3  502    0  0.57141306699E+03  0.40532755519E+03  0.99313360101E+03  0.12153763860E+04  0.46999998093E+01 0.  1.
       -5    1    3    3    0  502 -0.57141306699E+03 -0.40532755519E+03 -0.14087178689E+04  0.15733122526E+04  0.46999998093E+01 0. -1.
</event>
<event>
 5   0  0.2641216E-05  0.2030592E+04  0.7818609E-02  0.8592450E-01
       -2   -1    0    0    0  501  0.00000000000E+00  0.00000000000E+00  0.74761001354E+03  0.74761001355E+03  0.25500000920E-02 0.  1.
        2   -1    0    0  501    0  0.00000000000E+00  0.00000000000E+00 -0.13788283689E+04  0.13788283689E+04  0.25500000920E-02 0. -1.
    10030    2    1    2    0    0  0.00000000000E+00  0.00000000000E+00 -0.63121835533E+03  0.21264383824E+04  0.20305919290E+04 0.  0.
        5    1    3    3  502    0 -0.57244225836E+03 -0.77545569711E+01  0.56245112826E+03  0.80257313311E+03  0.46999998093E+01 0.  1.
       -5    1    3    3    0  502  0.57244225836E+03  0.77545569711E+01 -0.11936694836E+04  0.13238652493E+04  0.46999998093E+01 0. -1.
</event>
<event>
 5   0  0.2615843E-05  0.2705435E+04  0.7818609E-02  0.8333244E-01
        2   -1    0    0  501    0  0.00000000000E+00  0.00000000000E+00  0.13441065079E+04  0.13441065079E+04  0.25500000920E-02 0.  1.
       -2   -1    0    0    0  501  0.00000000000E+00  0.00000000000E+00 -0.13613836108E+04  0.13613836108E+04  0.25500000920E-02 0. -1.
    10030    2    1    2    0    0  0.00000000000E+00  0.00000000000E+00 -0.17277102906E+02  0.27054901187E+04  0.27054349528E+04 0.  0.
        3    1    3    3  502    0  0.72939028173E+03  0.19458241431E+03 -0.11311462110E+04  0.13599133281E+04  0.10100000352E+00 0. -1.
       -3    1    3    3    0  502 -0.72939028173E+03 -0.19458241431E+03  0.11138691081E+04  0.13455767906E+04  0.10100000352E+00 0.  1.
</event>
<event>
 5   0  0.1005265E-05  0.2650015E+04  0.7818609E-02  0.8351408E-01
        1   -1    0    0  501    0  0.00000000000E+00  0.00000000000E+00  0.16211229864E+04  0.16211229864E+04  0.50400001928E-02 0.  1.
       -1   -1    0    0    0  501  0.00000000000E+00  0.00000000000E+00 -0.10829809912E+04  0.10829809912E+04  0.50400001928E-02 0. -1.
    10030    2    1    2    0    0  0.00000000000E+00  0.00000000000E+00  0.53814199517E+03  0.27041039776E+04  0.26500153801E+04 0.  0.
        3    1    3    3  502    0 -0.10034146925E+04  0.16817883348E+03 -0.59708890310E+03  0.11796780635E+04  0.10100000352E+00 0. -1.
       -3    1    3    3    0  502  0.10034146925E+04 -0.16817883348E+03  0.11352308983E+04  0.15244259141E+04  0.10100000352E+00 0.  1.
</event>
<event>
 5   0  0.1005265E-05  0.2776397E+04  0.7818609E-02  0.8310634E-01
       -1   -1    0    0    0  501  0.00000000000E+00  0.00000000000E+00  0.13419666543E+04  0.13419666543E+04  0.50400001928E-02 0.  1.
        1   -1    0    0  501    0  0.00000000000E+00  0.00000000000E+00 -0.14360235573E+04  0.14360235573E+04  0.50400001928E-02 0. -1.
    10030    2    1    2    0    0  0.00000000000E+00  0.00000000000E+00 -0.94056903005E+02  0.27779902117E+04  0.27763974707E+04 0.  0.
        3    1    3    3  502    0 -0.50292527802E+03  0.13987619429E+03 -0.13340775838E+04  0.14325718812E+04  0.10100000352E+00 0. -1.
       -3    1    3    3    0  502  0.50292527802E+03 -0.13987619429E+03  0.12400206808E+04  0.13454183305E+04  0.10100000352E+00 0.  1.
</event>
<event>
 5   0  0.1036691E-05  0.2727746E+04  0.7818609E-02  0.8326058E-01
       -1   -1    0    0    0  501  0.00000000000E+00  0.00000000000E+00  0.96336338033E+03  0.96336338035E+03  0.50400001928E-02 0.  1.
        1   -1    0    0  501    0  0.00000000000E+00  0.00000000000E+00 -0.19308902900E+04  0.19308902900E+04  0.50400001928E-02 0. -1.
    10030    2    1    2    0    0  0.00000000000E+00  0.00000000000E+00 -0.96752690966E+03  0.28942536703E+04  0.27277455870E+04 0.  0.
        4    1    3    3  502    0 -0.12716707229E+04 -0.43168701076E+03 -0.73629885515E+03  0.15315474919E+04  0.12699999809E+01 0. -1.
       -4    1    3    3    0  502  0.12716707229E+04  0.43168701076E+03 -0.23122805451E+03  0.13627061785E+04  0.12699999809E+01 0.  1.
</event>
<event>
 5   0  0.2540232E-05  0.2712802E+04  0.7818609E-02  0.8330863E-01
        2   -1    0    0  501    0  0.00000000000E+00  0.00000000000E+00  0.12667212848E+04  0.12667212848E+04  0.25500000920E-02 0.  1.
       -2   -1    0    0    0  501  0.00000000000E+00  0.00000000000E+00 -0.14524297961E+04  0.14524297961E+04  0.25500000920E-02 0. -1.
    10030    2    1    2    0    0  0.00000000000E+00  0.00000000000E+00 -0.18570851133E+03  0.27191510809E+04  0.27128020477E+04 0.  0.
        1    1    3    3  502    0  0.26410170096E+03 -0.10750528726E+04 -0.87848412529E+03  0.14132313136E+04  0.50400001928E-02 0. -1.
       -1    1    3    3    0  502 -0.26410170096E+03  0.10750528726E+04  0.69277561396E+03  0.13059197673E+04  0.50400001928E-02 0.  1.
</event>
<event>
 5   0  0.2641216E-05  0.2788724E+04  0.7818609E-02  0.8306778E-01
       -2   -1    0    0    0  501  0.00000000000E+00  0.00000000000E+00  0.16336870480E+04  0.16336870480E+04  0.25500000920E-02 0. -1.
        2   -1    0    0  501    0  0.00000000000E+00  0.00000000000E+00 -0.11900966256E+04  0.11900966256E+04  0.25500000920E-02 0.  1.
    10030    2    1    2    0    0  0.00000000000E+00  0.00000000000E+00  0.44359042245E+03  0.28237836736E+04  0.27887240402E+04 0.  0.
        5    1    3    3  502    0 -0.47352653680E+03  0.23625041884E+03  0.15280450652E+04  0.16170916650E+04  0.46999998093E+01 0. -1.
       -5    1    3    3    0  502  0.47352653680E+03 -0.23625041884E+03 -0.10844546428E+04  0.12066920087E+04  0.46999998093E+01 0.  1.
</event>
<event>
 5   0  0.2540684E-05  0.2670106E+04  0.7818609E-02  0.8344770E-01
        2   -1    0    0  501    0  0.00000000000E+00  0.00000000000E+00  0.20823380279E+04  0.20823380279E+04  0.25500000920E-02 0. -1.
       -2   -1    0    0    0  501  0.00000000000E+00  0.00000000000E+00 -0.85594480442E+03  0.85594480442E+03  0.25500000920E-02 0.  1.
    10030    2    1    2    0    0  0.00000000000E+00  0.00000000000E+00  0.12263932235E+04  0.29382828324E+04  0.26701059275E+04 0.  0.
        2    1    3    3  502    0  0.59328004762E+03  0.80156818264E+03  0.15899690458E+04  0.18768309282E+04  0.25500000920E-02 0. -1.
       -2    1    3    3    0  502 -0.59328004762E+03 -0.80156818264E+03 -0.36357582229E+03  0.10614519042E+04  0.25500000920E-02 0.  1.
</event>
<event>
 5   0  0.2615843E-05  0.2546364E+04  0.7818609E-02  0.8386652E-01
        2   -1    0    0  501    0  0.00000000000E+00  0.00000000000E+00  0.29537605643E+04  0.29537605643E+04  0.25500000920E-02 0.  1.
       -2   -1    0    0    0  501  0.00000000000E+00  0.00000000000E+00 -0.54878955524E+03  0.54878955525E+03  0.25500000920E-02 0. -1.
    10030    2    1    2    0    0  0.00000000000E+00  0.00000000000E+00  0.24049710091E+04  0.35025501195E+04  0.25463644251E+04 0.  0.
        3    1    3    3  502    0 -0.11555512756E+04 -0.78170705534E+02  0.19297955558E+04  0.22506710793E+04  0.10100000352E+00 0.  1.
       -3    1    3    3    0  502  0.11555512756E+04  0.78170705534E+02  0.47517545328E+03  0.12518790403E+04  0.10100000352E+00 0. -1.
</event>
<event>
 5   0  0.9971923E-06  0.2698105E+04  0.7818609E-02  0.8335620E-01
        1   -1    0    0  501    0  0.00000000000E+00  0.00000000000E+00  0.21115139693E+04  0.21115139693E+04  0.50400001928E-02 0. -1.
       -1   -1    0    0    0  501  0.00000000000E+00  0.00000000000E+00 -0.86191390831E+03  0.86191390832E+03  0.50400001928E-02 0.  1.
    10030    2    1    2    0    0  0.00000000000E+00  0.00000000000E+00  0.12496000610E+04  0.29734278776E+04  0.26981054522E+04 0.  0.
        2    1    3    3  502    0 -0.22819628972E+02  0.13291087118E+04  0.37134800857E+03  0.13801992779E+04  0.25500000920E-02 0. -1.
       -2    1    3    3    0  502  0.22819628972E+02 -0.13291087118E+04  0.87825205241E+03  0.15932285997E+04  0.25500000920E-02 0.  1.
</event>
<event>
 5   0  0.1096672E-05  0.2774297E+04  0.7818609E-02  0.8311293E-01
       -1   -1    0    0    0  501  0.00000000000E+00  0.00000000000E+00  0.95772715030E+03  0.95772715031E+03  0.50400001928E-02 0.  1.
        1   -1    0    0  501    0  0.00000000000E+00  0.00000000000E+00 -0.20091111682E+04  0.20091111682E+04  0.50400001928E-02 0. -1.
    10030    2    1    2    0    0  0.00000000000E+00  0.00000000000E+00 -0.10513840179E+04  0.29668383185E+04  0.27742965334E+04 0.  0.
        1    1    3    3  502    0 -0.61303157261E+03 -0.67814016589E+03 -0.16414112476E+04  0.18788061841E+04  0.50400001928E-02 0. -1.
       -1    1    3    3    0  502  0.61303157261E+03  0.67814016589E+03  0.59002722974E+03  0.10880321344E+04  0.50400001928E-02 0.  1.
</event>
<event>
 5   0  0.2615843E-05  0.2667800E+04  0.7818609E-02  0.8345529E-01
       -2   -1    0    0    0  501  0.00000000000E+00  0.00000000000E+00  0.11910342271E+04  0.11910342271E+04  0.25500000920E-02 0. -1.
        2   -1    0    0  501    0  0.00000000000E+00  0.00000000000E+00 -0.14939028911E+04  0.14939028911E+04  0.25500000920E-02 0.  1.
    10030    2    1    2    0    0  0.00000000000E+00  0.00000000000E+00 -0.30286866396E+03  0.26849371183E+04  0.26678001989E+04 0.  0.
        3    1    3    3  502    0  0.50307580259E+03 -0.11131103618E+04  0.38790875370E+03  0.12816291009E+04  0.10100000352E+00 0. -1.
       -3    1    3    3    0  502 -0.50307580259E+03  0.11131103618E+04 -0.69077741766E+03  0.14033080174E+04  0.10100000352E+00 0.  1.
</event>
<event>
 5   0  0.2641216E-05  0.2679437E+04  0.7818609E-02  0.8341708E-01
        2   -1    0    0  501    0  0.00000000000E+00  0.00000000000E+00  0.14487851087E+04  0.14487851087E+04  0.25500000920E-02 0. -1.
       -2   -1    0    0    0  501  0.00000000000E+00  0.00000000000E+00 -0.12388622468E+04  0.12388622468E+04  0.25500000920E-02 0.  1.
    10030    2    1    2    0    0  0.00000000000E+00  0.00000000000E+00  0.20992286188E+03  0.26876473555E+04  0.26794366385E+04 0.  0.
        5    1    3    3  502    0 -0.86961582506E+03  0.10177470423E+04  0.15787114559E+03  0.13479562730E+04  0.46999998093E+01 0. -1.
       -5    1    3    3    0  502  0.86961582506E+03 -0.10177470423E+04  0.52051716286E+02  0.13396910825E+04  0.46999998093E+01 0.  1.
</event>
<event>
 5   0  0.1005265E-05  0.1812564E+04  0.7818609E-02  0.8699647E-01
       -1   -1    0    0    0  501  0.00000000000E+00  0.00000000000E+00  0.15976748906E+04  0.15976748906E+04  0.50400001928E-02 0. -1.
        1   -1    0    0  501    0  0.00000000000E+00  0.00000000000E+00 -0.51408872250E+03  0.51408872253E+03  0.50400001928E-02 0.  1.
    10030    2    1    2    0    0  0.00000000000E+00  0.00000000000E+00  0.10835861681E+04  0.21117636132E+04  0.18125635366E+04 0.  0.
        3    1    3    3  502    0 -0.17689534786E+03 -0.46073329165E+03  0.14273839510E+04  0.15102953631E+04  0.10100000352E+00 0. -1.
       -3    1    3    3    0  502  0.17689534786E+03  0.46073329165E+03 -0.34379778285E+03  0.60146825005E+03  0.10100000352E+00 0.  1.
</event>
<event>
 5   0  0.9971923E-06  0.2657564E+04  0.7818609E-02  0.8348907E-01
        1   -1    0    0  501    0  0.00000000000E+00  0.00000000000E+00  0.13218100987E+04  0.13218100987E+04  0.50400001928E-02 0. -1.
       -1   -1    0    0    0  501  0.00000000000E+00  0.00000000000E+00 -0.13357902703E+04  0.13357902703E+04  0.50400001928E-02 0.  1.
    10030    2    1    2    0    0  0.00000000000E+00  0.00000000000E+00 -0.13980171682E+02  0.26576003690E+04  0.26575635978E+04 0.  0.
        2    1    3    3  502    0 -0.12103752493E+04 -0.12936485083E+03  0.52585643724E+03  0.13259971724E+04  0.25500000920E-02 0. -1.
       -2    1    3    3    0  502  0.12103752493E+04  0.12936485083E+03 -0.53983660892E+03  0.13316031966E+04  0.25500000920E-02 0.  1.
</event>
<event>
 5   0  0.9971923E-06  0.2689369E+04  0.7818609E-02  0.8338463E-01
        1   -1    0    0  501    0  0.00000000000E+00  0.00000000000E+00  0.17912886107E+04  0.17912886107E+04  0.50400001928E-02 0.  1.
       -1   -1    0    0    0  501  0.00000000000E+00  0.00000000000E+00 -0.10094273669E+04  0.10094273669E+04  0.50400001928E-02 0. -1.
    10030    2    1    2    0    0  0.00000000000E+00  0.00000000000E+00  0.78186124380E+03  0.28007159776E+04  0.26893685100E+04 0.  0.
        2    1    3    3  502    0  0.13388038577E+04 -0.10314912272E+03  0.46559444516E+03  0.14212014982E+04  0.25500000920E-02 0. -1.
       -2    1    3    3    0  502 -0.13388038577E+04  0.10314912272E+03  0.31626679864E+03  0.13795144794E+04  0.25500000920E-02 0.  1.
</event>
<event>
 5   0  0.2516518E-05  0.2698571E+04  0.7818609E-02  0.8335469E-01
       -2   -1    0    0    0  501  0.00000000000E+00  0.00000000000E+00  0.11868764150E+04  0.11868764150E+04  0.25500000920E-02 0. -1.
        2   -1    0    0  501    0  0.00000000000E+00  0.00000000000E+00 -0.15339181169E+04  0.15339181169E+04  0.25500000920E-02 0.  1.
    10030    2    1    2    0    0  0.00000000000E+00  0.00000000000E+00 -0.34704170192E+03  0.27207945319E+04  0.26985709073E+04 0.  0.
        4    1    3    3  502    0  0.37223152085E+03 -0.48772992659E+03  0.10380964987E+04  0.12058535317E+04  0.12699999809E+01 0. -1.
       -4    1    3    3    0  502 -0.37223152085E+03  0.48772992659E+03 -0.13851382006E+04  0.15149410002E+04  0.12699999809E+01 0.  1.
</event>
<event>
 5   0  0.1041909E-05  0.2721714E+04  0.7818609E-02  0.8327994E-01
        1   -1    0    0  501    0  0.00000000000E+00  0.00000000000E+00  0.11507630720E+04  0.11507630721E+04  0.50400001928E-02 0. -1.
       -1   -1    0    0    0  501  0.00000000000E+00  0.00000000000E+00 -0.16093072557E+04  0.16093072557E+04  0.50400001928E-02 0.  1.
    10030    2    1    2    0    0  0.00000000000E+00  0.00000000000E+00 -0.45854418362E+03  0.27600703277E+04  0.27217136965E+04 0.  0.
        5    1    3    3  502    0 -0.80338872567E+03 -0.41253507801E+03 -0.12616019684E+04  0.15515412504E+04  0.46999998093E+01 0.  1.
       -5    1    3    3    0  502  0.80338872567E+03  0.41253507801E+03  0.80305778474E+03  0.12085290773E+04  0.46999998093E+01 0. -1.
</event>
<event>
 5   0  0.2641216E-05  0.2732134E+04  0.7818609E-02  0.8324653E-01
       -2   -1    0    0    0  501  0.00000000000E+00  0.00000000000E+00  0.91278719242E+03  0.91278719242E+03  0.25500000920E-02 0.  1.
        2   -1    0    0  501    0  0.00000000000E+00  0.00000000000E+00 -0.20444404178E+04  0.20444404178E+04  0.25500000920E-02 0. -1.
    10030    2    1    2    0    0  0.00000000000E+00  0.00000000000E+00 -0.11316532254E+04  0.29572276102E+04  0.27321339858E+04 0.  0.
        5    1    3    3  502    0 -0.11465896791E+04  0.73342713371E+03 -0.69174548155E+03  0.15267996443E+04  0.46999998093E+01 0.  1.
       -5    1    3    3    0  502  0.11465896791E+04 -0.73342713371E+03 -0.43990774382E+03  0.14304279659E+04  0.46999998093E+01 0. -1.
</event>
<event>
 5   0  0.9971923E-06  0.2715085E+04  0.7818609E-02  0.8330127E-01
        1   -1    0    0  501    0  0.00000000000E+00  0.00000000000E+00  0.12399035869E+04  0.12399035869E+04  0.50400001928E-02 0.  1.
       -1   -1    0    0    0  501  0.00000000000E+00  0.00000000000E+00 -0.14863428286E+04  0.14863428286E+04  0.50400001928E-02 0. -1.
    10030    2    1    2    0    0  0.00000000000E+00  0.00000000000E+00 -0.24643924166E+03  0.27262464155E+04  0.27150851217E+04 0.  0.
        2    1    3    3  502    0 -0.45180261932E+03  0.31219136087E+03 -0.13698274817E+04  0.14758104154E+04  0.25500000920E-02 0. -1.
       -2    1    3    3    0  502  0.45180261932E+03 -0.31219136087E+03  0.11233882400E+04  0.12504360001E+04  0.25500000920E-02 0.  1.
</event>
<event>
 5   0  0.2540232E-05  0.2376019E+04  0.7818609E-02  0.8448537E-01
       -2   -1    0    0    0  501  0.00000000000E+00  0.00000000000E+00  0.15609125719E+04  0.15609125719E+04  0.25500000920E-02 0.  1.
        2   -1    0    0  501    0  0.00000000000E+00  0.00000000000E+00 -0.90419298449E+03  0.90419298449E+03  0.25500000920E-02 0. -1.
    10030    2    1    2    0    0  0.00000000000E+00  0.00000000000E+00  0.65671958745E+03  0.24651055564E+04  0.23760186842E+04 0.  0.
        1    1    3    3  502    0  0.32161346942E+03  0.95216855211E+03  0.98559906783E+03  0.14076454447E+04  0.50400001928E-02 0.  1.
       -1    1    3    3    0  502 -0.32161346942E+03 -0.95216855211E+03 -0.32887948038E+03  0.10574601118E+04  0.50400001928E-02 0. -1.
</event>
<event>
 5   0  0.1041909E-05  0.2675909E+04  0.7818609E-02  0.8342864E-01
       -1   -1    0    0    0  501  0.00000000000E+00  0.00000000000E+00  0.13593997904E+04  0.13593997904E+04  0.50400001928E-02 0. -1.
        1   -1    0    0  501    0  0.00000000000E+00  0.00000000000E+00 -0.13168470828E+04  0.13168470828E+04  0.50400001928E-02 0.  1.
    10030    2    1    2    0    0  0.00000000000E+00  0.00000000000E+00  0.42552707628E+02  0.26762468732E+04  0.26759085547E+04 0.  0.
        5    1    3    3  502    0  0.59625716674E+03 -0.11936527468E+04  0.12013251231E+03  0.13396952636E+04  0.46999998093E+01 0. -1.
       -5    1    3    3    0  502 -0.59625716674E+03  0.11936527468E+04 -0.77579804681E+02  0.13365516096E+04  0.46999998093E+01 0.  1.
</event>
<event>
 5   0  0.9971923E-06  0.2718013E+04  0.7818609E-02  0.8329184E-01
       -1   -1    0    0    0  501  0.00000000000E+00  0.00000000000E+00  0.58847663580E+03  0.58847663582E+03  0.50400001928E-02 0.  1.
        1   -1    0    0  501    0  0.00000000000E+00  0.00000000000E+00 -0.31384408565E+04  0.31384408565E+04  0.50400001928E-02 0. -1.
    10030    2    1    2    0    0  0.00000000000E+00  0.00000000000E+00 -0.25499642207E+04  0.37269174923E+04  0.27180133310E+04 0.  0.
        2    1    3    3  502    0  0.40587162155E+03  0.28597686843E+03 -0.30096261739E+04  0.30503055993E+04  0.25500000920E-02 0. -1.
       -2    1    3    3    0  502 -0.40587162155E+03 -0.28597686843E+03  0.45966195324E+03  0.67661189298E+03  0.25500000920E-02 0.  1.
</event>
<event>
 5   0  0.2540684E-05  0.2190363E+04  0.7818609E-02  0.8522450E-01
        2   -1    0    0  501    0  0.00000000000E+00  0.00000000000E+00  0.18256308470E+04  0.18256308470E+04  0.25500000920E-02 0.  1.
       -2   -1    0    0    0  501  0.00000000000E+00  0.00000000000E+00 -0.65699068891E+03  0.65699068892E+03  0.25500000920E-02 0. -1.
    10030    2    1    2    0    0  0.00000000000E+00  0.00000000000E+00  0.11686401581E+04  0.24826215359E+04  0.21903629543E+04 0.  0.
        2    1    3    3  502    0  0.34150954283E+03 -0.85662145870E+03 -0.85260772182E+02  0.92612012754E+03  0.25500000920E-02 0. -1.
       -2    1    3    3    0  502 -0.34150954283E+03  0.85662145870E+03  0.12539009302E+04  0.15565014084E+04  0.25500000920E-02 0.  1.
</event>
<event>
 5   0  0.2540684E-05  0.2665362E+04  0.7818609E-02  0.8346332E-01
        2   -1    0    0  501    0  0.00000000000E+00  0.00000000000E+00  0.11572400380E+04  0.11572400381E+04  0.25500000920E-02 0.  1.
       -2   -1    0    0    0  501  0.00000000000E+00  0.00000000000E+00 -0.15347198746E+04  0.15347198746E+04  0.25500000920E-02 0. -1.
    10030    2    1    2    0    0  0.00000000000E+00  0.00000000000E+00 -0.37747983653E+03  0.26919599126E+04  0.26653624790E+04 0.  0.
        2    1    3    3  502    0  0.58987994839E+03  0.11135595698E+04 -0.62673322329E+03  0.14073975281E+04  0.25500000920E-02 0. -1.
       -2    1    3    3    0  502 -0.58987994839E+03 -0.11135595698E+04  0.24925338676E+03  0.12845623845E+04  0.25500000920E-02 0.  1.
</event>
<event>
 5   0  0.2516518E-05  0.2686273E+04  0.7818609E-02  0.8339473E-01
        2   -1    0    0  501    0  0.00000000000E+00  0.00000000000E+00  0.72140882254E+03  0.72140882254E+03  0.25500000920E-02 0. -1.
       -2   -1    0    0    0  501  0.00000000000E+00  0.00000000000E+00 -0.25006842617E+04  0.25006842617E+04  0.25500000920E-02 0.  1.
    10030    2    1    2    0    0  0.00000000000E+00  0.00000000000E+00 -0.17792754391E+04  0.32220930842E+04  0.26862730232E+04 0.  0.
        4    1    3    3  502    0  0.53447565583E+02 -0.17395974377E+03 -0.24858270078E+04  0.24924799218E+04  0.12699999809E+01 0.  1.
       -4    1    3    3    0  502 -0.53447565583E+02  0.17395974377E+03  0.70655156868E+03  0.72961316245E+03  0.12699999809E+01 0. -1.
</event>
<event>
 5   0  0.2540684E-05  0.2689135E+04  0.7818609E-02  0.8338539E-01
       -2   -1    0    0    0  501  0.00000000000E+00  0.00000000000E+00  0.15117816575E+04  0.15117816575E+04  0.25500000920E-02 0. -1.
        2   -1    0    0  501    0  0.00000000000E+00  0.00000000000E+00 -0.11958488278E+04  0.11958488278E+04  0.25500000920E-02 0.  1.
    10030    2    1    2    0    0  0.00000000000E+00  0.00000000000E+00  0.31593282966E+03  0.27076304853E+04  0.26891354172E+04 0.  0.
        2    1    3    3  502    0  0.84495821955E+03  0.95977551450E+03 -0.26051077176E+03  0.13049863192E+04  0.25500000920E-02 0. -1.
       -2    1    3    3    0  502 -0.84495821955E+03 -0.95977551450E+03  0.57644360143E+03  0.14026441661E+04  0.25500000920E-02 0.  1.
</event>
<event>
 5   0  0.2540684E-05  0.1685249E+04  0.7818609E-02  0.8769823E-01
        2   -1    0    0  501    0  0.00000000000E+00  0.00000000000E+00  0.24651238076E+04  0.24651238076E+04  0.25500000920E-02 0.  1.
       -2   -1    0    0    0  501  0.00000000000E+00  0.00000000000E+00 -0.28802435037E+03  0.28802435038E+03  0.25500000920E-02 0. -1.
    10030    2    1    2    0    0  0.00000000000E+00  0.00000000000E+00  0.21770994572E+04  0.27531481580E+04  0.16852485672E+04 0.  0.
        2    1    3    3  502    0  0.49309682384E+03 -0.67988820129E+03  0.97746897822E+03  0.12887350571E+04  0.25500000920E-02 0. -1.
       -2    1    3    3    0  502 -0.49309682384E+03  0.67988820129E+03  0.11996304790E+04  0.14644131009E+04  0.25500000920E-02 0.  1.
</event>
<event>
 5   0  0.2615843E-05  0.2640734E+04  0.7818609E-02  0.8354495E-01
       -2   -1    0    0    0  501  0.00000000000E+00  0.00000000000E+00  0.11118770298E+04  0.11118770298E+04  0.25500000920E-02 0. -1.
        2   -1    0    0  501    0  0.00000000000E+00  0.00000000000E+00 -0.15679517799E+04  0.15679517799E+04  0.25500000920E-02 0.  1.
    10030    2    1    2    0    0  0.00000000000E+00  0.00000000000E+00 -0.45607475014E+03  0.26798288097E+04  0.26407344189E+04 0.  0.
        3    1    3    3  502    0 -0.10226784986E+04  0.78176861561E+03 -0.52621735652E+03  0.13906610645E+04  0.10100000352E+00 0.  1.
       -3    1    3    3    0  502  0.10226784986E+04 -0.78176861561E+03  0.70142606379E+02  0.12891677452E+04  0.10100000352E+00 0. -1.
</event>
<event>
 5   0  0.1036691E-05  0.2662356E+04  0.7818609E-02  0.8347323E-01
        1   -1    0    0  501    0  0.00000000000E+00  0.00000000000E+00  0.13543553223E+04  0.13543553223E+04  0.50400001928E-02 0.  1.
       -1   -1    0    0    0  501  0.00000000000E+00  0.00000000000E+00 -0.13083974879E+04  0.13083974879E+04  0.50400001928E-02 0. -1.
    10030    2    1    2    0    0  0.00000000000E+00  0.00000000000E+00  0.45957834466E+02  0.26627528102E+04  0.26623561756E+04 0.  0.
        4    1    3    3  502    0 -0.39423428601E+03 -0.12610097340E+04 -0.13973295633E+03  0.13285680763E+04  0.12699999809E+01 0. -1.
       -4    1    3    3    0  502  0.39423428601E+03  0.12610097340E+04  0.18569079080E+03  0.13341847339E+04  0.12699999809E+01 0.  1.
</event>
<event>
 5   0  0.1096672E-05  0.2684365E+04  0.7818609E-02  0.8340096E-01
        1   -1    0    0  501    0  0.00000000000E+00  0.00000000000E+00  0.16200386628E+04  0.16200386628E+04  0.50400001928E-02 0.  1.
       -1   -1    0    0    0  501  0.00000000000E+00  0.00000000000E+00 -0.11119816756E+04  0.11119816756E+04  0.50400001928E-02 0. -1.
    10030    2    1    2    0    0  0.00000000000E+00  0.00000000000E+00  0.50805698720E+03  0.27320203384E+04  0.26843645854E+04 0.  0.
        1    1    3    3  502    0 -0.13295132192E+04  0.94261594469E+02  0.41482916043E+03  0.13959132783E+04  0.50400001928E-02 0.  1.
       -1    1    3    3    0  502  0.13295132192E+04 -0.94261594469E+02  0.93227826771E+02  0.13361070601E+04  0.50400001928E-02 0. -1.
</event>
<event>
 5   0  0.1005265E-05  0.2721493E+04  0.7818609E-02  0.8328065E-01
        1   -1    0    0  501    0  0.00000000000E+00  0.00000000000E+00  0.16620492812E+04  0.16620492812E+04  0.50400001928E-02 0.  1.
       -1   -1    0    0    0  501  0.00000000000E+00  0.00000000000E+00 -0.11140646765E+04  0.11140646765E+04  0.50400001928E-02 0. -1.
    10030    2    1    2    0    0  0.00000000000E+00  0.00000000000E+00  0.54798460468E+03  0.27761139577E+04  0.27214925278E+04 0.  0.
        3    1    3    3  502    0 -0.41902472136E+03 -0.10936722137E+04  0.98066608961E+03  0.15275492194E+04  0.10100000352E+00 0.  1.
       -3    1    3    3    0  502  0.41902472136E+03  0.10936722137E+04 -0.43268148493E+03  0.12485647383E+04  0.10100000352E+00 0. -1.
</event>
<event>
 5   0  0.9971923E-06  0.2372183E+04  0.7818609E-02  0.8449992E-01
       -1   -1    0    0    0  501  0.00000000000E+00  0.00000000000E+00  0.99222713369E+03  0.99222713370E+03  0.50400001928E-02 0.  1.
        1   -1    0    0  501    0  0.00000000000E+00  0.00000000000E+00 -0.14178336498E+04  0.14178336498E+04  0.50400001928E-02 0. -1.
    10030    2    1    2    0    0  0.00000000000E+00  0.00000000000E+00 -0.42560651610E+03  0.24100607835E+04  0.23721829764E+04 0.  0.
        2    1    3    3  502    0 -0.32832558346E+03  0.61116112659E+03 -0.11901921842E+04  0.13776331321E+04  0.25500000920E-02 0. -1.
       -2    1    3    3    0  502  0.32832558346E+03 -0.61116112659E+03  0.76458566810E+03  0.10324276514E+04  0.25500000920E-02 0.  1.
</event>
<event>
 5   0  0.1096672E-05  0.2285170E+04  0.7818609E-02  0.8483792E-01
       -1   -1    0    0    0  501  0.00000000000E+00  0.00000000000E+00  0.71911755311E+03  0.71911755313E+03  0.50400001928E-02 0.  1.
        1   -1    0    0  501    0  0.00000000000E+00  0.00000000000E+00 -0.18154195536E+04  0.18154195537E+04  0.50400001928E-02 0. -1.
    10030    2    1    2    0    0  0.00000000000E+00  0.00000000000E+00 -0.10963020005E+04  0.25345371068E+04  0.22851696369E+04 0.  0.
        1    1    3    3  502    0  0.27696323703E+03 -0.55041984212E+03  0.51904871301E+03  0.80565638070E+03  0.50400001928E-02 0.  1.
       -1    1    3    3    0  502 -0.27696323703E+03  0.55041984212E+03 -0.16153507135E+04  0.17288807261E+04  0.50400001928E-02 0. -1.
</event>
<event>
 5   0  0.2516518E-05  0.2713221E+04  0.7818609E-02  0.8330728E-01
        2   -1    0    0  501    0  0.00000000000E+00  0.00000000000E+00  0.22047627053E+04  0.22047627053E+04  0.25500000920E-02 0.  1.
       -2   -1    0    0    0  501  0.00000000000E+00  0.00000000000E+00 -0.83473466302E+03  0.83473466303E+03  0.25500000920E-02 0. -1.
    10030    2    1    2    0    0  0.00000000000E+00  0.00000000000E+00  0.13700280422E+04  0.30394973683E+04  0.27132208563E+04 0.  0.
        4    1    3    3  502    0 -0.72379553610E+03 -0.11153402840E+04  0.38332158120E+03  0.13837633376E+04  0.12699999809E+01 0. -1.
       -4    1    3    3    0  502  0.72379553610E+03  0.11153402840E+04  0.98670646103E+03  0.16557340306E+04  0.12699999809E+01 0.  1.
</event>
<event>
 5   0  0.2516518E-05  0.1720137E+04  0.7818609E-02  0.8749962E-01
        2   -1    0    0  501    0  0.00000000000E+00  0.00000000000E+00  0.20590609978E+04  0.20590609978E+04  0.25500000920E-02 0. -1.
       -2   -1    0    0    0  501  0.00000000000E+00  0.00000000000E+00 -0.35925017226E+03  0.35925017226E+03  0.25500000920E-02 0.  1.
    10030    2    1    2    0    0  0.00000000000E+00  0.00000000000E+00  0.16998108256E+04  0.24183111701E+04  0.17201372250E+04 0.  0.
        4    1    3    3  502    0 -0.27586185197E+03 -0.17661462003E+03 -0.26812400603E+03  0.42330199726E+03  0.12699999809E+01 0.  1.
       -4    1    3    3    0  502  0.27586185197E+03  0.17661462003E+03  0.19679348316E+04  0.19950091728E+04  0.12699999809E+01 0. -1.
</event>
<event>
 5   0  0.2540684E-05  0.2709523E+04  0.7818609E-02  0.8331922E-01
        2   -1    0    0  501    0  0.00000000000E+00  0.00000000000E+00  0.16049327318E+04  0.16049327318E+04  0.25500000920E-02 0.  1.
       -2   -1    0    0    0  501  0.00000000000E+00  0.00000000000E+00 -0.11435861672E+04  0.11435861672E+04  0.25500000920E-02 0. -1.
    10030    2    1    2    0    0  0.00000000000E+00  0.00000000000E+00  0.46134656455E+03  0.27485188990E+04  0.27095231103E+04 0.  0.
        2    1    3    3  502    0  0.51125786332E+02  0.48576553769E+03  0.15125040861E+04  0.15894183258E+04  0.25500000920E-02 0.  1.
       -2    1    3    3    0  502 -0.51125786332E+02 -0.48576553769E+03 -0.10511575216E+04  0.11591005732E+04  0.25500000920E-02 0. -1.
</event>
<event>
 5   0  0.8740500E-06  0.2611589E+04  0.7818609E-02  0.8364275E-01
        3   -1    0    0  501    0  0.00000000000E+00  0.00000000000E+00  0.62792735136E+03  0.62792735948E+03  0.10100000352E+00 0.  1.
       -3   -1    0    0    0  501  0.00000000000E+00  0.00000000000E+00 -0.27154405461E+04  0.27154405480E+04  0.10100000352E+00 0. -1.
    10030    2    1    2    0    0  0.00000000000E+00  0.00000000000E+00 -0.20875131948E+04  0.33433679075E+04  0.26115890998E+04 0.  0.
        2    1    3    3  502    0  0.26434327946E+03 -0.79184451412E+03 -0.23292018817E+04  0.24742830294E+04  0.25500000920E-02 0. -1.
       -2    1    3    3    0  502 -0.26434327946E+03  0.79184451412E+03  0.24168868691E+03  0.86908487809E+03  0.25500000920E-02 0.  1.
</event>
<event>
 5   0  0.1036691E-05  0.2559585E+04  0.7818609E-02  0.8382060E-01
       -1   -1    0    0    0  501  0.00000000000E+00  0.00000000000E+00  0.51920030317E+03  0.51920030319E+03  0.50400001928E-02 0.  1.
        1   -1    0    0  501    0  0.00000000000E+00  0.00000000000E+00 -0.31545984694E+04  0.31545984694E+04  0.50400001928E-02 0. -1.
    10030    2    1    2    0    0  0.00000000000E+00  0.00000000000E+00 -0.26353981662E+04  0.36737987726E+04  0.25595847177E+04 0.  0.
        4    1    3    3  502    0  0.12608950838E+04 -0.10606831825E+03 -0.10425085937E+04  0.16394915923E+04  0.12699999809E+01 0.  1.
       -4    1    3    3    0  502 -0.12608950838E+04  0.10606831825E+03 -0.15928895725E+04  0.20343071803E+04  0.12699999809E+01 0. -1.
</event>
<event>
 5   0  0.1005265E-05  0.2681190E+04  0.7818609E-02  0.8341134E-01
       -1   -1    0    0    0  501  0.00000000000E+00  0.00000000000E+00  0.20751486659E+04  0.20751486659E+04  0.50400001928E-02 0.  1.
        1   -1    0    0  501    0  0.00000000000E+00  0.00000000000E+00 -0.86605585682E+03  0.86605585683E+03  0.50400001928E-02 0. -1.
    10030    2    1    2    0    0  0.00000000000E+00  0.00000000000E+00  0.12090928091E+04  0.29412045228E+04  0.26811897776E+04 0.  0.
        3    1    3    3  502    0  0.12867936444E+04 -0.33869220588E+03  0.42548571534E+03  0.13969926263E+04  0.10100000352E+00 0.  1.
       -3    1    3    3    0  502 -0.12867936444E+04  0.33869220588E+03  0.78360709375E+03  0.15442118965E+04  0.10100000352E+00 0. -1.
</event>
<event>
 5   0  0.1036691E-05  0.2687222E+04  0.7818609E-02  0.8339163E-01
       -1   -1    0    0    0  501  0.00000000000E+00  0.00000000000E+00  0.81155433873E+03  0.81155433875E+03  0.50400001928E-02 0.  1.
        1   -1    0    0  501    0  0.00000000000E+00  0.00000000000E+00 -0.22244854756E+04  0.22244854756E+04  0.50400001928E-02 0. -1.
    10030    2    1    2    0    0  0.00000000000E+00  0.00000000000E+00 -0.14129311369E+04  0.30360398144E+04  0.26872222381E+04 0.  0.
        4    1    3    3  502    0  0.40996439586E+02 -0.58632591069E+03  0.65860494609E+03  0.88273488065E+03  0.12699999809E+01 0.  1.
       -4    1    3    3    0  502 -0.40996439586E+02  0.58632591069E+03 -0.20715360830E+04  0.21533049337E+04  0.12699999809E+01 0. -1.
</event>
<event>
 5   0  0.1036691E-05  0.2705140E+04  0.7818609E-02  0.8333339E-01
        1   -1    0    0  501    0  0.00000000000E+00  0.00000000000E+00  0.68473769638E+03  0.68473769640E+03  0.50400001928E-02 0.  1.
       -1   -1    0    0    0  501  0.00000000000E+00  0.00000000000E+00 -0.26717457919E+04  0.26717457919E+04  0.50400001928E-02 0. -1.
    10030    2    1    2    0    0  0.00000000000E+00  0.00000000000E+00 -0.19870080955E+04  0.33564834883E+04  0.27051395963E+04 0.  0.
        4    1    3    3  502    0  0.75715578952E+03  0.83135839673E+03 -0.19261562904E+04  0.22303634998E+04  0.12699999809E+01 0. -1.
       -4    1    3    3    0  502 -0.75715578952E+03 -0.83135839673E+03 -0.60851805144E+02  0.11261199885E+04  0.12699999809E+01 0.  1.
</event>
<event>
 5   0  0.2540232E-05  0.2361888E+04  0.7818609E-02  0.8453912E-01
        2   -1    0    0  501    0  0.00000000000E+00  0.00000000000E+00  0.12641819267E+04  0.12641819267E+04  0.25500000920E-02 0.  1.
       -2   -1    0    0    0  501  0.00000000000E+00  0.00000000000E+00 -0.11031862769E+04  0.11031862769E+04  0.25500000920E-02 0. -1.
    10030    2    1    2    0    0  0.00000000000E+00  0.00000000000E+00  0.16099564982E+03  0.23673682036E+04  0.23618875105E+04 0.  0.
        1    1    3    3  502    0 -0.42804717765E+03 -0.88153897633E+03 -0.58004033961E+03  0.11387634296E+04  0.50400001928E-02 0. -1.
       -1    1    3    3    0  502  0.42804717765E+03  0.88153897633E+03  0.74103598943E+03  0.12286047740E+04  0.50400001928E-02 0.  1.
</event>
<event>
 5   0  0.2540684E-05  0.2675045E+04  0.7818609E-02  0.8343148E-01
       -2   -1    0    0    0  501  0.00000000000E+00  0.00000000000E+00  0.12272229702E+04  0.12272229702E+04  0.25500000920E-02 0. -1.
        2   -1    0    0  501    0  0.00000000000E+00  0.00000000000E+00 -0.14577354827E+04  0.14577354827E+04  0.25500000920E-02 0.  1.
    10030    2    1    2    0    0  0.00000000000E+00  0.00000000000E+00 -0.23051251252E+03  0.26849584529E+04  0.26750450231E+04 0.  0.
        2    1    3    3  502    0  0.11639772265E+04 -0.65883585328E+03 -0.10755950416E+03  0.13418184350E+04  0.25500000920E-02 0. -1.
       -2    1    3    3    0  502 -0.11639772265E+04  0.65883585328E+03 -0.12295300835E+03  0.13431400179E+04  0.25500000920E-02 0.  1.
</event>
<event>
 5   0  0.2615843E-05  0.2733941E+04  0.7818609E-02  0.8324076E-01
        2   -1    0    0  501    0  0.00000000000E+00  0.00000000000E+00  0.13928678891E+04  0.13928678891E+04  0.25500000920E-02 0.  1.
       -2   -1    0    0    0  501  0.00000000000E+00  0.00000000000E+00 -0.13415544721E+04  0.13415544721E+04  0.25500000920E-02 0. -1.
    10030    2    1    2    0    0  0.00000000000E+00  0.00000000000E+00  0.51313416961E+02  0.27344223612E+04  0.27339408521E+04 0.  0.
        3    1    3    3  502    0  0.87545723771E+03  0.10497263590E+04  0.41701091721E+02  0.13675122651E+04  0.10100000352E+00 0. -1.
       -3    1    3    3    0  502 -0.87545723771E+03 -0.10497263590E+04  0.96123252404E+01  0.13669100961E+04  0.10100000352E+00 0.  1.
</event>
<event>
 5   0  0.2641216E-05  0.2089070E+04  0.7818609E-02  0.8566073E-01
       -2   -1    0    0    0  501  0.00000000000E+00  0.00000000000E+00  0.11817887008E+04  0.11817887008E+04  0.25500000920E-02 0.  1.
        2   -1    0    0  501    0  0.00000000000E+00  0.00000000000E+00 -0.92322198593E+03  0.92322198593E+03  0.25500000920E-02 0. -1.
    10030    2    1    2    0    0  0.00000000000E+00  0.00000000000E+00  0.25856671487E+03  0.21050106867E+04  0.20890699474E+04 0.  0.
        5    1    3    3  502    0  0.88059785785E+03  0.33072740328E+03  0.58683863349E+03  0.11087086517E+04  0.46999998093E+01 0. -1.
       -5    1    3    3    0  502 -0.88059785785E+03 -0.33072740328E+03 -0.32827191861E+03  0.99630203507E+03  0.46999998093E+01 0.  1.
</event>
<event>
 5   0  0.1041909E-05  0.2699083E+04  0.7818609E-02  0.8335303E-01
       -1   -1    0    0    0  501  0.00000000000E+00  0.00000000000E+00  0.10772306719E+04  0.10772306719E+04  0.50400001928E-02 0.  1.
        1   -1    0    0  501    0  0.00000000000E+00  0.00000000000E+00 -0.16906889568E+04  0.16906889568E+04  0.50400001928E-02 0. -1.
    10030    2    1    2    0    0  0.00000000000E+00  0.00000000000E+00 -0.61345828495E+03  0.27679196287E+04  0.26990828078E+04 0.  0.
        5    1    3    3  502    0  0.45684390151E+03 -0.67085602243E+03  0.79895501504E+03  0.11389053337E+04  0.46999998093E+01 0.  1.
       -5    1    3    3    0  502 -0.45684390151E+03  0.67085602243E+03 -0.14124133000E+04  0.16290142950E+04  0.46999998093E+01 0. -1.
</event>
<event>
 5   0  0.9971923E-06  0.2637474E+04  0.7818609E-02  0.8355582E-01
        1   -1    0    0  501    0  0.00000000000E+00  0.00000000000E+00  0.16719053532E+04  0.16719053532E+04  0.50400001928E-02 0.  1.
       -1   -1    0    0    0  501  0.00000000000E+00  0.00000000000E+00 -0.10401707748E+04  0.10401707748E+04  0.50400001928E-02 0. -1.
    10030    2    1    2    0    0  0.00000000000E+00  0.00000000000E+00  0.63173457846E+03  0.27120761280E+04  0.26374738570E+04 0.  0.
        2    1    3    3  502    0 -0.40453109710E+02 -0.12506913588E+04 -0.11207958618E+03  0.12563547121E+04  0.25500000920E-02 0. -1.
       -2    1    3    3    0  502  0.40453109710E+02  0.12506913588E+04  0.74381416464E+03  0.14557214159E+04  0.25500000920E-02 0.  1.
</event>
<event>
 5   0  0.1041909E-05  0.2663113E+04  0.7818609E-02  0.8347074E-01
        1   -1    0    0  501    0  0.00000000000E+00  0.00000000000E+00  0.19585101899E+04  0.19585101899E+04  0.50400001928E-02 0.  1.
       -1   -1    0    0    0  501  0.00000000000E+00  0.00000000000E+00 -0.90530203654E+03  0.90530203656E+03  0.50400001928E-02 0. -1.
    10030    2    1    2    0    0  0.00000000000E+00  0.00000000000E+00  0.10532081533E+04  0.28638122264E+04  0.26631134137E+04 0.  0.
        5    1    3    3  502    0 -0.60128975448E+03  0.42257321272E+03 -0.66743750772E+03  0.99278013964E+03  0.46999998093E+01 0. -1.
       -5    1    3    3    0  502  0.60128975448E+03 -0.42257321272E+03  0.17206456610E+04  0.18710320868E+04  0.46999998093E+01 0.  1.
</event>
<event>
 5   0  0.2540684E-05  0.2727965E+04  0.7818609E-02  0.8325988E-01
       -2   -1    0    0    0  501  0.00000000000E+00  0.00000000000E+00  0.21846946327E+04  0.21846946327E+04  0.25500000920E-02 0.  1.
        2   -1    0    0  501    0  0.00000000000E+00  0.00000000000E+00 -0.85158245184E+03  0.85158245184E+03  0.25500000920E-02 0. -1.
    10030    2    1    2    0    0  0.00000000000E+00  0.00000000000E+00  0.13331121808E+04  0.30362770845E+04  0.27279645245E+04 0.  0.
        2    1    3    3  502    0  0.12624553514E+04  0.47800892414E+03  0.44912793740E+03  0.14226742249E+04  0.25500000920E-02 0.  1.
       -2    1    3    3    0  502 -0.12624553514E+04 -0.47800892414E+03  0.88398424342E+03  0.16136028596E+04  0.25500000920E-02 0. -1.
</event>
<event>
 5   0  0.2540232E-05  0.2702642E+04  0.7818609E-02  0.8334148E-01
        2   -1    0    0  501    0  0.00000000000E+00  0.00000000000E+00  0.22523599622E+04  0.22523599622E+04  0.25500000920E-02 0.  1.
       -2   -1    0    0    0  501  0.00000000000E+00  0.00000000000E+00 -0.81073537722E+03  0.81073537723E+03  0.25500000920E-02 0. -1.
    10030    2    1    2    0    0  0.00000000000E+00  0.00000000000E+00  0.14416245850E+04  0.30630953395E+04  0.27026415994E+04 0.  0.
        1    1    3    3  502    0  0.31499557219E+03  0.22899932527E+03 -0.74575607591E+03  0.84131743489E+03  0.50400001928E-02 0. -1.
       -1    1    3    3    0  502 -0.31499557219E+03 -0.22899932527E+03  0.21873806609E+04  0.22217779046E+04  0.50400001928E-02 0.  1.
</event>
<event>
 5   0  0.2540232E-05  0.2692618E+04  0.7818609E-02  0.8337404E-01
       -2   -1    0    0    0  501  0.00000000000E+00  0.00000000000E+00  0.16099055567E+04  0.16099055567E+04  0.25500000920E-02 0. -1.
        2   -1    0    0  501    0  0.00000000000E+00  0.00000000000E+00 -0.11258719366E+04  0.11258719366E+04  0.25500000920E-02 0.  1.
    10030    2    1    2    0    0  0.00000000000E+00  0.00000000000E+00  0.48403362009E+03  0.27357774933E+04  0.26926176757E+04 0.  0.
        1    1    3    3  502    0 -0.11167116446E+04  0.62055992776E+02 -0.51943004451E+03  0.12331680399E+04  0.50400001928E-02 0.  1.
       -1    1    3    3    0  502  0.11167116446E+04 -0.62055992776E+02  0.10034636646E+04  0.15026094535E+04  0.50400001928E-02 0. -1.
</event>
<event>
 5   0  0.2615843E-05  0.2478123E+04  0.7818609E-02  0.8410821E-01
       -2   -1    0    0    0  501  0.00000000000E+00  0.00000000000E+00  0.13529854855E+04  0.13529854855E+04  0.25500000920E-02 0. -1.
        2   -1    0    0  501    0  0.00000000000E+00  0.00000000000E+00 -0.11347304980E+04  0.11347304980E+04  0.25500000920E-02 0.  1.
    10030    2    1    2    0    0  0.00000000000E+00  0.00000000000E+00  0.21825498759E+03  0.24877159835E+04  0.24781233979E+04 0.  0.
        3    1    3    3  502    0 -0.52780670080E+00 -0.21707361828E+03  0.13337482306E+04  0.13512977419E+04  0.10100000352E+00 0. -1.
       -3    1    3    3    0  502  0.52780670080E+00  0.21707361828E+03 -0.11154932431E+04  0.11364182416E+04  0.10100000352E+00 0.  1.
</event>
<event>
 5   0  0.1036691E-05  0.2651153E+04  0.7818609E-02  0.8351030E-01
       -1   -1    0    0    0  501  0.00000000000E+00  0.00000000000E+00  0.83715717206E+03  0.83715717207E+03  0.50400001928E-02 0.  1.
        1   -1    0    0  501    0  0.00000000000E+00  0.00000000000E+00 -0.20989524623E+04  0.20989524623E+04  0.50400001928E-02 0. -1.
    10030    2    1    2    0    0  0.00000000000E+00  0.00000000000E+00 -0.12617952902E+04  0.29361096343E+04  0.26511530379E+04 0.  0.
        4    1    3    3  502    0  0.51359681342E+03 -0.43386579804E+03  0.63431755958E+03  0.92432764578E+03  0.12699999809E+01 0.  1.
       -4    1    3    3    0  502 -0.51359681342E+03  0.43386579804E+03 -0.18961128498E+04  0.20117819886E+04  0.12699999809E+01 0. -1.
</event>
<event>
 5   0  0.2540232E-05  0.2497590E+04  0.7818609E-02  0.8403845E-01
       -2   -1    0    0    0  501  0.00000000000E+00  0.00000000000E+00  0.13694201542E+04  0.13694201542E+04  0.25500000920E-02 0. -1.
        2   -1    0    0  501    0  0.00000000000E+00  0.00000000000E+00 -0.11387950322E+04  0.11387950322E+04  0.25500000920E-02 0.  1.
    10030    2    1    2    0    0  0.00000000000E+00  0.00000000000E+00  0.23062512204E+03  0.25082151864E+04  0.24975899332E+04 0.  0.
        1    1    3    3  502    0  0.10560315619E+04  0.45593192290E+02  0.78312836881E+03  0.13155118551E+04  0.50400001928E-02 0. -1.
       -1    1    3    3    0  502 -0.10560315619E+04 -0.45593192290E+02 -0.55250324676E+03  0.11927033313E+04  0.50400001928E-02 0.  1.
</event>
<event>
 5   0  0.9971923E-06  0.2704013E+04  0.7818609E-02  0.8333704E-01
        1   -1    0    0  501    0  0.00000000000E+00  0.00000000000E+00  0.83641794541E+03  0.83641794543E+03  0.50400001928E-02 0.  1.
       -1   -1    0    0    0  501  0.00000000000E+00  0.00000000000E+00 -0.21854166184E+04  0.21854166184E+04  0.50400001928E-02 0. -1.
    10030    2    1    2    0    0  0.00000000000E+00  0.00000000000E+00 -0.13489986730E+04  0.30218345638E+04  0.27040130753E+04 0.  0.
        2    1    3    3  502    0  0.51993863145E+03  0.77588332978E+03  0.41794123696E+03  0.10232331110E+04  0.25500000920E-02 0.  1.
       -2    1    3    3    0  502 -0.51993863145E+03 -0.77588332978E+03 -0.17669399099E+04  0.19986014528E+04  0.25500000920E-02 0. -1.
</event>
<event>
 5   0  0.2641216E-05  0.2695361E+04  0.7818609E-02  0.8336512E-01
        2   -1    0    0  501    0  0.00000000000E+00  0.00000000000E+00  0.16236955258E+04  0.16236955258E+04  0.25500000920E-02 0.  1.
       -2   -1    0    0    0  501  0.00000000000E+00  0.00000000000E+00 -0.11185859473E+04  0.11185859473E+04  0.25500000920E-02 0. -1.
    10030    2    1    2    0    0  0.00000000000E+00  0.00000000000E+00  0.50510957845E+03  0.27422814731E+04  0.26953611987E+04 0.  0.
        5    1    3    3  502    0 -0.13391154399E+04 -0.13464771941E+03  0.18162214103E+03  0.13580754256E+04  0.46999998093E+01 0. -1.
       -5    1    3    3    0  502  0.13391154399E+04  0.13464771941E+03  0.32348743742E+03  0.13842060474E+04  0.46999998093E+01 0.  1.
</event>
<event>
 5   0  0.2615843E-05  0.2754550E+04  0.7818609E-02  0.8317519E-01
        2   -1    0    0  501    0  0.00000000000E+00  0.00000000000E+00  0.16775611558E+04  0.16775611558E+04  0.25500000920E-02 0.  1.
       -2   -1    0    0    0  501  0.00000000000E+00  0.00000000000E+00 -0.11307403110E+04  0.11307403110E+04  0.25500000920E-02 0. -1.
    10030    2    1    2    0    0  0.00000000000E+00  0.00000000000E+00  0.54682084480E+03  0.28083014668E+04  0.27545497077E+04 0.  0.
        3    1    3    3  502    0  0.90948787791E+03 -0.38364024061E+02  0.13271389878E+04  0.16093284008E+04  0.10100000352E+00 0.  1.
       -3    1    3    3    0  502 -0.90948787791E+03  0.38364024061E+02 -0.78031814301E+03  0.11989730660E+04  0.10100000352E+00 0. -1.
</event>
<event>
 5   0  0.9971923E-06  0.1715218E+04  0.7818609E-02  0.8752732E-01
       -1   -1    0    0    0  501  0.00000000000E+00  0.00000000000E+00  0.63136875750E+03  0.63136875752E+03  0.50400001928E-02 0. -1.
        1   -1    0    0  501    0  0.00000000000E+00  0.00000000000E+00 -0.11649186657E+04  0.11649186657E+04  0.50400001928E-02 0.  1.
    10030    2    1    2    0    0  0.00000000000E+00  0.00000000000E+00 -0.53354990816E+03  0.17962874232E+04  0.17152180626E+04 0.  0.
        2    1    3    3  502    0 -0.10888534321E+03 -0.20232565976E+03 -0.11320853777E+04  0.11551662187E+04  0.25500000920E-02 0.  1.
       -2    1    3    3    0  502  0.10888534321E+03  0.20232565976E+03  0.59853546950E+03  0.64112120447E+03  0.25500000920E-02 0. -1.
</event>
<event>
 5   0  0.9971923E-06  0.2727990E+04  0.7818609E-02  0.8325980E-01
       -1   -1    0    0    0  501  0.00000000000E+00  0.00000000000E+00  0.12984365071E+04  0.12984365071E+04  0.50400001928E-02 0. -1.
        1   -1    0    0  501    0  0.00000000000E+00  0.00000000000E+00 -0.14328632014E+04  0.14328632015E+04  0.50400001928E-02 0.  1.
    10030    2    1    2    0    0  0.00000000000E+00  0.00000000000E+00 -0.13442669433E+03  0.27312997086E+04  0.27279896558E+04 0.  0.
        2    1    3    3  502    0  0.12822585386E+04  0.23952665759E+03 -0.46634716714E+03  0.13852940698E+04  0.25500000920E-02 0.  1.
       -2    1    3    3    0  502 -0.12822585386E+04 -0.23952665759E+03  0.33192047281E+03  0.13460056388E+04  0.25500000920E-02 0. -1.
</event>
<event>
 5   0  0.1041909E-05  0.2749698E+04  0.7818609E-02  0.8319058E-01
       -1   -1    0    0    0  501  0.00000000000E+00  0.00000000000E+00  0.84613275530E+03  0.84613275531E+03  0.50400001928E-02 0.  1.
        1   -1    0    0  501    0  0.00000000000E+00  0.00000000000E+00 -0.22339395491E+04  0.22339395491E+04  0.50400001928E-02 0. -1.
    10030    2    1    2    0    0  0.00000000000E+00  0.00000000000E+00 -0.13878067938E+04  0.30800723044E+04  0.27496977477E+04 0.  0.
        5    1    3    3  502    0  0.36506649928E+03  0.70898184806E+03  0.56059319176E+03  0.97479004222E+03  0.46999998093E+01 0.  1.
       -5    1    3    3    0  502 -0.36506649928E+03 -0.70898184806E+03 -0.19483999856E+04  0.21052822622E+04  0.46999998093E+01 0. -1.
</event>
<event>
 5   0  0.2540684E-05  0.2557907E+04  0.7818609E-02  0.8382642E-01
        2   -1    0    0  501    0  0.00000000000E+00  0.00000000000E+00  0.30717300648E+04  0.30717300648E+04  0.25500000920E-02 0.  1.
       -2   -1    0    0    0  501  0.00000000000E+00  0.00000000000E+00 -0.53250822183E+03  0.53250822184E+03  0.25500000920E-02 0. -1.
    10030    2    1    2    0    0  0.00000000000E+00  0.00000000000E+00  0.25392218430E+04  0.36042382867E+04  0.25579065775E+04 0.  0.
        2    1    3    3  502    0 -0.88275040149E+03 -0.21777890961E+03  0.22062180001E+01  0.90921988111E+03  0.25500000920E-02 0. -1.
       -2    1    3    3    0  502  0.88275040149E+03  0.21777890961E+03  0.25370156250E+04  0.26950184055E+04  0.25500000920E-02 0.  1.
</event>
<event>
 5   0  0.2540684E-05  0.1953081E+04  0.7818609E-02  0.8628877E-01
       -2   -1    0    0    0  501  0.00000000000E+00  0.00000000000E+00  0.50653528055E+03  0.50653528056E+03  0.25500000920E-02 0.  1.
        2   -1    0    0  501    0  0.00000000000E+00  0.00000000000E+00 -0.18826546025E+04  0.18826546025E+04  0.25500000920E-02 0. -1.
    10030    2    1    2    0    0  0.00000000000E+00  0.00000000000E+00 -0.13761193219E+04  0.23891898830E+04  0.19530806202E+04 0.  0.
        2    1    3    3  502    0  0.29842553862E+03 -0.54718200862E+03  0.23158093705E+03  0.66490276212E+03  0.25500000920E-02 0.  1.
       -2    1    3    3    0  502 -0.29842553862E+03  0.54718200862E+03 -0.16077002590E+04  0.17242871209E+04  0.25500000920E-02 0. -1.
</event>
<event>
 5   0  0.1005265E-05  0.2208041E+04  0.7818609E-02  0.8515089E-01
       -1   -1    0    0    0  501  0.00000000000E+00  0.00000000000E+00  0.11323548278E+04  0.11323548278E+04  0.50400001928E-02 0. -1.
        1   -1    0    0  501    0  0.00000000000E+00  0.00000000000E+00 -0.10763953048E+04  0.10763953048E+04  0.50400001928E-02 0.  1.
    10030    2    1    2    0    0  0.00000000000E+00  0.00000000000E+00  0.55959522966E+02  0.22087501327E+04  0.22080411410E+04 0.  0.
        3    1    3    3  502    0  0.23537712426E+03  0.78267728549E+03 -0.71446829041E+03  0.10855648631E+04  0.10100000352E+00 0.  1.
       -3    1    3    3    0  502 -0.23537712426E+03 -0.78267728549E+03  0.77042781338E+03  0.11231852695E+04  0.10100000352E+00 0. -1.
</event>
<event>
 5   0  0.2516518E-05  0.2455636E+04  0.7818609E-02  0.8418963E-01
       -2   -1    0    0    0  501  0.00000000000E+00  0.00000000000E+00  0.11231177114E+04  0.11231177114E+04  0.25500000920E-02 0. -1.
        2   -1    0    0  501    0  0.00000000000E+00  0.00000000000E+00 -0.13422791627E+04  0.13422791627E+04  0.25500000920E-02 0.  1.
    10030    2    1    2    0    0  0.00000000000E+00  0.00000000000E+00 -0.21916145130E+03  0.24653968741E+04  0.24556363748E+04 0.  0.
        4    1    3    3  502    0 -0.88607142428E+03 -0.81631418757E+03  0.12809736692E+03  0.12115700434E+04  0.12699999809E+01 0. -1.
       -4    1    3    3    0  502  0.88607142428E+03  0.81631418757E+03 -0.34725881822E+03  0.12538268307E+04  0.12699999809E+01 0.  1.
</event>
<event>
 5   0  0.1096672E-05  0.2723831E+04  0.7818609E-02  0.8327314E-01
       -1   -1    0    0    0  501  0.00000000000E+00  0.00000000000E+00  0.12265335799E+04  0.12265335799E+04  0.50400001928E-02 0.  1.
        1   -1    0    0  501    0  0.00000000000E+00  0.00000000000E+00 -0.15122409577E+04  0.15122409577E+04  0.50400001928E-02 0. -1.
    10030    2    1    2    0    0  0.00000000000E+00  0.00000000000E+00 -0.28570737774E+03  0.27387745376E+04  0.27238313571E+04 0.  0.
        1    1    3    3  502    0  0.22196094418E+03 -0.54817829411E+03 -0.13763881093E+04  0.14980688670E+04  0.50400001928E-02 0. -1.
       -1    1    3    3    0  502 -0.22196094418E+03  0.54817829411E+03  0.10906807316E+04  0.12407056706E+04  0.50400001928E-02 0.  1.
</event>
<event>
 5   0  0.2540684E-05  0.2438732E+04  0.7818609E-02  0.8425144E-01
        2   -1    0    0  501    0  0.00000000000E+00  0.00000000000E+00  0.93840641030E+03  0.93840641030E+03  0.25500000920E-02 0.  1.
       -2   -1    0    0    0  501  0.00000000000E+00  0.00000000000E+00 -0.15844452612E+04  0.15844452612E+04  0.25500000920E-02 0. -1.
    10030    2    1    2    0    0  0.00000000000E+00  0.00000000000E+00 -0.64603885093E+03  0.25228516715E+04  0.24387321213E+04 0.  0.
        2    1    3    3  502    0  0.10812406348E+04  0.21440007919E+03 -0.86235149910E+03  0.13995352130E+04  0.25500000920E-02 0. -1.
       -2    1    3    3    0  502 -0.10812406348E+04 -0.21440007919E+03  0.21631264817E+03  0.11233164586E+04  0.25500000920E-02 0.  1.
</event>
<event>
 5   0  0.1005265E-05  0.2334041E+04  0.7818609E-02  0.8464619E-01
       -1   -1    0    0    0  501  0.00000000000E+00  0.00000000000E+00  0.99169310574E+03  0.99169310575E+03  0.50400001928E-02 0. -1.
        1   -1    0    0  501    0  0.00000000000E+00  0.00000000000E+00 -0.13733447552E+04  0.13733447552E+04  0.50400001928E-02 0.  1.
    10030    2    1    2    0    0  0.00000000000E+00  0.00000000000E+00 -0.38165164950E+03  0.23650378610E+04  0.23340407242E+04 0.  0.
        3    1    3    3  502    0 -0.62844646231E+03  0.94588298454E+03 -0.46327758812E+03  0.12264851040E+04  0.10100000352E+00 0. -1.
       -3    1    3    3    0  502  0.62844646231E+03 -0.94588298454E+03  0.81625938623E+02  0.11385527570E+04  0.10100000352E+00 0.  1.
</event>
<event>
 5   0  0.2540232E-05  0.2787501E+04  0.7818609E-02  0.8307159E-01
       -2   -1    0    0    0  501  0.00000000000E+00  0.00000000000E+00  0.83935071356E+03  0.83935071356E+03  0.25500000920E-02 0. -1.
        2   -1    0    0  501    0  0.00000000000E+00  0.00000000000E+00 -0.23143377550E+04  0.23143377550E+04  0.25500000920E-02 0.  1.
    10030    2    1    2    0    0  0.00000000000E+00  0.00000000000E+00 -0.14749870414E+04  0.31536884685E+04  0.27875014232E+04 0.  0.
        1    1    3    3  502    0  0.59949270752E+03 -0.87721057517E+02  0.68256627673E+03  0.91267913992E+03  0.50400001928E-02 0. -1.
       -1    1    3    3    0  502 -0.59949270752E+03  0.87721057517E+02 -0.21575533181E+04  0.22410093286E+04  0.50400001928E-02 0.  1.
</event>
<event>
 5   0  0.2641216E-05  0.2557796E+04  0.7818609E-02  0.8382680E-01
       -2   -1    0    0    0  501  0.00000000000E+00  0.00000000000E+00  0.11784494477E+04  0.11784494477E+04  0.25500000920E-02 0.  1.
        2   -1    0    0  501    0  0.00000000000E+00  0.00000000000E+00 -0.13879087925E+04  0.13879087925E+04  0.25500000920E-02 0. -1.
    10030    2    1    2    0    0  0.00000000000E+00  0.00000000000E+00 -0.20945934487E+03  0.25663582402E+04  0.25577961998E+04 0.  0.
        5    1    3    3  502    0  0.47194539586E+03 -0.82989855731E+03  0.74905602014E+03  0.12134953990E+04  0.46999998093E+01 0.  1.
       -5    1    3    3    0  502 -0.47194539586E+03  0.82989855731E+03 -0.95851536501E+03  0.13528628412E+04  0.46999998093E+01 0. -1.
</event>
<event>
 5   0  0.1096672E-05  0.2718503E+04  0.7818609E-02  0.8329026E-01
       -1   -1    0    0    0  501  0.00000000000E+00  0.00000000000E+00  0.99074635133E+03  0.99074635134E+03  0.50400001928E-02 0.  1.
        1   -1    0    0  501    0  0.00000000000E+00  0.00000000000E+00 -0.18648212524E+04  0.18648212524E+04  0.50400001928E-02 0. -1.
    10030    2    1    2    0    0  0.00000000000E+00  0.00000000000E+00 -0.87407490104E+03  0.28555676037E+04  0.27185031556E+04 0.  0.
        1    1    3    3  502    0  0.29032416288E+03 -0.41764482648E+03 -0.17610862439E+04  0.18330684873E+04  0.50400001928E-02 0. -1.
       -1    1    3    3    0  502 -0.29032416288E+03  0.41764482648E+03  0.88701134288E+03  0.10224991164E+04  0.50400001928E-02 0.  1.
</event>
<event>
 5   0  0.1036691E-05  0.2651136E+04  0.7818609E-02  0.8351036E-01
        1   -1    0    0  501    0  0.00000000000E+00  0.00000000000E+00  0.12426829013E+04  0.12426829013E+04  0.50400001928E-02 0. -1.
       -1   -1    0    0    0  501  0.00000000000E+00  0.00000000000E+00 -0.14139810205E+04  0.14139810206E+04  0.50400001928E-02 0.  1.
    10030    2    1    2    0    0  0.00000000000E+00  0.00000000000E+00 -0.17129811923E+03  0.26566639219E+04  0.26511356337E+04 0.  0.
        4    1    3    3  502    0 -0.85087001809E+03 -0.58613192749E+03 -0.91780107159E+03  0.13819880043E+04  0.12699999809E+01 0.  1.
       -4    1    3    3    0  502  0.85087001809E+03  0.58613192749E+03  0.74650295236E+03  0.12746759176E+04  0.12699999809E+01 0. -1.
</event>
<event>
 5   0  0.1036691E-05  0.2713703E+04  0.7818609E-02  0.8330573E-01
        1   -1    0    0  501    0  0.00000000000E+00  0.00000000000E+00  0.24903716325E+04  0.24903716325E+04  0.50400001928E-02 0. -1.
       -1   -1    0    0    0  501  0.00000000000E+00  0.00000000000E+00 -0.73926544149E+03  0.73926544150E+03  0.50400001928E-02 0.  1.
    10030    2    1    2    0    0  0.00000000000E+00  0.00000000000E+00  0.17511061910E+04  0.32296370740E+04  0.27137027725E+04 0.  0.
        4    1    3    3  502    0 -0.49782197797E+03 -0.12620475168E+04  0.85021118056E+03  0.16010781745E+04  0.12699999809E+01 0.  1.
       -4    1    3    3    0  502  0.49782197797E+03  0.12620475168E+04  0.90089501043E+03  0.16285588995E+04  0.12699999809E+01 0. -1.
</event>
<event>
 5   0  0.2540684E-05  0.2754912E+04  0.7818609E-02  0.8317405E-01
       -2   -1    0    0    0  501  0.00000000000E+00  0.00000000000E+00  0.16272610590E+04  0.16272610590E+04  0.25500000920E-02 0. -1.
        2   -1    0    0  501    0  0.00000000000E+00  0.00000000000E+00 -0.11659989109E+04  0.11659989109E+04  0.25500000920E-02 0.  1.
    10030    2    1    2    0    0  0.00000000000E+00  0.00000000000E+00  0.46126214815E+03  0.27932599699E+04  0.27549117028E+04 0.  0.
        2    1    3    3  502    0 -0.20150505513E+03 -0.21497212197E+03 -0.11336724864E+04  0.11713371022E+04  0.25500000920E-02 0.  1.
       -2    1    3    3    0  502  0.20150505513E+03  0.21497212197E+03  0.15949346346E+04  0.16219228678E+04  0.25500000920E-02 0. -1.
</event>
<event>
 5   0  0.2540684E-05  0.2580692E+04  0.7818609E-02  0.8374789E-01
        2   -1    0    0  501    0  0.00000000000E+00  0.00000000000E+00  0.18736562423E+04  0.18736562423E+04  0.25500000920E-02 0. -1.
       -2   -1    0    0    0  501  0.00000000000E+00  0.00000000000E+00 -0.88863292452E+03  0.88863292452E+03  0.25500000920E-02 0.  1.
    10030    2    1    2    0    0  0.00000000000E+00  0.00000000000E+00  0.98502331780E+03  0.27622891668E+04  0.25806918655E+04 0.  0.
        2    1    3    3  502    0  0.12584852797E+02 -0.82662959552E+03 -0.56791849430E+03  0.10029986455E+04  0.25500000920E-02 0.  1.
       -2    1    3    3    0  502 -0.12584852797E+02  0.82662959552E+03  0.15529418121E+04  0.17592905213E+04  0.25500000920E-02 0. -1.
</event>
<event>
 5   0  0.2516518E-05  0.2497922E+04  0.7818609E-02  0.8403726E-01
       -2   -1    0    0    0  501  0.00000000000E+00  0.00000000000E+00  0.88078388277E+03  0.88078388278E+03  0.25500000920E-02 0. -1.
        2   -1    0    0  501    0  0.00000000000E+00  0.00000000000E+00 -0.17710394085E+04  0.17710394085E+04  0.25500000920E-02 0.  1.
    10030    2    1    2    0    0  0.00000000000E+00  0.00000000000E+00 -0.89025552575E+03  0.26518232913E+04  0.24979215094E+04 0.  0.
        4    1    3    3  502    0  0.84356846568E+03  0.65282747144E+03 -0.11348568749E+04  0.15574637084E+04  0.12699999809E+01 0.  1.
       -4    1    3    3    0  502 -0.84356846568E+03 -0.65282747144E+03  0.24460134910E+03  0.10943595829E+04  0.12699999809E+01 0. -1.
</event>
<event>
 5   0  0.2641216E-05  0.2719380E+04  0.7818609E-02  0.8328744E-01
        2   -1    0    0  501    0  0.00000000000E+00  0.00000000000E+00  0.14091139560E+04  0.14091139560E+04  0.25500000920E-02 0.  1.
       -2   -1    0    0    0  501  0.00000000000E+00  0.00000000000E+00 -0.13119992243E+04  0.13119992243E+04  0.25500000920E-02 0. -1.
    10030    2    1    2    0    0  0.00000000000E+00  0.00000000000E+00  0.97114731700E+02  0.27211131803E+04  0.27193796478E+04 0.  0.
        5    1    3    3  502    0  0.90986366971E+03  0.97226512906E+03 -0.22654142279E+03  0.13507384961E+04  0.46999998093E+01 0. -1.
       -5    1    3    3    0  502 -0.90986366971E+03 -0.97226512906E+03  0.32365615449E+03  0.13703746842E+04  0.46999998093E+01 0.  1.
</event>
<event>
 5   0  0.2540684E-05  0.2796228E+04  0.7818609E-02  0.8304440E-01
        2   -1    0    0  501    0  0.00000000000E+00  0.00000000000E+00  0.14170149963E+04  0.14170149963E+04  0.25500000920E-02 0.  1.
       -2   -1    0    0    0  501  0.00000000000E+00  0.00000000000E+00 -0.13794649118E+04  0.13794649118E+04  0.25500000920E-02 0. -1.
    10030    2    1    2    0    0  0.00000000000E+00  0.00000000000E+00  0.37550084557E+02  0.27964799081E+04  0.27962277925E+04 0.  0.
        2    1    3    3  502    0 -0.43495298921E+03 -0.94204788688E+02 -0.13067364090E+04  0.13804414828E+04  0.25500000920E-02 0. -1.
       -2    1    3    3    0  502  0.43495298921E+03  0.94204788688E+02  0.13442864935E+04  0.14160384252E+04  0.25500000920E-02 0.  1.
</event>
<event>
 5   0  0.2540232E-05  0.2769715E+04  0.7818609E-02  0.8312733E-01
       -2   -1    0    0    0  501  0.00000000000E+00  0.00000000000E+00  0.10992674449E+04  0.10992674449E+04  0.25500000920E-02 0. -1.
        2   -1    0    0  501    0  0.00000000000E+00  0.00000000000E+00 -0.17446434210E+04  0.17446434210E+04  0.25500000920E-02 0.  1.
    10030    2    1    2    0    0  0.00000000000E+00  0.00000000000E+00 -0.64537597614E+03  0.28439108659E+04  0.27697145815E+04 0.  0.
        1    1    3    3  502    0 -0.85116687198E+03  0.10631018360E+04 -0.58073517514E+03  0.14805147420E+04  0.50400001928E-02 0.  1.
       -1    1    3    3    0  502  0.85116687198E+03 -0.10631018360E+04 -0.64640800996E+02  0.13633961239E+04  0.50400001928E-02 0. -1.
</event>
<event>
 5   0  0.2516518E-05  0.2663520E+04  0.7818609E-02  0.8346939E-01
       -2   -1    0    0    0  501  0.00000000000E+00  0.00000000000E+00  0.10587286015E+04  0.10587286015E+04  0.25500000920E-02 0. -1.
        2   -1    0    0  501    0  0.00000000000E+00  0.00000000000E+00 -0.16752027134E+04  0.16752027134E+04  0.25500000920E-02 0.  1.
    10030    2    1    2    0    0  0.00000000000E+00  0.00000000000E+00 -0.61647411190E+03  0.27339313148E+04  0.26635202465E+04 0.  0.
        4    1    3    3  502    0  0.10482074783E+04 -0.80646752230E+03 -0.14772333841E+03  0.13307714228E+04  0.12699999809E+01 0. -1.
       -4    1    3    3    0  502 -0.10482074783E+04  0.80646752230E+03 -0.46875077349E+03  0.14031598921E+04  0.12699999809E+01 0.  1.
</event>
<event>
 5   0  0.2516518E-05  0.1973915E+04  0.7818609E-02  0.8618914E-01
        2   -1    0    0  501    0  0.00000000000E+00  0.00000000000E+00  0.11310962131E+04  0.11310962131E+04  0.25500000920E-02 0.  1.
       -2   -1    0    0    0  501  0.00000000000E+00  0.00000000000E+00 -0.86118681605E+03  0.86118681605E+03  0.25500000920E-02 0. -1.
    10030    2    1    2    0    0  0.00000000000E+00  0.00000000000E+00  0.26990939709E+03  0.19922830292E+04  0.19739150402E+04 0.  0.
        4    1    3    3  502    0  0.43309623086E+03 -0.82357849743E+03 -0.19708934980E+03  0.95115703820E+03  0.12699999809E+01 0. -1.
       -4    1    3    3    0  502 -0.43309623086E+03  0.82357849743E+03  0.46699874689E+03  0.10411259910E+04  0.12699999809E+01 0.  1.
</event>
<event>
 5   0  0.2641216E-05  0.2684069E+04  0.7818609E-02  0.8340193E-01
        2   -1    0    0  501    0  0.00000000000E+00  0.00000000000E+00  0.19927704161E+04  0.19927704161E+04  0.25500000920E-02 0.  1.
       -2   -1    0    0    0  501  0.00000000000E+00  0.00000000000E+00 -0.90379508438E+03  0.90379508438E+03  0.25500000920E-02 0. -1.
    10030    2    1    2    0    0  0.00000000000E+00  0.00000000000E+00  0.10889753317E+04  0.28965655005E+04  0.26840686328E+04 0.  0.
        5    1    3    3  502    0  0.75809062439E+03  0.10045069639E+04  0.10475455760E+04  0.16374093743E+04  0.46999998093E+01 0.  1.
       -5    1    3    3    0  502 -0.75809062439E+03 -0.10045069639E+04  0.41429755719E+02  0.12591561261E+04  0.46999998093E+01 0. -1.
</event>
<event>
 5   0  0.1036691E-05  0.2690589E+04  0.7818609E-02  0.8338065E-01
       -1   -1    0    0    0  501  0.00000000000E+00  0.00000000000E+00  0.11192986974E+04  0.11192986975E+04  0.50400001928E-02 0.  1.
        1   -1    0    0  501    0  0.00000000000E+00  0.00000000000E+00 -0.16169204513E+04  0.16169204513E+04  0.50400001928E-02 0. -1.
    10030    2    1    2    0    0  0.00000000000E+00  0.00000000000E+00 -0.49762175389E+03  0.27362191488E+04  0.26905887498E+04 0.  0.
        4    1    3    3  502    0 -0.12768960319E+04  0.81727850592E+02 -0.67139682260E+03  0.14449630529E+04  0.12699999809E+01 0. -1.
       -4    1    3    3    0  502  0.12768960319E+04 -0.81727850592E+02  0.17377506871E+03  0.12912560959E+04  0.12699999809E+01 0.  1.
</event>
<event>
 5   0  0.2641216E-05  0.2649543E+04  0.7818609E-02  0.8351565E-01
       -2   -1    0    0    0  501  0.00000000000E+00  0.00000000000E+00  0.10716960218E+04  0.10716960218E+04  0.25500000920E-02 0.  1.
        2   -1    0    0  501    0  0.00000000000E+00  0.00000000000E+00 -0.16376088650E+04  0.16376088650E+04  0.25500000920E-02 0. -1.
    10030    2    1    2    0    0  0.00000000000E+00  0.00000000000E+00 -0.56591284320E+03  0.27093048868E+04  0.26495425310E+04 0.  0.
        5    1    3    3  502    0  0.97031184709E+03  0.20653110283E+03  0.61481992618E+03  0.11671271605E+04  0.46999998093E+01 0.  1.
       -5    1    3    3    0  502 -0.97031184709E+03 -0.20653110283E+03 -0.11807327694E+04  0.15421777264E+04  0.46999998093E+01 0. -1.
</event>
<event>
 5   0  0.2615843E-05  0.2691386E+04  0.7818609E-02  0.8337805E-01
       -2   -1    0    0    0  501  0.00000000000E+00  0.00000000000E+00  0.10148557817E+04  0.10148557817E+04  0.25500000920E-02 0. -1.
        2   -1    0    0  501    0  0.00000000000E+00  0.00000000000E+00 -0.17843814653E+04  0.17843814653E+04  0.25500000920E-02 0.  1.
    10030    2    1    2    0    0  0.00000000000E+00  0.00000000000E+00 -0.76952568358E+03  0.27992372470E+04  0.26913861461E+04 0.  0.
        3    1    3    3  502    0  0.12356291973E+04  0.47515182350E+03 -0.13354476698E+03  0.13305573958E+04  0.10100000352E+00 0. -1.
       -3    1    3    3    0  502 -0.12356291973E+04 -0.47515182350E+03 -0.63598091660E+03  0.14686798511E+04  0.10100000352E+00 0.  1.
</event>
<event>
 5   0  0.8740500E-06  0.2618419E+04  0.7818609E-02  0.8361971E-01
        4   -1    0    0  501    0  0.00000000000E+00  0.00000000000E+00  0.13512158109E+04  0.13512164077E+04  0.12699999809E+01 0.  1.
       -4   -1    0    0    0  501  0.00000000000E+00  0.00000000000E+00 -0.12685079935E+04  0.12685086292E+04  0.12699999809E+01 0. -1.
    10030    2    1    2    0    0  0.00000000000E+00  0.00000000000E+00  0.82707817384E+02  0.26197250370E+04  0.26184191197E+04 0.  0.
        4    1    3    3  502    0  0.86104165049E+03 -0.29770491530E+02 -0.94491106571E+03  0.12787249669E+04  0.12699999809E+01 0. -1.
       -4    1    3    3    0  502 -0.86104165049E+03  0.29770491530E+02  0.10276188831E+04  0.13410000700E+04  0.12699999809E+01 0.  1.
</event>
<event>
 5   0  0.1096672E-05  0.2761521E+04  0.7818609E-02  0.8315315E-01
       -1   -1    0    0    0  501  0.00000000000E+00  0.00000000000E+00  0.11725925627E+04  0.11725925627E+04  0.50400001928E-02 0. -1.
        1   -1    0    0  501    0  0.00000000000E+00  0.00000000000E+00 -0.16258837207E+04  0.16258837207E+04  0.50400001928E-02 0.  1.
    10030    2    1    2    0    0  0.00000000000E+00  0.00000000000E+00 -0.45329115804E+03  0.27984762835E+04  0.27615207106E+04 0.  0.
        1    1    3    3  502    0  0.17820939103E+02 -0.39883280642E+03 -0.15661185166E+04  0.16162030818E+04  0.50400001928E-02 0.  1.
       -1    1    3    3    0  502 -0.17820939103E+02  0.39883280642E+03  0.11128273586E+04  0.11822732017E+04  0.50400001928E-02 0. -1.
</event>
<event>
 5   0  0.1041909E-05  0.2649205E+04  0.7818609E-02  0.8351677E-01
        1   -1    0    0  501    0  0.00000000000E+00  0.00000000000E+00  0.15078444371E+04  0.15078444371E+04  0.50400001928E-02 0. -1.
       -1   -1    0    0    0  501  0.00000000000E+00  0.00000000000E+00 -0.11636289305E+04  0.11636289306E+04  0.50400001928E-02 0.  1.
    10030    2    1    2    0    0  0.00000000000E+00  0.00000000000E+00  0.34421550653E+03  0.26714733676E+04  0.26492047182E+04 0.  0.
        5    1    3    3  502    0 -0.12873386891E+03  0.11933071865E+04  0.73717040745E+03  0.14085441952E+04  0.46999998093E+01 0. -1.
       -5    1    3    3    0  502  0.12873386891E+03 -0.11933071865E+04 -0.39295490092E+03  0.12629291724E+04  0.46999998093E+01 0.  1.
</event>
<event>
 5   0  0.1041909E-05  0.2667308E+04  0.7818609E-02  0.8345691E-01
        1   -1    0    0  501    0  0.00000000000E+00  0.00000000000E+00  0.23652321259E+04  0.23652321259E+04  0.50400001928E-02 0. -1.
       -1   -1    0    0    0  501  0.00000000000E+00  0.00000000000E+00 -0.75199077855E+03  0.75199077857E+03  0.50400001928E-02 0.  1.
    10030    2    1    2    0    0  0.00000000000E+00  0.00000000000E+00  0.16132413474E+04  0.31172229045E+04  0.26673078171E+04 0.  0.
        5    1    3    3  502    0  0.40726187214E+03  0.69340417267E+03  0.20500074599E+04  0.22020954236E+04  0.46999998093E+01 0. -1.
       -5    1    3    3    0  502 -0.40726187214E+03 -0.69340417267E+03 -0.43676611252E+03  0.91512748086E+03  0.46999998093E+01 0.  1.
</event>
<event>
 5   0  0.2540232E-05  0.2645180E+04  0.7818609E-02  0.8353015E-01
        2   -1    0    0  501    0  0.00000000000E+00  0.00000000000E+00  0.18148040065E+04  0.18148040065E+04  0.25500000920E-02 0. -1.
       -2   -1    0    0    0  501  0.00000000000E+00  0.00000000000E+00 -0.96387497363E+03  0.96387497363E+03  0.25500000920E-02 0.  1.
    10030    2    1    2    0    0  0.00000000000E+00  0.00000000000E+00  0.85092903288E+03  0.27786789801E+04  0.26451798910E+04 0.  0.
        1    1    3    3  502    0  0.45103642094E+03  0.10526997732E+04  0.11203903264E+04  0.16021501644E+04  0.50400001928E-02 0. -1.
       -1    1    3    3    0  502 -0.45103642094E+03 -0.10526997732E+04 -0.26946129355E+03  0.11765288158E+04  0.50400001928E-02 0.  1.
</event>
<event>
 5   0  0.2540232E-05  0.2783823E+04  0.7818609E-02  0.8308308E-01
        2   -1    0    0  501    0  0.00000000000E+00  0.00000000000E+00  0.15505251043E+04  0.15505251043E+04  0.25500000920E-02 0.  1.
       -2   -1    0    0    0  501  0.00000000000E+00  0.00000000000E+00 -0.12495232994E+04  0.12495232994E+04  0.25500000920E-02 0. -1.
    10030    2    1    2    0    0  0.00000000000E+00  0.00000000000E+00  0.30100180490E+03  0.28000484037E+04  0.27838227272E+04 0.  0.
        1    1    3    3  502    0  0.14352104322E+03 -0.49982018384E+03 -0.11481475382E+04  0.12604210707E+04  0.50400001928E-02 0. -1.
       -1    1    3    3    0  502 -0.14352104322E+03  0.49982018384E+03  0.14491493431E+04  0.15396273330E+04  0.50400001928E-02 0.  1.
</event>
<event>
 5   0  0.1036691E-05  0.2728613E+04  0.7818609E-02  0.8325780E-01
       -1   -1    0    0    0  501  0.00000000000E+00  0.00000000000E+00  0.14781187549E+04  0.14781187549E+04  0.50400001928E-02 0.  1.
        1   -1    0    0  501    0  0.00000000000E+00  0.00000000000E+00 -0.12592575631E+04  0.12592575631E+04  0.50400001928E-02 0. -1.
    10030    2    1    2    0    0  0.00000000000E+00  0.00000000000E+00  0.21886119178E+03  0.27373763180E+04  0.27286129966E+04 0.  0.
        4    1    3    3  502    0  0.11150537533E+03  0.10495184041E+04 -0.75787373376E+03  0.12993446573E+04  0.12699999809E+01 0. -1.
       -4    1    3    3    0  502 -0.11150537533E+03 -0.10495184041E+04  0.97673492553E+03  0.14380316606E+04  0.12699999809E+01 0.  1.
</event>
<event>
 5   0  0.2540684E-05  0.2775810E+04  0.7818609E-02  0.8310818E-01
       -2   -1    0    0    0  501  0.00000000000E+00  0.00000000000E+00  0.14402612241E+04  0.14402612241E+04  0.25500000920E-02 0. -1.
        2   -1    0    0  501    0  0.00000000000E+00  0.00000000000E+00 -0.13374515617E+04  0.13374515617E+04  0.25500000920E-02 0.  1.
    10030    2    1    2    0    0  0.00000000000E+00  0.00000000000E+00  0.10280966242E+03  0.27777127859E+04  0.27758095205E+04 0.  0.
        2    1    3    3  502    0 -0.12169474780E+04 -0.53945735537E+03 -0.34168026699E+03  0.13743073919E+04  0.25500000920E-02 0.  1.
       -2    1    3    3    0  502  0.12169474780E+04  0.53945735537E+03  0.44448992941E+03  0.14034053940E+04  0.25500000920E-02 0. -1.
</event>
<event>
 5   0  0.8740500E-06  0.2751457E+04  0.7818609E-02  0.8318499E-01
        3   -1    0    0  501    0  0.00000000000E+00  0.00000000000E+00  0.10312769814E+04  0.10312769863E+04  0.10100000352E+00 0.  1.
       -3   -1    0    0    0  501  0.00000000000E+00  0.00000000000E+00 -0.18352290878E+04  0.18352290906E+04  0.10100000352E+00 0. -1.
    10030    2    1    2    0    0  0.00000000000E+00  0.00000000000E+00 -0.80395210645E+03  0.28665060770E+04  0.27514574501E+04 0.  0.
        3    1    3    3  502    0  0.11497991453E+04 -0.47876303760E+03  0.20672975413E+03  0.12625328994E+04  0.10100000352E+00 0.  1.
       -3    1    3    3    0  502 -0.11497991453E+04  0.47876303760E+03 -0.10106818606E+04  0.16039731775E+04  0.10100000352E+00 0. -1.
</event>
<event>
 5   0  0.2641216E-05  0.2631416E+04  0.7818609E-02  0.8357608E-01
        2   -1    0    0  501    0  0.00000000000E+00  0.00000000000E+00  0.16697928285E+04  0.16697928285E+04  0.25500000920E-02 0. -1.
       -2   -1    0    0    0  501  0.00000000000E+00  0.00000000000E+00 -0.10367080783E+04  0.10367080783E+04  0.25500000920E-02 0.  1.
    10030    2    1    2    0    0  0.00000000000E+00  0.00000000000E+00  0.63308475020E+03  0.27065009067E+04  0.26314161315E+04 0.  0.
        5    1    3    3  502    0  0.11535870731E+04 -0.52154019772E+03  0.68495042768E+03  0.14394257505E+04  0.46999998093E+01 0. -1.
       -5    1    3    3    0  502 -0.11535870731E+04  0.52154019772E+03 -0.51865677475E+02  0.12670751562E+04  0.46999998093E+01 0.  1.
</event>
<event>
 5   0  0.2641216E-05  0.2731180E+04  0.7818609E-02  0.8324958E-01
       -2   -1    0    0    0  501  0.00000000000E+00  0.00000000000E+00  0.10056514781E+04  0.10056514781E+04  0.25500000920E-02 0.  1.
        2   -1    0    0  501    0  0.00000000000E+00  0.00000000000E+00 -0.18543567881E+04  0.18543567881E+04  0.25500000920E-02 0. -1.
    10030    2    1    2    0    0  0.00000000000E+00  0.00000000000E+00 -0.84870531003E+03  0.28600082662E+04  0.27311804370E+04 0.  0.
        5    1    3    3  502    0 -0.88107356768E+03  0.66585222262E+03  0.41675620480E+03  0.11804057092E+04  0.46999998093E+01 0.  1.
       -5    1    3    3    0  502  0.88107356768E+03 -0.66585222262E+03 -0.12654615148E+04  0.16796025570E+04  0.46999998093E+01 0. -1.
</event>
<event>
 5   0  0.1096672E-05  0.2634622E+04  0.7818609E-02  0.8356535E-01
        1   -1    0    0  501    0  0.00000000000E+00  0.00000000000E+00  0.10423577004E+04  0.10423577004E+04  0.50400001928E-02 0. -1.
       -1   -1    0    0    0  501  0.00000000000E+00  0.00000000000E+00 -0.16647917437E+04  0.16647917437E+04  0.50400001928E-02 0.  1.
    10030    2    1    2    0    0  0.00000000000E+00  0.00000000000E+00 -0.62243404331E+03  0.27071494441E+04  0.26346221692E+04 0.  0.
        1    1    3    3  502    0 -0.23576821944E+03 -0.12883880225E+04 -0.16671076430E+03  0.13203495101E+04  0.50400001928E-02 0. -1.
       -1    1    3    3    0  502  0.23576821944E+03  0.12883880225E+04 -0.45572327900E+03  0.13867999340E+04  0.50400001928E-02 0.  1.
</event>
<event>
 5   0  0.1036691E-05  0.2588503E+04  0.7818609E-02  0.8372117E-01
       -1   -1    0    0    0  501  0.00000000000E+00  0.00000000000E+00  0.16488202778E+04  0.16488202778E+04  0.50400001928E-02 0.  1.
        1   -1    0    0  501    0  0.00000000000E+00  0.00000000000E+00 -0.10159302769E+04  0.10159302769E+04  0.50400001928E-02 0. -1.
    10030    2    1    2    0    0  0.00000000000E+00  0.00000000000E+00  0.63289000095E+03  0.26647505548E+04  0.25885026107E+04 0.  0.
        4    1    3    3  502    0 -0.11724463612E+04 -0.55002395718E+02 -0.24499025243E+03  0.11990319304E+04  0.12699999809E+01 0. -1.
       -4    1    3    3    0  502  0.11724463612E+04  0.55002395718E+02  0.87788025338E+03  0.14657186243E+04  0.12699999809E+01 0.  1.
</event>
<event>
 5   0  0.2615843E-05  0.2646417E+04  0.7818609E-02  0.8352603E-01
       -2   -1    0    0    0  501  0.00000000000E+00  0.00000000000E+00  0.32908676081E+04  0.32908676081E+04  0.25500000920E-02 0.  1.
        2   -1    0    0  501    0  0.00000000000E+00  0.00000000000E+00 -0.53204224985E+03  0.53204224985E+03  0.25500000920E-02 0. -1.
    10030    2    1    2    0    0  0.00000000000E+00  0.00000000000E+00  0.27588253582E+04  0.38229098579E+04  0.26464169030E+04 0.  0.
        3    1    3    3  502    0  0.59732129546E+02  0.35868756388E+03 -0.45845001900E+03  0.58515051559E+03  0.10100000352E+00 0. -1.
       -3    1    3    3    0  502 -0.59732129546E+02 -0.35868756388E+03  0.32172753772E+04  0.32377593423E+04  0.10100000352E+00 0.  1.
</event>
<event>
 5   0  0.2540232E-05  0.1958212E+04  0.7818609E-02  0.8626411E-01
       -2   -1    0    0    0  501  0.00000000000E+00  0.00000000000E+00  0.71834858516E+03  0.71834858516E+03  0.25500000920E-02 0.  1.
        2   -1    0    0  501    0  0.00000000000E+00  0.00000000000E+00 -0.13345178466E+04  0.13345178466E+04  0.25500000920E-02 0. -1.
    10030    2    1    2    0    0  0.00000000000E+00  0.00000000000E+00 -0.61616926147E+03  0.20528664318E+04  0.19582124573E+04 0.  0.
        1    1    3    3  502    0 -0.19208801125E+03 -0.53308761337E+03 -0.11451597090E+04  0.12776818723E+04  0.50400001928E-02 0. -1.
       -1    1    3    3    0  502  0.19208801125E+03  0.53308761337E+03  0.52899044758E+03  0.77518455947E+03  0.50400001928E-02 0.  1.
</event>
<event>
 5   0  0.2641216E-05  0.2700307E+04  0.7818609E-02  0.8334905E-01
       -2   -1    0    0    0  501  0.00000000000E+00  0.00000000000E+00  0.18621557249E+04  0.18621557249E+04  0.25500000920E-02 0.  1.
        2   -1    0    0  501    0  0.00000000000E+00  0.00000000000E+00 -0.97892730906E+03  0.97892730906E+03  0.25500000920E-02 0. -1.
    10030    2    1    2    0    0  0.00000000000E+00  0.00000000000E+00  0.88322841581E+03  0.28410830339E+04  0.27003074586E+04 0.  0.
        5    1    3    3  502    0 -0.32264540120E+03 -0.12574830568E+04  0.51431208857E+02  0.12992424532E+04  0.46999998093E+01 0. -1.
       -5    1    3    3    0  502  0.32264540120E+03  0.12574830568E+04  0.83179720695E+03  0.15418405807E+04  0.46999998093E+01 0.  1.
</event>
<event>
 5   0  0.8740500E-06  0.2711895E+04  0.7818609E-02  0.8331156E-01
        4   -1    0    0  501    0  0.00000000000E+00  0.00000000000E+00  0.13894049379E+04  0.13894055183E+04  0.12699999809E+01 0.  1.
       -4   -1    0    0    0  501  0.00000000000E+00  0.00000000000E+00 -0.13232950078E+04  0.13232956172E+04  0.12699999809E+01 0. -1.
    10030    2    1    2    0    0  0.00000000000E+00  0.00000000000E+00  0.66109930120E+02  0.27127011355E+04  0.27118954493E+04 0.  0.
        3    1    3    3  502    0  0.18067907013E+03 -0.27604431043E+03 -0.12825349333E+04  0.13242889613E+04  0.10100000352E+00 0. -1.
       -3    1    3    3    0  502 -0.18067907013E+03  0.27604431043E+03  0.13486448634E+04  0.13884121742E+04  0.10100000352E+00 0.  1.
</event>
<event>
 5   0  0.2615843E-05  0.2667620E+04  0.7818609E-02  0.8345588E-01
        2   -1    0    0  501    0  0.00000000000E+00  0.00000000000E+00  0.11101007190E+04  0.11101007190E+04  0.25500000920E-02 0.  1.
       -2   -1    0    0    0  501  0.00000000000E+00  0.00000000000E+00 -0.16026011164E+04  0.16026011164E+04  0.25500000920E-02 0. -1.
    10030    2    1    2    0    0  0.00000000000E+00  0.00000000000E+00 -0.49250039732E+03  0.27127018354E+04  0.26676196517E+04 0.  0.
        3    1    3    3  502    0  0.18204007499E+03  0.13051040122E+04 -0.36331023161E+02  0.13182393656E+04  0.10100000352E+00 0.  1.
       -3    1    3    3    0  502 -0.18204007499E+03 -0.13051040122E+04 -0.45616937416E+03  0.13944624698E+04  0.10100000352E+00 0. -1.
</event>
<event>
 5   0  0.2516518E-05  0.2725053E+04  0.7818609E-02  0.8326922E-01
       -2   -1    0    0    0  501  0.00000000000E+00  0.00000000000E+00  0.10662080644E+04  0.10662080644E+04  0.25500000920E-02 0. -1.
        2   -1    0    0  501    0  0.00000000000E+00  0.00000000000E+00 -0.17411973509E+04  0.17411973509E+04  0.25500000920E-02 0.  1.
    10030    2    1    2    0    0  0.00000000000E+00  0.00000000000E+00 -0.67498928654E+03  0.28074054153E+04  0.27250531424E+04 0.  0.
        4    1    3    3  502    0  0.80346372256E+02  0.13586710698E+04 -0.40293131280E+03  0.14194357580E+04  0.12699999809E+01 0. -1.
       -4    1    3    3    0  502 -0.80346372256E+02 -0.13586710698E+04 -0.27205797374E+03  0.13879696572E+04  0.12699999809E+01 0.  1.
</event>
<event>
 5   0  0.8740500E-06  0.3367756E+04  0.7818609E-02  0.8145866E-01
       -3   -1    0    0    0  501  0.00000000000E+00  0.00000000000E+00  0.13881814410E+04  0.13881814447E+04  0.10100000352E+00 0.  1.
        3   -1    0    0  501    0  0.00000000000E+00  0.00000000000E+00 -0.20425604976E+04  0.20425605001E+04  0.10100000352E+00 0. -1.
    10030    2    1    2    0    0  0.00000000000E+00  0.00000000000E+00 -0.65437905653E+03  0.34307419448E+04  0.33677556832E+04 0.  0.
        2    1    3    3  502    0  0.94561071558E+03  0.10976377992E+04 -0.12014099401E+04  0.18821196050E+04  0.25500000920E-02 0. -1.
       -2    1    3    3    0  502 -0.94561071558E+03 -0.10976377992E+04  0.54703088354E+03  0.15486223397E+04  0.25500000920E-02 0.  1.
</event>
<event>
 5   0  0.2615843E-05  0.2632080E+04  0.7818609E-02  0.8357385E-01
        2   -1    0    0  501    0  0.00000000000E+00  0.00000000000E+00  0.26761508139E+04  0.26761508139E+04  0.25500000920E-02 0.  1.
       -2   -1    0    0    0  501  0.00000000000E+00  0.00000000000E+00 -0.64718397391E+03  0.64718397392E+03  0.25500000920E-02 0. -1.
    10030    2    1    2    0    0  0.00000000000E+00  0.00000000000E+00  0.20289668400E+04  0.33233347878E+04  0.26320804840E+04 0.  0.
        3    1    3    3  502    0 -0.66024795637E+03 -0.10255417322E+04  0.16385565822E+04  0.20426773832E+04  0.10100000352E+00 0.  1.
       -3    1    3    3    0  502  0.66024795637E+03  0.10255417322E+04  0.39041025773E+03  0.12806574046E+04  0.10100000352E+00 0. -1.
</event>
<event>
 5   0  0.2516518E-05  0.2566031E+04  0.7818609E-02  0.8379832E-01
       -2   -1    0    0    0  501  0.00000000000E+00  0.00000000000E+00  0.97758169439E+03  0.97758169439E+03  0.25500000920E-02 0. -1.
        2   -1    0    0  501    0  0.00000000000E+00  0.00000000000E+00 -0.16838779361E+04  0.16838779361E+04  0.25500000920E-02 0.  1.
    10030    2    1    2    0    0  0.00000000000E+00  0.00000000000E+00 -0.70629624169E+03  0.26614596305E+04  0.25660305890E+04 0.  0.
        4    1    3    3  502    0 -0.10719937561E+04  0.62928174249E+03 -0.68270760800E+03  0.14181880748E+04  0.12699999809E+01 0. -1.
       -4    1    3    3    0  502  0.10719937561E+04 -0.62928174249E+03 -0.23588633691E+02  0.12432715557E+04  0.12699999809E+01 0.  1.
</event>
<event>
 5   0  0.2540232E-05  0.2694095E+04  0.7818609E-02  0.8336923E-01
        2   -1    0    0  501    0  0.00000000000E+00  0.00000000000E+00  0.19280779785E+04  0.19280779785E+04  0.25500000920E-02 0.  1.
       -2   -1    0    0    0  501  0.00000000000E+00  0.00000000000E+00 -0.94111182999E+03  0.94111183000E+03  0.25500000920E-02 0. -1.
    10030    2    1    2    0    0  0.00000000000E+00  0.00000000000E+00  0.98696614847E+03  0.28691898085E+04  0.26940950204E+04 0.  0.
        1    1    3    3  502    0  0.52404695494E+03  0.71620903721E+03  0.15727338586E+04  0.18058439540E+04  0.50400001928E-02 0.  1.
       -1    1    3    3    0  502 -0.52404695494E+03 -0.71620903721E+03 -0.58576771017E+03  0.10633458545E+04  0.50400001928E-02 0. -1.
</event>
<event>
 5   0  0.1036691E-05  0.2737291E+04  0.7818609E-02  0.8323006E-01
        1   -1    0    0  501    0  0.00000000000E+00  0.00000000000E+00  0.17050576584E+04  0.17050576584E+04  0.50400001928E-02 0. -1.
       -1   -1    0    0    0  501  0.00000000000E+00  0.00000000000E+00 -0.10986082294E+04  0.10986082294E+04  0.50400001928E-02 0.  1.
    10030    2    1    2    0    0  0.00000000000E+00  0.00000000000E+00  0.60644942903E+03  0.28036658878E+04  0.27372909053E+04 0.  0.
        4    1    3    3  502    0 -0.30554857354E+03  0.32501528362E+03  0.16285063511E+04  0.16884991602E+04  0.12699999809E+01 0. -1.
       -4    1    3    3    0  502  0.30554857354E+03 -0.32501528362E+03 -0.10220569221E+04  0.11151667276E+04  0.12699999809E+01 0.  1.
</event>
<event>
 5   0  0.2615843E-05  0.2566134E+04  0.7818609E-02  0.8379797E-01
        2   -1    0    0  501    0  0.00000000000E+00  0.00000000000E+00  0.20418355878E+04  0.20418355878E+04  0.25500000920E-02 0. -1.
       -2   -1    0    0    0  501  0.00000000000E+00  0.00000000000E+00 -0.80626517682E+03  0.80626517682E+03  0.25500000920E-02 0.  1.
    10030    2    1    2    0    0  0.00000000000E+00  0.00000000000E+00  0.12355704110E+04  0.28481007647E+04  0.25661340037E+04 0.  0.
        3    1    3    3  502    0 -0.72443947565E+03 -0.62211481220E+03  0.15689345615E+04  0.18366804463E+04  0.10100000352E+00 0. -1.
       -3    1    3    3    0  502  0.72443947565E+03  0.62211481220E+03 -0.33336415043E+03  0.10114203184E+04  0.10100000352E+00 0.  1.
</event>
<event>
 5   0  0.2641216E-05  0.2604000E+04  0.7818609E-02  0.8366844E-01
       -2   -1    0    0    0  501  0.00000000000E+00  0.00000000000E+00  0.16462510738E+04  0.16462510738E+04  0.25500000920E-02 0. -1.
        2   -1    0    0  501    0  0.00000000000E+00  0.00000000000E+00 -0.10297360592E+04  0.10297360592E+04  0.25500000920E-02 0.  1.
    10030    2    1    2    0    0  0.00000000000E+00  0.00000000000E+00  0.61651501456E+03  0.26759871330E+04  0.26040000715E+04 0.  0.
        5    1    3    3  502    0  0.91313898235E+03 -0.68906730156E+03  0.94717284695E+03  0.14851919200E+04  0.46999998093E+01 0. -1.
       -5    1    3    3    0  502 -0.91313898235E+03  0.68906730156E+03 -0.33065783238E+03  0.11907952130E+04  0.46999998093E+01 0.  1.
</event>
<event>
 5   0  0.1005265E-05  0.2756351E+04  0.7818609E-02  0.8316949E-01
        1   -1    0    0  501    0  0.00000000000E+00  0.00000000000E+00  0.15615670363E+04  0.15615670363E+04  0.50400001928E-02 0. -1.
       -1   -1    0    0    0  501  0.00000000000E+00  0.00000000000E+00 -0.12163218003E+04  0.12163218003E+04  0.50400001928E-02 0.  1.
    10030    2    1    2    0    0  0.00000000000E+00  0.00000000000E+00  0.34524523606E+03  0.27778888366E+04  0.27563512323E+04 0.  0.
        3    1    3    3  502    0 -0.14456901873E+03 -0.72194856015E+03  0.13467400208E+04  0.15348676225E+04  0.10100000352E+00 0. -1.
       -3    1    3    3    0  502  0.14456901873E+03  0.72194856015E+03 -0.10014947848E+04  0.12430212141E+04  0.10100000352E+00 0.  1.
</event>
<event>
 5   0  0.1036691E-05  0.1877736E+04  0.7818609E-02  0.8666019E-01
       -1   -1    0    0    0  501  0.00000000000E+00  0.00000000000E+00  0.53808350530E+03  0.53808350532E+03  0.50400001928E-02 0. -1.
        1   -1    0    0  501    0  0.00000000000E+00  0.00000000000E+00 -0.16381712182E+04  0.16381712182E+04  0.50400001928E-02 0.  1.
    10030    2    1    2    0    0  0.00000000000E+00  0.00000000000E+00 -0.11000877129E+04  0.21762547236E+04  0.18777357763E+04 0.  0.
        4    1    3    3  502    0  0.75139576333E+03 -0.26133546252E+03 -0.11278842327E+04  0.13802232691E+04  0.12699999809E+01 0.  1.
       -4    1    3    3    0  502 -0.75139576333E+03  0.26133546252E+03  0.27796519797E+02  0.79603145449E+03  0.12699999809E+01 0. -1.
</event>
<event>
 5   0  0.2516518E-05  0.2758533E+04  0.7818609E-02  0.8316259E-01
        2   -1    0    0  501    0  0.00000000000E+00  0.00000000000E+00  0.13166583839E+04  0.13166583839E+04  0.25500000920E-02 0.  1.
       -2   -1    0    0    0  501  0.00000000000E+00  0.00000000000E+00 -0.14448519559E+04  0.14448519559E+04  0.25500000920E-02 0. -1.
    10030    2    1    2    0    0  0.00000000000E+00  0.00000000000E+00 -0.12819357202E+03  0.27615103398E+04  0.27585332634E+04 0.  0.
        4    1    3    3  502    0  0.18038086287E+03 -0.14294277892E+03  0.12972991647E+04  0.13175570687E+04  0.12699999809E+01 0.  1.
       -4    1    3    3    0  502 -0.18038086287E+03  0.14294277892E+03 -0.14254927367E+04  0.14439532711E+04  0.12699999809E+01 0. -1.
</event>
<event>
 5   0  0.1005265E-05  0.2718828E+04  0.7818609E-02  0.8328922E-01
       -1   -1    0    0    0  501  0.00000000000E+00  0.00000000000E+00  0.90175981182E+03  0.90175981184E+03  0.50400001928E-02 0.  1.
        1   -1    0    0  501    0  0.00000000000E+00  0.00000000000E+00 -0.20493333674E+04  0.20493333674E+04  0.50400001928E-02 0. -1.
    10030    2    1    2    0    0  0.00000000000E+00  0.00000000000E+00 -0.11475735556E+04  0.29510931793E+04  0.27188280356E+04 0.  0.
        3    1    3    3  502    0  0.21639549528E+03  0.10189392659E+03 -0.20263143046E+04  0.20403820853E+04  0.10100000352E+00 0. -1.
       -3    1    3    3    0  502 -0.21639549528E+03 -0.10189392659E+03  0.87874074898E+03  0.91071109402E+03  0.10100000352E+00 0.  1.
</event>
<event>
 5   0  0.2641216E-05  0.2537859E+04  0.7818609E-02  0.8389621E-01
       -2   -1    0    0    0  501  0.00000000000E+00  0.00000000000E+00  0.88331640103E+03  0.88331640103E+03  0.25500000920E-02 0. -1.
        2   -1    0    0  501    0  0.00000000000E+00  0.00000000000E+00 -0.18228824906E+04  0.18228824906E+04  0.25500000920E-02 0.  1.
    10030    2    1    2    0    0  0.00000000000E+00  0.00000000000E+00 -0.93956608952E+03  0.27061988916E+04  0.25378589410E+04 0.  0.
        5    1    3    3  502    0  0.56864804702E+03 -0.11326031332E+04 -0.53730340689E+03  0.13765418627E+04  0.46999998093E+01 0. -1.
       -5    1    3    3    0  502 -0.56864804702E+03  0.11326031332E+04 -0.40226268263E+03  0.13296570289E+04  0.46999998093E+01 0.  1.
</event>
<event>
 5   0  0.2540684E-05  0.2530668E+04  0.7818609E-02  0.8392141E-01
       -2   -1    0    0    0  501  0.00000000000E+00  0.00000000000E+00  0.18082453101E+04  0.18082453101E+04  0.25500000920E-02 0.  1.
        2   -1    0    0  501    0  0.00000000000E+00  0.00000000000E+00 -0.88542715581E+03  0.88542715582E+03  0.25500000920E-02 0. -1.
    10030    2    1    2    0    0  0.00000000000E+00  0.00000000000E+00  0.92281815427E+03  0.26936724659E+04  0.25306675024E+04 0.  0.
        2    1    3    3  502    0  0.17892211847E+03 -0.16504482620E+03 -0.86027012219E+03  0.89404563769E+03  0.25500000920E-02 0. -1.
       -2    1    3    3    0  502 -0.17892211847E+03  0.16504482620E+03  0.17830882765E+04  0.17996268282E+04  0.25500000920E-02 0.  1.
</event>
<event>
 5   0  0.2641216E-05  0.2717056E+04  0.7818609E-02  0.8329492E-01
        2   -1    0    0  501    0  0.00000000000E+00  0.00000000000E+00  0.15200541646E+04  0.15200541646E+04  0.25500000920E-02 0.  1.
       -2   -1    0    0    0  501  0.00000000000E+00  0.00000000000E+00 -0.12141657487E+04  0.12141657487E+04  0.25500000920E-02 0. -1.
    10030    2    1    2    0    0  0.00000000000E+00  0.00000000000E+00  0.30588841586E+03  0.27342199133E+04  0.27170555408E+04 0.  0.
        5    1    3    3  502    0 -0.26979812422E+03 -0.10414842976E+04 -0.68181100608E+03  0.12737224611E+04  0.46999998093E+01 0. -1.
       -5    1    3    3    0  502  0.26979812422E+03  0.10414842976E+04  0.98769942195E+03  0.14604974522E+04  0.46999998093E+01 0.  1.
</event>
<event>
 5   0  0.1041909E-05  0.2738369E+04  0.7818609E-02  0.8322662E-01
        1   -1    0    0  501    0  0.00000000000E+00  0.00000000000E+00  0.16055884122E+04  0.16055884122E+04  0.50400001928E-02 0. -1.
       -1   -1    0    0    0  501  0.00000000000E+00  0.00000000000E+00 -0.11675881212E+04  0.11675881212E+04  0.50400001928E-02 0.  1.
    10030    2    1    2    0    0  0.00000000000E+00  0.00000000000E+00  0.43800029102E+03  0.27731765334E+04  0.27383688266E+04 0.  0.
        5    1    3    3  502    0 -0.58740115925E+03 -0.12066812499E+04 -0.55599804078E+02  0.13432174764E+04  0.46999998093E+01 0.  1.
       -5    1    3    3    0  502  0.58740115925E+03  0.12066812499E+04  0.49360009510E+03  0.14299590570E+04  0.46999998093E+01 0. -1.
</event>
<event>
 5   0  0.1036691E-05  0.2653043E+04  0.7818609E-02  0.8350404E-01
       -1   -1    0    0    0  501  0.00000000000E+00  0.00000000000E+00  0.90904532761E+03  0.90904532762E+03  0.50400001928E-02 0. -1.
        1   -1    0    0  501    0  0.00000000000E+00  0.00000000000E+00 -0.19357217522E+04  0.19357217522E+04  0.50400001928E-02 0.  1.
    10030    2    1    2    0    0  0.00000000000E+00  0.00000000000E+00 -0.10266764245E+04  0.28447670798E+04  0.26530426415E+04 0.  0.
        4    1    3    3  502    0 -0.14351996881E+03 -0.13182107067E+04 -0.55316755196E+03  0.14367579484E+04  0.12699999809E+01 0.  1.
       -4    1    3    3    0  502  0.14351996881E+03  0.13182107067E+04 -0.47350887258E+03  0.14080091314E+04  0.12699999809E+01 0. -1.
</event>
<event>
 5   0  0.2615843E-05  0.2649026E+04  0.7818609E-02  0.8351736E-01
        2   -1    0    0  501    0  0.00000000000E+00  0.00000000000E+00  0.14890610829E+04  0.14890610829E+04  0.25500000920E-02 0.  1.
       -2   -1    0    0    0  501  0.00000000000E+00  0.00000000000E+00 -0.11781479088E+04  0.11781479088E+04  0.25500000920E-02 0. -1.
    10030    2    1    2    0    0  0.00000000000E+00  0.00000000000E+00  0.31091317407E+03  0.26672089918E+04  0.26490256329E+04 0.  0.
        3    1    3    3  502    0 -0.11803913087E+04  0.51337931457E+03 -0.15885961879E+03  0.12969650539E+04  0.10100000352E+00 0. -1.
       -3    1    3    3    0  502  0.11803913087E+04 -0.51337931457E+03  0.46977279286E+03  0.13702439379E+04  0.10100000352E+00 0.  1.
</event>
<event>
 5   0  0.9971923E-06  0.2617056E+04  0.7818609E-02  0.8362431E-01
        1   -1    0    0  501    0  0.00000000000E+00  0.00000000000E+00  0.20934547138E+04  0.20934547139E+04  0.50400001928E-02 0. -1.
       -1   -1    0    0    0  501  0.00000000000E+00  0.00000000000E+00 -0.81790422290E+03  0.81790422292E+03  0.50400001928E-02 0.  1.
    10030    2    1    2    0    0  0.00000000000E+00  0.00000000000E+00  0.12755504909E+04  0.29113589368E+04  0.26170559420E+04 0.  0.
        2    1    3    3  502    0 -0.10488100817E+04  0.17304106435E+03 -0.21112373474E+03  0.10837522913E+04  0.25500000920E-02 0.  1.
       -2    1    3    3    0  502  0.10488100817E+04 -0.17304106435E+03  0.14866742257E+04  0.18276066455E+04  0.25500000920E-02 0. -1.
</event>
<event>
 5   0  0.2516518E-05  0.2701009E+04  0.7818609E-02  0.8334678E-01
        2   -1    0    0  501    0  0.00000000000E+00  0.00000000000E+00  0.25214836028E+04  0.25214836028E+04  0.25500000920E-02 0. -1.
       -2   -1    0    0    0  501  0.00000000000E+00  0.00000000000E+00 -0.72332893890E+03  0.72332893890E+03  0.25500000920E-02 0.  1.
    10030    2    1    2    0    0  0.00000000000E+00  0.00000000000E+00  0.17981546639E+04  0.32448125417E+04  0.27010087441E+04 0.  0.
        4    1    3    3  502    0  0.41138233424E+03 -0.87080306305E+03 -0.23827984504E+03  0.99212514181E+03  0.12699999809E+01 0.  1.
       -4    1    3    3    0  502 -0.41138233424E+03  0.87080306305E+03  0.20364345090E+04  0.22526873999E+04  0.12699999809E+01 0. -1.
</event>
<event>
 5   0  0.1036691E-05  0.2720416E+04  0.7818609E-02  0.8328411E-01
        1   -1    0    0  501    0  0.00000000000E+00  0.00000000000E+00  0.12533388297E+04  0.12533388297E+04  0.50400001928E-02 0. -1.
       -1   -1    0    0    0  501  0.00000000000E+00  0.00000000000E+00 -0.14761898824E+04  0.14761898824E+04  0.50400001928E-02 0.  1.
    10030    2    1    2    0    0  0.00000000000E+00  0.00000000000E+00 -0.22285105270E+03  0.27295287121E+04  0.27204162179E+04 0.  0.
        4    1    3    3  502    0 -0.62932973825E+03 -0.54455456804E+03  0.96808215008E+03  0.12766284734E+04  0.12699999809E+01 0. -1.
       -4    1    3    3    0  502  0.62932973825E+03  0.54455456804E+03 -0.11909332028E+04  0.14529002386E+04  0.12699999809E+01 0.  1.
</event>
<event>
 5   0  0.1096672E-05  0.2691933E+04  0.7818609E-02  0.8337627E-01
       -1   -1    0    0    0  501  0.00000000000E+00  0.00000000000E+00  0.12515199614E+04  0.12515199614E+04  0.50400001928E-02 0. -1.
        1   -1    0    0  501    0  0.00000000000E+00  0.00000000000E+00 -0.14475401811E+04  0.14475401811E+04  0.50400001928E-02 0.  1.
    10030    2    1    2    0    0  0.00000000000E+00  0.00000000000E+00 -0.19602021974E+03  0.26990601425E+04  0.26919327120E+04 0.  0.
        1    1    3    3  502    0 -0.71701408122E+03 -0.94034902831E+03  0.54654494414E+03  0.13027190271E+04  0.50400001928E-02 0. -1.
       -1    1    3    3    0  502  0.71701408122E+03  0.94034902831E+03 -0.74256516388E+03  0.13963411153E+04  0.50400001928E-02 0.  1.
</event>
<event>
 5   0  0.1041909E-05  0.2711122E+04  0.7818609E-02  0.8331405E-01
       -1   -1    0    0    0  501  0.00000000000E+00  0.00000000000E+00  0.99745912639E+03  0.99745912640E+03  0.50400001928E-02 0.  1.
        1   -1    0    0  501    0  0.00000000000E+00  0.00000000000E+00 -0.18422261676E+04  0.18422261676E+04  0.50400001928E-02 0. -1.
    10030    2    1    2    0    0  0.00000000000E+00  0.00000000000E+00 -0.84476704120E+03  0.28396852940E+04  0.27111217632E+04 0.  0.
        5    1    3    3  502    0 -0.22491317341E+02  0.11576316146E+03 -0.18368345472E+04  0.18406222352E+04  0.46999998093E+01 0. -1.
       -5    1    3    3    0  502  0.22491317341E+02 -0.11576316146E+03  0.99206750603E+03  0.99906305878E+03  0.46999998093E+01 0.  1.
</event>
<event>
 5   0  0.1005265E-05  0.2704811E+04  0.7818609E-02  0.8333446E-01
        1   -1    0    0  501    0  0.00000000000E+00  0.00000000000E+00  0.13259455042E+04  0.13259455042E+04  0.50400001928E-02 0.  1.
       -1   -1    0    0    0  501  0.00000000000E+00  0.00000000000E+00 -0.13793931239E+04  0.13793931239E+04  0.50400001928E-02 0. -1.
    10030    2    1    2    0    0  0.00000000000E+00  0.00000000000E+00 -0.53447619772E+02  0.27053386281E+04  0.27048106116E+04 0.  0.
        3    1    3    3  502    0 -0.11716114851E+04  0.50103789260E+03  0.42645145088E+03  0.13437162245E+04  0.10100000352E+00 0.  1.
       -3    1    3    3    0  502  0.11716114851E+04 -0.50103789260E+03 -0.47989907065E+03  0.13616224036E+04  0.10100000352E+00 0. -1.
</event>
<event>
 5   0  0.2540684E-05  0.2692367E+04  0.7818609E-02  0.8337486E-01
       -2   -1    0    0    0  501  0.00000000000E+00  0.00000000000E+00  0.86667553289E+03  0.86667553289E+03  0.25500000920E-02 0.  1.
        2   -1    0    0  501    0  0.00000000000E+00  0.00000000000E+00 -0.20909906050E+04  0.20909906050E+04  0.25500000920E-02 0. -1.
    10030    2    1    2    0    0  0.00000000000E+00  0.00000000000E+00 -0.12243150721E+04  0.29576661379E+04  0.26923672832E+04 0.  0.
        2    1    3    3  502    0  0.17310058615E+03  0.33988951294E+03  0.80607155645E+03  0.89176232711E+03  0.25500000920E-02 0.  1.
       -2    1    3    3    0  502 -0.17310058615E+03 -0.33988951294E+03 -0.20303866286E+04  0.20659038108E+04  0.25500000920E-02 0. -1.
</event>
<event>
 5   0  0.1036691E-05  0.2637391E+04  0.7818609E-02  0.8355610E-01
       -1   -1    0    0    0  501  0.00000000000E+00  0.00000000000E+00  0.70343036456E+03  0.70343036458E+03  0.50400001928E-02 0. -1.
        1   -1    0    0  501    0  0.00000000000E+00  0.00000000000E+00 -0.24721114902E+04  0.24721114902E+04  0.50400001928E-02 0.  1.
    10030    2    1    2    0    0  0.00000000000E+00  0.00000000000E+00 -0.17686811257E+04  0.31755418548E+04  0.26373913527E+04 0.  0.
        4    1    3    3  502    0 -0.12821464846E+04 -0.28890809892E+03 -0.10139598258E+04  0.16599649511E+04  0.12699999809E+01 0. -1.
       -4    1    3    3    0  502  0.12821464846E+04  0.28890809892E+03 -0.75472129986E+03  0.15155769037E+04  0.12699999809E+01 0.  1.
</event>
<event>
 5   0  0.2615843E-05  0.2713962E+04  0.7818609E-02  0.8330489E-01
       -2   -1    0    0    0  501  0.00000000000E+00  0.00000000000E+00  0.16138214428E+04  0.16138214428E+04  0.25500000920E-02 0. -1.
        2   -1    0    0  501    0  0.00000000000E+00  0.00000000000E+00 -0.11410167197E+04  0.11410167197E+04  0.25500000920E-02 0.  1.
    10030    2    1    2    0    0  0.00000000000E+00  0.00000000000E+00  0.47280472301E+03  0.27548381625E+04  0.27139618633E+04 0.  0.
        3    1    3    3  502    0 -0.92824904315E+03 -0.50296437740E+03  0.11017551007E+04  0.15259370115E+04  0.10100000352E+00 0. -1.
       -3    1    3    3    0  502  0.92824904315E+03  0.50296437740E+03 -0.62895037768E+03  0.12289011510E+04  0.10100000352E+00 0.  1.
</event>
<event>
 5   0  0.2516518E-05  0.2627257E+04  0.7818609E-02  0.8359001E-01
       -2   -1    0    0    0  501  0.00000000000E+00  0.00000000000E+00  0.19579215972E+04  0.19579215972E+04  0.25500000920E-02 0. -1.
        2   -1    0    0  501    0  0.00000000000E+00  0.00000000000E+00 -0.88135278514E+03  0.88135278515E+03  0.25500000920E-02 0.  1.
    10030    2    1    2    0    0  0.00000000000E+00  0.00000000000E+00  0.10765688121E+04  0.28392743824E+04  0.26272568606E+04 0.  0.
        4    1    3    3  502    0  0.94703009509E+03 -0.36698495361E+03  0.14386268893E+04  0.17610204135E+04  0.12699999809E+01 0. -1.
       -4    1    3    3    0  502 -0.94703009509E+03  0.36698495361E+03 -0.36205807725E+03  0.10782539689E+04  0.12699999809E+01 0.  1.
</event>
<event>
 5   0  0.1096672E-05  0.2682523E+04  0.7818609E-02  0.8340698E-01
        1   -1    0    0  501    0  0.00000000000E+00  0.00000000000E+00  0.16880215987E+04  0.16880215987E+04  0.50400001928E-02 0.  1.
       -1   -1    0    0    0  501  0.00000000000E+00  0.00000000000E+00 -0.10657345005E+04  0.10657345005E+04  0.50400001928E-02 0. -1.
    10030    2    1    2    0    0  0.00000000000E+00  0.00000000000E+00  0.62228709822E+03  0.27537560992E+04  0.26825233309E+04 0.  0.
        1    1    3    3  502    0 -0.95077448998E+03 -0.97376541397E+02  0.12771571565E+04  0.15951754525E+04  0.50400001928E-02 0.  1.
       -1    1    3    3    0  502  0.95077448998E+03  0.97376541397E+02 -0.65487005831E+03  0.11585806467E+04  0.50400001928E-02 0. -1.
</event>
<event>
 5   0  0.2641216E-05  0.2717126E+04  0.7818609E-02  0.8329469E-01
       -2   -1    0    0    0  501  0.00000000000E+00  0.00000000000E+00  0.10226750796E+04  0.10226750796E+04  0.25500000920E-02 0. -1.
        2   -1    0    0  501    0  0.00000000000E+00  0.00000000000E+00 -0.18047705514E+04  0.18047705514E+04  0.25500000920E-02 0.  1.
    10030    2    1    2    0    0  0.00000000000E+00  0.00000000000E+00 -0.78209547182E+03  0.28274456310E+04  0.27171263256E+04 0.  0.
        5    1    3    3  502    0 -0.98152360040E+02 -0.12832167671E+04 -0.84390981754E+03  0.15389883129E+04  0.46999998093E+01 0.  1.
       -5    1    3    3    0  502  0.98152360040E+02  0.12832167671E+04  0.61814345716E+02  0.12884573181E+04  0.46999998093E+01 0. -1.
</event>
<event>
 5   0  0.2540232E-05  0.2724893E+04  0.7818609E-02  0.8326973E-01
       -2   -1    0    0    0  501  0.00000000000E+00  0.00000000000E+00  0.80121570528E+03  0.80121570529E+03  0.25500000920E-02 0.  1.
        2   -1    0    0  501    0  0.00000000000E+00  0.00000000000E+00 -0.23168054258E+04  0.23168054258E+04  0.25500000920E-02 0. -1.
    10030    2    1    2    0    0  0.00000000000E+00  0.00000000000E+00 -0.15155897205E+04  0.31180211311E+04  0.27248933141E+04 0.  0.
        1    1    3    3  502    0 -0.10254133269E+04 -0.76776645153E+03 -0.22681892243E+03  0.13009168454E+04  0.50400001928E-02 0.  1.
       -1    1    3    3    0  502  0.10254133269E+04  0.76776645153E+03 -0.12887707981E+04  0.18171042857E+04  0.50400001928E-02 0. -1.
</event>
<event>
 5   0  0.2615843E-05  0.2107385E+04  0.7818609E-02  0.8557997E-01
       -2   -1    0    0    0  501  0.00000000000E+00  0.00000000000E+00  0.73639880913E+03  0.73639880913E+03  0.25500000920E-02 0.  1.
        2   -1    0    0  501    0  0.00000000000E+00  0.00000000000E+00 -0.15076985140E+04  0.15076985140E+04  0.25500000920E-02 0. -1.
    10030    2    1    2    0    0  0.00000000000E+00  0.00000000000E+00 -0.77129970488E+03  0.22440973231E+04  0.21073845309E+04 0.  0.
        3    1    3    3  502    0 -0.41050235990E+03  0.21715567801E+03  0.62154154550E+03  0.77587542747E+03  0.10100000352E+00 0.  1.
       -3    1    3    3    0  502  0.41050235990E+03 -0.21715567801E+03 -0.13928412504E+04  0.14682218957E+04  0.10100000352E+00 0. -1.
</event>
<event>
 5   0  0.1096672E-05  0.2740009E+04  0.7818609E-02  0.8322139E-01
        1   -1    0    0  501    0  0.00000000000E+00  0.00000000000E+00  0.19569747453E+04  0.19569747453E+04  0.50400001928E-02 0. -1.
       -1   -1    0    0    0  501  0.00000000000E+00  0.00000000000E+00 -0.95908862331E+03  0.95908862332E+03  0.50400001928E-02 0.  1.
    10030    2    1    2    0    0  0.00000000000E+00  0.00000000000E+00  0.99788612202E+03  0.29160633687E+04  0.27400089156E+04 0.  0.
        1    1    3    3  502    0 -0.96461331927E+03  0.62073263705E+02  0.15321900623E+04  0.18116120812E+04  0.50400001928E-02 0. -1.
       -1    1    3    3    0  502  0.96461331927E+03 -0.62073263705E+02 -0.53430394025E+03  0.11044512875E+04  0.50400001928E-02 0.  1.
</event>
<event>
 5   0  0.9971923E-06  0.2657159E+04  0.7818609E-02  0.8349041E-01
       -1   -1    0    0    0  501  0.00000000000E+00  0.00000000000E+00  0.66589189034E+03  0.66589189036E+03  0.50400001928E-02 0.  1.
        1   -1    0    0  501    0  0.00000000000E+00  0.00000000000E+00 -0.26507659852E+04  0.26507659852E+04  0.50400001928E-02 0. -1.
    10030    2    1    2    0    0  0.00000000000E+00  0.00000000000E+00 -0.19848740949E+04  0.33166578756E+04  0.26571590640E+04 0.  0.
        2    1    3    3  502    0  0.76888382565E+03  0.32684921882E+03  0.29696360092E+03  0.88667927091E+03  0.25500000920E-02 0.  1.
       -2    1    3    3    0  502 -0.76888382565E+03 -0.32684921882E+03 -0.22818376958E+04  0.24299786047E+04  0.25500000920E-02 0. -1.
</event>
<event>
 5   0  0.2540232E-05  0.2695545E+04  0.7818609E-02  0.8336452E-01
       -2   -1    0    0    0  501  0.00000000000E+00  0.00000000000E+00  0.10117610542E+04  0.10117610542E+04  0.25500000920E-02 0. -1.
        2   -1    0    0  501    0  0.00000000000E+00  0.00000000000E+00 -0.17953750274E+04  0.17953750274E+04  0.25500000920E-02 0.  1.
    10030    2    1    2    0    0  0.00000000000E+00  0.00000000000E+00 -0.78361397324E+03  0.28071360816E+04  0.26955448654E+04 0.  0.
        1    1    3    3  502    0 -0.48706260269E+03  0.70246667803E+02  0.91485792722E+03  0.10388116289E+04  0.50400001928E-02 0. -1.
       -1    1    3    3    0  502  0.48706260269E+03 -0.70246667803E+02 -0.16984719005E+04  0.17683244527E+04  0.50400001928E-02 0.  1.
</event>
<event>
 5   0  0.2615843E-05  0.2724492E+04  0.7818609E-02  0.8327102E-01
       -2   -1    0    0    0  501  0.00000000000E+00  0.00000000000E+00  0.12357167757E+04  0.12357167757E+04  0.25500000920E-02 0.  1.
        2   -1    0    0  501    0  0.00000000000E+00  0.00000000000E+00 -0.15017314881E+04  0.15017314881E+04  0.25500000920E-02 0. -1.
    10030    2    1    2    0    0  0.00000000000E+00  0.00000000000E+00 -0.26601471237E+03  0.27374482638E+04  0.27244924610E+04 0.  0.
        3    1    3    3  502    0 -0.45202188264E+03  0.93869782730E+03  0.74879774669E+03  0.12830336975E+04  0.10100000352E+00 0. -1.
       -3    1    3    3    0  502  0.45202188264E+03 -0.93869782730E+03 -0.10148124591E+04  0.14544145663E+04  0.10100000352E+00 0.  1.
</event>
<event>
 5   0  0.1041909E-05  0.2800088E+04  0.7818609E-02  0.8303241E-01
        1   -1    0    0  501    0  0.00000000000E+00  0.00000000000E+00  0.24116543384E+04  0.24116543384E+04  0.50400001928E-02 0. -1.
       -1   -1    0    0    0  501  0.00000000000E+00  0.00000000000E+00 -0.81277134190E+03  0.81277134191E+03  0.50400001928E-02 0.  1.
    10030    2    1    2    0    0  0.00000000000E+00  0.00000000000E+00  0.15988829965E+04  0.32244256803E+04  0.28000882364E+04 0.  0.
        5    1    3    3  502    0  0.94505085189E+03  0.21173577948E+03 -0.36478534238E+03  0.10349123581E+04  0.46999998093E+01 0.  1.
       -5    1    3    3    0  502 -0.94505085189E+03 -0.21173577948E+03  0.19636683389E+04  0.21895133222E+04  0.46999998093E+01 0. -1.
</event>
<event>
 5   0  0.2615843E-05  0.2739556E+04  0.7818609E-02  0.8322283E-01
       -2   -1    0    0    0  501  0.00000000000E+00  0.00000000000E+00  0.99470909375E+03  0.99470909375E+03  0.25500000920E-02 0. -1.
        2   -1    0    0  501    0  0.00000000000E+00  0.00000000000E+00 -0.18862715094E+04  0.18862715094E+04  0.25500000920E-02 0.  1.
    10030    2    1    2    0    0  0.00000000000E+00  0.00000000000E+00 -0.89156241569E+03  0.28809806032E+04  0.27395557477E+04 0.  0.
        3    1    3    3  502    0 -0.51960282028E+03  0.16148279366E+03  0.87618397608E+03  0.10313884591E+04  0.10100000352E+00 0. -1.
       -3    1    3    3    0  502  0.51960282028E+03 -0.16148279366E+03 -0.17677463918E+04  0.18495921440E+04  0.10100000352E+00 0.  1.
</event>
<event>
 5   0  0.1036691E-05  0.2657572E+04  0.7818609E-02  0.8348904E-01
        1   -1    0    0  501    0  0.00000000000E+00  0.00000000000E+00  0.23724635314E+04  0.23724635314E+04  0.50400001928E-02 0.  1.
       -1   -1    0    0    0  501  0.00000000000E+00  0.00000000000E+00 -0.74423592307E+03  0.74423592309E+03  0.50400001928E-02 0. -1.
    10030    2    1    2    0    0  0.00000000000E+00  0.00000000000E+00  0.16282276084E+04  0.31166994545E+04  0.26575722653E+04 0.  0.
        4    1    3    3  502    0 -0.13230150310E+03  0.76150174523E+03 -0.45349064579E+03  0.89612720884E+03  0.12699999809E+01 0. -1.
       -4    1    3    3    0  502  0.13230150310E+03 -0.76150174523E+03  0.20817182541E+04  0.22205722457E+04  0.12699999809E+01 0.  1.
</event>
<event>
 5   0  0.1036691E-05  0.2725685E+04  0.7818609E-02  0.8326719E-01
        1   -1    0    0  501    0  0.00000000000E+00  0.00000000000E+00  0.17552588662E+04  0.17552588662E+04  0.50400001928E-02 0.  1.
       -1   -1    0    0    0  501  0.00000000000E+00  0.00000000000E+00 -0.10581571972E+04  0.10581571972E+04  0.50400001928E-02 0. -1.
    10030    2    1    2    0    0  0.00000000000E+00  0.00000000000E+00  0.69710166902E+03  0.28134160634E+04  0.27256850899E+04 0.  0.
        4    1    3    3  502    0  0.75573104522E+03  0.80325712954E+03 -0.47783490453E+03  0.12019481011E+04  0.12699999809E+01 0. -1.
       -4    1    3    3    0  502 -0.75573104522E+03 -0.80325712954E+03  0.11749365736E+04  0.16114679623E+04  0.12699999809E+01 0.  1.
</event>
<event>
 5   0  0.2615843E-05  0.2720520E+04  0.7818609E-02  0.8328378E-01
        2   -1    0    0  501    0  0.00000000000E+00  0.00000000000E+00  0.12324175756E+04  0.12324175756E+04  0.25500000920E-02 0.  1.
       -2   -1    0    0    0  501  0.00000000000E+00  0.00000000000E+00 -0.15013638162E+04  0.15013638162E+04  0.25500000920E-02 0. -1.
    10030    2    1    2    0    0  0.00000000000E+00  0.00000000000E+00 -0.26894624068E+03  0.27337813918E+04  0.27205199168E+04 0.  0.
        3    1    3    3  502    0 -0.43737075461E+03 -0.36821605605E+03  0.11058169133E+04  0.12448724018E+04  0.10100000352E+00 0.  1.
       -3    1    3    3    0  502  0.43737075461E+03  0.36821605605E+03 -0.13747631539E+04  0.14889089900E+04  0.10100000352E+00 0. -1.
</event>
<event>
 5   0  0.1005265E-05  0.2695051E+04  0.7818609E-02  0.8336613E-01
       -1   -1    0    0    0  501  0.00000000000E+00  0.00000000000E+00  0.16090464403E+04  0.16090464403E+04  0.50400001928E-02 0.  1.
        1   -1    0    0  501    0  0.00000000000E+00  0.00000000000E+00 -0.11285098439E+04  0.11285098439E+04  0.50400001928E-02 0. -1.
    10030    2    1    2    0    0  0.00000000000E+00  0.00000000000E+00  0.48053659636E+03  0.27375562842E+04  0.26950508324E+04 0.  0.
        3    1    3    3  502    0  0.11248740612E+04  0.65924602402E+02  0.99093457904E+03  0.15005462529E+04  0.10100000352E+00 0.  1.
       -3    1    3    3    0  502 -0.11248740612E+04 -0.65924602402E+02 -0.51039798268E+03  0.12370100314E+04  0.10100000352E+00 0. -1.
</event>
<event>
 5   0  0.1096672E-05  0.2479651E+04  0.7818609E-02  0.8410271E-01
       -1   -1    0    0    0  501  0.00000000000E+00  0.00000000000E+00  0.80765736236E+03  0.80765736237E+03  0.50400001928E-02 0. -1.
        1   -1    0    0  501    0  0.00000000000E+00  0.00000000000E+00 -0.19032424628E+04  0.19032424628E+04  0.50400001928E-02 0.  1.
    10030    2    1    2    0    0  0.00000000000E+00  0.00000000000E+00 -0.10955851004E+04  0.27108998251E+04  0.24796514170E+04 0.  0.
        1    1    3    3  502    0 -0.45129746729E+03  0.35876628943E+03  0.65219747573E+03  0.87048503823E+03  0.50400001928E-02 0. -1.
       -1    1    3    3    0  502  0.45129746729E+03 -0.35876628943E+03 -0.17477825761E+04  0.18404147869E+04  0.50400001928E-02 0.  1.
</event>
<event>
 5   0  0.1036691E-05  0.2690007E+04  0.7818609E-02  0.8338254E-01
       -1   -1    0    0    0  501  0.00000000000E+00  0.00000000000E+00  0.10042544068E+04  0.10042544068E+04  0.50400001928E-02 0.  1.
        1   -1    0    0  501    0  0.00000000000E+00  0.00000000000E+00 -0.18013711846E+04  0.18013711846E+04  0.50400001928E-02 0. -1.
    10030    2    1    2    0    0  0.00000000000E+00  0.00000000000E+00 -0.79711677777E+03  0.28056255914E+04  0.26900073981E+04 0.  0.
        4    1    3    3  502    0 -0.11438739658E+04  0.50823393078E+03  0.11482116836E+03  0.12569546101E+04  0.12699999809E+01 0. -1.
       -4    1    3    3    0  502  0.11438739658E+04 -0.50823393078E+03 -0.91193794613E+03  0.15486709814E+04  0.12699999809E+01 0.  1.
</event>
<event>
 5   0  0.2540684E-05  0.2723705E+04  0.7818609E-02  0.8327354E-01
        2   -1    0    0  501    0  0.00000000000E+00  0.00000000000E+00  0.14990295817E+04  0.14990295817E+04  0.25500000920E-02 0. -1.
       -2   -1    0    0    0  501  0.00000000000E+00  0.00000000000E+00 -0.12372288519E+04  0.12372288519E+04  0.25500000920E-02 0.  1.
    10030    2    1    2    0    0  0.00000000000E+00  0.00000000000E+00  0.26180072978E+03  0.27362584336E+04  0.27237053059E+04 0.  0.
        2    1    3    3  502    0 -0.87294984066E+03 -0.78919424786E+03 -0.55765890425E+03  0.13022489926E+04  0.25500000920E-02 0. -1.
       -2    1    3    3    0  502  0.87294984066E+03  0.78919424786E+03  0.81945963403E+03  0.14340094410E+04  0.25500000920E-02 0.  1.
</event>
<event>
 5   0  0.2540684E-05  0.2662196E+04  0.7818609E-02  0.8347376E-01
        2   -1    0    0  501    0  0.00000000000E+00  0.00000000000E+00  0.19762048337E+04  0.19762048337E+04  0.25500000920E-02 0.  1.
       -2   -1    0    0    0  501  0.00000000000E+00  0.00000000000E+00 -0.89657833034E+03  0.89657833034E+03  0.25500000920E-02 0. -1.
    10030    2    1    2    0    0  0.00000000000E+00  0.00000000000E+00  0.10796265034E+04  0.28727831640E+04  0.26621964091E+04 0.  0.
        2    1    3    3  502    0 -0.23277701334E+03  0.75319146048E+03  0.16971929192E+04  0.18713487967E+04  0.25500000920E-02 0.  1.
       -2    1    3    3    0  502  0.23277701334E+03 -0.75319146048E+03 -0.61756641582E+03  0.10014343673E+04  0.25500000920E-02 0. -1.
</event>
<event>
 5   0  0.2540684E-05  0.2728038E+04  0.7818609E-02  0.8325965E-01
        2   -1    0    0  501    0  0.00000000000E+00  0.00000000000E+00  0.10744978771E+04  0.10744978771E+04  0.25500000920E-02 0.  1.
       -2   -1    0    0    0  501  0.00000000000E+00  0.00000000000E+00 -0.17315503997E+04  0.17315503997E+04  0.25500000920E-02 0. -1.
    10030    2    1    2    0    0  0.00000000000E+00  0.00000000000E+00 -0.65705252263E+03  0.28060482768E+04  0.27280375573E+04 0.  0.
        2    1    3    3  502    0  0.10557851567E+03 -0.10108765584E+04 -0.12642257708E+04  0.16221236201E+04  0.25500000920E-02 0. -1.
       -2    1    3    3    0  502 -0.10557851567E+03  0.10108765584E+04  0.60717324818E+03  0.11839246567E+04  0.25500000920E-02 0.  1.
</event>
<event>
 5   0  0.9971923E-06  0.2693273E+04  0.7818609E-02  0.8337191E-01
       -1   -1    0    0    0  501  0.00000000000E+00  0.00000000000E+00  0.13680462580E+04  0.13680462580E+04  0.50400001928E-02 0. -1.
        1   -1    0    0  501    0  0.00000000000E+00  0.00000000000E+00 -0.13255614604E+04  0.13255614604E+04  0.50400001928E-02 0.  1.
    10030    2    1    2    0    0  0.00000000000E+00  0.00000000000E+00  0.42484797535E+02  0.26936077184E+04  0.26932726529E+04 0.  0.
        2    1    3    3  502    0  0.48488841435E+03  0.75097182325E+03 -0.98603429897E+03  0.13309166362E+04  0.25500000920E-02 0.  1.
       -2    1    3    3    0  502 -0.48488841435E+03 -0.75097182325E+03  0.10285190965E+04  0.13626910822E+04  0.25500000920E-02 0. -1.
</event>
<event>
 5   0  0.1036691E-05  0.2680486E+04  0.7818609E-02  0.8341364E-01
        1   -1    0    0  501    0  0.00000000000E+00  0.00000000000E+00  0.21168779849E+04  0.21168779849E+04  0.50400001928E-02 0.  1.
       -1   -1    0    0    0  501  0.00000000000E+00  0.00000000000E+00 -0.84853802106E+03  0.84853802108E+03  0.50400001928E-02 0. -1.
    10030    2    1    2    0    0  0.00000000000E+00  0.00000000000E+00  0.12683399638E+04  0.29654160060E+04  0.26804861172E+04 0.  0.
        4    1    3    3  502    0 -0.22974703868E+03 -0.10093474859E+04  0.15759432084E+04  0.18855144280E+04  0.12699999809E+01 0.  1.
       -4    1    3    3    0  502  0.22974703868E+03  0.10093474859E+04 -0.30760324458E+03  0.10799015780E+04  0.12699999809E+01 0. -1.
</event>
<event>
 5   0  0.1005265E-05  0.2709964E+04  0.7818609E-02  0.8331779E-01
        1   -1    0    0  501    0  0.00000000000E+00  0.00000000000E+00  0.26273965765E+04  0.26273965765E+04  0.50400001928E-02 0.  1.
       -1   -1    0    0    0  501  0.00000000000E+00  0.00000000000E+00 -0.69878143239E+03  0.69878143241E+03  0.50400001928E-02 0. -1.
    10030    2    1    2    0    0  0.00000000000E+00  0.00000000000E+00  0.19286151441E+04  0.33261780089E+04  0.27099637955E+04 0.  0.
        3    1    3    3  502    0 -0.68229868787E+03  0.23978212976E+02 -0.47224523079E+03  0.83013373764E+03  0.10100000352E+00 0. -1.
       -3    1    3    3    0  502  0.68229868787E+03 -0.23978212976E+02  0.24008603749E+04  0.24960442713E+04  0.10100000352E+00 0.  1.
</event>
<event>
 5   0  0.2641216E-05  0.2688474E+04  0.7818609E-02  0.8338754E-01
        2   -1    0    0  501    0  0.00000000000E+00  0.00000000000E+00  0.14356959199E+04  0.14356959199E+04  0.25500000920E-02 0. -1.
       -2   -1    0    0    0  501  0.00000000000E+00  0.00000000000E+00 -0.12586042349E+04  0.12586042349E+04  0.25500000920E-02 0.  1.
    10030    2    1    2    0    0  0.00000000000E+00  0.00000000000E+00  0.17709168498E+03  0.26943001548E+04  0.26884738904E+04 0.  0.
        5    1    3    3  502    0  0.53451540916E+03  0.11689715833E+04 -0.30568891061E+03  0.13212377096E+04  0.46999998093E+01 0. -1.
       -5    1    3    3    0  502 -0.53451540916E+03 -0.11689715833E+04  0.48278059559E+03  0.13730624453E+04  0.46999998093E+01 0.  1.
</event>
<event>
 5   0  0.1036691E-05  0.2586571E+04  0.7818609E-02  0.8372777E-01
        1   -1    0    0  501    0  0.00000000000E+00  0.00000000000E+00  0.15822810380E+04  0.15822810380E+04  0.50400001928E-02 0. -1.
       -1   -1    0    0    0  501  0.00000000000E+00  0.00000000000E+00 -0.10570737262E+04  0.10570737262E+04  0.50400001928E-02 0.  1.
    10030    2    1    2    0    0  0.00000000000E+00  0.00000000000E+00  0.52520731174E+03  0.26393547642E+04  0.25865712538E+04 0.  0.
        4    1    3    3  502    0  0.79006536806E+03 -0.56484441747E+02  0.13058129023E+04  0.15272664229E+04  0.12699999809E+01 0. -1.
       -4    1    3    3    0  502 -0.79006536806E+03  0.56484441747E+02 -0.78060559054E+03  0.11120883413E+04  0.12699999809E+01 0.  1.
</event>
<event>
 5   0  0.2641216E-05  0.2239722E+04  0.7818609E-02  0.8502074E-01
        2   -1    0    0  501    0  0.00000000000E+00  0.00000000000E+00  0.90638604795E+03  0.90638604796E+03  0.25500000920E-02 0.  1.
       -2   -1    0    0    0  501  0.00000000000E+00  0.00000000000E+00 -0.13836145035E+04  0.13836145035E+04  0.25500000920E-02 0. -1.
    10030    2    1    2    0    0  0.00000000000E+00  0.00000000000E+00 -0.47722845551E+03  0.22900005514E+04  0.22397221986E+04 0.  0.
        5    1    3    3  502    0  0.29447294932E+02  0.99617085371E+03 -0.76080748258E+03  0.12538236034E+04  0.46999998093E+01 0.  1.
       -5    1    3    3    0  502 -0.29447294932E+02 -0.99617085371E+03  0.28357902707E+03  0.10361769480E+04  0.46999998093E+01 0. -1.
</event>
<event>
 5   0  0.1036691E-05  0.1879025E+04  0.7818609E-02  0.8665368E-01
        1   -1    0    0  501    0  0.00000000000E+00  0.00000000000E+00  0.17136591793E+04  0.17136591793E+04  0.50400001928E-02 0. -1.
       -1   -1    0    0    0  501  0.00000000000E+00  0.00000000000E+00 -0.51508709400E+03  0.51508709402E+03  0.50400001928E-02 0.  1.
    10030    2    1    2    0    0  0.00000000000E+00  0.00000000000E+00  0.11985720853E+04  0.22287462733E+04  0.18790249884E+04 0.  0.
        4    1    3    3  502    0 -0.74625393295E+03 -0.49070776280E+03  0.94508194306E+03  0.13003347772E+04  0.12699999809E+01 0. -1.
       -4    1    3    3    0  502  0.74625393295E+03  0.49070776280E+03  0.25349014221E+03  0.92841149606E+03  0.12699999809E+01 0.  1.
</event>
<event>
 5   0  0.1041909E-05  0.2718427E+04  0.7818609E-02  0.8329051E-01
       -1   -1    0    0    0  501  0.00000000000E+00  0.00000000000E+00  0.13999095872E+04  0.13999095872E+04  0.50400001928E-02 0. -1.
        1   -1    0    0  501    0  0.00000000000E+00  0.00000000000E+00 -0.13197004075E+04  0.13197004075E+04  0.50400001928E-02 0.  1.
    10030    2    1    2    0    0  0.00000000000E+00  0.00000000000E+00  0.80209179689E+02  0.27196099948E+04  0.27184269369E+04 0.  0.
        5    1    3    3  502    0 -0.10375940709E+04  0.76281658053E+02  0.91513877883E+03  0.13856122913E+04  0.46999998093E+01 0. -1.
       -5    1    3    3    0  502  0.10375940709E+04 -0.76281658053E+02 -0.83492959914E+03  0.13339977035E+04  0.46999998093E+01 0.  1.
</event>
<event>
 5   0  0.1005265E-05  0.2723491E+04  0.7818609E-02  0.8327423E-01
       -1   -1    0    0    0  501  0.00000000000E+00  0.00000000000E+00  0.99219769718E+03  0.99219769720E+03  0.50400001928E-02 0. -1.
        1   -1    0    0  501    0  0.00000000000E+00  0.00000000000E+00 -0.18689326648E+04  0.18689326648E+04  0.50400001928E-02 0.  1.
    10030    2    1    2    0    0  0.00000000000E+00  0.00000000000E+00 -0.87673496759E+03  0.28611303620E+04  0.27234909115E+04 0.  0.
        3    1    3    3  502    0  0.13313704583E+04  0.25848575916E+03 -0.56698220205E+03  0.14699765347E+04  0.10100000352E+00 0. -1.
       -3    1    3    3    0  502 -0.13313704583E+04 -0.25848575916E+03 -0.30975276554E+03  0.13911538272E+04  0.10100000352E+00 0.  1.
</event>
<event>
 5   0  0.1005265E-05  0.2691673E+04  0.7818609E-02  0.8337712E-01
       -1   -1    0    0    0  501  0.00000000000E+00  0.00000000000E+00  0.71511525493E+03  0.71511525495E+03  0.50400001928E-02 0.  1.
        1   -1    0    0  501    0  0.00000000000E+00  0.00000000000E+00 -0.25328455647E+04  0.25328455647E+04  0.50400001928E-02 0. -1.
    10030    2    1    2    0    0  0.00000000000E+00  0.00000000000E+00 -0.18177303097E+04  0.32479608196E+04  0.26916734584E+04 0.  0.
        3    1    3    3  502    0  0.12038476010E+04 -0.58765808033E+03 -0.10647331882E+04  0.17112123884E+04  0.10100000352E+00 0. -1.
       -3    1    3    3    0  502 -0.12038476010E+04  0.58765808033E+03 -0.75299712152E+03  0.15367484313E+04  0.10100000352E+00 0.  1.
</event>
<event>
 5   0  0.2516518E-05  0.2628181E+04  0.7818609E-02  0.8358691E-01
        2   -1    0    0  501    0  0.00000000000E+00  0.00000000000E+00  0.12835257080E+04  0.12835257080E+04  0.25500000920E-02 0.  1.
       -2   -1    0    0    0  501  0.00000000000E+00  0.00000000000E+00 -0.13453830175E+04  0.13453830175E+04  0.25500000920E-02 0. -1.
    10030    2    1    2    0    0  0.00000000000E+00  0.00000000000E+00 -0.61857309512E+02  0.26289087256E+04  0.26281808843E+04 0.  0.
        4    1    3    3  502    0 -0.10608925856E+04 -0.82121751411E+02 -0.80224207595E+03  0.13326030998E+04  0.12699999809E+01 0.  1.
       -4    1    3    3    0  502  0.10608925856E+04  0.82121751411E+02  0.74038476644E+03  0.12963056258E+04  0.12699999809E+01 0. -1.
</event>
<event>
 5   0  0.2540684E-05  0.2202808E+04  0.7818609E-02  0.8517260E-01
       -2   -1    0    0    0  501  0.00000000000E+00  0.00000000000E+00  0.61304320783E+03  0.61304320784E+03  0.25500000920E-02 0.  1.
        2   -1    0    0  501    0  0.00000000000E+00  0.00000000000E+00 -0.19788015403E+04  0.19788015403E+04  0.25500000920E-02 0. -1.
    10030    2    1    2    0    0  0.00000000000E+00  0.00000000000E+00 -0.13657583324E+04  0.25918447481E+04  0.22028080660E+04 0.  0.
        2    1    3    3  502    0 -0.62400315434E+02  0.16410703431E+03 -0.19622307529E+04  0.19700696550E+04  0.25500000920E-02 0. -1.
       -2    1    3    3    0  502  0.62400315434E+02 -0.16410703431E+03  0.59647242042E+03  0.62177509311E+03  0.25500000920E-02 0.  1.
</event>
<event>
 5   0  0.1005265E-05  0.2211648E+04  0.7818609E-02  0.8513595E-01
       -1   -1    0    0    0  501  0.00000000000E+00  0.00000000000E+00  0.83510277441E+03  0.83510277443E+03  0.50400001928E-02 0.  1.
        1   -1    0    0  501    0  0.00000000000E+00  0.00000000000E+00 -0.14643070556E+04  0.14643070556E+04  0.50400001928E-02 0. -1.
    10030    2    1    2    0    0  0.00000000000E+00  0.00000000000E+00 -0.62920428121E+03  0.22994098301E+04  0.22116481499E+04 0.  0.
        3    1    3    3  502    0  0.14995183601E+03 -0.10168913465E+04 -0.73857468861E+03  0.12657196153E+04  0.10100000352E+00 0. -1.
       -3    1    3    3    0  502 -0.14995183601E+03  0.10168913465E+04  0.10937040741E+03  0.10336902147E+04  0.10100000352E+00 0.  1.
</event>
<event>
 5   0  0.2615843E-05  0.2545521E+04  0.7818609E-02  0.8386946E-01
       -2   -1    0    0    0  501  0.00000000000E+00  0.00000000000E+00  0.10241016255E+04  0.10241016255E+04  0.25500000920E-02 0. -1.
        2   -1    0    0  501    0  0.00000000000E+00  0.00000000000E+00 -0.15817949955E+04  0.15817949955E+04  0.25500000920E-02 0.  1.
    10030    2    1    2    0    0  0.00000000000E+00  0.00000000000E+00 -0.55769336999E+03  0.26058966210E+04  0.25455206352E+04 0.  0.
        3    1    3    3  502    0 -0.75057928251E+03  0.81356123564E+03  0.36427971565E+03  0.11653114884E+04  0.10100000352E+00 0. -1.
       -3    1    3    3    0  502  0.75057928251E+03 -0.81356123564E+03 -0.92197308564E+03  0.14405851326E+04  0.10100000352E+00 0.  1.
</event>
<event>
 5   0  0.1096672E-05  0.2693324E+04  0.7818609E-02  0.8337174E-01
       -1   -1    0    0    0  501  0.00000000000E+00  0.00000000000E+00  0.12551154122E+04  0.12551154122E+04  0.50400001928E-02 0.  1.
        1   -1    0    0  501    0  0.00000000000E+00  0.00000000000E+00 -0.14448859569E+04  0.14448859569E+04  0.50400001928E-02 0. -1.
    10030    2    1    2    0    0  0.00000000000E+00  0.00000000000E+00 -0.18977054471E+03  0.27000013692E+04  0.26933240677E+04 0.  0.
        1    1    3    3  502    0 -0.10039555214E+03  0.69164401779E+03  0.10590758160E+04  0.12688941241E+04  0.50400001928E-02 0.  1.
       -1    1    3    3    0  502  0.10039555214E+03 -0.69164401779E+03 -0.12488463607E+04  0.14311072450E+04  0.50400001928E-02 0. -1.
</event>
<event>
 5   0  0.1036691E-05  0.3083649E+04  0.7818609E-02  0.8220240E-01
        1   -1    0    0  501    0  0.00000000000E+00  0.00000000000E+00  0.81839814388E+03  0.81839814389E+03  0.50400001928E-02 0.  1.
       -1   -1    0    0    0  501  0.00000000000E+00  0.00000000000E+00 -0.29047260797E+04  0.29047260798E+04  0.50400001928E-02 0. -1.
    10030    2    1    2    0    0  0.00000000000E+00  0.00000000000E+00 -0.20863279359E+04  0.37231242236E+04  0.30836487687E+04 0.  0.
        4    1    3    3  502    0 -0.48041621009E+03 -0.79343720559E+03 -0.25301881021E+04  0.26948461512E+04  0.12699999809E+01 0. -1.
       -4    1    3    3    0  502  0.48041621009E+03  0.79343720559E+03  0.44386016620E+03  0.10282780724E+04  0.12699999809E+01 0.  1.
</event>
<event>
 5   0  0.1041909E-05  0.2617948E+04  0.7818609E-02  0.8362130E-01
        1   -1    0    0  501    0  0.00000000000E+00  0.00000000000E+00  0.84548034056E+03  0.84548034058E+03  0.50400001928E-02 0. -1.
       -1   -1    0    0    0  501  0.00000000000E+00  0.00000000000E+00 -0.20265550382E+04  0.20265550383E+04  0.50400001928E-02 0.  1.
    10030    2    1    2    0    0  0.00000000000E+00  0.00000000000E+00 -0.11810746977E+04  0.28720353788E+04  0.26179476266E+04 0.  0.
        5    1    3    3  502    0  0.46150118593E+03 -0.10019968492E+03 -0.19298298864E+04  0.19867784985E+04  0.46999998093E+01 0.  1.
       -5    1    3    3    0  502 -0.46150118593E+03  0.10019968492E+03  0.74875518876E+03  0.88525688033E+03  0.46999998093E+01 0. -1.
</event>
<event>
 5   0  0.2615843E-05  0.2542253E+04  0.7818609E-02  0.8388085E-01
        2   -1    0    0  501    0  0.00000000000E+00  0.00000000000E+00  0.21626051881E+04  0.21626051882E+04  0.25500000920E-02 0.  1.
       -2   -1    0    0    0  501  0.00000000000E+00  0.00000000000E+00 -0.74713729448E+03  0.74713729448E+03  0.25500000920E-02 0. -1.
    10030    2    1    2    0    0  0.00000000000E+00  0.00000000000E+00  0.14154678937E+04  0.29097424826E+04  0.25422533228E+04 0.  0.
        3    1    3    3  502    0  0.11886627928E+04  0.25584199978E+03  0.28349444461E+03  0.12484964854E+04  0.10100000352E+00 0. -1.
       -3    1    3    3    0  502 -0.11886627928E+04 -0.25584199978E+03  0.11319734491E+04  0.16612459972E+04  0.10100000352E+00 0.  1.
</event>
<event>
 5   0  0.1096672E-05  0.2672086E+04  0.7818609E-02  0.8344119E-01
       -1   -1    0    0    0  501  0.00000000000E+00  0.00000000000E+00  0.11293189486E+04  0.11293189486E+04  0.50400001928E-02 0.  1.
        1   -1    0    0  501    0  0.00000000000E+00  0.00000000000E+00 -0.15806082369E+04  0.15806082369E+04  0.50400001928E-02 0. -1.
    10030    2    1    2    0    0  0.00000000000E+00  0.00000000000E+00 -0.45128928830E+03  0.27099271856E+04  0.26720859510E+04 0.  0.
        1    1    3    3  502    0 -0.12438867693E+03  0.54189249725E+03 -0.14577116073E+04  0.15601420293E+04  0.50400001928E-02 0. -1.
       -1    1    3    3    0  502  0.12438867693E+03 -0.54189249725E+03  0.10064223190E+04  0.11497851563E+04  0.50400001928E-02 0.  1.
</event>
<event>
 5   0  0.2540232E-05  0.2681837E+04  0.7818609E-02  0.8340922E-01
       -2   -1    0    0    0  501  0.00000000000E+00  0.00000000000E+00  0.16569995535E+04  0.16569995535E+04  0.25500000920E-02 0. -1.
        2   -1    0    0  501    0  0.00000000000E+00  0.00000000000E+00 -0.10851311829E+04  0.10851311829E+04  0.25500000920E-02 0.  1.
    10030    2    1    2    0    0  0.00000000000E+00  0.00000000000E+00  0.57186837063E+03  0.27421307364E+04  0.26818365987E+04 0.  0.
        1    1    3    3  502    0  0.95593334056E+03 -0.93558811902E+03  0.18932065955E+03  0.13509167229E+04  0.50400001928E-02 0. -1.
       -1    1    3    3    0  502 -0.95593334056E+03  0.93558811902E+03  0.38254771108E+03  0.13912140135E+04  0.50400001928E-02 0.  1.
</event>
<event>
 5   0  0.1036691E-05  0.2641050E+04  0.7818609E-02  0.8354390E-01
       -1   -1    0    0    0  501  0.00000000000E+00  0.00000000000E+00  0.16049770374E+04  0.16049770375E+04  0.50400001928E-02 0.  1.
        1   -1    0    0  501    0  0.00000000000E+00  0.00000000000E+00 -0.10864863488E+04  0.10864863488E+04  0.50400001928E-02 0. -1.
    10030    2    1    2    0    0  0.00000000000E+00  0.00000000000E+00  0.51849068863E+03  0.26914633863E+04  0.26410495197E+04 0.  0.
        4    1    3    3  502    0  0.87752998144E+03  0.43089944178E+02  0.12638973749E+04  0.15392705411E+04  0.12699999809E+01 0.  1.
       -4    1    3    3    0  502 -0.87752998144E+03 -0.43089944178E+02 -0.74540668626E+03  0.11521928452E+04  0.12699999809E+01 0. -1.
</event>
<event>
 5   0  0.1041909E-05  0.2724694E+04  0.7818609E-02  0.8327037E-01
       -1   -1    0    0    0  501  0.00000000000E+00  0.00000000000E+00  0.13541336672E+04  0.13541336672E+04  0.50400001928E-02 0. -1.
        1   -1    0    0  501    0  0.00000000000E+00  0.00000000000E+00 -0.13706100851E+04  0.13706100851E+04  0.50400001928E-02 0.  1.
    10030    2    1    2    0    0  0.00000000000E+00  0.00000000000E+00 -0.16476417894E+02  0.27247437523E+04  0.27246939357E+04 0.  0.
        5    1    3    3  502    0  0.27574950966E+03 -0.17076618516E+03 -0.13314284104E+04  0.13703731551E+04  0.46999998093E+01 0.  1.
       -5    1    3    3    0  502 -0.27574950966E+03  0.17076618516E+03  0.13149519925E+04  0.13543705972E+04  0.46999998093E+01 0. -1.
</event>
<event>
 5   0  0.9971923E-06  0.2799033E+04  0.7818609E-02  0.8303569E-01
       -1   -1    0    0    0  501  0.00000000000E+00  0.00000000000E+00  0.12645040293E+04  0.12645040293E+04  0.50400001928E-02 0.  1.
        1   -1    0    0  501    0  0.00000000000E+00  0.00000000000E+00 -0.15489448184E+04  0.15489448185E+04  0.50400001928E-02 0. -1.
    10030    2    1    2    0    0  0.00000000000E+00  0.00000000000E+00 -0.28444078911E+03  0.28134488478E+04  0.27990333790E+04 0.  0.
        2    1    3    3  502    0 -0.68990143371E+02  0.12123439571E+04 -0.84158351660E+03  0.14774303116E+04  0.25500000920E-02 0. -1.
       -2    1    3    3    0  502  0.68990143371E+02 -0.12123439571E+04  0.55714272749E+03  0.13360185362E+04  0.25500000920E-02 0.  1.
</event>
<event>
 5   0  0.9971923E-06  0.2596688E+04  0.7818609E-02  0.8369327E-01
        1   -1    0    0  501    0  0.00000000000E+00  0.00000000000E+00  0.16692834329E+04  0.16692834329E+04  0.50400001928E-02 0. -1.
       -1   -1    0    0    0  501  0.00000000000E+00  0.00000000000E+00 -0.10098325261E+04  0.10098325261E+04  0.50400001928E-02 0.  1.
    10030    2    1    2    0    0  0.00000000000E+00  0.00000000000E+00  0.65945090681E+03  0.26791159590E+04  0.25966876638E+04 0.  0.
        2    1    3    3  502    0  0.72059276443E+03  0.10090160881E+04 -0.67635584611E+02  0.12417495603E+04  0.25500000920E-02 0.  1.
       -2    1    3    3    0  502 -0.72059276443E+03 -0.10090160881E+04  0.72708649142E+03  0.14373663987E+04  0.25500000920E-02 0. -1.
</event>
<event>
 5   0  0.1041909E-05  0.2708862E+04  0.7818609E-02  0.8332135E-01
       -1   -1    0    0    0  501  0.00000000000E+00  0.00000000000E+00  0.22247140314E+04  0.22247140315E+04  0.50400001928E-02 0. -1.
        1   -1    0    0  501    0  0.00000000000E+00  0.00000000000E+00 -0.82459295274E+03  0.82459295276E+03  0.50400001928E-02 0.  1.
    10030    2    1    2    0    0  0.00000000000E+00  0.00000000000E+00  0.14001210787E+04  0.30493069842E+04  0.27088621318E+04 0.  0.
        5    1    3    3  502    0 -0.60810232461E+03  0.17041428654E+03 -0.64870296121E+03  0.90535467532E+03  0.46999998093E+01 0.  1.
       -5    1    3    3    0  502  0.60810232461E+03 -0.17041428654E+03  0.20488240399E+04  0.21439523089E+04  0.46999998093E+01 0. -1.
</event>
<event>
 5   0  0.2540684E-05  0.2270560E+04  0.7818609E-02  0.8489620E-01
       -2   -1    0    0    0  501  0.00000000000E+00  0.00000000000E+00  0.19556534835E+04  0.19556534835E+04  0.25500000920E-02 0. -1.
        2   -1    0    0  501    0  0.00000000000E+00  0.00000000000E+00 -0.65904346451E+03  0.65904346452E+03  0.25500000920E-02 0.  1.
    10030    2    1    2    0    0  0.00000000000E+00  0.00000000000E+00  0.12966100190E+04  0.26146969480E+04  0.22705599725E+04 0.  0.
        2    1    3    3  502    0 -0.71768657888E+03 -0.75495652678E+03  0.12840536517E+03  0.10495338587E+04  0.25500000920E-02 0.  1.
       -2    1    3    3    0  502  0.71768657888E+03  0.75495652678E+03  0.11682046538E+04  0.15651630893E+04  0.25500000920E-02 0. -1.
</event>
<event>
 5   0  0.1096672E-05  0.2734372E+04  0.7818609E-02  0.8323938E-01
        1   -1    0    0  501    0  0.00000000000E+00  0.00000000000E+00  0.16767645909E+04  0.16767645909E+04  0.50400001928E-02 0. -1.
       -1   -1    0    0    0  501  0.00000000000E+00  0.00000000000E+00 -0.11147645595E+04  0.11147645595E+04  0.50400001928E-02 0.  1.
    10030    2    1    2    0    0  0.00000000000E+00  0.00000000000E+00  0.56200003133E+03  0.27915291504E+04  0.27343721331E+04 0.  0.
        1    1    3    3  502    0 -0.33992693261E+03  0.82296127282E+03 -0.77817516233E+03  0.11825278683E+04  0.50400001928E-02 0.  1.
       -1    1    3    3    0  502  0.33992693261E+03 -0.82296127282E+03  0.13401751937E+04  0.16090012821E+04  0.50400001928E-02 0. -1.
</event>
<event>
 5   0  0.1096672E-05  0.2815620E+04  0.7818609E-02  0.8298435E-01
       -1   -1    0    0    0  501  0.00000000000E+00  0.00000000000E+00  0.13093687934E+04  0.13093687934E+04  0.50400001928E-02 0. -1.
        1   -1    0    0  501    0  0.00000000000E+00  0.00000000000E+00 -0.15136526495E+04  0.15136526495E+04  0.50400001928E-02 0.  1.
    10030    2    1    2    0    0  0.00000000000E+00  0.00000000000E+00 -0.20428385609E+03  0.28230214429E+04  0.28156203886E+04 0.  0.
        1    1    3    3  502    0  0.25289735362E+03 -0.10142131257E+04  0.84338742553E+03  0.13430888598E+04  0.50400001928E-02 0. -1.
       -1    1    3    3    0  502 -0.25289735362E+03  0.10142131257E+04 -0.10476712816E+04  0.14799325830E+04  0.50400001928E-02 0.  1.
</event>
<event>
 5   0  0.1096672E-05  0.2771925E+04  0.7818609E-02  0.8312038E-01
       -1   -1    0    0    0  501  0.00000000000E+00  0.00000000000E+00  0.12519700404E+04  0.12519700404E+04  0.50400001928E-02 0. -1.
        1   -1    0    0  501    0  0.00000000000E+00  0.00000000000E+00 -0.15342956883E+04  0.15342956883E+04  0.50400001928E-02 0.  1.
    10030    2    1    2    0    0  0.00000000000E+00  0.00000000000E+00 -0.28232564795E+03  0.27862657287E+04  0.27719251323E+04 0.  0.
        1    1    3    3  502    0  0.12405247454E+03  0.13750907811E+04 -0.19588502156E+02  0.13808140288E+04  0.50400001928E-02 0. -1.
       -1    1    3    3    0  502 -0.12405247454E+03 -0.13750907811E+04 -0.26273714580E+03  0.14054516998E+04  0.50400001928E-02 0.  1.
</event>
<event>
 5   0  0.2516518E-05  0.2673953E+04  0.7818609E-02  0.8343506E-01
        2   -1    0    0  501    0  0.00000000000E+00  0.00000000000E+00  0.27039835181E+04  0.27039835181E+04  0.25500000920E-02 0. -1.
       -2   -1    0    0    0  501  0.00000000000E+00  0.00000000000E+00 -0.66106403489E+03  0.66106403489E+03  0.25500000920E-02 0.  1.
    10030    2    1    2    0    0  0.00000000000E+00  0.00000000000E+00  0.20429194832E+04  0.33650475530E+04  0.26739530697E+04 0.  0.
        4    1    3    3  502    0 -0.60168776781E+03  0.40354633084E+03 -0.39262335853E+03  0.82403429881E+03  0.12699999809E+01 0.  1.
       -4    1    3    3    0  502  0.60168776781E+03 -0.40354633084E+03  0.24355428417E+04  0.25410132542E+04  0.12699999809E+01 0. -1.
</event>
<event>
 5   0  0.1005265E-05  0.2559888E+04  0.7818609E-02  0.8381956E-01
        1   -1    0    0  501    0  0.00000000000E+00  0.00000000000E+00  0.64344641865E+03  0.64344641867E+03  0.50400001928E-02 0. -1.
       -1   -1    0    0    0  501  0.00000000000E+00  0.00000000000E+00 -0.25460645976E+04  0.25460645976E+04  0.50400001928E-02 0.  1.
    10030    2    1    2    0    0  0.00000000000E+00  0.00000000000E+00 -0.19026181790E+04  0.31895110163E+04  0.25598876124E+04 0.  0.
        3    1    3    3  502    0 -0.30651250060E+03  0.12098149100E+04 -0.13051568510E+04  0.18058340027E+04  0.10100000352E+00 0.  1.
       -3    1    3    3    0  502  0.30651250060E+03 -0.12098149100E+04 -0.59746132802E+03  0.13836770136E+04  0.10100000352E+00 0. -1.
</event>
<event>
 5   0  0.2516518E-05  0.2309950E+04  0.7818609E-02  0.8474008E-01
       -2   -1    0    0    0  501  0.00000000000E+00  0.00000000000E+00  0.20939369362E+04  0.20939369362E+04  0.25500000920E-02 0. -1.
        2   -1    0    0  501    0  0.00000000000E+00  0.00000000000E+00 -0.63706168052E+03  0.63706168053E+03  0.25500000920E-02 0.  1.
    10030    2    1    2    0    0  0.00000000000E+00  0.00000000000E+00  0.14568752557E+04  0.27309986167E+04  0.23099497687E+04 0.  0.
        4    1    3    3  502    0 -0.33961854329E+03  0.10585694033E+04  0.35822197451E+03  0.11680045087E+04  0.12699999809E+01 0. -1.
       -4    1    3    3    0  502  0.33961854329E+03 -0.10585694033E+04  0.10986532812E+04  0.15629941080E+04  0.12699999809E+01 0.  1.
</event>
<event>
 5   0  0.2615843E-05  0.2806947E+04  0.7818609E-02  0.8301115E-01
        2   -1    0    0  501    0  0.00000000000E+00  0.00000000000E+00  0.24826337990E+04  0.24826337990E+04  0.25500000920E-02 0. -1.
       -2   -1    0    0    0  501  0.00000000000E+00  0.00000000000E+00 -0.79340628547E+03  0.79340628547E+03  0.25500000920E-02 0.  1.
    10030    2    1    2    0    0  0.00000000000E+00  0.00000000000E+00  0.16892275135E+04  0.32760400844E+04  0.28069465692E+04 0.  0.
        3    1    3    3  502    0 -0.10377171089E+04 -0.63813238820E+03  0.31250432373E+02  0.12186247752E+04  0.10100000352E+00 0.  1.
       -3    1    3    3    0  502  0.10377171089E+04  0.63813238820E+03  0.16579770811E+04  0.20574153092E+04  0.10100000352E+00 0. -1.
</event>
<event>
 5   0  0.2540232E-05  0.2772661E+04  0.7818609E-02  0.8311806E-01
        2   -1    0    0  501    0  0.00000000000E+00  0.00000000000E+00  0.19467182747E+04  0.19467182747E+04  0.25500000920E-02 0.  1.
       -2   -1    0    0    0  501  0.00000000000E+00  0.00000000000E+00 -0.98725783782E+03  0.98725783782E+03  0.25500000920E-02 0. -1.
    10030    2    1    2    0    0  0.00000000000E+00  0.00000000000E+00  0.95946043687E+03  0.29339761125E+04  0.27726614469E+04 0.  0.
        1    1    3    3  502    0 -0.34150381981E+03 -0.11824962044E+04 -0.19534473523E+03  0.12462269849E+04  0.50400001928E-02 0. -1.
       -1    1    3    3    0  502  0.34150381981E+03  0.11824962044E+04  0.11548051721E+04  0.16877491276E+04  0.50400001928E-02 0.  1.
</event>
<event>
 5   0  0.2516518E-05  0.2692463E+04  0.7818609E-02  0.8337454E-01
       -2   -1    0    0    0  501  0.00000000000E+00  0.00000000000E+00  0.89776787754E+03  0.89776787755E+03  0.25500000920E-02 0. -1.
        2   -1    0    0  501    0  0.00000000000E+00  0.00000000000E+00 -0.20187175030E+04  0.20187175030E+04  0.25500000920E-02 0.  1.
    10030    2    1    2    0    0  0.00000000000E+00  0.00000000000E+00 -0.11209496255E+04  0.29164853806E+04  0.26924633539E+04 0.  0.
        4    1    3    3  502    0  0.53819205395E+03 -0.52538448926E+03 -0.17699132467E+04  0.19230897177E+04  0.12699999809E+01 0.  1.
       -4    1    3    3    0  502 -0.53819205395E+03  0.52538448926E+03  0.64896362122E+03  0.99339566289E+03  0.12699999809E+01 0. -1.
</event>
<event>
 5   0  0.1005265E-05  0.2626769E+04  0.7818609E-02  0.8359165E-01
        1   -1    0    0  501    0  0.00000000000E+00  0.00000000000E+00  0.14342718128E+04  0.14342718128E+04  0.50400001928E-02 0.  1.
       -1   -1    0    0    0  501  0.00000000000E+00  0.00000000000E+00 -0.12026865204E+04  0.12026865204E+04  0.50400001928E-02 0. -1.
    10030    2    1    2    0    0  0.00000000000E+00  0.00000000000E+00  0.23158529245E+03  0.26369583332E+04  0.26267694043E+04 0.  0.
        3    1    3    3  502    0 -0.69355969461E+03 -0.10141831650E+04 -0.35010539453E+03  0.12775626559E+04  0.10100000352E+00 0. -1.
       -3    1    3    3    0  502  0.69355969461E+03  0.10141831650E+04  0.58169068698E+03  0.13593956774E+04  0.10100000352E+00 0.  1.
</event>
<event>
 5   0  0.2615843E-05  0.2598348E+04  0.7818609E-02  0.8368762E-01
        2   -1    0    0  501    0  0.00000000000E+00  0.00000000000E+00  0.18903233296E+04  0.18903233296E+04  0.25500000920E-02 0. -1.
       -2   -1    0    0    0  501  0.00000000000E+00  0.00000000000E+00 -0.89289147677E+03  0.89289147677E+03  0.25500000920E-02 0.  1.
    10030    2    1    2    0    0  0.00000000000E+00  0.00000000000E+00  0.99743185285E+03  0.27832148064E+04  0.25983483903E+04 0.  0.
        3    1    3    3  502    0  0.29952420731E+03 -0.83137983779E+03 -0.52137798118E+03  0.10260322582E+04  0.10100000352E+00 0.  1.
       -3    1    3    3    0  502 -0.29952420731E+03  0.83137983779E+03  0.15188098340E+04  0.17571825482E+04  0.10100000352E+00 0. -1.
</event>
<event>
 5   0  0.1005265E-05  0.2658759E+04  0.7818609E-02  0.8348512E-01
        1   -1    0    0  501    0  0.00000000000E+00  0.00000000000E+00  0.14198701934E+04  0.14198701934E+04  0.50400001928E-02 0. -1.
       -1   -1    0    0    0  501  0.00000000000E+00  0.00000000000E+00 -0.12446561696E+04  0.12446561696E+04  0.50400001928E-02 0.  1.
    10030    2    1    2    0    0  0.00000000000E+00  0.00000000000E+00  0.17521402379E+03  0.26645263630E+04  0.26587592567E+04 0.  0.
        3    1    3    3  502    0 -0.40397254429E+03  0.14138033088E+03 -0.11737206292E+04  0.12493207515E+04  0.10100000352E+00 0.  1.
       -3    1    3    3    0  502  0.40397254429E+03 -0.14138033088E+03  0.13489346530E+04  0.14152056115E+04  0.10100000352E+00 0. -1.
</event>
<event>
 5   0  0.2516518E-05  0.2259250E+04  0.7818609E-02  0.8494164E-01
       -2   -1    0    0    0  501  0.00000000000E+00  0.00000000000E+00  0.67876264097E+03  0.67876264097E+03  0.25500000920E-02 0. -1.
        2   -1    0    0  501    0  0.00000000000E+00  0.00000000000E+00 -0.18799687586E+04  0.18799687586E+04  0.25500000920E-02 0.  1.
    10030    2    1    2    0    0  0.00000000000E+00  0.00000000000E+00 -0.12012061177E+04  0.25587313996E+04  0.22592499282E+04 0.  0.
        4    1    3    3  502    0 -0.49041158538E+02  0.92828673589E+02  0.67322443741E+03  0.68136257154E+03  0.12699999809E+01 0. -1.
       -4    1    3    3    0  502  0.49041158538E+02 -0.92828673589E+02 -0.18744305551E+04  0.18773688281E+04  0.12699999809E+01 0.  1.
</event>
<event>
 5   0  0.2540684E-05  0.2611920E+04  0.7818609E-02  0.8364163E-01
       -2   -1    0    0    0  501  0.00000000000E+00  0.00000000000E+00  0.16957513465E+04  0.16957513465E+04  0.25500000920E-02 0. -1.
        2   -1    0    0  501    0  0.00000000000E+00  0.00000000000E+00 -0.10057675162E+04  0.10057675162E+04  0.25500000920E-02 0.  1.
    10030    2    1    2    0    0  0.00000000000E+00  0.00000000000E+00  0.68998383025E+03  0.27015188627E+04  0.26119200753E+04 0.  0.
        2    1    3    3  502    0 -0.10977116412E+04 -0.35885517098E+03 -0.28566522373E+03  0.11896858834E+04  0.25500000920E-02 0.  1.
       -2    1    3    3    0  502  0.10977116412E+04  0.35885517098E+03  0.97564905398E+03  0.15118329794E+04  0.25500000920E-02 0. -1.
</event>
<event>
 5   0  0.2540232E-05  0.2632792E+04  0.7818609E-02  0.8357147E-01
        2   -1    0    0  501    0  0.00000000000E+00  0.00000000000E+00  0.16079229358E+04  0.16079229358E+04  0.25500000920E-02 0.  1.
       -2   -1    0    0    0  501  0.00000000000E+00  0.00000000000E+00 -0.10777244766E+04  0.10777244766E+04  0.25500000920E-02 0. -1.
    10030    2    1    2    0    0  0.00000000000E+00  0.00000000000E+00  0.53019845916E+03  0.26856474123E+04  0.26327916016E+04 0.  0.
        1    1    3    3  502    0  0.44937554097E+03  0.23704935238E+03 -0.97368091675E+03  0.10982646766E+04  0.50400001928E-02 0. -1.
       -1    1    3    3    0  502 -0.44937554097E+03 -0.23704935238E+03  0.15038793759E+04  0.15873827357E+04  0.50400001928E-02 0.  1.
</event>
<event>
 5   0  0.2540232E-05  0.2596555E+04  0.7818609E-02  0.8369372E-01
        2   -1    0    0  501    0  0.00000000000E+00  0.00000000000E+00  0.24454127521E+04  0.24454127521E+04  0.25500000920E-02 0. -1.
       -2   -1    0    0    0  501  0.00000000000E+00  0.00000000000E+00 -0.68925946613E+03  0.68925946614E+03  0.25500000920E-02 0.  1.
    10030    2    1    2    0    0  0.00000000000E+00  0.00000000000E+00  0.17561532860E+04  0.31346722182E+04  0.25965545540E+04 0.  0.
        1    1    3    3  502    0  0.94528208837E+03 -0.64325633162E+03  0.13565956339E+03  0.11514080302E+04  0.50400001928E-02 0.  1.
       -1    1    3    3    0  502 -0.94528208837E+03  0.64325633162E+03  0.16204937226E+04  0.19832641881E+04  0.50400001928E-02 0. -1.
</event>
<event>
 5   0  0.2540684E-05  0.2672202E+04  0.7818609E-02  0.8344081E-01
       -2   -1    0    0    0  501  0.00000000000E+00  0.00000000000E+00  0.13857477673E+04  0.13857477673E+04  0.25500000920E-02 0. -1.
        2   -1    0    0  501    0  0.00000000000E+00  0.00000000000E+00 -0.12882330562E+04  0.12882330562E+04  0.25500000920E-02 0.  1.
    10030    2    1    2    0    0  0.00000000000E+00  0.00000000000E+00  0.97514711058E+02  0.26739808235E+04  0.26722021490E+04 0.  0.
        2    1    3    3  502    0  0.12580219207E+04 -0.10193737830E+03 -0.38989010007E+03  0.13209938199E+04  0.25500000920E-02 0.  1.
       -2    1    3    3    0  502 -0.12580219207E+04  0.10193737830E+03  0.48740481113E+03  0.13529870036E+04  0.25500000920E-02 0. -1.
</event>
<event>
 5   0  0.9971923E-06  0.2712827E+04  0.7818609E-02  0.8330855E-01
       -1   -1    0    0    0  501  0.00000000000E+00  0.00000000000E+00  0.13398573852E+04  0.13398573852E+04  0.50400001928E-02 0.  1.
        1   -1    0    0  501    0  0.00000000000E+00  0.00000000000E+00 -0.13731745555E+04  0.13731745555E+04  0.50400001928E-02 0. -1.
    10030    2    1    2    0    0  0.00000000000E+00  0.00000000000E+00 -0.33317170299E+02  0.27130319406E+04  0.27128273585E+04 0.  0.
        2    1    3    3  502    0  0.55701781941E+03 -0.26506679980E+03 -0.12247765109E+04  0.13713521652E+04  0.25500000920E-02 0. -1.
       -2    1    3    3    0  502 -0.55701781941E+03  0.26506679980E+03  0.11914593406E+04  0.13416797754E+04  0.25500000920E-02 0.  1.
</event>
<event>
 5   0  0.9971923E-06  0.2652513E+04  0.7818609E-02  0.8350579E-01
       -1   -1    0    0    0  501  0.00000000000E+00  0.00000000000E+00  0.13410373289E+04  0.13410373289E+04  0.50400001928E-02 0. -1.
        1   -1    0    0  501    0  0.00000000000E+00  0.00000000000E+00 -0.13116390207E+04  0.13116390207E+04  0.50400001928E-02 0.  1.
    10030    2    1    2    0    0  0.00000000000E+00  0.00000000000E+00  0.29398308201E+02  0.26526763496E+04  0.26525134411E+04 0.  0.
        2    1    3    3  502    0 -0.12971317009E+04 -0.19131866210E+02  0.29046998560E+03  0.13293944074E+04  0.25500000920E-02 0. -1.
       -2    1    3    3    0  502  0.12971317009E+04  0.19131866210E+02 -0.26107167740E+03  0.13232819422E+04  0.25500000920E-02 0.  1.
</event>
<event>
 5   0  0.1036691E-05  0.2551386E+04  0.7818609E-02  0.8384904E-01
        1   -1    0    0  501    0  0.00000000000E+00  0.00000000000E+00  0.10064597612E+04  0.10064597612E+04  0.50400001928E-02 0. -1.
       -1   -1    0    0    0  501  0.00000000000E+00  0.00000000000E+00 -0.16169474444E+04  0.16169474444E+04  0.50400001928E-02 0.  1.
    10030    2    1    2    0    0  0.00000000000E+00  0.00000000000E+00 -0.61048768314E+03  0.26234072056E+04  0.25513859283E+04 0.  0.
        4    1    3    3  502    0 -0.35070665081E+03 -0.11186895996E+04 -0.82236125883E+03  0.14320409310E+04  0.12699999809E+01 0.  1.
       -4    1    3    3    0  502  0.35070665081E+03  0.11186895996E+04  0.21187357569E+03  0.11913662746E+04  0.12699999809E+01 0. -1.
</event>
<event>
 5   0  0.1041909E-05  0.2554791E+04  0.7818609E-02  0.8383722E-01
        1   -1    0    0  501    0  0.00000000000E+00  0.00000000000E+00  0.12238833134E+04  0.12238833134E+04  0.50400001928E-02 0.  1.
       -1   -1    0    0    0  501  0.00000000000E+00  0.00000000000E+00 -0.13332477257E+04  0.13332477257E+04  0.50400001928E-02 0. -1.
    10030    2    1    2    0    0  0.00000000000E+00  0.00000000000E+00 -0.10936441237E+03  0.25571310391E+04  0.25547912980E+04 0.  0.
        5    1    3    3  502    0  0.25355890861E+03 -0.82691915782E+03  0.88619471575E+03  0.12383257156E+04  0.46999998093E+01 0.  1.
       -5    1    3    3    0  502 -0.25355890861E+03  0.82691915782E+03 -0.99555912812E+03  0.13188053235E+04  0.46999998093E+01 0. -1.
</event>
<event>
 5   0  0.1041909E-05  0.2680428E+04  0.7818609E-02  0.8341383E-01
       -1   -1    0    0    0  501  0.00000000000E+00  0.00000000000E+00  0.16601872030E+04  0.16601872030E+04  0.50400001928E-02 0.  1.
        1   -1    0    0  501    0  0.00000000000E+00  0.00000000000E+00 -0.10819101829E+04  0.10819101830E+04  0.50400001928E-02 0. -1.
    10030    2    1    2    0    0  0.00000000000E+00  0.00000000000E+00  0.57827702004E+03  0.27420973860E+04  0.26804279065E+04 0.  0.
        5    1    3    3  502    0  0.75099407196E+03  0.25762598318E+03  0.13936965831E+04  0.16039873750E+04  0.46999998093E+01 0.  1.
       -5    1    3    3    0  502 -0.75099407196E+03 -0.25762598318E+03 -0.81541956305E+03  0.11381100110E+04  0.46999998093E+01 0. -1.
</event>
<event>
 5   0  0.2615843E-05  0.2794980E+04  0.7818609E-02  0.8304828E-01
       -2   -1    0    0    0  501  0.00000000000E+00  0.00000000000E+00  0.84988861964E+03  0.84988861965E+03  0.25500000920E-02 0.  1.
        2   -1    0    0  501    0  0.00000000000E+00  0.00000000000E+00 -0.22979234120E+04  0.22979234120E+04  0.25500000920E-02 0. -1.
    10030    2    1    2    0    0  0.00000000000E+00  0.00000000000E+00 -0.14480347923E+04  0.31478120316E+04  0.27949804698E+04 0.  0.
        3    1    3    3  502    0 -0.12621980800E+04  0.26763649178E+03 -0.13286356678E+04  0.18520383454E+04  0.10100000352E+00 0. -1.
       -3    1    3    3    0  502  0.12621980800E+04 -0.26763649178E+03 -0.11939912450E+03  0.12957736862E+04  0.10100000352E+00 0.  1.
</event>
<event>
 5   0  0.2615843E-05  0.2691569E+04  0.7818609E-02  0.8337746E-01
        2   -1    0    0  501    0  0.00000000000E+00  0.00000000000E+00  0.14852143468E+04  0.14852143468E+04  0.25500000920E-02 0. -1.
       -2   -1    0    0    0  501  0.00000000000E+00  0.00000000000E+00 -0.12194445660E+04  0.12194445660E+04  0.25500000920E-02 0.  1.
    10030    2    1    2    0    0  0.00000000000E+00  0.00000000000E+00  0.26576978087E+03  0.27046589128E+04  0.26915694786E+04 0.  0.
        3    1    3    3  502    0 -0.24123018476E+03  0.74703926005E+03 -0.96553525795E+03  0.12443946330E+04  0.10100000352E+00 0.  1.
       -3    1    3    3    0  502  0.24123018476E+03 -0.74703926005E+03  0.12313050388E+04  0.14602642798E+04  0.10100000352E+00 0. -1.
</event>
<event>
 5   0  0.1041909E-05  0.2661944E+04  0.7818609E-02  0.8347460E-01
       -1   -1    0    0    0  501  0.00000000000E+00  0.00000000000E+00  0.17167621603E+04  0.17167621603E+04  0.50400001928E-02 0.  1.
        1   -1    0    0  501    0  0.00000000000E+00  0.00000000000E+00 -0.10318762921E+04  0.10318762921E+04  0.50400001928E-02 0. -1.
    10030    2    1    2    0    0  0.00000000000E+00  0.00000000000E+00  0.68488586817E+03  0.27486384524E+04  0.26619437803E+04 0.  0.
        5    1    3    3  502    0  0.60814526607E+03 -0.37129557787E+03  0.15032273232E+04  0.16635550925E+04  0.46999998093E+01 0.  1.
       -5    1    3    3    0  502 -0.60814526607E+03  0.37129557787E+03 -0.81834145501E+03  0.10850833598E+04  0.46999998093E+01 0. -1.
</event>
<event>
 5   0  0.2540232E-05  0.2696134E+04  0.7818609E-02  0.8336261E-01
        2   -1    0    0  501    0  0.00000000000E+00  0.00000000000E+00  0.20382085983E+04  0.20382085983E+04  0.25500000920E-02 0. -1.
       -2   -1    0    0    0  501  0.00000000000E+00  0.00000000000E+00 -0.89160850495E+03  0.89160850495E+03  0.25500000920E-02 0.  1.
    10030    2    1    2    0    0  0.00000000000E+00  0.00000000000E+00  0.11466000933E+04  0.29298171032E+04  0.26961336177E+04 0.  0.
        1    1    3    3  502    0  0.36510798735E+03  0.72181471025E+03  0.17451774959E+04  0.19235292591E+04  0.50400001928E-02 0. -1.
       -1    1    3    3    0  502 -0.36510798735E+03 -0.72181471025E+03 -0.59857740257E+03  0.10062878441E+04  0.50400001928E-02 0.  1.
</event>
<event>
 5   0  0.9971923E-06  0.2695271E+04  0.7818609E-02  0.8336541E-01
       -1   -1    0    0    0  501  0.00000000000E+00  0.00000000000E+00  0.17185010551E+04  0.17185010551E+04  0.50400001928E-02 0. -1.
        1   -1    0    0  501    0  0.00000000000E+00  0.00000000000E+00 -0.10568056418E+04  0.10568056418E+04  0.50400001928E-02 0.  1.
    10030    2    1    2    0    0  0.00000000000E+00  0.00000000000E+00  0.66169541339E+03  0.27753066969E+04  0.26952711258E+04 0.  0.
        2    1    3    3  502    0  0.97901969864E+03  0.77692879897E+03  0.84982173899E+03  0.15113884071E+04  0.25500000920E-02 0. -1.
       -2    1    3    3    0  502 -0.97901969864E+03 -0.77692879897E+03 -0.18812632560E+03  0.12639182898E+04  0.25500000920E-02 0.  1.
</event>
<event>
 5   0  0.2615843E-05  0.2259138E+04  0.7818609E-02  0.8494209E-01
        2   -1    0    0  501    0  0.00000000000E+00  0.00000000000E+00  0.23523425439E+04  0.23523425439E+04  0.25500000920E-02 0. -1.
       -2   -1    0    0    0  501  0.00000000000E+00  0.00000000000E+00 -0.54240684118E+03  0.54240684119E+03  0.25500000920E-02 0.  1.
    10030    2    1    2    0    0  0.00000000000E+00  0.00000000000E+00  0.18099357027E+04  0.28947493851E+04  0.22591384983E+04 0.  0.
        3    1    3    3  502    0  0.24422311882E+03  0.99142687710E+03  0.28598844750E+03  0.10603591782E+04  0.10100000352E+00 0.  1.
       -3    1    3    3    0  502 -0.24422311882E+03 -0.99142687710E+03  0.15239472552E+04  0.18343902069E+04  0.10100000352E+00 0. -1.
</event>
<event>
 5   0  0.2516518E-05  0.2709528E+04  0.7818609E-02  0.8331920E-01
        2   -1    0    0  501    0  0.00000000000E+00  0.00000000000E+00  0.18863550544E+04  0.18863550544E+04  0.25500000920E-02 0. -1.
       -2   -1    0    0    0  501  0.00000000000E+00  0.00000000000E+00 -0.97297968587E+03  0.97297968587E+03  0.25500000920E-02 0.  1.
    10030    2    1    2    0    0  0.00000000000E+00  0.00000000000E+00  0.91337536858E+03  0.28593347403E+04  0.27095277436E+04 0.  0.
        4    1    3    3  502    0 -0.12872586067E+04  0.13073516978E+03  0.32917046424E+02  0.12942996369E+04  0.12699999809E+01 0.  1.
       -4    1    3    3    0  502  0.12872586067E+04 -0.13073516978E+03  0.88045832216E+03  0.15650351035E+04  0.12699999809E+01 0. -1.
</event>
<event>
 5   0  0.2641216E-05  0.2683117E+04  0.7818609E-02  0.8340504E-01
        2   -1    0    0  501    0  0.00000000000E+00  0.00000000000E+00  0.21588272227E+04  0.21588272227E+04  0.25500000920E-02 0. -1.
       -2   -1    0    0    0  501  0.00000000000E+00  0.00000000000E+00 -0.83368392252E+03  0.83368392253E+03  0.25500000920E-02 0.  1.
    10030    2    1    2    0    0  0.00000000000E+00  0.00000000000E+00  0.13251433001E+04  0.29925111452E+04  0.26831172520E+04 0.  0.
        5    1    3    3  502    0 -0.12339286466E+04  0.15620677410E+03  0.12233159903E+04  0.17445642904E+04  0.46999998093E+01 0.  1.
       -5    1    3    3    0  502  0.12339286466E+04 -0.15620677410E+03  0.10182730981E+03  0.12479468548E+04  0.46999998093E+01 0. -1.
</event>
<event>
 5   0  0.1096672E-05  0.2712795E+04  0.7818609E-02  0.8330865E-01
        1   -1    0    0  501    0  0.00000000000E+00  0.00000000000E+00  0.18142159737E+04  0.18142159737E+04  0.50400001928E-02 0. -1.
       -1   -1    0    0    0  501  0.00000000000E+00  0.00000000000E+00 -0.10141098961E+04  0.10141098961E+04  0.50400001928E-02 0.  1.
    10030    2    1    2    0    0  0.00000000000E+00  0.00000000000E+00  0.80010607767E+03  0.28283258698E+04  0.27127951435E+04 0.  0.
        1    1    3    3  502    0 -0.85577259810E+03  0.97745553153E+03  0.80659301281E+03  0.15291691679E+04  0.50400001928E-02 0.  1.
       -1    1    3    3    0  502  0.85577259810E+03 -0.97745553153E+03 -0.64869351360E+01  0.12991567019E+04  0.50400001928E-02 0. -1.
</event>
<event>
 5   0  0.1005265E-05  0.2705931E+04  0.7818609E-02  0.8333083E-01
        1   -1    0    0  501    0  0.00000000000E+00  0.00000000000E+00  0.15398528318E+04  0.15398528318E+04  0.50400001928E-02 0.  1.
       -1   -1    0    0    0  501  0.00000000000E+00  0.00000000000E+00 -0.11887605004E+04  0.11887605004E+04  0.50400001928E-02 0. -1.
    10030    2    1    2    0    0  0.00000000000E+00  0.00000000000E+00  0.35109233135E+03  0.27286133322E+04  0.27059314277E+04 0.  0.
        3    1    3    3  502    0  0.19045563645E+03 -0.13350960058E+04  0.66186566639E+02  0.13502353002E+04  0.10100000352E+00 0. -1.
       -3    1    3    3    0  502 -0.19045563645E+03  0.13350960058E+04  0.28490576471E+03  0.13783780320E+04  0.10100000352E+00 0.  1.
</event>
<event>
 5   0  0.1036691E-05  0.2645835E+04  0.7818609E-02  0.8352797E-01
       -1   -1    0    0    0  501  0.00000000000E+00  0.00000000000E+00  0.12778188025E+04  0.12778188025E+04  0.50400001928E-02 0. -1.
        1   -1    0    0  501    0  0.00000000000E+00  0.00000000000E+00 -0.13696081327E+04  0.13696081327E+04  0.50400001928E-02 0.  1.
    10030    2    1    2    0    0  0.00000000000E+00  0.00000000000E+00 -0.91789330248E+02  0.26474269352E+04  0.26458352360E+04 0.  0.
        4    1    3    3  502    0  0.15618228143E+03 -0.77111597660E+03 -0.11100647509E+04  0.13606094658E+04  0.12699999809E+01 0.  1.
       -4    1    3    3    0  502 -0.15618228143E+03  0.77111597660E+03  0.10182754206E+04  0.12868174694E+04  0.12699999809E+01 0. -1.
</event>
<event>
 5   0  0.1041909E-05  0.2587018E+04  0.7818609E-02  0.8372624E-01
        1   -1    0    0  501    0  0.00000000000E+00  0.00000000000E+00  0.23256002832E+04  0.23256002832E+04  0.50400001928E-02 0. -1.
       -1   -1    0    0    0  501  0.00000000000E+00  0.00000000000E+00 -0.71945551103E+03  0.71945551105E+03  0.50400001928E-02 0.  1.
    10030    2    1    2    0    0  0.00000000000E+00  0.00000000000E+00  0.16061447722E+04  0.30450557943E+04  0.25870183148E+04 0.  0.
        5    1    3    3  502    0 -0.52927053208E+03 -0.69332524731E+03 -0.32119225767E+03  0.92952339996E+03  0.46999998093E+01 0.  1.
       -5    1    3    3    0  502  0.52927053208E+03  0.69332524731E+03  0.19273370299E+04  0.21155323943E+04  0.46999998093E+01 0. -1.
</event>
<event>
 5   0  0.2615843E-05  0.2703986E+04  0.7818609E-02  0.8333713E-01
        2   -1    0    0  501    0  0.00000000000E+00  0.00000000000E+00  0.14379993308E+04  0.14379993308E+04  0.25500000920E-02 0.  1.
       -2   -1    0    0    0  501  0.00000000000E+00  0.00000000000E+00 -0.12711302543E+04  0.12711302543E+04  0.25500000920E-02 0. -1.
    10030    2    1    2    0    0  0.00000000000E+00  0.00000000000E+00  0.16686907648E+03  0.27091295850E+04  0.27039855436E+04 0.  0.
        3    1    3    3  502    0  0.80410404102E+03  0.10210191690E+04  0.45673023733E+03  0.13775579741E+04  0.10100000352E+00 0.  1.
       -3    1    3    3    0  502 -0.80410404102E+03 -0.10210191690E+04 -0.28986116085E+03  0.13315716109E+04  0.10100000352E+00 0. -1.
</event>
<event>
 5   0  0.9971923E-06  0.2683122E+04  0.7818609E-02  0.8340502E-01
        1   -1    0    0  501    0  0.00000000000E+00  0.00000000000E+00  0.29226821153E+04  0.29226821153E+04  0.50400001928E-02 0. -1.
       -1   -1    0    0    0  501  0.00000000000E+00  0.00000000000E+00 -0.61579938375E+03  0.61579938377E+03  0.50400001928E-02 0.  1.
    10030    2    1    2    0    0  0.00000000000E+00  0.00000000000E+00  0.23068827316E+04  0.35384814991E+04  0.26831219469E+04 0.  0.
        2    1    3    3  502    0 -0.66361599294E+03  0.12121184769E+03 -0.37585059849E+03  0.77223194087E+03  0.25500000920E-02 0.  1.
       -2    1    3    3    0  502  0.66361599294E+03 -0.12121184769E+03  0.26827333300E+04  0.27662495582E+04  0.25500000920E-02 0. -1.
</event>
<event>
 5   0  0.1036691E-05  0.2667200E+04  0.7818609E-02  0.8345727E-01
        1   -1    0    0  501    0  0.00000000000E+00  0.00000000000E+00  0.26056852452E+04  0.26056852452E+04  0.50400001928E-02 0.  1.
       -1   -1    0    0    0  501  0.00000000000E+00  0.00000000000E+00 -0.68254170710E+03  0.68254170712E+03  0.50400001928E-02 0. -1.
    10030    2    1    2    0    0  0.00000000000E+00  0.00000000000E+00  0.19231435381E+04  0.32882269524E+04  0.26671999216E+04 0.  0.
        4    1    3    3  502    0  0.11201305308E+04  0.71972326332E+03  0.10554073953E+04  0.16989939272E+04  0.12699999809E+01 0.  1.
       -4    1    3    3    0  502 -0.11201305308E+04 -0.71972326332E+03  0.86773614286E+03  0.15892330252E+04  0.12699999809E+01 0. -1.
</event>
<event>
 5   0  0.1005265E-05  0.2648330E+04  0.7818609E-02  0.8351967E-01
       -1   -1    0    0    0  501  0.00000000000E+00  0.00000000000E+00  0.15877951519E+04  0.15877951519E+04  0.50400001928E-02 0. -1.
        1   -1    0    0  501    0  0.00000000000E+00  0.00000000000E+00 -0.11043068781E+04  0.11043068782E+04  0.50400001928E-02 0.  1.
    10030    2    1    2    0    0  0.00000000000E+00  0.00000000000E+00  0.48348827377E+03  0.26921020301E+04  0.26483301209E+04 0.  0.
        3    1    3    3  502    0  0.10963893986E+04  0.35817895254E+03  0.90291829711E+03  0.14647946398E+04  0.10100000352E+00 0. -1.
       -3    1    3    3    0  502 -0.10963893986E+04 -0.35817895254E+03 -0.41943002334E+03  0.12273073902E+04  0.10100000352E+00 0.  1.
</event>
<event>
 5   0  0.1036691E-05  0.2609928E+04  0.7818609E-02  0.8364837E-01
       -1   -1    0    0    0  501  0.00000000000E+00  0.00000000000E+00  0.11337924801E+04  0.11337924801E+04  0.50400001928E-02 0.  1.
        1   -1    0    0  501    0  0.00000000000E+00  0.00000000000E+00 -0.15019778332E+04  0.15019778332E+04  0.50400001928E-02 0. -1.
    10030    2    1    2    0    0  0.00000000000E+00  0.00000000000E+00 -0.36818535312E+03  0.26357703132E+04  0.26099281005E+04 0.  0.
        4    1    3    3  502    0  0.58337336517E+02  0.12114591012E+04 -0.67041363800E+03  0.13858183350E+04  0.12699999809E+01 0. -1.
       -4    1    3    3    0  502 -0.58337336517E+02 -0.12114591012E+04  0.30222828488E+03  0.12499519782E+04  0.12699999809E+01 0.  1.
</event>
<event>
 5   0  0.2540684E-05  0.2776871E+04  0.7818609E-02  0.8310485E-01
        2   -1    0    0  501    0  0.00000000000E+00  0.00000000000E+00  0.21490337087E+04  0.21490337087E+04  0.25500000920E-02 0. -1.
       -2   -1    0    0    0  501  0.00000000000E+00  0.00000000000E+00 -0.89703243085E+03  0.89703243085E+03  0.25500000920E-02 0.  1.
    10030    2    1    2    0    0  0.00000000000E+00  0.00000000000E+00  0.12520012779E+04  0.30460661396E+04  0.27768708517E+04 0.  0.
        2    1    3    3  502    0  0.77799139526E+02  0.86495000088E+03 -0.56232813992E+03  0.10346033767E+04  0.25500000920E-02 0.  1.
       -2    1    3    3    0  502 -0.77799139526E+02 -0.86495000088E+03  0.18143294178E+04  0.20114627629E+04  0.25500000920E-02 0. -1.
</event>
<event>
 5   0  0.2641216E-05  0.2716392E+04  0.7818609E-02  0.8329706E-01
       -2   -1    0    0    0  501  0.00000000000E+00  0.00000000000E+00  0.14670182780E+04  0.14670182780E+04  0.25500000920E-02 0.  1.
        2   -1    0    0  501    0  0.00000000000E+00  0.00000000000E+00 -0.12574463089E+04  0.12574463089E+04  0.25500000920E-02 0. -1.
    10030    2    1    2    0    0  0.00000000000E+00  0.00000000000E+00  0.20957196907E+03  0.27244645869E+04  0.27163922536E+04 0.  0.
        5    1    3    3  502    0  0.62809790587E+02 -0.13072399529E+04 -0.25940913974E+03  0.13342175820E+04  0.46999998093E+01 0. -1.
       -5    1    3    3    0  502 -0.62809790587E+02  0.13072399529E+04  0.46898110882E+03  0.13902470049E+04  0.46999998093E+01 0.  1.
</event>
<event>
 5   0  0.2615843E-05  0.2708319E+04  0.7818609E-02  0.8332311E-01
        2   -1    0    0  501    0  0.00000000000E+00  0.00000000000E+00  0.10245959065E+04  0.10245959065E+04  0.25500000920E-02 0. -1.
       -2   -1    0    0    0  501  0.00000000000E+00  0.00000000000E+00 -0.17897273779E+04  0.17897273779E+04  0.25500000920E-02 0.  1.
    10030    2    1    2    0    0  0.00000000000E+00  0.00000000000E+00 -0.76513147133E+03  0.28143232844E+04  0.27083185523E+04 0.  0.
        3    1    3    3  502    0  0.81823672378E+03 -0.10597756283E+04 -0.17186962658E+03  0.13498795862E+04  0.10100000352E+00 0. -1.
       -3    1    3    3    0  502 -0.81823672378E+03  0.10597756283E+04 -0.59326184475E+03  0.14644436982E+04  0.10100000352E+00 0.  1.
</event>
<event>
 5   0  0.2641216E-05  0.2594659E+04  0.7818609E-02  0.8370018E-01
        2   -1    0    0  501    0  0.00000000000E+00  0.00000000000E+00  0.17849024987E+04  0.17849024987E+04  0.25500000920E-02 0.  1.
       -2   -1    0    0    0  501  0.00000000000E+00  0.00000000000E+00 -0.94294443690E+03  0.94294443691E+03  0.25500000920E-02 0. -1.
    10030    2    1    2    0    0  0.00000000000E+00  0.00000000000E+00  0.84195806178E+03  0.27278469356E+04  0.25946590385E+04 0.  0.
        5    1    3    3  502    0 -0.75336976246E+02 -0.70072905687E+03 -0.72412564859E+03  0.10104835061E+04  0.46999998093E+01 0. -1.
       -5    1    3    3    0  502  0.75336976246E+02  0.70072905687E+03  0.15660837104E+04  0.17173634295E+04  0.46999998093E+01 0.  1.
</event>
<event>
 5   0  0.1036691E-05  0.2489605E+04  0.7818609E-02  0.8406698E-01
        1   -1    0    0  501    0  0.00000000000E+00  0.00000000000E+00  0.13268701435E+04  0.13268701435E+04  0.50400001928E-02 0.  1.
       -1   -1    0    0    0  501  0.00000000000E+00  0.00000000000E+00 -0.11678104665E+04  0.11678104665E+04  0.50400001928E-02 0. -1.
    10030    2    1    2    0    0  0.00000000000E+00  0.00000000000E+00  0.15905967703E+03  0.24946806100E+04  0.24896046604E+04 0.  0.
        4    1    3    3  502    0 -0.30285653187E+03 -0.20605232871E+03  0.12716409373E+04  0.13233487550E+04  0.12699999809E+01 0.  1.
       -4    1    3    3    0  502  0.30285653187E+03  0.20605232871E+03 -0.11125812602E+04  0.11713318550E+04  0.12699999809E+01 0. -1.
</event>
<event>
 5   0  0.1005265E-05  0.2613793E+04  0.7818609E-02  0.8363531E-01
       -1   -1    0    0    0  501  0.00000000000E+00  0.00000000000E+00  0.89811557343E+03  0.89811557345E+03  0.50400001928E-02 0.  1.
        1   -1    0    0  501    0  0.00000000000E+00  0.00000000000E+00 -0.19017356395E+04  0.19017356395E+04  0.50400001928E-02 0. -1.
    10030    2    1    2    0    0  0.00000000000E+00  0.00000000000E+00 -0.10036200660E+04  0.27998512129E+04  0.26137929485E+04 0.  0.
        3    1    3    3  502    0  0.11707742920E+04  0.53188219372E+03 -0.75157558953E+03  0.14894552655E+04  0.10100000352E+00 0. -1.
       -3    1    3    3    0  502 -0.11707742920E+04 -0.53188219372E+03 -0.25204447650E+03  0.13103959475E+04  0.10100000352E+00 0.  1.
</event>
<event>
 5   0  0.1005265E-05  0.2859195E+04  0.7818609E-02  0.8285123E-01
        1   -1    0    0  501    0  0.00000000000E+00  0.00000000000E+00  0.84527974309E+03  0.84527974310E+03  0.50400001928E-02 0.  1.
       -1   -1    0    0    0  501  0.00000000000E+00  0.00000000000E+00 -0.24178378356E+04  0.24178378356E+04  0.50400001928E-02 0. -1.
    10030    2    1    2    0    0  0.00000000000E+00  0.00000000000E+00 -0.15725580925E+04  0.32631175787E+04  0.28591952326E+04 0.  0.
        3    1    3    3  502    0  0.98837436699E+03 -0.10296481514E+04 -0.87962729397E+03  0.16765450759E+04  0.10100000352E+00 0. -1.
       -3    1    3    3    0  502 -0.98837436699E+03  0.10296481514E+04 -0.69293079850E+03  0.15865725028E+04  0.10100000352E+00 0.  1.
</event>
<event>
 5   0  0.1041909E-05  0.2783984E+04  0.7818609E-02  0.8308258E-01
        1   -1    0    0  501    0  0.00000000000E+00  0.00000000000E+00  0.19492849731E+04  0.19492849731E+04  0.50400001928E-02 0.  1.
       -1   -1    0    0    0  501  0.00000000000E+00  0.00000000000E+00 -0.99402693313E+03  0.99402693315E+03  0.50400001928E-02 0. -1.
    10030    2    1    2    0    0  0.00000000000E+00  0.00000000000E+00  0.95525803996E+03  0.29433119062E+04  0.27839840256E+04 0.  0.
        5    1    3    3  502    0 -0.66027788976E+03 -0.40912841142E+03  0.16988404935E+04  0.18680026930E+04  0.46999998093E+01 0.  1.
       -5    1    3    3    0  502  0.66027788976E+03  0.40912841142E+03 -0.74358245358E+03  0.10753092132E+04  0.46999998093E+01 0. -1.
</event>
<event>
 5   0  0.2540684E-05  0.2733362E+04  0.7818609E-02  0.8324261E-01
        2   -1    0    0  501    0  0.00000000000E+00  0.00000000000E+00  0.20125031590E+04  0.20125031590E+04  0.25500000920E-02 0.  1.
       -2   -1    0    0    0  501  0.00000000000E+00  0.00000000000E+00 -0.92810617589E+03  0.92810617590E+03  0.25500000920E-02 0. -1.
    10030    2    1    2    0    0  0.00000000000E+00  0.00000000000E+00  0.10843969831E+04  0.29406093349E+04  0.27333617476E+04 0.  0.
        2    1    3    3  502    0  0.10110928163E+03  0.13621404406E+04  0.49211851891E+03  0.14518368721E+04  0.25500000920E-02 0. -1.
       -2    1    3    3    0  502 -0.10110928163E+03 -0.13621404406E+04  0.59227846418E+03  0.14887724627E+04  0.25500000920E-02 0.  1.
</event>
<event>
 5   0  0.2615843E-05  0.2696169E+04  0.7818609E-02  0.8336249E-01
       -2   -1    0    0    0  501  0.00000000000E+00  0.00000000000E+00  0.10685591704E+04  0.10685591704E+04  0.25500000920E-02 0.  1.
        2   -1    0    0  501    0  0.00000000000E+00  0.00000000000E+00 -0.17007312887E+04  0.17007312887E+04  0.25500000920E-02 0. -1.
    10030    2    1    2    0    0  0.00000000000E+00  0.00000000000E+00 -0.63217211833E+03  0.27692904591E+04  0.26961691452E+04 0.  0.
        3    1    3    3  502    0  0.15849403393E+03  0.99265404601E+03  0.60652289799E+03  0.11740325591E+04  0.10100000352E+00 0.  1.
       -3    1    3    3    0  502 -0.15849403393E+03 -0.99265404601E+03 -0.12386950163E+04  0.15952579000E+04  0.10100000352E+00 0. -1.
</event>
<event>
 5   0  0.2615843E-05  0.2856512E+04  0.7818609E-02  0.8285935E-01
       -2   -1    0    0    0  501  0.00000000000E+00  0.00000000000E+00  0.16007877718E+04  0.16007877718E+04  0.25500000920E-02 0.  1.
        2   -1    0    0  501    0  0.00000000000E+00  0.00000000000E+00 -0.12743198187E+04  0.12743198187E+04  0.25500000920E-02 0. -1.
    10030    2    1    2    0    0  0.00000000000E+00  0.00000000000E+00  0.32646795317E+03  0.28751075905E+04  0.28565122672E+04 0.  0.
        3    1    3    3  502    0 -0.89712580402E+03  0.93995210079E+03  0.76002801495E+03  0.15053196517E+04  0.10100000352E+00 0.  1.
       -3    1    3    3    0  502  0.89712580402E+03 -0.93995210079E+03 -0.43356006178E+03  0.13697879388E+04  0.10100000352E+00 0. -1.
</event>
<event>
 5   0  0.9971923E-06  0.2691356E+04  0.7818609E-02  0.8337815E-01
       -1   -1    0    0    0  501  0.00000000000E+00  0.00000000000E+00  0.12341628816E+04  0.12341628816E+04  0.50400001928E-02 0.  1.
        1   -1    0    0  501    0  0.00000000000E+00  0.00000000000E+00 -0.14672688500E+04  0.14672688500E+04  0.50400001928E-02 0. -1.
    10030    2    1    2    0    0  0.00000000000E+00  0.00000000000E+00 -0.23310596833E+03  0.27014317316E+04  0.26913556079E+04 0.  0.
        2    1    3    3  502    0 -0.49370731890E+03 -0.51810905428E+03 -0.12604092460E+04  0.14494189788E+04  0.25500000920E-02 0. -1.
       -2    1    3    3    0  502  0.49370731890E+03  0.51810905428E+03  0.10273032776E+04  0.12520127528E+04  0.25500000920E-02 0.  1.
</event>
<event>
 5   0  0.2516518E-05  0.2722941E+04  0.7818609E-02  0.8327600E-01
        2   -1    0    0  501    0  0.00000000000E+00  0.00000000000E+00  0.14491532920E+04  0.14491532920E+04  0.25500000920E-02 0. -1.
       -2   -1    0    0    0  501  0.00000000000E+00  0.00000000000E+00 -0.12790927685E+04  0.12790927685E+04  0.25500000920E-02 0.  1.
    10030    2    1    2    0    0  0.00000000000E+00  0.00000000000E+00  0.17006052348E+03  0.27282460605E+04  0.27229406870E+04 0.  0.
        4    1    3    3  502    0  0.72499571021E+03  0.11952594119E+03 -0.10633681192E+04  0.12925395933E+04  0.12699999809E+01 0.  1.
       -4    1    3    3    0  502 -0.72499571021E+03 -0.11952594119E+03  0.12334286427E+04  0.14357064672E+04  0.12699999809E+01 0. -1.
</event>
<event>
 5   0  0.2615843E-05  0.2720714E+04  0.7818609E-02  0.8328315E-01
        2   -1    0    0  501    0  0.00000000000E+00  0.00000000000E+00  0.13602374170E+04  0.13602374170E+04  0.25500000920E-02 0. -1.
       -2   -1    0    0    0  501  0.00000000000E+00  0.00000000000E+00 -0.13604768275E+04  0.13604768276E+04  0.25500000920E-02 0.  1.
    10030    2    1    2    0    0  0.00000000000E+00  0.00000000000E+00 -0.23941056782E+00  0.27207142445E+04  0.27207142340E+04 0.  0.
        3    1    3    3  502    0 -0.10918051029E+04  0.80124043049E+03  0.12851491516E+03  0.13603458030E+04  0.10100000352E+00 0.  1.
       -3    1    3    3    0  502  0.10918051029E+04 -0.80124043049E+03 -0.12875432573E+03  0.13603684415E+04  0.10100000352E+00 0. -1.
</event>
<event>
 5   0  0.2615843E-05  0.2645411E+04  0.7818609E-02  0.8352938E-01
        2   -1    0    0  501    0  0.00000000000E+00  0.00000000000E+00  0.12388534729E+04  0.12388534729E+04  0.25500000920E-02 0. -1.
       -2   -1    0    0    0  501  0.00000000000E+00  0.00000000000E+00 -0.14122332788E+04  0.14122332788E+04  0.25500000920E-02 0.  1.
    10030    2    1    2    0    0  0.00000000000E+00  0.00000000000E+00 -0.17337980592E+03  0.26510867516E+04  0.26454111982E+04 0.  0.
        3    1    3    3  502    0 -0.42925326300E+03 -0.77859879612E+03  0.89473524592E+03  0.12613586404E+04  0.10100000352E+00 0. -1.
       -3    1    3    3    0  502  0.42925326300E+03  0.77859879612E+03 -0.10681150518E+04  0.13897281113E+04  0.10100000352E+00 0.  1.
</event>
<event>
 5   0  0.2615843E-05  0.1821570E+04  0.7818609E-02  0.8694912E-01
        2   -1    0    0  501    0  0.00000000000E+00  0.00000000000E+00  0.14182019603E+04  0.14182019603E+04  0.25500000920E-02 0. -1.
       -2   -1    0    0    0  501  0.00000000000E+00  0.00000000000E+00 -0.58491625763E+03  0.58491625763E+03  0.25500000920E-02 0.  1.
    10030    2    1    2    0    0  0.00000000000E+00  0.00000000000E+00  0.83328570264E+03  0.20031182179E+04  0.18215700735E+04 0.  0.
        3    1    3    3  502    0 -0.85178180674E+03  0.24440124100E+00  0.77126939852E+03  0.11490817209E+04  0.10100000352E+00 0. -1.
       -3    1    3    3    0  502  0.85178180674E+03 -0.24440124100E+00  0.62016304116E+02  0.85403649699E+03  0.10100000352E+00 0.  1.
</event>
<event>
 5   0  0.2641216E-05  0.2729959E+04  0.7818609E-02  0.8325349E-01
        2   -1    0    0  501    0  0.00000000000E+00  0.00000000000E+00  0.19728955477E+04  0.19728955477E+04  0.25500000920E-02 0. -1.
       -2   -1    0    0    0  501  0.00000000000E+00  0.00000000000E+00 -0.94438287408E+03  0.94438287408E+03  0.25500000920E-02 0.  1.
    10030    2    1    2    0    0  0.00000000000E+00  0.00000000000E+00  0.10285126736E+04  0.29172784217E+04  0.27299588038E+04 0.  0.
        5    1    3    3  502    0  0.56671414173E+03  0.77777603931E+03  0.15486891451E+04  0.18233377756E+04  0.46999998093E+01 0. -1.
       -5    1    3    3    0  502 -0.56671414173E+03 -0.77777603931E+03 -0.52017647152E+03  0.10939406461E+04  0.46999998093E+01 0.  1.
</event>
<event>
 5   0  0.1005265E-05  0.2694736E+04  0.7818609E-02  0.8336715E-01
        1   -1    0    0  501    0  0.00000000000E+00  0.00000000000E+00  0.11312553164E+04  0.11312553164E+04  0.50400001928E-02 0. -1.
       -1   -1    0    0    0  501  0.00000000000E+00  0.00000000000E+00 -0.16047664424E+04  0.16047664424E+04  0.50400001928E-02 0.  1.
    10030    2    1    2    0    0  0.00000000000E+00  0.00000000000E+00 -0.47351112599E+03  0.27360217588E+04  0.26947360312E+04 0.  0.
        3    1    3    3  502    0 -0.11089088670E+03  0.11401454909E+04 -0.95696957004E+03  0.14926551167E+04  0.10100000352E+00 0.  1.
       -3    1    3    3    0  502  0.11089088670E+03 -0.11401454909E+04  0.48345844405E+03  0.12433666421E+04  0.10100000352E+00 0. -1.
</event>
<event>
 5   0  0.9971923E-06  0.2020463E+04  0.7818609E-02  0.8597113E-01
       -1   -1    0    0    0  501  0.00000000000E+00  0.00000000000E+00  0.48322409674E+03  0.48322409677E+03  0.50400001928E-02 0.  1.
        1   -1    0    0  501    0  0.00000000000E+00  0.00000000000E+00 -0.21119971033E+04  0.21119971033E+04  0.50400001928E-02 0. -1.
    10030    2    1    2    0    0  0.00000000000E+00  0.00000000000E+00 -0.16287730065E+04  0.25952212000E+04  0.20204632069E+04 0.  0.
        2    1    3    3  502    0  0.44193832441E+02 -0.55119974413E+03 -0.19003463655E+04  0.19791641068E+04  0.25500000920E-02 0. -1.
       -2    1    3    3    0  502 -0.44193832441E+02  0.55119974413E+03  0.27157335901E+03  0.61605709321E+03  0.25500000920E-02 0.  1.
</event>
<event>
 5   0  0.1036691E-05  0.2261765E+04  0.7818609E-02  0.8493151E-01
        1   -1    0    0  501    0  0.00000000000E+00  0.00000000000E+00  0.23227850695E+04  0.23227850696E+04  0.50400001928E-02 0.  1.
       -1   -1    0    0    0  501  0.00000000000E+00  0.00000000000E+00 -0.55058687343E+03  0.55058687345E+03  0.50400001928E-02 0. -1.
    10030    2    1    2    0    0  0.00000000000E+00  0.00000000000E+00  0.17721981961E+04  0.28733719430E+04  0.22617647704E+04 0.  0.
        4    1    3    3  502    0  0.57413591623E+03 -0.76073117936E+03  0.16594337245E+04  0.19136524962E+04  0.12699999809E+01 0.  1.
       -4    1    3    3    0  502 -0.57413591623E+03  0.76073117936E+03  0.11276447166E+03  0.95971944678E+03  0.12699999809E+01 0. -1.
</event>
<event>
 5   0  0.2615843E-05  0.2686423E+04  0.7818609E-02  0.8339424E-01
        2   -1    0    0  501    0  0.00000000000E+00  0.00000000000E+00  0.12800482481E+04  0.12800482481E+04  0.25500000920E-02 0.  1.
       -2   -1    0    0    0  501  0.00000000000E+00  0.00000000000E+00 -0.14094912776E+04  0.14094912776E+04  0.25500000920E-02 0. -1.
    10030    2    1    2    0    0  0.00000000000E+00  0.00000000000E+00 -0.12944302956E+03  0.26895395257E+04  0.26864227818E+04 0.  0.
        3    1    3    3  502    0  0.82525220265E+03 -0.85817866948E+03 -0.68729907771E+03  0.13747333775E+04  0.10100000352E+00 0. -1.
       -3    1    3    3    0  502 -0.82525220265E+03  0.85817866948E+03  0.55785604815E+03  0.13148061482E+04  0.10100000352E+00 0.  1.
</event>
<event>
 5   0  0.2615843E-05  0.2728905E+04  0.7818609E-02  0.8325687E-01
        2   -1    0    0  501    0  0.00000000000E+00  0.00000000000E+00  0.17982289391E+04  0.17982289391E+04  0.25500000920E-02 0. -1.
       -2   -1    0    0    0  501  0.00000000000E+00  0.00000000000E+00 -0.10353132947E+04  0.10353132948E+04  0.25500000920E-02 0.  1.
    10030    2    1    2    0    0  0.00000000000E+00  0.00000000000E+00  0.76291564435E+03  0.28335422338E+04  0.27289047823E+04 0.  0.
        3    1    3    3  502    0  0.90241356213E+03  0.17255937292E+03  0.14289012360E+04  0.16987894886E+04  0.10100000352E+00 0. -1.
       -3    1    3    3    0  502 -0.90241356213E+03 -0.17255937292E+03 -0.66598559164E+03  0.11347527452E+04  0.10100000352E+00 0.  1.
</event>
<event>
 5   0  0.2540232E-05  0.2685023E+04  0.7818609E-02  0.8339881E-01
       -2   -1    0    0    0  501  0.00000000000E+00  0.00000000000E+00  0.10039610126E+04  0.10039610127E+04  0.25500000920E-02 0. -1.
        2   -1    0    0  501    0  0.00000000000E+00  0.00000000000E+00 -0.17952261538E+04  0.17952261538E+04  0.25500000920E-02 0.  1.
    10030    2    1    2    0    0  0.00000000000E+00  0.00000000000E+00 -0.79126514112E+03  0.27991871664E+04  0.26850229550E+04 0.  0.
        1    1    3    3  502    0  0.26723375583E+02  0.46843158903E+03 -0.17069683421E+04  0.17702777221E+04  0.50400001928E-02 0.  1.
       -1    1    3    3    0  502 -0.26723375583E+02 -0.46843158903E+03  0.91570320095E+03  0.10289094443E+04  0.50400001928E-02 0. -1.
</event>
<event>
 5   0  0.1096672E-05  0.2691781E+04  0.7818609E-02  0.8337677E-01
       -1   -1    0    0    0  501  0.00000000000E+00  0.00000000000E+00  0.94838025944E+03  0.94838025945E+03  0.50400001928E-02 0. -1.
        1   -1    0    0  501    0  0.00000000000E+00  0.00000000000E+00 -0.19100159428E+04  0.19100159428E+04  0.50400001928E-02 0.  1.
    10030    2    1    2    0    0  0.00000000000E+00  0.00000000000E+00 -0.96163568334E+03  0.28583962022E+04  0.26917811318E+04 0.  0.
        1    1    3    3  502    0  0.97400341177E+03 -0.35728562070E+03 -0.13912585853E+04  0.17354930458E+04  0.50400001928E-02 0.  1.
       -1    1    3    3    0  502 -0.97400341177E+03  0.35728562070E+03  0.42962290192E+03  0.11229031565E+04  0.50400001928E-02 0. -1.
</event>
<event>
 5   0  0.2540684E-05  0.2784443E+04  0.7818609E-02  0.8308115E-01
        2   -1    0    0  501    0  0.00000000000E+00  0.00000000000E+00  0.19954008118E+04  0.19954008118E+04  0.25500000920E-02 0.  1.
       -2   -1    0    0    0  501  0.00000000000E+00  0.00000000000E+00 -0.97137397793E+03  0.97137397793E+03  0.25500000920E-02 0. -1.
    10030    2    1    2    0    0  0.00000000000E+00  0.00000000000E+00  0.10240268338E+04  0.29667747897E+04  0.27844427982E+04 0.  0.
        2    1    3    3  502    0 -0.46596063829E+03 -0.67727019322E+03  0.17091843343E+04  0.18966089000E+04  0.25500000920E-02 0.  1.
       -2    1    3    3    0  502  0.46596063829E+03  0.67727019322E+03 -0.68515750044E+03  0.10701658897E+04  0.25500000920E-02 0. -1.
</event>
<event>
 5   0  0.2615843E-05  0.2736229E+04  0.7818609E-02  0.8323345E-01
       -2   -1    0    0    0  501  0.00000000000E+00  0.00000000000E+00  0.64495672539E+03  0.64495672540E+03  0.25500000920E-02 0. -1.
        2   -1    0    0  501    0  0.00000000000E+00  0.00000000000E+00 -0.29021120411E+04  0.29021120411E+04  0.25500000920E-02 0.  1.
    10030    2    1    2    0    0  0.00000000000E+00  0.00000000000E+00 -0.22571553157E+04  0.35470687665E+04  0.27362285568E+04 0.  0.
        3    1    3    3  502    0 -0.35642045641E+03  0.13178766313E+04 -0.10133400297E+04  0.17002036298E+04  0.10100000352E+00 0.  1.
       -3    1    3    3    0  502  0.35642045641E+03 -0.13178766313E+04 -0.12438152860E+04  0.18468651366E+04  0.10100000352E+00 0. -1.
</event>
<event>
 5   0  0.1096672E-05  0.1694322E+04  0.7818609E-02  0.8764609E-01
       -1   -1    0    0    0  501  0.00000000000E+00  0.00000000000E+00  0.82585939402E+03  0.82585939403E+03  0.50400001928E-02 0.  1.
        1   -1    0    0  501    0  0.00000000000E+00  0.00000000000E+00 -0.86901182090E+03  0.86901182091E+03  0.50400001928E-02 0. -1.
    10030    2    1    2    0    0  0.00000000000E+00  0.00000000000E+00 -0.43152426882E+02  0.16948712149E+04  0.16943217827E+04 0.  0.
        1    1    3    3  502    0 -0.82913249122E+03 -0.16506640750E+03 -0.76128005557E+02  0.84882452847E+03  0.50400001928E-02 0.  1.
       -1    1    3    3    0  502  0.82913249122E+03  0.16506640750E+03  0.32975578674E+02  0.84604668647E+03  0.50400001928E-02 0. -1.
</event>
<event>
 5   0  0.2516518E-05  0.2883972E+04  0.7818609E-02  0.8277662E-01
       -2   -1    0    0    0  501  0.00000000000E+00  0.00000000000E+00  0.98673873218E+03  0.98673873219E+03  0.25500000920E-02 0. -1.
        2   -1    0    0  501    0  0.00000000000E+00  0.00000000000E+00 -0.21072691047E+04  0.21072691047E+04  0.25500000920E-02 0.  1.
    10030    2    1    2    0    0  0.00000000000E+00  0.00000000000E+00 -0.11205303725E+04  0.30940078369E+04  0.28839722916E+04 0.  0.
        4    1    3    3  502    0 -0.88278724818E+02 -0.26734277096E+03  0.95696518522E+03  0.99752156320E+03  0.12699999809E+01 0. -1.
       -4    1    3    3    0  502  0.88278724818E+02  0.26734277096E+03 -0.20774955577E+04  0.20964862737E+04  0.12699999809E+01 0.  1.
</event>
<event>
 5   0  0.1041909E-05  0.2684482E+04  0.7818609E-02  0.8340058E-01
        1   -1    0    0  501    0  0.00000000000E+00  0.00000000000E+00  0.13896267647E+04  0.13896267648E+04  0.50400001928E-02 0. -1.
       -1   -1    0    0    0  501  0.00000000000E+00  0.00000000000E+00 -0.12964710224E+04  0.12964710224E+04  0.50400001928E-02 0.  1.
    10030    2    1    2    0    0  0.00000000000E+00  0.00000000000E+00  0.93155742330E+02  0.26860977872E+04  0.26844819482E+04 0.  0.
        5    1    3    3  502    0 -0.47193570073E+03 -0.72793472779E+03 -0.97823413375E+03  0.13075076994E+04  0.46999998093E+01 0.  1.
       -5    1    3    3    0  502  0.47193570073E+03  0.72793472779E+03  0.10713898761E+04  0.13785900878E+04  0.46999998093E+01 0. -1.
</event>
<event>
 5   0  0.2641216E-05  0.2703838E+04  0.7818609E-02  0.8333761E-01
       -2   -1    0    0    0  501  0.00000000000E+00  0.00000000000E+00  0.13399355823E+04  0.13399355823E+04  0.25500000920E-02 0.  1.
        2   -1    0    0  501    0  0.00000000000E+00  0.00000000000E+00 -0.13640100683E+04  0.13640100683E+04  0.25500000920E-02 0. -1.
    10030    2    1    2    0    0  0.00000000000E+00  0.00000000000E+00 -0.24074485928E+02  0.27039456506E+04  0.27038384753E+04 0.  0.
        5    1    3    3  502    0 -0.29061803556E+02  0.46561002214E+03  0.12568811522E+04  0.13406750546E+04  0.46999998093E+01 0.  1.
       -5    1    3    3    0  502  0.29061803556E+02 -0.46561002214E+03 -0.12809556381E+04  0.13632705960E+04  0.46999998093E+01 0. -1.
</event>
<event>
 5   0  0.2516518E-05  0.2620671E+04  0.7818609E-02  0.8361213E-01
        2   -1    0    0  501    0  0.00000000000E+00  0.00000000000E+00  0.15134565777E+04  0.15134565777E+04  0.25500000920E-02 0.  1.
       -2   -1    0    0    0  501  0.00000000000E+00  0.00000000000E+00 -0.11344753371E+04  0.11344753371E+04  0.25500000920E-02 0. -1.
    10030    2    1    2    0    0  0.00000000000E+00  0.00000000000E+00  0.37898124061E+03  0.26479319148E+04  0.26206710295E+04 0.  0.
        4    1    3    3  502    0  0.67492164201E+03  0.84916578845E+03 -0.55325867375E+03  0.12176610908E+04  0.12699999809E+01 0. -1.
       -4    1    3    3    0  502 -0.67492164201E+03 -0.84916578845E+03  0.93223991435E+03  0.14302708240E+04  0.12699999809E+01 0.  1.
</event>
<event>
 5   0  0.2615843E-05  0.2765675E+04  0.7818609E-02  0.8314005E-01
        2   -1    0    0  501    0  0.00000000000E+00  0.00000000000E+00  0.17867190599E+04  0.17867190600E+04  0.25500000920E-02 0.  1.
       -2   -1    0    0    0  501  0.00000000000E+00  0.00000000000E+00 -0.10702523206E+04  0.10702523206E+04  0.25500000920E-02 0. -1.
    10030    2    1    2    0    0  0.00000000000E+00  0.00000000000E+00  0.71646673932E+03  0.28569713806E+04  0.27656754837E+04 0.  0.
        3    1    3    3  502    0 -0.10022440420E+04  0.94368389214E+03  0.22272461010E+03  0.13945030191E+04  0.10100000352E+00 0. -1.
       -3    1    3    3    0  502  0.10022440420E+04 -0.94368389214E+03  0.49374212922E+03  0.14624683615E+04  0.10100000352E+00 0.  1.
</event>
<event>
 5   0  0.2615843E-05  0.2297412E+04  0.7818609E-02  0.8478942E-01
       -2   -1    0    0    0  501  0.00000000000E+00  0.00000000000E+00  0.71401502685E+03  0.71401502686E+03  0.25500000920E-02 0.  1.
        2   -1    0    0  501    0  0.00000000000E+00  0.00000000000E+00 -0.18480366397E+04  0.18480366397E+04  0.25500000920E-02 0. -1.
    10030    2    1    2    0    0  0.00000000000E+00  0.00000000000E+00 -0.11340216128E+04  0.25620516666E+04  0.22974123974E+04 0.  0.
        3    1    3    3  502    0 -0.64213961917E+03  0.13725135951E+03 -0.16181002629E+04  0.17462616348E+04  0.10100000352E+00 0. -1.
       -3    1    3    3    0  502  0.64213961917E+03 -0.13725135951E+03  0.48407865009E+03  0.81579003172E+03  0.10100000352E+00 0.  1.
</event>
<event>
 5   0  0.2516518E-05  0.2729038E+04  0.7818609E-02  0.8325644E-01
       -2   -1    0    0    0  501  0.00000000000E+00  0.00000000000E+00  0.10526366213E+04  0.10526366213E+04  0.25500000920E-02 0.  1.
        2   -1    0    0  501    0  0.00000000000E+00  0.00000000000E+00 -0.17688083133E+04  0.17688083133E+04  0.25500000920E-02 0. -1.
    10030    2    1    2    0    0  0.00000000000E+00  0.00000000000E+00 -0.71617169203E+03  0.28214449346E+04  0.27290382237E+04 0.  0.
        4    1    3    3  502    0 -0.75930287927E+03  0.75553709557E+03  0.51583741020E+03  0.11888931878E+04  0.12699999809E+01 0.  1.
       -4    1    3    3    0  502  0.75930287927E+03 -0.75553709557E+03 -0.12320091022E+04  0.16325517468E+04  0.12699999809E+01 0. -1.
</event>
<event>
 5   0  0.2615843E-05  0.2709687E+04  0.7818609E-02  0.8331869E-01
       -2   -1    0    0    0  501  0.00000000000E+00  0.00000000000E+00  0.86740264789E+03  0.86740264790E+03  0.25500000920E-02 0. -1.
        2   -1    0    0  501    0  0.00000000000E+00  0.00000000000E+00 -0.21162046316E+04  0.21162046316E+04  0.25500000920E-02 0.  1.
    10030    2    1    2    0    0  0.00000000000E+00  0.00000000000E+00 -0.12488019837E+04  0.29836072795E+04  0.27096874366E+04 0.  0.
        3    1    3    3  502    0  0.86327249801E+03  0.27883817651E+03 -0.17324114439E+04  0.19555663005E+04  0.10100000352E+00 0.  1.
       -3    1    3    3    0  502 -0.86327249801E+03 -0.27883817651E+03  0.48360946013E+03  0.10280409791E+04  0.10100000352E+00 0. -1.
</event>
<event>
 5   0  0.1041909E-05  0.2677422E+04  0.7818609E-02  0.8342368E-01
        1   -1    0    0  501    0  0.00000000000E+00  0.00000000000E+00  0.14127585123E+04  0.14127585123E+04  0.50400001928E-02 0. -1.
       -1   -1    0    0    0  501  0.00000000000E+00  0.00000000000E+00 -0.12685445989E+04  0.12685445989E+04  0.50400001928E-02 0.  1.
    10030    2    1    2    0    0  0.00000000000E+00  0.00000000000E+00  0.14421391343E+03  0.26813031112E+04  0.26774220290E+04 0.  0.
        5    1    3    3  502    0  0.77311296471E+03 -0.93458132915E+03  0.63947844390E+03  0.13711676364E+04  0.46999998093E+01 0.  1.
       -5    1    3    3    0  502 -0.77311296471E+03  0.93458132915E+03 -0.49526453047E+03  0.13101354747E+04  0.46999998093E+01 0. -1.
</event>
<event>
 5   0  0.2540232E-05  0.2655748E+04  0.7818609E-02  0.8349508E-01
       -2   -1    0    0    0  501  0.00000000000E+00  0.00000000000E+00  0.18807639604E+04  0.18807639604E+04  0.25500000920E-02 0.  1.
        2   -1    0    0  501    0  0.00000000000E+00  0.00000000000E+00 -0.93751746007E+03  0.93751746007E+03  0.25500000920E-02 0. -1.
    10030    2    1    2    0    0  0.00000000000E+00  0.00000000000E+00  0.94324650031E+03  0.28182814205E+04  0.26557477675E+04 0.  0.
        1    1    3    3  502    0  0.20139614356E+03 -0.71963980783E+03 -0.69319001562E+03  0.10192910563E+04  0.50400001928E-02 0. -1.
       -1    1    3    3    0  502 -0.20139614356E+03  0.71963980783E+03  0.16364365159E+04  0.17989903642E+04  0.50400001928E-02 0.  1.
</event>
<event>
 5   0  0.1005265E-05  0.1959909E+04  0.7818609E-02  0.8625597E-01
       -1   -1    0    0    0  501  0.00000000000E+00  0.00000000000E+00  0.12106225750E+04  0.12106225750E+04  0.50400001928E-02 0.  1.
        1   -1    0    0  501    0  0.00000000000E+00  0.00000000000E+00 -0.79323725410E+03  0.79323725412E+03  0.50400001928E-02 0. -1.
    10030    2    1    2    0    0  0.00000000000E+00  0.00000000000E+00  0.41738532088E+03  0.20038598291E+04  0.19599091072E+04 0.  0.
        3    1    3    3  502    0  0.27484055110E+03  0.13271726997E+03  0.11607891307E+04  0.12002427331E+04  0.10100000352E+00 0.  1.
       -3    1    3    3    0  502 -0.27484055110E+03 -0.13271726997E+03 -0.74340380983E+03  0.80361709598E+03  0.10100000352E+00 0. -1.
</event>
<event>
 5   0  0.2516518E-05  0.2730586E+04  0.7818609E-02  0.8325149E-01
        2   -1    0    0  501    0  0.00000000000E+00  0.00000000000E+00  0.19594101574E+04  0.19594101574E+04  0.25500000920E-02 0. -1.
       -2   -1    0    0    0  501  0.00000000000E+00  0.00000000000E+00 -0.95131931040E+03  0.95131931041E+03  0.25500000920E-02 0.  1.
    10030    2    1    2    0    0  0.00000000000E+00  0.00000000000E+00  0.10080908470E+04  0.29107294678E+04  0.27305858124E+04 0.  0.
        4    1    3    3  502    0 -0.44188167513E+03  0.18401570819E+03 -0.85894204853E+03  0.98331289593E+03  0.12699999809E+01 0.  1.
       -4    1    3    3    0  502  0.44188167513E+03 -0.18401570819E+03  0.18670328955E+04  0.19274165718E+04  0.12699999809E+01 0. -1.
</event>
<event>
 5   0  0.2516518E-05  0.2686927E+04  0.7818609E-02  0.8339259E-01
       -2   -1    0    0    0  501  0.00000000000E+00  0.00000000000E+00  0.81483698219E+03  0.81483698220E+03  0.25500000920E-02 0. -1.
        2   -1    0    0  501    0  0.00000000000E+00  0.00000000000E+00 -0.22150364796E+04  0.22150364796E+04  0.25500000920E-02 0.  1.
    10030    2    1    2    0    0  0.00000000000E+00  0.00000000000E+00 -0.14001994974E+04  0.30298734618E+04  0.26869266015E+04 0.  0.
        4    1    3    3  502    0  0.16915159601E+03 -0.94196050173E+02 -0.21992216794E+04  0.22077279647E+04  0.12699999809E+01 0.  1.
       -4    1    3    3    0  502 -0.16915159601E+03  0.94196050173E+02  0.79902218193E+03  0.82214549711E+03  0.12699999809E+01 0. -1.
</event>
<event>
 5   0  0.8740500E-06  0.2724893E+04  0.7818609E-02  0.8326973E-01
        3   -1    0    0  501    0  0.00000000000E+00  0.00000000000E+00  0.83914969565E+03  0.83914970173E+03  0.10100000352E+00 0.  1.
       -3   -1    0    0    0  501  0.00000000000E+00  0.00000000000E+00 -0.22120722898E+04  0.22120722921E+04  0.10100000352E+00 0. -1.
    10030    2    1    2    0    0  0.00000000000E+00  0.00000000000E+00 -0.13729225941E+04  0.30512219938E+04  0.27248925128E+04 0.  0.
        3    1    3    3  502    0 -0.11100892400E+04 -0.78746040357E+03 -0.61682181946E+03  0.14942761375E+04  0.10100000352E+00 0.  1.
       -3    1    3    3    0  502  0.11100892400E+04  0.78746040357E+03 -0.75610077466E+03  0.15569458563E+04  0.10100000352E+00 0. -1.
</event>
<event>
 5   0  0.2516518E-05  0.2524973E+04  0.7818609E-02  0.8394143E-01
       -2   -1    0    0    0  501  0.00000000000E+00  0.00000000000E+00  0.12887862225E+04  0.12887862225E+04  0.25500000920E-02 0.  1.
        2   -1    0    0  501    0  0.00000000000E+00  0.00000000000E+00 -0.12367232462E+04  0.12367232462E+04  0.25500000920E-02 0. -1.
    10030    2    1    2    0    0  0.00000000000E+00  0.00000000000E+00  0.52062976238E+02  0.25255094687E+04  0.25249727767E+04 0.  0.
        4    1    3    3  502    0 -0.37361202569E+03  0.91101314194E+03  0.81635092779E+03  0.12790470440E+04  0.12699999809E+01 0.  1.
       -4    1    3    3    0  502  0.37361202569E+03 -0.91101314194E+03 -0.76428795155E+03  0.12464624247E+04  0.12699999809E+01 0. -1.
</event>
<event>
 5   0  0.2540232E-05  0.1724389E+04  0.7818609E-02  0.8747575E-01
       -2   -1    0    0    0  501  0.00000000000E+00  0.00000000000E+00  0.31782895558E+03  0.31782895559E+03  0.25500000920E-02 0.  1.
        2   -1    0    0  501    0  0.00000000000E+00  0.00000000000E+00 -0.23389285413E+04  0.23389285413E+04  0.25500000920E-02 0. -1.
    10030    2    1    2    0    0  0.00000000000E+00  0.00000000000E+00 -0.20210995858E+04  0.26567574969E+04  0.17243888372E+04 0.  0.
        1    1    3    3  502    0  0.38797132392E+03  0.24100969967E+02 -0.21962612140E+04  0.22303959122E+04  0.50400001928E-02 0. -1.
       -1    1    3    3    0  502 -0.38797132392E+03 -0.24100969967E+02  0.17516162823E+03  0.42636158477E+03  0.50400001928E-02 0.  1.
</event>
<event>
 5   0  0.1036691E-05  0.2727276E+04  0.7818609E-02  0.8326209E-01
       -1   -1    0    0    0  501  0.00000000000E+00  0.00000000000E+00  0.15926020615E+04  0.15926020616E+04  0.50400001928E-02 0.  1.
        1   -1    0    0  501    0  0.00000000000E+00  0.00000000000E+00 -0.11675914261E+04  0.11675914261E+04  0.50400001928E-02 0. -1.
    10030    2    1    2    0    0  0.00000000000E+00  0.00000000000E+00  0.42501063549E+03  0.27601934876E+04  0.27272759392E+04 0.  0.
        4    1    3    3  502    0  0.74198766783E+03  0.59287325663E+03 -0.77780506622E+03  0.12276101709E+04  0.12699999809E+01 0. -1.
       -4    1    3    3    0  502 -0.74198766783E+03 -0.59287325663E+03  0.12028157017E+04  0.15325833168E+04  0.12699999809E+01 0.  1.
</event>
<event>
 5   0  0.8740500E-06  0.2779499E+04  0.7818609E-02  0.8309661E-01
        3   -1    0    0  501    0  0.00000000000E+00  0.00000000000E+00  0.17306668529E+04  0.17306668558E+04  0.10100000352E+00 0.  1.
       -3   -1    0    0    0  501  0.00000000000E+00  0.00000000000E+00 -0.11159883084E+04  0.11159883130E+04  0.10100000352E+00 0. -1.
    10030    2    1    2    0    0  0.00000000000E+00  0.00000000000E+00  0.61467854447E+03  0.28466551688E+04  0.27794992242E+04 0.  0.
        5    1    3    3  502    0 -0.36403919678E+03  0.44805718706E+03  0.16020435048E+04  0.17028932030E+04  0.46999998093E+01 0.  1.
       -5    1    3    3    0  502  0.36403919678E+03 -0.44805718706E+03 -0.98736496028E+03  0.11437619658E+04  0.46999998093E+01 0. -1.
</event>
<event>
 5   0  0.1041909E-05  0.2709073E+04  0.7818609E-02  0.8332067E-01
        1   -1    0    0  501    0  0.00000000000E+00  0.00000000000E+00  0.96925567371E+03  0.96925567373E+03  0.50400001928E-02 0.  1.
       -1   -1    0    0    0  501  0.00000000000E+00  0.00000000000E+00 -0.18929666653E+04  0.18929666654E+04  0.50400001928E-02 0. -1.
    10030    2    1    2    0    0  0.00000000000E+00  0.00000000000E+00 -0.92371099163E+03  0.28622223391E+04  0.27090726683E+04 0.  0.
        5    1    3    3  502    0 -0.12866085795E+04 -0.39369494743E+03 -0.29685628623E+03  0.13778617831E+04  0.46999998093E+01 0.  1.
       -5    1    3    3    0  502  0.12866085795E+04  0.39369494743E+03 -0.62685470540E+03  0.14843605560E+04  0.46999998093E+01 0. -1.
</event>
<event>
 5   0  0.2516518E-05  0.2684299E+04  0.7818609E-02  0.8340117E-01
        2   -1    0    0  501    0  0.00000000000E+00  0.00000000000E+00  0.94052738616E+03  0.94052738617E+03  0.25500000920E-02 0.  1.
       -2   -1    0    0    0  501  0.00000000000E+00  0.00000000000E+00 -0.19152721035E+04  0.19152721035E+04  0.25500000920E-02 0. -1.
    10030    2    1    2    0    0  0.00000000000E+00  0.00000000000E+00 -0.97474471734E+03  0.28557994897E+04  0.26842994358E+04 0.  0.
        4    1    3    3  502    0  0.11498547088E+04  0.31876324708E+02  0.24831535016E+03  0.11767939825E+04  0.12699999809E+01 0.  1.
       -4    1    3    3    0  502 -0.11498547088E+04 -0.31876324708E+02 -0.12230600675E+04  0.16790055071E+04  0.12699999809E+01 0. -1.
</event>
<event>
 5   0  0.2540232E-05  0.2715936E+04  0.7818609E-02  0.8329853E-01
       -2   -1    0    0    0  501  0.00000000000E+00  0.00000000000E+00  0.27947294610E+04  0.27947294610E+04  0.25500000920E-02 0. -1.
        2   -1    0    0  501    0  0.00000000000E+00  0.00000000000E+00 -0.65984119475E+03  0.65984119475E+03  0.25500000920E-02 0.  1.
    10030    2    1    2    0    0  0.00000000000E+00  0.00000000000E+00  0.21348882662E+04  0.34545706557E+04  0.27159363958E+04 0.  0.
        1    1    3    3  502    0 -0.84211044102E+03 -0.94560491669E+03  0.16915607215E+04  0.21129828035E+04  0.50400001928E-02 0.  1.
       -1    1    3    3    0  502  0.84211044102E+03  0.94560491669E+03  0.44332754476E+03  0.13415878523E+04  0.50400001928E-02 0. -1.
</event>
<event>
 5   0  0.2540684E-05  0.2545454E+04  0.7818609E-02  0.8386969E-01
        2   -1    0    0  501    0  0.00000000000E+00  0.00000000000E+00  0.17110336295E+04  0.17110336295E+04  0.25500000920E-02 0.  1.
       -2   -1    0    0    0  501  0.00000000000E+00  0.00000000000E+00 -0.94669899472E+03  0.94669899473E+03  0.25500000920E-02 0. -1.
    10030    2    1    2    0    0  0.00000000000E+00  0.00000000000E+00  0.76433463474E+03  0.26577326242E+04  0.25454538432E+04 0.  0.
        2    1    3    3  502    0  0.10889217981E+04 -0.39511982629E+03  0.93264524974E+03  0.14871777034E+04  0.25500000920E-02 0.  1.
       -2    1    3    3    0  502 -0.10889217981E+04  0.39511982629E+03 -0.16831061499E+03  0.11705549208E+04  0.25500000920E-02 0. -1.
</event>
<event>
 5   0  0.2641216E-05  0.2705062E+04  0.7818609E-02  0.8333364E-01
        2   -1    0    0  501    0  0.00000000000E+00  0.00000000000E+00  0.95742643138E+03  0.95742643138E+03  0.25500000920E-02 0. -1.
       -2   -1    0    0    0  501  0.00000000000E+00  0.00000000000E+00 -0.19106848721E+04  0.19106848721E+04  0.25500000920E-02 0.  1.
    10030    2    1    2    0    0  0.00000000000E+00  0.00000000000E+00 -0.95325844072E+03  0.28681113035E+04  0.27050620685E+04 0.  0.
        5    1    3    3  502    0 -0.26106649900E+02  0.37749070805E+02 -0.19098502881E+04  0.19104074860E+04  0.46999998093E+01 0.  1.
       -5    1    3    3    0  502  0.26106649900E+02 -0.37749070805E+02  0.95659184740E+03  0.95770381749E+03  0.46999998093E+01 0. -1.
</event>
<event>
 5   0  0.2540684E-05  0.2228933E+04  0.7818609E-02  0.8506481E-01
       -2   -1    0    0    0  501  0.00000000000E+00  0.00000000000E+00  0.85860873017E+03  0.85860873017E+03  0.25500000920E-02 0. -1.
        2   -1    0    0  501    0  0.00000000000E+00  0.00000000000E+00 -0.14465679500E+04  0.14465679500E+04  0.25500000920E-02 0.  1.
    10030    2    1    2    0    0  0.00000000000E+00  0.00000000000E+00 -0.58795921987E+03  0.23051766802E+04  0.22289332612E+04 0.  0.
        2    1    3    3  502    0 -0.51361789582E+03 -0.44765258069E+03 -0.12061000826E+04  0.13852341265E+04  0.25500000920E-02 0.  1.
       -2    1    3    3    0  502  0.51361789582E+03  0.44765258069E+03  0.61814086276E+03  0.91994255371E+03  0.25500000920E-02 0. -1.
</event>
<event>
 5   0  0.1005265E-05  0.2696813E+04  0.7818609E-02  0.8336040E-01
        1   -1    0    0  501    0  0.00000000000E+00  0.00000000000E+00  0.11565565182E+04  0.11565565182E+04  0.50400001928E-02 0.  1.
       -1   -1    0    0    0  501  0.00000000000E+00  0.00000000000E+00 -0.15720809436E+04  0.15720809436E+04  0.50400001928E-02 0. -1.
    10030    2    1    2    0    0  0.00000000000E+00  0.00000000000E+00 -0.41552442541E+03  0.27286374618E+04  0.26968132768E+04 0.  0.
        3    1    3    3  502    0 -0.54488204151E+03 -0.25563649859E+03 -0.14286304238E+04  0.15502359035E+04  0.10100000352E+00 0. -1.
       -3    1    3    3    0  502  0.54488204151E+03  0.25563649859E+03  0.10131059984E+04  0.11784015583E+04  0.10100000352E+00 0.  1.
</event>
<event>
 5   0  0.2540232E-05  0.2775091E+04  0.7818609E-02  0.8311043E-01
       -2   -1    0    0    0  501  0.00000000000E+00  0.00000000000E+00  0.87367577619E+03  0.87367577619E+03  0.25500000920E-02 0. -1.
        2   -1    0    0  501    0  0.00000000000E+00  0.00000000000E+00 -0.22036585931E+04  0.22036585931E+04  0.25500000920E-02 0.  1.
    10030    2    1    2    0    0  0.00000000000E+00  0.00000000000E+00 -0.13299828169E+04  0.30773343693E+04  0.27750914448E+04 0.  0.
        1    1    3    3  502    0  0.61168437284E+03 -0.72479019779E+03  0.45813773022E+03  0.10532657702E+04  0.50400001928E-02 0. -1.
       -1    1    3    3    0  502 -0.61168437284E+03  0.72479019779E+03 -0.17881205471E+04  0.20240685991E+04  0.50400001928E-02 0.  1.
</event>
<event>
 5   0  0.9971923E-06  0.2664932E+04  0.7818609E-02  0.8346474E-01
        1   -1    0    0  501    0  0.00000000000E+00  0.00000000000E+00  0.13267551430E+04  0.13267551430E+04  0.50400001928E-02 0. -1.
       -1   -1    0    0    0  501  0.00000000000E+00  0.00000000000E+00 -0.13382012630E+04  0.13382012630E+04  0.50400001928E-02 0.  1.
    10030    2    1    2    0    0  0.00000000000E+00  0.00000000000E+00 -0.11446119956E+02  0.26649564060E+04  0.26649318251E+04 0.  0.
        2    1    3    3  502    0 -0.14729609497E+03 -0.95373390763E+03  0.91306770775E+03  0.13285319511E+04  0.25500000920E-02 0. -1.
       -2    1    3    3    0  502  0.14729609497E+03  0.95373390763E+03 -0.92451382771E+03  0.13364244549E+04  0.25500000920E-02 0.  1.
</event>
<event>
 5   0  0.1036691E-05  0.2373686E+04  0.7818609E-02  0.8449421E-01
        1   -1    0    0  501    0  0.00000000000E+00  0.00000000000E+00  0.20627809820E+04  0.20627809820E+04  0.50400001928E-02 0.  1.
       -1   -1    0    0    0  501  0.00000000000E+00  0.00000000000E+00 -0.68286277584E+03  0.68286277586E+03  0.50400001928E-02 0. -1.
    10030    2    1    2    0    0  0.00000000000E+00  0.00000000000E+00  0.13799182062E+04  0.27456437579E+04  0.23736860343E+04 0.  0.
        4    1    3    3  502    0  0.54620105111E+02  0.34769415826E+03 -0.62110878723E+03  0.71389937810E+03  0.12699999809E+01 0. -1.
       -4    1    3    3    0  502 -0.54620105111E+02 -0.34769415826E+03  0.20010269934E+04  0.20317443798E+04  0.12699999809E+01 0.  1.
</event>
<event>
 5   0  0.2615843E-05  0.2566308E+04  0.7818609E-02  0.8379737E-01
       -2   -1    0    0    0  501  0.00000000000E+00  0.00000000000E+00  0.10140929266E+04  0.10140929267E+04  0.25500000920E-02 0. -1.
        2   -1    0    0  501    0  0.00000000000E+00  0.00000000000E+00 -0.16236022802E+04  0.16236022802E+04  0.25500000920E-02 0.  1.
    10030    2    1    2    0    0  0.00000000000E+00  0.00000000000E+00 -0.60950935350E+03  0.26376952068E+04  0.25663075326E+04 0.  0.
        3    1    3    3  502    0  0.15084288884E+03 -0.66140043395E+03 -0.14242168365E+04  0.15775289914E+04  0.10100000352E+00 0.  1.
       -3    1    3    3    0  502 -0.15084288884E+03  0.66140043395E+03  0.81470748302E+03  0.10601662154E+04  0.10100000352E+00 0. -1.
</event>
<event>
 5   0  0.2641216E-05  0.2705373E+04  0.7818609E-02  0.8333264E-01
       -2   -1    0    0    0  501  0.00000000000E+00  0.00000000000E+00  0.11655174669E+04  0.11655174669E+04  0.25500000920E-02 0. -1.
        2   -1    0    0  501    0  0.00000000000E+00  0.00000000000E+00 -0.15699130353E+04  0.15699130353E+04  0.25500000920E-02 0.  1.
    10030    2    1    2    0    0  0.00000000000E+00  0.00000000000E+00 -0.40439556838E+03  0.27354305022E+04  0.27053732194E+04 0.  0.
        5    1    3    3  502    0 -0.16631932185E+03  0.11170776157E+04  0.55052909437E+03  0.12564349924E+04  0.46999998093E+01 0. -1.
       -5    1    3    3    0  502  0.16631932185E+03 -0.11170776157E+04 -0.95492466275E+03  0.14789955098E+04  0.46999998093E+01 0.  1.
</event>
<event>
 5   0  0.8740500E-06  0.2691339E+04  0.7818609E-02  0.8337821E-01
       -3   -1    0    0    0  501  0.00000000000E+00  0.00000000000E+00  0.16619498148E+04  0.16619498178E+04  0.10100000352E+00 0.  1.
        3   -1    0    0  501    0  0.00000000000E+00  0.00000000000E+00 -0.10895795719E+04  0.10895795766E+04  0.10100000352E+00 0. -1.
    10030    2    1    2    0    0  0.00000000000E+00  0.00000000000E+00  0.57237024285E+03  0.27515293945E+04  0.26913391302E+04 0.  0.
        5    1    3    3  502    0 -0.10009353595E+03  0.67665919192E+03 -0.89857518749E+03  0.11293121072E+04  0.46999998093E+01 0. -1.
       -5    1    3    3    0  502  0.10009353595E+03 -0.67665919192E+03  0.14709454303E+04  0.16222172872E+04  0.46999998093E+01 0.  1.
</event>
<event>
 5   0  0.2641216E-05  0.2682678E+04  0.7818609E-02  0.8340647E-01
        2   -1    0    0  501    0  0.00000000000E+00  0.00000000000E+00  0.10285669066E+04  0.10285669066E+04  0.25500000920E-02 0.  1.
       -2   -1    0    0    0  501  0.00000000000E+00  0.00000000000E+00 -0.17492199777E+04  0.17492199777E+04  0.25500000920E-02 0. -1.
    10030    2    1    2    0    0  0.00000000000E+00  0.00000000000E+00 -0.72065307108E+03  0.27777868843E+04  0.26826776038E+04 0.  0.
        5    1    3    3  502    0  0.97908298742E+02  0.10490977170E+04  0.49914672920E+03  0.11659166360E+04  0.46999998093E+01 0.  1.
       -5    1    3    3    0  502 -0.97908298742E+02 -0.10490977170E+04 -0.12197998003E+04  0.16118702483E+04  0.46999998093E+01 0. -1.
</event>
<event>
 5   0  0.2540232E-05  0.2732555E+04  0.7818609E-02  0.8324519E-01
        2   -1    0    0  501    0  0.00000000000E+00  0.00000000000E+00  0.13353370915E+04  0.13353370916E+04  0.25500000920E-02 0.  1.
       -2   -1    0    0    0  501  0.00000000000E+00  0.00000000000E+00 -0.13979343783E+04  0.13979343783E+04  0.25500000920E-02 0. -1.
    10030    2    1    2    0    0  0.00000000000E+00  0.00000000000E+00 -0.62597286746E+02  0.27332714698E+04  0.27325545754E+04 0.  0.
        1    1    3    3  502    0 -0.11688292489E+03  0.11436283432E+04  0.70724878984E+03  0.13497215477E+04  0.50400001928E-02 0.  1.
       -1    1    3    3    0  502  0.11688292489E+03 -0.11436283432E+04 -0.76984607659E+03  0.13835499222E+04  0.50400001928E-02 0. -1.
</event>
<event>
 5   0  0.1036691E-05  0.2780233E+04  0.7818609E-02  0.8309432E-01
       -1   -1    0    0    0  501  0.00000000000E+00  0.00000000000E+00  0.14564311245E+04  0.14564311245E+04  0.50400001928E-02 0. -1.
        1   -1    0    0  501    0  0.00000000000E+00  0.00000000000E+00 -0.13268211881E+04  0.13268211881E+04  0.50400001928E-02 0.  1.
    10030    2    1    2    0    0  0.00000000000E+00  0.00000000000E+00  0.12960993641E+03  0.27832523126E+04  0.27802328500E+04 0.  0.
        4    1    3    3  502    0 -0.11069194599E+04  0.17940841626E+03 -0.75764920840E+03  0.13533262749E+04  0.12699999809E+01 0.  1.
       -4    1    3    3    0  502  0.11069194599E+04 -0.17940841626E+03  0.88725914481E+03  0.14299260377E+04  0.12699999809E+01 0. -1.
</event>
<event>
 5   0  0.1041909E-05  0.2593645E+04  0.7818609E-02  0.8370363E-01
       -1   -1    0    0    0  501  0.00000000000E+00  0.00000000000E+00  0.97505841450E+03  0.97505841452E+03  0.50400001928E-02 0. -1.
        1   -1    0    0  501    0  0.00000000000E+00  0.00000000000E+00 -0.17247667353E+04  0.17247667353E+04  0.50400001928E-02 0.  1.
    10030    2    1    2    0    0  0.00000000000E+00  0.00000000000E+00 -0.74970832079E+03  0.26998251498E+04  0.25936447855E+04 0.  0.
        5    1    3    3  502    0 -0.14815867304E+03  0.13881185627E+03 -0.17081119209E+04  0.17201418977E+04  0.46999998093E+01 0.  1.
       -5    1    3    3    0  502  0.14815867304E+03 -0.13881185627E+03  0.95840360010E+03  0.97968325214E+03  0.46999998093E+01 0. -1.
</event>
<event>
 5   0  0.2641216E-05  0.2656813E+04  0.7818609E-02  0.8349155E-01
       -2   -1    0    0    0  501  0.00000000000E+00  0.00000000000E+00  0.11098684580E+04  0.11098684580E+04  0.25500000920E-02 0. -1.
        2   -1    0    0  501    0  0.00000000000E+00  0.00000000000E+00 -0.15899760729E+04  0.15899760729E+04  0.25500000920E-02 0.  1.
    10030    2    1    2    0    0  0.00000000000E+00  0.00000000000E+00 -0.48010761491E+03  0.26998445308E+04  0.26568133485E+04 0.  0.
        5    1    3    3  502    0 -0.10696059893E+04 -0.78531182339E+03 -0.30327536254E+03  0.13611648202E+04  0.46999998093E+01 0. -1.
       -5    1    3    3    0  502  0.10696059893E+04  0.78531182339E+03 -0.17683225237E+03  0.13386797106E+04  0.46999998093E+01 0.  1.
</event>
<event>
 5   0  0.2540684E-05  0.2378215E+04  0.7818609E-02  0.8447705E-01
       -2   -1    0    0    0  501  0.00000000000E+00  0.00000000000E+00  0.11252823775E+04  0.11252823775E+04  0.25500000920E-02 0. -1.
        2   -1    0    0  501    0  0.00000000000E+00  0.00000000000E+00 -0.12565531754E+04  0.12565531754E+04  0.25500000920E-02 0.  1.
    10030    2    1    2    0    0  0.00000000000E+00  0.00000000000E+00 -0.13127079787E+03  0.23818355529E+04  0.23782154189E+04 0.  0.
        2    1    3    3  502    0 -0.50581259887E+03  0.58449583149E+03 -0.97061220685E+03  0.12407940273E+04  0.25500000920E-02 0.  1.
       -2    1    3    3    0  502  0.50581259887E+03 -0.58449583149E+03  0.83934140897E+03  0.11410415255E+04  0.25500000920E-02 0. -1.
</event>
<event>
 5   0  0.2615843E-05  0.2700162E+04  0.7818609E-02  0.8334953E-01
        2   -1    0    0  501    0  0.00000000000E+00  0.00000000000E+00  0.18163749862E+04  0.18163749862E+04  0.25500000920E-02 0.  1.
       -2   -1    0    0    0  501  0.00000000000E+00  0.00000000000E+00 -0.10034921453E+04  0.10034921453E+04  0.25500000920E-02 0. -1.
    10030    2    1    2    0    0  0.00000000000E+00  0.00000000000E+00  0.81288284087E+03  0.28198671315E+04  0.27001615000E+04 0.  0.
        3    1    3    3  502    0  0.11777299391E+04 -0.58878045237E+03  0.71800946998E+03  0.14997492590E+04  0.10100000352E+00 0.  1.
       -3    1    3    3    0  502 -0.11777299391E+04  0.58878045237E+03  0.94873370893E+02  0.13201178725E+04  0.10100000352E+00 0. -1.
</event>
<event>
 5   0  0.1096672E-05  0.2503786E+04  0.7818609E-02  0.8401638E-01
        1   -1    0    0  501    0  0.00000000000E+00  0.00000000000E+00  0.84163113096E+03  0.84163113097E+03  0.50400001928E-02 0. -1.
       -1   -1    0    0    0  501  0.00000000000E+00  0.00000000000E+00 -0.18621407015E+04  0.18621407015E+04  0.50400001928E-02 0.  1.
    10030    2    1    2    0    0  0.00000000000E+00  0.00000000000E+00 -0.10205095706E+04  0.27037718325E+04  0.25037856016E+04 0.  0.
        1    1    3    3  502    0  0.57405919899E+03 -0.93342305976E+03  0.14341490187E+03  0.11051653300E+04  0.50400001928E-02 0. -1.
       -1    1    3    3    0  502 -0.57405919899E+03  0.93342305976E+03 -0.11639244724E+04  0.15986065026E+04  0.50400001928E-02 0.  1.
</event>
<event>
 5   0  0.2615843E-05  0.2599221E+04  0.7818609E-02  0.8368466E-01
        2   -1    0    0  501    0  0.00000000000E+00  0.00000000000E+00  0.77934122200E+03  0.77934122200E+03  0.25500000920E-02 0. -1.
       -2   -1    0    0    0  501  0.00000000000E+00  0.00000000000E+00 -0.21671982965E+04  0.21671982965E+04  0.25500000920E-02 0.  1.
    10030    2    1    2    0    0  0.00000000000E+00  0.00000000000E+00 -0.13878570745E+04  0.29465395186E+04  0.25992206284E+04 0.  0.
        3    1    3    3  502    0 -0.98956344554E+03 -0.69524827407E+03 -0.12333014047E+04  0.17273211457E+04  0.10100000352E+00 0.  1.
       -3    1    3    3    0  502  0.98956344554E+03  0.69524827407E+03 -0.15455566980E+03  0.12192183728E+04  0.10100000352E+00 0. -1.
</event>
<event>
 5   0  0.2641216E-05  0.2679194E+04  0.7818609E-02  0.8341788E-01
       -2   -1    0    0    0  501  0.00000000000E+00  0.00000000000E+00  0.10083098252E+04  0.10083098252E+04  0.25500000920E-02 0. -1.
        2   -1    0    0  501    0  0.00000000000E+00  0.00000000000E+00 -0.17797303248E+04  0.17797303248E+04  0.25500000920E-02 0.  1.
    10030    2    1    2    0    0  0.00000000000E+00  0.00000000000E+00 -0.77142049964E+03  0.27880401500E+04  0.26791935896E+04 0.  0.
        5    1    3    3  502    0 -0.10702388650E+04  0.50531260583E+03  0.26727397356E+03  0.12133464158E+04  0.46999998093E+01 0. -1.
       -5    1    3    3    0  502  0.10702388650E+04 -0.50531260583E+03 -0.10386944732E+04  0.15746937342E+04  0.46999998093E+01 0.  1.
</event>
<event>
 5   0  0.1096672E-05  0.2636381E+04  0.7818609E-02  0.8355947E-01
       -1   -1    0    0    0  501  0.00000000000E+00  0.00000000000E+00  0.89495841825E+03  0.89495841826E+03  0.50400001928E-02 0.  1.
        1   -1    0    0  501    0  0.00000000000E+00  0.00000000000E+00 -0.19415725181E+04  0.19415725181E+04  0.50400001928E-02 0. -1.
    10030    2    1    2    0    0  0.00000000000E+00  0.00000000000E+00 -0.10466140999E+04  0.28365309364E+04  0.26363813607E+04 0.  0.
        1    1    3    3  502    0 -0.14148557966E+03 -0.98002096780E+03  0.41290719849E+03  0.10728241334E+04  0.50400001928E-02 0.  1.
       -1    1    3    3    0  502  0.14148557966E+03  0.98002096780E+03 -0.14595212983E+04  0.17637068030E+04  0.50400001928E-02 0. -1.
</event>
<event>
 5   0  0.9971923E-06  0.2695116E+04  0.7818609E-02  0.8336592E-01
       -1   -1    0    0    0  501  0.00000000000E+00  0.00000000000E+00  0.15536679404E+04  0.15536679404E+04  0.50400001928E-02 0. -1.
        1   -1    0    0  501    0  0.00000000000E+00  0.00000000000E+00 -0.11687903190E+04  0.11687903190E+04  0.50400001928E-02 0.  1.
    10030    2    1    2    0    0  0.00000000000E+00  0.00000000000E+00  0.38487762143E+03  0.27224582594E+04  0.26951156173E+04 0.  0.
        2    1    3    3  502    0  0.12240560130E+03  0.53982512991E+03  0.14335278515E+04  0.15366835729E+04  0.25500000920E-02 0. -1.
       -2    1    3    3    0  502 -0.12240560130E+03 -0.53982512991E+03 -0.10486502301E+04  0.11857746865E+04  0.25500000920E-02 0.  1.
</event>
<event>
 5   0  0.2516518E-05  0.2667443E+04  0.7818609E-02  0.8345647E-01
        2   -1    0    0  501    0  0.00000000000E+00  0.00000000000E+00  0.27520399862E+04  0.27520399862E+04  0.25500000920E-02 0. -1.
       -2   -1    0    0    0  501  0.00000000000E+00  0.00000000000E+00 -0.64636140691E+03  0.64636140692E+03  0.25500000920E-02 0.  1.
    10030    2    1    2    0    0  0.00000000000E+00  0.00000000000E+00  0.21056785793E+04  0.33984013931E+04  0.26674425485E+04 0.  0.
        4    1    3    3  502    0 -0.82497899254E+03 -0.17817407817E+03  0.23685331055E+04  0.25144158417E+04  0.12699999809E+01 0. -1.
       -4    1    3    3    0  502  0.82497899254E+03  0.17817407817E+03 -0.26285452621E+03  0.88398555142E+03  0.12699999809E+01 0.  1.
</event>
<event>
 5   0  0.2516518E-05  0.2532616E+04  0.7818609E-02  0.8391457E-01
       -2   -1    0    0    0  501  0.00000000000E+00  0.00000000000E+00  0.84921432993E+03  0.84921432994E+03  0.25500000920E-02 0. -1.
        2   -1    0    0  501    0  0.00000000000E+00  0.00000000000E+00 -0.18882588257E+04  0.18882588257E+04  0.25500000920E-02 0.  1.
    10030    2    1    2    0    0  0.00000000000E+00  0.00000000000E+00 -0.10390444958E+04  0.27374731557E+04  0.25326163969E+04 0.  0.
        4    1    3    3  502    0  0.18524318616E+02 -0.40746601131E+03 -0.18153088635E+04  0.18605696933E+04  0.12699999809E+01 0.  1.
       -4    1    3    3    0  502 -0.18524318616E+02  0.40746601131E+03  0.77626436774E+03  0.87690346235E+03  0.12699999809E+01 0. -1.
</event>
<event>
 5   0  0.2540684E-05  0.2022790E+04  0.7818609E-02  0.8596039E-01
       -2   -1    0    0    0  501  0.00000000000E+00  0.00000000000E+00  0.55881988087E+03  0.55881988087E+03  0.25500000920E-02 0.  1.
        2   -1    0    0  501    0  0.00000000000E+00  0.00000000000E+00 -0.18305006309E+04  0.18305006309E+04  0.25500000920E-02 0. -1.
    10030    2    1    2    0    0  0.00000000000E+00  0.00000000000E+00 -0.12716807500E+04  0.23893205118E+04  0.20227902951E+04 0.  0.
        2    1    3    3  502    0  0.85992807895E+03 -0.11607812253E+03 -0.22105118320E+02  0.86800867954E+03  0.25500000920E-02 0.  1.
       -2    1    3    3    0  502 -0.85992807895E+03  0.11607812253E+03 -0.12495756317E+04  0.15213118322E+04  0.25500000920E-02 0. -1.
</event>
<event>
 5   0  0.2540232E-05  0.2696295E+04  0.7818609E-02  0.8336208E-01
       -2   -1    0    0    0  501  0.00000000000E+00  0.00000000000E+00  0.18336154547E+04  0.18336154547E+04  0.25500000920E-02 0. -1.
        2   -1    0    0  501    0  0.00000000000E+00  0.00000000000E+00 -0.99121195468E+03  0.99121195469E+03  0.25500000920E-02 0.  1.
    10030    2    1    2    0    0  0.00000000000E+00  0.00000000000E+00  0.84240350004E+03  0.28248274094E+04  0.26962949090E+04 0.  0.
        1    1    3    3  502    0  0.10370169106E+04 -0.19814104256E+03  0.12995202382E+04  0.16743407046E+04  0.50400001928E-02 0. -1.
       -1    1    3    3    0  502 -0.10370169106E+04  0.19814104256E+03 -0.45711673818E+03  0.11504867048E+04  0.50400001928E-02 0.  1.
</event>
<event>
 5   0  0.2516518E-05  0.2699957E+04  0.7818609E-02  0.8335019E-01
       -2   -1    0    0    0  501  0.00000000000E+00  0.00000000000E+00  0.95587927635E+03  0.95587927635E+03  0.25500000920E-02 0. -1.
        2   -1    0    0  501    0  0.00000000000E+00  0.00000000000E+00 -0.19065611328E+04  0.19065611328E+04  0.25500000920E-02 0.  1.
    10030    2    1    2    0    0  0.00000000000E+00  0.00000000000E+00 -0.95068185647E+03  0.28624404092E+04  0.26999572411E+04 0.  0.
        4    1    3    3  502    0  0.95578482805E+03 -0.95070193984E+03 -0.55091805300E+03  0.14563210944E+04  0.12699999809E+01 0.  1.
       -4    1    3    3    0  502 -0.95578482805E+03  0.95070193984E+03 -0.39976380347E+03  0.14061193148E+04  0.12699999809E+01 0. -1.
</event>
<event>
 5   0  0.2615843E-05  0.2278015E+04  0.7818609E-02  0.8486640E-01
       -2   -1    0    0    0  501  0.00000000000E+00  0.00000000000E+00  0.91315282519E+03  0.91315282519E+03  0.25500000920E-02 0.  1.
        2   -1    0    0  501    0  0.00000000000E+00  0.00000000000E+00 -0.14207240637E+04  0.14207240637E+04  0.25500000920E-02 0. -1.
    10030    2    1    2    0    0  0.00000000000E+00  0.00000000000E+00 -0.50757123849E+03  0.23338768889E+04  0.22780150944E+04 0.  0.
        3    1    3    3  502    0 -0.62671430538E+03 -0.88587063071E+03  0.10082425115E+03  0.10898179365E+04  0.10100000352E+00 0.  1.
       -3    1    3    3    0  502  0.62671430538E+03  0.88587063071E+03 -0.60839548964E+03  0.12440589524E+04  0.10100000352E+00 0. -1.
</event>
<event>
 5   0  0.1005265E-05  0.2563097E+04  0.7818609E-02  0.8380845E-01
        1   -1    0    0  501    0  0.00000000000E+00  0.00000000000E+00  0.16092321698E+04  0.16092321698E+04  0.50400001928E-02 0. -1.
       -1   -1    0    0    0  501  0.00000000000E+00  0.00000000000E+00 -0.10205903899E+04  0.10205903899E+04  0.50400001928E-02 0.  1.
    10030    2    1    2    0    0  0.00000000000E+00  0.00000000000E+00  0.58864177990E+03  0.26298225597E+04  0.25630972573E+04 0.  0.
        3    1    3    3  502    0  0.86997388756E+03 -0.72543475623E+03 -0.32066310740E+03  0.11772574014E+04  0.10100000352E+00 0. -1.
       -3    1    3    3    0  502 -0.86997388756E+03  0.72543475623E+03  0.90930488730E+03  0.14525651582E+04  0.10100000352E+00 0.  1.
</event>
<event>
 5   0  0.1005265E-05  0.2701824E+04  0.7818609E-02  0.8334413E-01
       -1   -1    0    0    0  501  0.00000000000E+00  0.00000000000E+00  0.15014979616E+04  0.15014979616E+04  0.50400001928E-02 0. -1.
        1   -1    0    0  501    0  0.00000000000E+00  0.00000000000E+00 -0.12154287612E+04  0.12154287612E+04  0.50400001928E-02 0.  1.
    10030    2    1    2    0    0  0.00000000000E+00  0.00000000000E+00  0.28606920041E+03  0.27169267228E+04  0.27018244261E+04 0.  0.
        3    1    3    3  502    0 -0.94844186606E+03 -0.95948225017E+03  0.73251926196E+02  0.13511158413E+04  0.10100000352E+00 0.  1.
       -3    1    3    3    0  502  0.94844186606E+03  0.95948225017E+03  0.21281727421E+03  0.13658108815E+04  0.10100000352E+00 0. -1.
</event>
<event>
 5   0  0.1036691E-05  0.2904856E+04  0.7818609E-02  0.8271434E-01
       -1   -1    0    0    0  501  0.00000000000E+00  0.00000000000E+00  0.14395830683E+04  0.14395830683E+04  0.50400001928E-02 0. -1.
        1   -1    0    0  501    0  0.00000000000E+00  0.00000000000E+00 -0.14653875489E+04  0.14653875489E+04  0.50400001928E-02 0.  1.
    10030    2    1    2    0    0  0.00000000000E+00  0.00000000000E+00 -0.25804480598E+02  0.29049706172E+04  0.29048560060E+04 0.  0.
        4    1    3    3  502    0 -0.23403695492E+03  0.18463040582E+03  0.14086614282E+04  0.14398577413E+04  0.12699999809E+01 0. -1.
       -4    1    3    3    0  502  0.23403695492E+03 -0.18463040582E+03 -0.14344659088E+04  0.14651128760E+04  0.12699999809E+01 0.  1.
</event>
<event>
 5   0  0.1096672E-05  0.2684039E+04  0.7818609E-02  0.8340202E-01
       -1   -1    0    0    0  501  0.00000000000E+00  0.00000000000E+00  0.70565979503E+03  0.70565979505E+03  0.50400001928E-02 0.  1.
        1   -1    0    0  501    0  0.00000000000E+00  0.00000000000E+00 -0.25522445014E+04  0.25522445014E+04  0.50400001928E-02 0. -1.
    10030    2    1    2    0    0  0.00000000000E+00  0.00000000000E+00 -0.18465847064E+04  0.32579042965E+04  0.26840389951E+04 0.  0.
        1    1    3    3  502    0 -0.97714628377E+03 -0.14625979929E+03  0.17907499164E+03  0.10041287972E+04  0.50400001928E-02 0.  1.
       -1    1    3    3    0  502  0.97714628377E+03  0.14625979929E+03 -0.20256596980E+04  0.22537754993E+04  0.50400001928E-02 0. -1.
</event>
<event>
 5   0  0.2540232E-05  0.2799886E+04  0.7818609E-02  0.8303304E-01
        2   -1    0    0  501    0  0.00000000000E+00  0.00000000000E+00  0.12360848665E+04  0.12360848665E+04  0.25500000920E-02 0. -1.
       -2   -1    0    0    0  501  0.00000000000E+00  0.00000000000E+00 -0.15855222546E+04  0.15855222546E+04  0.25500000920E-02 0.  1.
    10030    2    1    2    0    0  0.00000000000E+00  0.00000000000E+00 -0.34943738807E+03  0.28216071211E+04  0.27998857580E+04 0.  0.
        1    1    3    3  502    0  0.64321681673E+03  0.10132930507E+04 -0.90096852091E+03  0.15007448003E+04  0.50400001928E-02 0.  1.
       -1    1    3    3    0  502 -0.64321681673E+03 -0.10132930507E+04  0.55153113284E+03  0.13208623208E+04  0.50400001928E-02 0. -1.
</event>
<event>
 5   0  0.2516518E-05  0.2723638E+04  0.7818609E-02  0.8327376E-01
        2   -1    0    0  501    0  0.00000000000E+00  0.00000000000E+00  0.17144114903E+04  0.17144114903E+04  0.25500000920E-02 0.  1.
       -2   -1    0    0    0  501  0.00000000000E+00  0.00000000000E+00 -0.10817423932E+04  0.10817423932E+04  0.25500000920E-02 0. -1.
    10030    2    1    2    0    0  0.00000000000E+00  0.00000000000E+00  0.63266909710E+03  0.27961538836E+04  0.27236384404E+04 0.  0.
        4    1    3    3  502    0 -0.72867802666E+03  0.11490791627E+04  0.37436732396E+03  0.14112076725E+04  0.12699999809E+01 0.  1.
       -4    1    3    3    0  502  0.72867802666E+03 -0.11490791627E+04  0.25830177314E+03  0.13849462111E+04  0.12699999809E+01 0. -1.
</event>
<event>
 5   0  0.2540684E-05  0.2757307E+04  0.7818609E-02  0.8316647E-01
       -2   -1    0    0    0  501  0.00000000000E+00  0.00000000000E+00  0.10597253687E+04  0.10597253687E+04  0.25500000920E-02 0. -1.
        2   -1    0    0  501    0  0.00000000000E+00  0.00000000000E+00 -0.17935638814E+04  0.17935638814E+04  0.25500000920E-02 0.  1.
    10030    2    1    2    0    0  0.00000000000E+00  0.00000000000E+00 -0.73383851270E+03  0.28532892501E+04  0.27573067624E+04 0.  0.
        2    1    3    3  502    0 -0.30357692696E+03  0.42558699341E+03  0.95318467488E+03  0.10871266090E+04  0.25500000920E-02 0. -1.
       -2    1    3    3    0  502  0.30357692696E+03 -0.42558699341E+03 -0.16870231876E+04  0.17661626411E+04  0.25500000920E-02 0.  1.
</event>
<event>
 5   0  0.1041909E-05  0.2761062E+04  0.7818609E-02  0.8315460E-01
        1   -1    0    0  501    0  0.00000000000E+00  0.00000000000E+00  0.24631848386E+04  0.24631848386E+04  0.50400001928E-02 0. -1.
       -1   -1    0    0    0  501  0.00000000000E+00  0.00000000000E+00 -0.77374071785E+03  0.77374071787E+03  0.50400001928E-02 0.  1.
    10030    2    1    2    0    0  0.00000000000E+00  0.00000000000E+00  0.16894441208E+04  0.32369255565E+04  0.27610624080E+04 0.  0.
        5    1    3    3  502    0  0.73204942429E+01 -0.13804609483E+04  0.83197114371E+03  0.16118077098E+04  0.46999998093E+01 0.  1.
       -5    1    3    3    0  502 -0.73204942429E+01  0.13804609483E+04  0.85747297705E+03  0.16251178467E+04  0.46999998093E+01 0. -1.
</event>
<event>
 5   0  0.1005265E-05  0.1928329E+04  0.7818609E-02  0.8640883E-01
       -1   -1    0    0    0  501  0.00000000000E+00  0.00000000000E+00  0.48348469071E+03  0.48348469074E+03  0.50400001928E-02 0.  1.
        1   -1    0    0  501    0  0.00000000000E+00  0.00000000000E+00 -0.19227345149E+04  0.19227345149E+04  0.50400001928E-02 0. -1.
    10030    2    1    2    0    0  0.00000000000E+00  0.00000000000E+00 -0.14392498242E+04  0.24062192057E+04  0.19283285014E+04 0.  0.
        3    1    3    3  502    0 -0.17429284605E+03  0.76845573664E+03 -0.14129387250E+04  0.16178065602E+04  0.10100000352E+00 0. -1.
       -3    1    3    3    0  502  0.17429284605E+03 -0.76845573664E+03 -0.26311099172E+02  0.78841264545E+03  0.10100000352E+00 0.  1.
</event>
<event>
 5   0  0.2540232E-05  0.2689099E+04  0.7818609E-02  0.8338551E-01
       -2   -1    0    0    0  501  0.00000000000E+00  0.00000000000E+00  0.14246527264E+04  0.14246527264E+04  0.25500000920E-02 0.  1.
        2   -1    0    0  501    0  0.00000000000E+00  0.00000000000E+00 -0.12689504938E+04  0.12689504938E+04  0.25500000920E-02 0. -1.
    10030    2    1    2    0    0  0.00000000000E+00  0.00000000000E+00  0.15570223265E+03  0.26936032202E+04  0.26890993143E+04 0.  0.
        1    1    3    3  502    0 -0.94225153531E+03  0.36761560962E+03 -0.80954157577E+03  0.12955063702E+04  0.50400001928E-02 0. -1.
       -1    1    3    3    0  502  0.94225153531E+03 -0.36761560962E+03  0.96524380841E+03  0.13980968500E+04  0.50400001928E-02 0.  1.
</event>
<event>
 5   0  0.1036691E-05  0.2674312E+04  0.7818609E-02  0.8343388E-01
       -1   -1    0    0    0  501  0.00000000000E+00  0.00000000000E+00  0.75985601034E+03  0.75985601035E+03  0.50400001928E-02 0.  1.
        1   -1    0    0  501    0  0.00000000000E+00  0.00000000000E+00 -0.23530599054E+04  0.23530599054E+04  0.50400001928E-02 0. -1.
    10030    2    1    2    0    0  0.00000000000E+00  0.00000000000E+00 -0.15932038951E+04  0.31129159158E+04  0.26743124065E+04 0.  0.
        4    1    3    3  502    0 -0.13412894824E+03 -0.90127210611E+01 -0.23451733920E+04  0.23490235536E+04  0.12699999809E+01 0. -1.
       -4    1    3    3    0  502  0.13412894824E+03  0.90127210611E+01  0.75196949689E+03  0.76389236221E+03  0.12699999809E+01 0.  1.
</event>
<event>
 5   0  0.1005265E-05  0.2643449E+04  0.7818609E-02  0.8353591E-01
        1   -1    0    0  501    0  0.00000000000E+00  0.00000000000E+00  0.22791546320E+04  0.22791546320E+04  0.50400001928E-02 0. -1.
       -1   -1    0    0    0  501  0.00000000000E+00  0.00000000000E+00 -0.76649283834E+03  0.76649283836E+03  0.50400001928E-02 0.  1.
    10030    2    1    2    0    0  0.00000000000E+00  0.00000000000E+00  0.15126617937E+04  0.30456474704E+04  0.26434490371E+04 0.  0.
        3    1    3    3  502    0 -0.12213975443E+04  0.62360030743E+02  0.13338495436E+04  0.18096561413E+04  0.10100000352E+00 0. -1.
       -3    1    3    3    0  502  0.12213975443E+04 -0.62360030743E+02  0.17881225012E+03  0.12359913291E+04  0.10100000352E+00 0.  1.
</event>
<event>
 5   0  0.1096672E-05  0.2770142E+04  0.7818609E-02  0.8312598E-01
        1   -1    0    0  501    0  0.00000000000E+00  0.00000000000E+00  0.18318305897E+04  0.18318305897E+04  0.50400001928E-02 0.  1.
       -1   -1    0    0    0  501  0.00000000000E+00  0.00000000000E+00 -0.10472703971E+04  0.10472703972E+04  0.50400001928E-02 0. -1.
    10030    2    1    2    0    0  0.00000000000E+00  0.00000000000E+00  0.78456019257E+03  0.28791009869E+04  0.27701421979E+04 0.  0.
        1    1    3    3  502    0 -0.32202051844E+03  0.44481058712E+03  0.17138561335E+04  0.17996823384E+04  0.50400001928E-02 0.  1.
       -1    1    3    3    0  502  0.32202051844E+03 -0.44481058712E+03 -0.92929594097E+03  0.10794186485E+04  0.50400001928E-02 0. -1.
</event>
<event>
 5   0  0.1041909E-05  0.1940429E+04  0.7818609E-02  0.8634990E-01
        1   -1    0    0  501    0  0.00000000000E+00  0.00000000000E+00  0.28536882149E+04  0.28536882149E+04  0.50400001928E-02 0. -1.
       -1   -1    0    0    0  501  0.00000000000E+00  0.00000000000E+00 -0.32985959129E+03  0.32985959133E+03  0.50400001928E-02 0.  1.
    10030    2    1    2    0    0  0.00000000000E+00  0.00000000000E+00  0.25238286236E+04  0.31835478062E+04  0.19404292600E+04 0.  0.
        5    1    3    3  502    0  0.68029244366E+03 -0.22467087470E+03  0.23352741781E+04  0.24427039092E+04  0.46999998093E+01 0. -1.
       -5    1    3    3    0  502 -0.68029244366E+03  0.22467087470E+03  0.18855444542E+03  0.74084389700E+03  0.46999998093E+01 0.  1.
</event>
<event>
 5   0  0.1005265E-05  0.2158657E+04  0.7818609E-02  0.8535836E-01
        1   -1    0    0  501    0  0.00000000000E+00  0.00000000000E+00  0.73090080345E+03  0.73090080347E+03  0.50400001928E-02 0. -1.
       -1   -1    0    0    0  501  0.00000000000E+00  0.00000000000E+00 -0.15938547272E+04  0.15938547272E+04  0.50400001928E-02 0.  1.
    10030    2    1    2    0    0  0.00000000000E+00  0.00000000000E+00 -0.86295392372E+03  0.23247555306E+04  0.21586567126E+04 0.  0.
        3    1    3    3  502    0  0.89657834017E+03 -0.13852999346E+03 -0.10611967333E+04  0.13961310097E+04  0.10100000352E+00 0.  1.
       -3    1    3    3    0  502 -0.89657834017E+03  0.13852999346E+03  0.19824280962E+03  0.92862452096E+03  0.10100000352E+00 0. -1.
</event>
<event>
 5   0  0.2516518E-05  0.2661954E+04  0.7818609E-02  0.8347456E-01
       -2   -1    0    0    0  501  0.00000000000E+00  0.00000000000E+00  0.10284801455E+04  0.10284801455E+04  0.25500000920E-02 0.  1.
        2   -1    0    0  501    0  0.00000000000E+00  0.00000000000E+00 -0.17224441491E+04  0.17224441491E+04  0.25500000920E-02 0. -1.
    10030    2    1    2    0    0  0.00000000000E+00  0.00000000000E+00 -0.69396400359E+03  0.27509242947E+04  0.26619538758E+04 0.  0.
        4    1    3    3  502    0  0.12004993537E+04 -0.21855680621E+03  0.20232116662E+03  0.12368917669E+04  0.12699999809E+01 0.  1.
       -4    1    3    3    0  502 -0.12004993537E+04  0.21855680621E+03 -0.89628517021E+03  0.15140325277E+04  0.12699999809E+01 0. -1.
</event>
<event>
 5   0  0.2540232E-05  0.2686677E+04  0.7818609E-02  0.8339341E-01
       -2   -1    0    0    0  501  0.00000000000E+00  0.00000000000E+00  0.11447612924E+04  0.11447612924E+04  0.25500000920E-02 0. -1.
        2   -1    0    0  501    0  0.00000000000E+00  0.00000000000E+00 -0.15763624449E+04  0.15763624449E+04  0.25500000920E-02 0.  1.
    10030    2    1    2    0    0  0.00000000000E+00  0.00000000000E+00 -0.43160115250E+03  0.27211237373E+04  0.26866772860E+04 0.  0.
        1    1    3    3  502    0  0.25684266723E+02  0.13351678054E+04 -0.68241321435E+02  0.13371572937E+04  0.50400001928E-02 0.  1.
       -1    1    3    3    0  502 -0.25684266723E+02 -0.13351678054E+04 -0.36335983106E+03  0.13839664436E+04  0.50400001928E-02 0. -1.
</event>
<event>
 5   0  0.1036691E-05  0.2724972E+04  0.7818609E-02  0.8326948E-01
       -1   -1    0    0    0  501  0.00000000000E+00  0.00000000000E+00  0.12365509093E+04  0.12365509093E+04  0.50400001928E-02 0.  1.
        1   -1    0    0  501    0  0.00000000000E+00  0.00000000000E+00 -0.15012468604E+04  0.15012468604E+04  0.50400001928E-02 0. -1.
    10030    2    1    2    0    0  0.00000000000E+00  0.00000000000E+00 -0.26469595106E+03  0.27377977697E+04  0.27249720514E+04 0.  0.
        4    1    3    3  502    0 -0.49954175322E+03  0.10812515711E+04 -0.79706580339E+03  0.14331651793E+04  0.12699999809E+01 0. -1.
       -4    1    3    3    0  502  0.49954175322E+03 -0.10812515711E+04  0.53236985233E+03  0.13046325904E+04  0.12699999809E+01 0.  1.
</event>
<event>
 5   0  0.2641216E-05  0.2683279E+04  0.7818609E-02  0.8340451E-01
        2   -1    0    0  501    0  0.00000000000E+00  0.00000000000E+00  0.17803619461E+04  0.17803619461E+04  0.25500000920E-02 0. -1.
       -2   -1    0    0    0  501  0.00000000000E+00  0.00000000000E+00 -0.10110281087E+04  0.10110281087E+04  0.25500000920E-02 0.  1.
    10030    2    1    2    0    0  0.00000000000E+00  0.00000000000E+00  0.76933383740E+03  0.27913900548E+04  0.26832785701E+04 0.  0.
        5    1    3    3  502    0 -0.59274863138E+03  0.36945353153E+03  0.15763004234E+04  0.17241206358E+04  0.46999998093E+01 0. -1.
       -5    1    3    3    0  502  0.59274863138E+03 -0.36945353153E+03 -0.80696658598E+03  0.10672694191E+04  0.46999998093E+01 0.  1.
</event>
<event>
 5   0  0.1036691E-05  0.2161964E+04  0.7818609E-02  0.8534429E-01
       -1   -1    0    0    0  501  0.00000000000E+00  0.00000000000E+00  0.61171127761E+03  0.61171127763E+03  0.50400001928E-02 0.  1.
        1   -1    0    0  501    0  0.00000000000E+00  0.00000000000E+00 -0.19102502587E+04  0.19102502587E+04  0.50400001928E-02 0. -1.
    10030    2    1    2    0    0  0.00000000000E+00  0.00000000000E+00 -0.12985389811E+04  0.25219615363E+04  0.21619635763E+04 0.  0.
        4    1    3    3  502    0  0.90724404353E+03  0.57980193538E+03 -0.76150959934E+03  0.13187723540E+04  0.12699999809E+01 0. -1.
       -4    1    3    3    0  502 -0.90724404353E+03 -0.57980193538E+03 -0.53702938174E+03  0.12031891824E+04  0.12699999809E+01 0.  1.
</event>
<event>
 5   0  0.1096672E-05  0.2720495E+04  0.7818609E-02  0.8328385E-01
       -1   -1    0    0    0  501  0.00000000000E+00  0.00000000000E+00  0.16610988392E+04  0.16610988393E+04  0.50400001928E-02 0. -1.
        1   -1    0    0  501    0  0.00000000000E+00  0.00000000000E+00 -0.11138855077E+04  0.11138855077E+04  0.50400001928E-02 0.  1.
    10030    2    1    2    0    0  0.00000000000E+00  0.00000000000E+00  0.54721333156E+03  0.27749843470E+04  0.27204954872E+04 0.  0.
        1    1    3    3  502    0 -0.61961443558E+03  0.11841729198E+04  0.53182993085E+03  0.14384125375E+04  0.50400001928E-02 0.  1.
       -1    1    3    3    0  502  0.61961443558E+03 -0.11841729198E+04  0.15383400712E+02  0.13365718094E+04  0.50400001928E-02 0. -1.
</event>
<event>
 5   0  0.1096672E-05  0.2706496E+04  0.7818609E-02  0.8332900E-01
       -1   -1    0    0    0  501  0.00000000000E+00  0.00000000000E+00  0.74229894431E+03  0.74229894433E+03  0.50400001928E-02 0.  1.
        1   -1    0    0  501    0  0.00000000000E+00  0.00000000000E+00 -0.24670387845E+04  0.24670387846E+04  0.50400001928E-02 0. -1.
    10030    2    1    2    0    0  0.00000000000E+00  0.00000000000E+00 -0.17247398402E+04  0.32093377289E+04  0.27064961004E+04 0.  0.
        1    1    3    3  502    0 -0.41334240945E+03 -0.12427768298E+04 -0.45861893643E+03  0.13876878341E+04  0.50400001928E-02 0.  1.
       -1    1    3    3    0  502  0.41334240945E+03  0.12427768298E+04 -0.12661209038E+04  0.18216498948E+04  0.50400001928E-02 0. -1.
</event>
<event>
 5   0  0.1005265E-05  0.2683155E+04  0.7818609E-02  0.8340491E-01
        1   -1    0    0  501    0  0.00000000000E+00  0.00000000000E+00  0.17848149743E+04  0.17848149743E+04  0.50400001928E-02 0.  1.
       -1   -1    0    0    0  501  0.00000000000E+00  0.00000000000E+00 -0.10084130003E+04  0.10084130003E+04  0.50400001928E-02 0. -1.
    10030    2    1    2    0    0  0.00000000000E+00  0.00000000000E+00  0.77640197402E+03  0.27932279746E+04  0.26831553240E+04 0.  0.
        3    1    3    3  502    0  0.12837015501E+03  0.58772280361E+03 -0.86013068168E+03  0.10496293586E+04  0.10100000352E+00 0. -1.
       -3    1    3    3    0  502 -0.12837015501E+03 -0.58772280361E+03  0.16365326557E+04  0.17435986161E+04  0.10100000352E+00 0.  1.
</event>
<event>
 5   0  0.2641216E-05  0.2685667E+04  0.7818609E-02  0.8339671E-01
        2   -1    0    0  501    0  0.00000000000E+00  0.00000000000E+00  0.14645767896E+04  0.14645767896E+04  0.25500000920E-02 0. -1.
       -2   -1    0    0    0  501  0.00000000000E+00  0.00000000000E+00 -0.12312101896E+04  0.12312101896E+04  0.25500000920E-02 0.  1.
    10030    2    1    2    0    0  0.00000000000E+00  0.00000000000E+00  0.23336659994E+03  0.26957869792E+04  0.26856670432E+04 0.  0.
        5    1    3    3  502    0  0.85123122289E+03  0.42375329449E+03 -0.83505527957E+03  0.12655041918E+04  0.46999998093E+01 0.  1.
       -5    1    3    3    0  502 -0.85123122289E+03 -0.42375329449E+03  0.10684218795E+04  0.14302827874E+04  0.46999998093E+01 0. -1.
</event>
<event>
 5   0  0.2540232E-05  0.2261856E+04  0.7818609E-02  0.8493114E-01
       -2   -1    0    0    0  501  0.00000000000E+00  0.00000000000E+00  0.10549915144E+04  0.10549915144E+04  0.25500000920E-02 0. -1.
        2   -1    0    0  501    0  0.00000000000E+00  0.00000000000E+00 -0.12123300968E+04  0.12123300968E+04  0.25500000920E-02 0.  1.
    10030    2    1    2    0    0  0.00000000000E+00  0.00000000000E+00 -0.15733858241E+03  0.22673216112E+04  0.22618558440E+04 0.  0.
        1    1    3    3  502    0  0.49376413094E+03 -0.64518992066E+03  0.70994962072E+03  0.10789353617E+04  0.50400001928E-02 0. -1.
       -1    1    3    3    0  502 -0.49376413094E+03  0.64518992066E+03 -0.86728820313E+03  0.11883862495E+04  0.50400001928E-02 0.  1.
</event>
<event>
 5   0  0.1036691E-05  0.2684944E+04  0.7818609E-02  0.8339907E-01
       -1   -1    0    0    0  501  0.00000000000E+00  0.00000000000E+00  0.14346403503E+04  0.14346403503E+04  0.50400001928E-02 0. -1.
        1   -1    0    0  501    0  0.00000000000E+00  0.00000000000E+00 -0.12562252156E+04  0.12562252156E+04  0.50400001928E-02 0.  1.
    10030    2    1    2    0    0  0.00000000000E+00  0.00000000000E+00  0.17841513467E+03  0.26908655659E+04  0.26849442328E+04 0.  0.
        4    1    3    3  502    0 -0.54932177625E+03 -0.12001230166E+04 -0.15664977890E+03  0.13291314589E+04  0.12699999809E+01 0.  1.
       -4    1    3    3    0  502  0.54932177625E+03  0.12001230166E+04  0.33506491356E+03  0.13617341070E+04  0.12699999809E+01 0. -1.
</event>
<event>
 5   0  0.1005265E-05  0.2541020E+04  0.7818609E-02  0.8388516E-01
       -1   -1    0    0    0  501  0.00000000000E+00  0.00000000000E+00  0.94079837396E+03  0.94079837397E+03  0.50400001928E-02 0.  1.
        1   -1    0    0  501    0  0.00000000000E+00  0.00000000000E+00 -0.17157717989E+04  0.17157717989E+04  0.50400001928E-02 0. -1.
    10030    2    1    2    0    0  0.00000000000E+00  0.00000000000E+00 -0.77497342496E+03  0.26565701729E+04  0.25410197312E+04 0.  0.
        3    1    3    3  502    0  0.25561369478E+03 -0.54332543870E+03 -0.15580696030E+04  0.16697669871E+04  0.10100000352E+00 0. -1.
       -3    1    3    3    0  502 -0.25561369478E+03  0.54332543870E+03  0.78309617801E+03  0.98680318580E+03  0.10100000352E+00 0.  1.
</event>
<event>
 5   0  0.2641216E-05  0.2734179E+04  0.7818609E-02  0.8324000E-01
       -2   -1    0    0    0  501  0.00000000000E+00  0.00000000000E+00  0.23788321983E+04  0.23788321983E+04  0.25500000920E-02 0. -1.
        2   -1    0    0  501    0  0.00000000000E+00  0.00000000000E+00 -0.78565159258E+03  0.78565159258E+03  0.25500000920E-02 0.  1.
    10030    2    1    2    0    0  0.00000000000E+00  0.00000000000E+00  0.15931806058E+04  0.31644837909E+04  0.27341787104E+04 0.  0.
        5    1    3    3  502    0 -0.37819449913E+03 -0.47577814147E+03  0.22138564975E+04  0.22957740744E+04  0.46999998093E+01 0. -1.
       -5    1    3    3    0  502  0.37819449913E+03  0.47577814147E+03 -0.62067589173E+03  0.86870971656E+03  0.46999998093E+01 0.  1.
</event>
<event>
 5   0  0.1005265E-05  0.2692154E+04  0.7818609E-02  0.8337555E-01
        1   -1    0    0  501    0  0.00000000000E+00  0.00000000000E+00  0.97574220977E+03  0.97574220979E+03  0.50400001928E-02 0. -1.
       -1   -1    0    0    0  501  0.00000000000E+00  0.00000000000E+00 -0.18569693766E+04  0.18569693766E+04  0.50400001928E-02 0.  1.
    10030    2    1    2    0    0  0.00000000000E+00  0.00000000000E+00 -0.88122716682E+03  0.28327115864E+04  0.26921540840E+04 0.  0.
        3    1    3    3  502    0 -0.43364737698E+03  0.81601007706E+03  0.58926352373E+03  0.10959717168E+04  0.10100000352E+00 0. -1.
       -3    1    3    3    0  502  0.43364737698E+03 -0.81601007706E+03 -0.14704906905E+04  0.17367398696E+04  0.10100000352E+00 0.  1.
</event>
<event>
 5   0  0.1005265E-05  0.2664695E+04  0.7818609E-02  0.8346552E-01
        1   -1    0    0  501    0  0.00000000000E+00  0.00000000000E+00  0.17324167573E+04  0.17324167573E+04  0.50400001928E-02 0.  1.
       -1   -1    0    0    0  501  0.00000000000E+00  0.00000000000E+00 -0.10246664623E+04  0.10246664624E+04  0.50400001928E-02 0. -1.
    10030    2    1    2    0    0  0.00000000000E+00  0.00000000000E+00  0.70775029494E+03  0.27570832196E+04  0.26646946167E+04 0.  0.
        3    1    3    3  502    0  0.13069317188E+04 -0.25043516819E+03  0.28554727440E+03  0.13610016705E+04  0.10100000352E+00 0. -1.
       -3    1    3    3    0  502 -0.13069317188E+04  0.25043516819E+03  0.42220302053E+03  0.13960815491E+04  0.10100000352E+00 0.  1.
</event>
<event>
 5   0  0.2516518E-05  0.3003006E+04  0.7818609E-02  0.8242873E-01
       -2   -1    0    0    0  501  0.00000000000E+00  0.00000000000E+00  0.13390052553E+04  0.13390052553E+04  0.25500000920E-02 0. -1.
        2   -1    0    0  501    0  0.00000000000E+00  0.00000000000E+00 -0.16837210858E+04  0.16837210858E+04  0.25500000920E-02 0.  1.
    10030    2    1    2    0    0  0.00000000000E+00  0.00000000000E+00 -0.34471583048E+03  0.30227263411E+04  0.30030060822E+04 0.  0.
        4    1    3    3  502    0  0.12054803094E+04 -0.33168192036E+03 -0.10092709371E+04  0.16068058719E+04  0.12699999809E+01 0.  1.
       -4    1    3    3    0  502 -0.12054803094E+04  0.33168192036E+03  0.66455510662E+03  0.14159204692E+04  0.12699999809E+01 0. -1.
</event>
<event>
 5   0  0.2540684E-05  0.1725897E+04  0.7818609E-02  0.8746730E-01
        2   -1    0    0  501    0  0.00000000000E+00  0.00000000000E+00  0.93563178841E+03  0.93563178841E+03  0.25500000920E-02 0.  1.
       -2   -1    0    0    0  501  0.00000000000E+00  0.00000000000E+00 -0.79591190903E+03  0.79591190904E+03  0.25500000920E-02 0. -1.
    10030    2    1    2    0    0  0.00000000000E+00  0.00000000000E+00  0.13971987937E+03  0.17315436974E+04  0.17258974279E+04 0.  0.
        2    1    3    3  502    0  0.81483849303E+02  0.41305845076E+03  0.82559951411E+03  0.92675318135E+03  0.25500000920E-02 0.  1.
       -2    1    3    3    0  502 -0.81483849303E+02 -0.41305845076E+03 -0.68587963474E+03  0.80479051610E+03  0.25500000920E-02 0. -1.
</event>
<event>
 5   0  0.9971923E-06  0.2686962E+04  0.7818609E-02  0.8339248E-01
       -1   -1    0    0    0  501  0.00000000000E+00  0.00000000000E+00  0.11066045655E+04  0.11066045655E+04  0.50400001928E-02 0. -1.
        1   -1    0    0  501    0  0.00000000000E+00  0.00000000000E+00 -0.16310623480E+04  0.16310623480E+04  0.50400001928E-02 0.  1.
    10030    2    1    2    0    0  0.00000000000E+00  0.00000000000E+00 -0.52445778254E+03  0.27376669135E+04  0.26869618835E+04 0.  0.
        2    1    3    3  502    0 -0.64842236810E+03 -0.44017280753E+03  0.84957219481E+03  0.11558445320E+04  0.25500000920E-02 0. -1.
       -2    1    3    3    0  502  0.64842236810E+03  0.44017280753E+03 -0.13740299774E+04  0.15818223815E+04  0.25500000920E-02 0.  1.
</event>
<event>
 5   0  0.2540684E-05  0.2614892E+04  0.7818609E-02  0.8363160E-01
       -2   -1    0    0    0  501  0.00000000000E+00  0.00000000000E+00  0.63125401324E+03  0.63125401325E+03  0.25500000920E-02 0. -1.
        2   -1    0    0  501    0  0.00000000000E+00  0.00000000000E+00 -0.27079664425E+04  0.27079664425E+04  0.25500000920E-02 0.  1.
    10030    2    1    2    0    0  0.00000000000E+00  0.00000000000E+00 -0.20767124293E+04  0.33392204558E+04  0.26148917259E+04 0.  0.
        2    1    3    3  502    0 -0.74354166419E+03 -0.80810736806E+03 -0.13220428301E+03  0.11060604401E+04  0.25500000920E-02 0. -1.
       -2    1    3    3    0  502  0.74354166419E+03  0.80810736806E+03 -0.19445081463E+04  0.22331600157E+04  0.25500000920E-02 0.  1.
</event>
<event>
 5   0  0.9971923E-06  0.2294428E+04  0.7818609E-02  0.8480121E-01
        1   -1    0    0  501    0  0.00000000000E+00  0.00000000000E+00  0.11830247364E+04  0.11830247364E+04  0.50400001928E-02 0.  1.
       -1   -1    0    0    0  501  0.00000000000E+00  0.00000000000E+00 -0.11124876435E+04  0.11124876435E+04  0.50400001928E-02 0. -1.
    10030    2    1    2    0    0  0.00000000000E+00  0.00000000000E+00  0.70537092887E+02  0.22955123799E+04  0.22944283830E+04 0.  0.
        2    1    3    3  502    0 -0.81559578649E+03  0.63712146562E+02 -0.76937797301E+03  0.11230308054E+04  0.25500000920E-02 0. -1.
       -2    1    3    3    0  502  0.81559578649E+03 -0.63712146562E+02  0.83991506589E+03  0.11724815745E+04  0.25500000920E-02 0.  1.
</event>
<event>
 5   0  0.8740500E-06  0.2740642E+04  0.7818609E-02  0.8321937E-01
       -3   -1    0    0    0  501  0.00000000000E+00  0.00000000000E+00  0.11415039461E+04  0.11415039506E+04  0.10100000352E+00 0. -1.
        3   -1    0    0  501    0  0.00000000000E+00  0.00000000000E+00 -0.16450052514E+04  0.16450052545E+04  0.10100000352E+00 0.  1.
    10030    2    1    2    0    0  0.00000000000E+00  0.00000000000E+00 -0.50350130526E+03  0.27865092050E+04  0.27406422578E+04 0.  0.
        3    1    3    3  502    0 -0.12520380577E+04 -0.15798399868E+03  0.29124887038E+03  0.12951386630E+04  0.10100000352E+00 0. -1.
       -3    1    3    3    0  502  0.12520380577E+04  0.15798399868E+03 -0.79475017564E+03  0.14913705420E+04  0.10100000352E+00 0.  1.
</event>
<event>
 5   0  0.1096672E-05  0.2686378E+04  0.7818609E-02  0.8339438E-01
        1   -1    0    0  501    0  0.00000000000E+00  0.00000000000E+00  0.14420231675E+04  0.14420231675E+04  0.50400001928E-02 0.  1.
       -1   -1    0    0    0  501  0.00000000000E+00  0.00000000000E+00 -0.12511290059E+04  0.12511290059E+04  0.50400001928E-02 0. -1.
    10030    2    1    2    0    0  0.00000000000E+00  0.00000000000E+00  0.19089416166E+03  0.26931521734E+04  0.26863782400E+04 0.  0.
        1    1    3    3  502    0  0.70666506083E+03 -0.91330905589E+03 -0.59232077529E+03  0.12978261982E+04  0.50400001928E-02 0. -1.
       -1    1    3    3    0  502 -0.70666506083E+03  0.91330905589E+03  0.78321493695E+03  0.13953259753E+04  0.50400001928E-02 0.  1.
</event>
<event>
 5   0  0.2540684E-05  0.2711818E+04  0.7818609E-02  0.8331181E-01
        2   -1    0    0  501    0  0.00000000000E+00  0.00000000000E+00  0.22009480921E+04  0.22009480921E+04  0.25500000920E-02 0.  1.
       -2   -1    0    0    0  501  0.00000000000E+00  0.00000000000E+00 -0.83531689470E+03  0.83531689470E+03  0.25500000920E-02 0. -1.
    10030    2    1    2    0    0  0.00000000000E+00  0.00000000000E+00  0.13656311974E+04  0.30362649868E+04  0.27118179332E+04 0.  0.
        2    1    3    3  502    0 -0.23447250430E+03 -0.13341731088E+04  0.61663456797E+03  0.14883660268E+04  0.25500000920E-02 0. -1.
       -2    1    3    3    0  502  0.23447250430E+03  0.13341731088E+04  0.74899662943E+03  0.15478989600E+04  0.25500000920E-02 0.  1.
</event>
<event>
 5   0  0.2516518E-05  0.2713501E+04  0.7818609E-02  0.8330637E-01
        2   -1    0    0  501    0  0.00000000000E+00  0.00000000000E+00  0.14757835457E+04  0.14757835457E+04  0.25500000920E-02 0.  1.
       -2   -1    0    0    0  501  0.00000000000E+00  0.00000000000E+00 -0.12473187986E+04  0.12473187986E+04  0.25500000920E-02 0. -1.
    10030    2    1    2    0    0  0.00000000000E+00  0.00000000000E+00  0.22846474716E+03  0.27231023443E+04  0.27135014717E+04 0.  0.
        4    1    3    3  502    0 -0.23315782133E+03  0.63492118476E+03  0.12945244607E+04  0.14605761441E+04  0.12699999809E+01 0.  1.
       -4    1    3    3    0  502  0.23315782133E+03 -0.63492118476E+03 -0.10660597135E+04  0.12625262002E+04  0.12699999809E+01 0. -1.
</event>
<event>
 5   0  0.2540232E-05  0.2638413E+04  0.7818609E-02  0.8355269E-01
        2   -1    0    0  501    0  0.00000000000E+00  0.00000000000E+00  0.16064562147E+04  0.16064562147E+04  0.25500000920E-02 0. -1.
       -2   -1    0    0    0  501  0.00000000000E+00  0.00000000000E+00 -0.10833201545E+04  0.10833201545E+04  0.25500000920E-02 0.  1.
    10030    2    1    2    0    0  0.00000000000E+00  0.00000000000E+00  0.52313606013E+03  0.26897763692E+04  0.26384134587E+04 0.  0.
        1    1    3    3  502    0 -0.42348759609E+03 -0.31953997586E+03 -0.96977755614E+03  0.11054031159E+04  0.50400001928E-02 0.  1.
       -1    1    3    3    0  502  0.42348759609E+03  0.31953997586E+03  0.14929136163E+04  0.15843732533E+04  0.50400001928E-02 0. -1.
</event>
<event>
 5   0  0.2540232E-05  0.2689483E+04  0.7818609E-02  0.8338426E-01
       -2   -1    0    0    0  501  0.00000000000E+00  0.00000000000E+00  0.11333402434E+04  0.11333402434E+04  0.25500000920E-02 0.  1.
        2   -1    0    0  501    0  0.00000000000E+00  0.00000000000E+00 -0.15955747378E+04  0.15955747378E+04  0.25500000920E-02 0. -1.
    10030    2    1    2    0    0  0.00000000000E+00  0.00000000000E+00 -0.46223449440E+03  0.27289149812E+04  0.26894825239E+04 0.  0.
        1    1    3    3  502    0  0.51052023488E+03  0.64988314114E+03 -0.13074959519E+04  0.15467788050E+04  0.50400001928E-02 0. -1.
       -1    1    3    3    0  502 -0.51052023488E+03 -0.64988314114E+03  0.84526145751E+03  0.11821361761E+04  0.50400001928E-02 0.  1.
</event>
<event>
 5   0  0.9971923E-06  0.2546522E+04  0.7818609E-02  0.8386597E-01
       -1   -1    0    0    0  501  0.00000000000E+00  0.00000000000E+00  0.13416898842E+04  0.13416898842E+04  0.50400001928E-02 0.  1.
        1   -1    0    0  501    0  0.00000000000E+00  0.00000000000E+00 -0.12083218700E+04  0.12083218700E+04  0.50400001928E-02 0. -1.
    10030    2    1    2    0    0  0.00000000000E+00  0.00000000000E+00  0.13336801418E+03  0.25500117542E+04  0.25465217296E+04 0.  0.
        2    1    3    3  502    0 -0.91132184162E+03  0.11510193348E+03  0.94961645166E+03  0.13211840748E+04  0.25500000920E-02 0.  1.
       -2    1    3    3    0  502  0.91132184162E+03 -0.11510193348E+03 -0.81624843749E+03  0.12288276795E+04  0.25500000920E-02 0. -1.
</event>
<event>
 5   0  0.8740500E-06  0.2711099E+04  0.7818609E-02  0.8331413E-01
        4   -1    0    0  501    0  0.00000000000E+00  0.00000000000E+00  0.19327506707E+04  0.19327510880E+04  0.12699999809E+01 0. -1.
       -4   -1    0    0    0  501  0.00000000000E+00  0.00000000000E+00 -0.95072433643E+03  0.95072518468E+03  0.12699999809E+01 0.  1.
    10030    2    1    2    0    0  0.00000000000E+00  0.00000000000E+00  0.98202633427E+03  0.28834762726E+04  0.27110993515E+04 0.  0.
        3    1    3    3  502    0 -0.92737002875E+03  0.42740719454E+03 -0.45720029376E+03  0.11188048083E+04  0.10100000352E+00 0.  1.
       -3    1    3    3    0  502  0.92737002875E+03 -0.42740719454E+03  0.14392266280E+04  0.17646714644E+04  0.10100000352E+00 0. -1.
</event>
<event>
 5   0  0.2540232E-05  0.2859967E+04  0.7818609E-02  0.8284889E-01
        2   -1    0    0  501    0  0.00000000000E+00  0.00000000000E+00  0.19224929410E+04  0.19224929410E+04  0.25500000920E-02 0.  1.
       -2   -1    0    0    0  501  0.00000000000E+00  0.00000000000E+00 -0.10636461995E+04  0.10636461995E+04  0.25500000920E-02 0. -1.
    10030    2    1    2    0    0  0.00000000000E+00  0.00000000000E+00  0.85884674156E+03  0.29861391405E+04  0.28599666503E+04 0.  0.
        1    1    3    3  502    0 -0.58173378745E+03  0.15740867307E+03  0.17834220736E+04  0.18824946169E+04  0.50400001928E-02 0.  1.
       -1    1    3    3    0  502  0.58173378745E+03 -0.15740867307E+03 -0.92457533206E+03  0.11036445236E+04  0.50400001928E-02 0. -1.
</event>
<event>
 5   0  0.2641216E-05  0.2688117E+04  0.7818609E-02  0.8338871E-01
       -2   -1    0    0    0  501  0.00000000000E+00  0.00000000000E+00  0.99253797287E+03  0.99253797288E+03  0.25500000920E-02 0.  1.
        2   -1    0    0  501    0  0.00000000000E+00  0.00000000000E+00 -0.18200742759E+04  0.18200742759E+04  0.25500000920E-02 0. -1.
    10030    2    1    2    0    0  0.00000000000E+00  0.00000000000E+00 -0.82753630305E+03  0.28126122488E+04  0.26881166882E+04 0.  0.
        5    1    3    3  502    0 -0.47717824543E+03  0.71759795641E+03  0.66541910797E+03  0.10887839934E+04  0.46999998093E+01 0.  1.
       -5    1    3    3    0  502  0.47717824543E+03 -0.71759795641E+03 -0.14929554110E+04  0.17238282554E+04  0.46999998093E+01 0. -1.
</event>
<event>
 5   0  0.2516518E-05  0.2578733E+04  0.7818609E-02  0.8375461E-01
        2   -1    0    0  501    0  0.00000000000E+00  0.00000000000E+00  0.18700447588E+04  0.18700447588E+04  0.25500000920E-02 0.  1.
       -2   -1    0    0    0  501  0.00000000000E+00  0.00000000000E+00 -0.88899814252E+03  0.88899814252E+03  0.25500000920E-02 0. -1.
    10030    2    1    2    0    0  0.00000000000E+00  0.00000000000E+00  0.98104661626E+03  0.27590429013E+04  0.25787332681E+04 0.  0.
        4    1    3    3  502    0 -0.19647351242E+03  0.78773950565E+03 -0.58117806054E+03  0.99845126110E+03  0.12699999809E+01 0. -1.
       -4    1    3    3    0  502  0.19647351242E+03 -0.78773950565E+03  0.15622246768E+04  0.17605916402E+04  0.12699999809E+01 0.  1.
</event>
<event>
 5   0  0.1096672E-05  0.2653811E+04  0.7818609E-02  0.8350149E-01
       -1   -1    0    0    0  501  0.00000000000E+00  0.00000000000E+00  0.10750943704E+04  0.10750943704E+04  0.50400001928E-02 0.  1.
        1   -1    0    0  501    0  0.00000000000E+00  0.00000000000E+00 -0.16376959214E+04  0.16376959214E+04  0.50400001928E-02 0. -1.
    10030    2    1    2    0    0  0.00000000000E+00  0.00000000000E+00 -0.56260155105E+03  0.27127902918E+04  0.26538105928E+04 0.  0.
        1    1    3    3  502    0  0.60099371632E+03 -0.11392538675E+04  0.44506484999E+02  0.12888264619E+04  0.50400001928E-02 0.  1.
       -1    1    3    3    0  502 -0.60099371632E+03  0.11392538675E+04 -0.60710803605E+03  0.14239638300E+04  0.50400001928E-02 0. -1.
</event>
<event>
 5   0  0.2615843E-05  0.2729899E+04  0.7818609E-02  0.8325369E-01
       -2   -1    0    0    0  501  0.00000000000E+00  0.00000000000E+00  0.12783725707E+04  0.12783725707E+04  0.25500000920E-02 0.  1.
        2   -1    0    0  501    0  0.00000000000E+00  0.00000000000E+00 -0.14573896137E+04  0.14573896137E+04  0.25500000920E-02 0. -1.
    10030    2    1    2    0    0  0.00000000000E+00  0.00000000000E+00 -0.17901704296E+03  0.27357621844E+04  0.27298988311E+04 0.  0.
        3    1    3    3  502    0  0.50933055663E+03 -0.27508433733E+02  0.11792725954E+04  0.12848572662E+04  0.10100000352E+00 0.  1.
       -3    1    3    3    0  502 -0.50933055663E+03  0.27508433733E+02 -0.13582896384E+04  0.14509049183E+04  0.10100000352E+00 0. -1.
</event>
<event>
 5   0  0.2540232E-05  0.2699598E+04  0.7818609E-02  0.8335135E-01
        2   -1    0    0  501    0  0.00000000000E+00  0.00000000000E+00  0.14318105392E+04  0.14318105392E+04  0.25500000920E-02 0. -1.
       -2   -1    0    0    0  501  0.00000000000E+00  0.00000000000E+00 -0.12724848190E+04  0.12724848190E+04  0.25500000920E-02 0.  1.
    10030    2    1    2    0    0  0.00000000000E+00  0.00000000000E+00  0.15932572017E+03  0.27042953581E+04  0.26995978773E+04 0.  0.
        1    1    3    3  502    0  0.34741601005E+03  0.95673665197E+03  0.96772352011E+03  0.14044684819E+04  0.50400001928E-02 0. -1.
       -1    1    3    3    0  502 -0.34741601005E+03 -0.95673665197E+03 -0.80839779993E+03  0.12998268762E+04  0.50400001928E-02 0.  1.
</event>
<event>
 5   0  0.1036691E-05  0.2699677E+04  0.7818609E-02  0.8335110E-01
       -1   -1    0    0    0  501  0.00000000000E+00  0.00000000000E+00  0.10417246755E+04  0.10417246756E+04  0.50400001928E-02 0. -1.
        1   -1    0    0  501    0  0.00000000000E+00  0.00000000000E+00 -0.17490833791E+04  0.17490833791E+04  0.50400001928E-02 0.  1.
    10030    2    1    2    0    0  0.00000000000E+00  0.00000000000E+00 -0.70735870353E+03  0.27908080546E+04  0.26996765107E+04 0.  0.
        4    1    3    3  502    0  0.14065782492E+03 -0.23497634553E+03  0.10127039543E+04  0.10490802727E+04  0.12699999809E+01 0. -1.
       -4    1    3    3    0  502 -0.14065782492E+03  0.23497634553E+03 -0.17200626578E+04  0.17417277819E+04  0.12699999809E+01 0.  1.
</event>
<event>
 5   0  0.2615843E-05  0.2738718E+04  0.7818609E-02  0.8322551E-01
        2   -1    0    0  501    0  0.00000000000E+00  0.00000000000E+00  0.13695061552E+04  0.13695061552E+04  0.25500000920E-02 0.  1.
       -2   -1    0    0    0  501  0.00000000000E+00  0.00000000000E+00 -0.13692117507E+04  0.13692117507E+04  0.25500000920E-02 0. -1.
    10030    2    1    2    0    0  0.00000000000E+00  0.00000000000E+00  0.29440453079E+00  0.27387179058E+04  0.27387178900E+04 0.  0.
        3    1    3    3  502    0  0.87439610089E+03  0.81716068528E+03 -0.66530286226E+03  0.13692874189E+04  0.10100000352E+00 0. -1.
       -3    1    3    3    0  502 -0.87439610089E+03 -0.81716068528E+03  0.66559726679E+03  0.13694304869E+04  0.10100000352E+00 0.  1.
</event>
<event>
 5   0  0.2540232E-05  0.2719706E+04  0.7818609E-02  0.8328639E-01
       -2   -1    0    0    0  501  0.00000000000E+00  0.00000000000E+00  0.25092048012E+04  0.25092048012E+04  0.25500000920E-02 0.  1.
        2   -1    0    0  501    0  0.00000000000E+00  0.00000000000E+00 -0.73696681452E+03  0.73696681452E+03  0.25500000920E-02 0. -1.
    10030    2    1    2    0    0  0.00000000000E+00  0.00000000000E+00  0.17722379867E+04  0.32461716157E+04  0.27197063587E+04 0.  0.
        1    1    3    3  502    0 -0.73006453198E+03 -0.81869317933E+03 -0.73167243611E+02  0.10993662667E+04  0.50400001928E-02 0. -1.
       -1    1    3    3    0  502  0.73006453198E+03  0.81869317933E+03  0.18454052303E+04  0.21468053491E+04  0.50400001928E-02 0.  1.
</event>
<event>
 5   0  0.9971923E-06  0.2742675E+04  0.7818609E-02  0.8321290E-01
        1   -1    0    0  501    0  0.00000000000E+00  0.00000000000E+00  0.18539694411E+04  0.18539694411E+04  0.50400001928E-02 0. -1.
       -1   -1    0    0    0  501  0.00000000000E+00  0.00000000000E+00 -0.10143460369E+04  0.10143460369E+04  0.50400001928E-02 0.  1.
    10030    2    1    2    0    0  0.00000000000E+00  0.00000000000E+00  0.83962340421E+03  0.28683154780E+04  0.27426750118E+04 0.  0.
        2    1    3    3  502    0 -0.75780433494E+03  0.15105918908E+03 -0.76499407902E+03  0.10873372198E+04  0.25500000920E-02 0.  1.
       -2    1    3    3    0  502  0.75780433494E+03 -0.15105918908E+03  0.16046174832E+04  0.17809782582E+04  0.25500000920E-02 0. -1.
</event>
<event>
 5   0  0.2641216E-05  0.2565228E+04  0.7818609E-02  0.8380109E-01
       -2   -1    0    0    0  501  0.00000000000E+00  0.00000000000E+00  0.10609001946E+04  0.10609001946E+04  0.25500000920E-02 0. -1.
        2   -1    0    0  501    0  0.00000000000E+00  0.00000000000E+00 -0.15506624700E+04  0.15506624700E+04  0.25500000920E-02 0.  1.
    10030    2    1    2    0    0  0.00000000000E+00  0.00000000000E+00 -0.48976227540E+03  0.26115626647E+04  0.25652275659E+04 0.  0.
        5    1    3    3  502    0  0.12701902463E+04  0.65432878353E+02 -0.41343526528E+03  0.13373913160E+04  0.46999998093E+01 0.  1.
       -5    1    3    3    0  502 -0.12701902463E+04 -0.65432878353E+02 -0.76327010123E+02  0.12741713487E+04  0.46999998093E+01 0. -1.
</event>
<event>
 5   0  0.1096672E-05  0.2605580E+04  0.7818609E-02  0.8366308E-01
       -1   -1    0    0    0  501  0.00000000000E+00  0.00000000000E+00  0.11088102275E+04  0.11088102275E+04  0.50400001928E-02 0.  1.
        1   -1    0    0  501    0  0.00000000000E+00  0.00000000000E+00 -0.15307053211E+04  0.15307053211E+04  0.50400001928E-02 0. -1.
    10030    2    1    2    0    0  0.00000000000E+00  0.00000000000E+00 -0.42189509357E+03  0.26395155486E+04  0.26055799472E+04 0.  0.
        1    1    3    3  502    0 -0.89127146006E+03  0.70931737145E+03 -0.85145269060E+03  0.14221348858E+04  0.50400001928E-02 0.  1.
       -1    1    3    3    0  502  0.89127146006E+03 -0.70931737145E+03  0.42955759703E+03  0.12173806628E+04  0.50400001928E-02 0. -1.
</event>
<event>
 5   0  0.2540232E-05  0.2889571E+04  0.7818609E-02  0.8275987E-01
        2   -1    0    0  501    0  0.00000000000E+00  0.00000000000E+00  0.17742658676E+04  0.17742658676E+04  0.25500000920E-02 0. -1.
       -2   -1    0    0    0  501  0.00000000000E+00  0.00000000000E+00 -0.11764898062E+04  0.11764898062E+04  0.25500000920E-02 0.  1.
    10030    2    1    2    0    0  0.00000000000E+00  0.00000000000E+00  0.59777606141E+03  0.29507556738E+04  0.28895713915E+04 0.  0.
        1    1    3    3  502    0 -0.14439557959E+04  0.47667363372E+02  0.31031371083E+03  0.14776924975E+04  0.50400001928E-02 0. -1.
       -1    1    3    3    0  502  0.14439557959E+04 -0.47667363372E+02  0.28746235058E+03  0.14730631762E+04  0.50400001928E-02 0.  1.
</event>
<event>
 5   0  0.2540684E-05  0.2673509E+04  0.7818609E-02  0.8343652E-01
        2   -1    0    0  501    0  0.00000000000E+00  0.00000000000E+00  0.14072264448E+04  0.14072264448E+04  0.25500000920E-02 0. -1.
       -2   -1    0    0    0  501  0.00000000000E+00  0.00000000000E+00 -0.12698115985E+04  0.12698115985E+04  0.25500000920E-02 0.  1.
    10030    2    1    2    0    0  0.00000000000E+00  0.00000000000E+00  0.13741484622E+03  0.26770380433E+04  0.26735089013E+04 0.  0.
        2    1    3    3  502    0  0.18399873175E+03 -0.63053905916E+03 -0.10970791599E+04  0.12786781149E+04  0.25500000920E-02 0.  1.
       -2    1    3    3    0  502 -0.18399873175E+03  0.63053905916E+03  0.12344940061E+04  0.13983599284E+04  0.25500000920E-02 0. -1.
</event>
<event>
 5   0  0.1041909E-05  0.2687256E+04  0.7818609E-02  0.8339152E-01
       -1   -1    0    0    0  501  0.00000000000E+00  0.00000000000E+00  0.90281976275E+03  0.90281976276E+03  0.50400001928E-02 0. -1.
        1   -1    0    0  501    0  0.00000000000E+00  0.00000000000E+00 -0.19996644377E+04  0.19996644377E+04  0.50400001928E-02 0.  1.
    10030    2    1    2    0    0  0.00000000000E+00  0.00000000000E+00 -0.10968446749E+04  0.29024842005E+04  0.26872562760E+04 0.  0.
        5    1    3    3  502    0 -0.39274409264E+02 -0.10545523375E+04 -0.14467131493E+04  0.17907049278E+04  0.46999998093E+01 0.  1.
       -5    1    3    3    0  502  0.39274409264E+02  0.10545523375E+04  0.34986847439E+03  0.11117792727E+04  0.46999998093E+01 0. -1.
</event>
<event>
 5   0  0.1005265E-05  0.2795442E+04  0.7818609E-02  0.8304685E-01
       -1   -1    0    0    0  501  0.00000000000E+00  0.00000000000E+00  0.25189666156E+04  0.25189666156E+04  0.50400001928E-02 0. -1.
        1   -1    0    0  501    0  0.00000000000E+00  0.00000000000E+00 -0.77556540830E+03  0.77556540832E+03  0.50400001928E-02 0.  1.
    10030    2    1    2    0    0  0.00000000000E+00  0.00000000000E+00  0.17434012073E+04  0.32945320239E+04  0.27954415549E+04 0.  0.
        3    1    3    3  502    0  0.16081677690E+03 -0.11273778474E+04 -0.83409515995E+02  0.11418406212E+04  0.10100000352E+00 0.  1.
       -3    1    3    3    0  502 -0.16081677690E+03  0.11273778474E+04  0.18268107233E+04  0.21526914027E+04  0.10100000352E+00 0. -1.
</event>
<event>
 5   0  0.2540232E-05  0.2678498E+04  0.7818609E-02  0.8342015E-01
        2   -1    0    0  501    0  0.00000000000E+00  0.00000000000E+00  0.11021701426E+04  0.11021701426E+04  0.25500000920E-02 0.  1.
       -2   -1    0    0    0  501  0.00000000000E+00  0.00000000000E+00 -0.16273239595E+04  0.16273239595E+04  0.25500000920E-02 0. -1.
    10030    2    1    2    0    0  0.00000000000E+00  0.00000000000E+00 -0.52515381687E+03  0.27294941021E+04  0.26784979974E+04 0.  0.
        1    1    3    3  502    0  0.92417034339E+03  0.65450324285E+03  0.46596302250E+03  0.12245761948E+04  0.50400001928E-02 0.  1.
       -1    1    3    3    0  502 -0.92417034339E+03 -0.65450324285E+03 -0.99111683937E+03  0.15049179073E+04  0.50400001928E-02 0. -1.
</event>
<event>
 5   0  0.2641216E-05  0.2748931E+04  0.7818609E-02  0.8319301E-01
       -2   -1    0    0    0  501  0.00000000000E+00  0.00000000000E+00  0.11062156190E+04  0.11062156190E+04  0.25500000920E-02 0.  1.
        2   -1    0    0  501    0  0.00000000000E+00  0.00000000000E+00 -0.17077638593E+04  0.17077638593E+04  0.25500000920E-02 0. -1.
    10030    2    1    2    0    0  0.00000000000E+00  0.00000000000E+00 -0.60154824037E+03  0.28139794783E+04  0.27489307410E+04 0.  0.
        5    1    3    3  502    0 -0.13110587133E+04 -0.40570522796E+03 -0.22375216042E+03  0.13905246495E+04  0.46999998093E+01 0.  1.
       -5    1    3    3    0  502  0.13110587133E+04  0.40570522796E+03 -0.37779607995E+03  0.14234548288E+04  0.46999998093E+01 0. -1.
</event>
<event>
 5   0  0.1041909E-05  0.2702771E+04  0.7818609E-02  0.8334106E-01
        1   -1    0    0  501    0  0.00000000000E+00  0.00000000000E+00  0.14319361791E+04  0.14319361791E+04  0.50400001928E-02 0. -1.
       -1   -1    0    0    0  501  0.00000000000E+00  0.00000000000E+00 -0.12753661263E+04  0.12753661263E+04  0.50400001928E-02 0.  1.
    10030    2    1    2    0    0  0.00000000000E+00  0.00000000000E+00  0.15657005277E+03  0.27073023054E+04  0.27027710949E+04 0.  0.
        5    1    3    3  502    0 -0.49446262663E+03  0.71396716906E+03 -0.95881466437E+03  0.12936730879E+04  0.46999998093E+01 0.  1.
       -5    1    3    3    0  502  0.49446262663E+03 -0.71396716906E+03  0.11153847171E+04  0.14136292176E+04  0.46999998093E+01 0. -1.
</event>
<event>
 5   0  0.2540232E-05  0.2100244E+04  0.7818609E-02  0.8561136E-01
        2   -1    0    0  501    0  0.00000000000E+00  0.00000000000E+00  0.18750628936E+04  0.18750628936E+04  0.25500000920E-02 0. -1.
       -2   -1    0    0    0  501  0.00000000000E+00  0.00000000000E+00 -0.58811687384E+03  0.58811687385E+03  0.25500000920E-02 0.  1.
    10030    2    1    2    0    0  0.00000000000E+00  0.00000000000E+00  0.12869460198E+04  0.24631797674E+04  0.21002439165E+04 0.  0.
        1    1    3    3  502    0  0.10062657383E+04  0.10978674737E+03  0.31564838730E+03  0.10603102237E+04  0.50400001928E-02 0. -1.
       -1    1    3    3    0  502 -0.10062657383E+04 -0.10978674737E+03  0.97129763246E+03  0.14028695438E+04  0.50400001928E-02 0.  1.
</event>
<event>
 5   0  0.1096672E-05  0.2674184E+04  0.7818609E-02  0.8343430E-01
        1   -1    0    0  501    0  0.00000000000E+00  0.00000000000E+00  0.94820397359E+03  0.94820397361E+03  0.50400001928E-02 0.  1.
       -1   -1    0    0    0  501  0.00000000000E+00  0.00000000000E+00 -0.18854745649E+04  0.18854745649E+04  0.50400001928E-02 0. -1.
    10030    2    1    2    0    0  0.00000000000E+00  0.00000000000E+00 -0.93727059128E+03  0.28336785385E+04  0.26741835947E+04 0.  0.
        1    1    3    3  502    0 -0.10089606640E+04  0.78923172385E+03 -0.62464312636E+02  0.12824937137E+04  0.50400001928E-02 0.  1.
       -1    1    3    3    0  502  0.10089606640E+04 -0.78923172385E+03 -0.87480627865E+03  0.15511848248E+04  0.50400001928E-02 0. -1.
</event>
<event>
 5   0  0.2615843E-05  0.2711260E+04  0.7818609E-02  0.8331361E-01
        2   -1    0    0  501    0  0.00000000000E+00  0.00000000000E+00  0.19461317070E+04  0.19461317070E+04  0.25500000920E-02 0. -1.
       -2   -1    0    0    0  501  0.00000000000E+00  0.00000000000E+00 -0.94430052378E+03  0.94430052378E+03  0.25500000920E-02 0.  1.
    10030    2    1    2    0    0  0.00000000000E+00  0.00000000000E+00  0.10018311832E+04  0.28904322308E+04  0.27112603639E+04 0.  0.
        3    1    3    3  502    0 -0.88988132347E+03 -0.10205860187E+04  0.57040424626E+03  0.14693010603E+04  0.10100000352E+00 0.  1.
       -3    1    3    3    0  502  0.88988132347E+03  0.10205860187E+04  0.43142693697E+03  0.14211311705E+04  0.10100000352E+00 0. -1.
</event>
<event>
 5   0  0.2516518E-05  0.1956653E+04  0.7818609E-02  0.8627159E-01
        2   -1    0    0  501    0  0.00000000000E+00  0.00000000000E+00  0.15305882336E+04  0.15305882336E+04  0.25500000920E-02 0. -1.
       -2   -1    0    0    0  501  0.00000000000E+00  0.00000000000E+00 -0.62532990493E+03  0.62532990494E+03  0.25500000920E-02 0.  1.
    10030    2    1    2    0    0  0.00000000000E+00  0.00000000000E+00  0.90525832870E+03  0.21559181386E+04  0.19566528508E+04 0.  0.
        4    1    3    3  502    0 -0.73228287815E+03  0.27192257026E+03 -0.19637312192E+03  0.80544653067E+03  0.12699999809E+01 0.  1.
       -4    1    3    3    0  502  0.73228287815E+03 -0.27192257026E+03  0.11016314506E+04  0.13504716079E+04  0.12699999809E+01 0. -1.
</event>
<event>
 5   0  0.2540684E-05  0.2673955E+04  0.7818609E-02  0.8343505E-01
        2   -1    0    0  501    0  0.00000000000E+00  0.00000000000E+00  0.15689595554E+04  0.15689595554E+04  0.25500000920E-02 0.  1.
       -2   -1    0    0    0  501  0.00000000000E+00  0.00000000000E+00 -0.11392956999E+04  0.11392956999E+04  0.25500000920E-02 0. -1.
    10030    2    1    2    0    0  0.00000000000E+00  0.00000000000E+00  0.42966385550E+03  0.27082552553E+04  0.26739550294E+04 0.  0.
        2    1    3    3  502    0  0.28792659318E+03  0.20156133049E+03 -0.10916685422E+04  0.11468517337E+04  0.25500000920E-02 0. -1.
       -2    1    3    3    0  502 -0.28792659318E+03 -0.20156133049E+03  0.15213323977E+04  0.15614035216E+04  0.25500000920E-02 0.  1.
</event>
<event>
 5   0  0.2540684E-05  0.2778529E+04  0.7818609E-02  0.8309965E-01
        2   -1    0    0  501    0  0.00000000000E+00  0.00000000000E+00  0.12696531516E+04  0.12696531516E+04  0.25500000920E-02 0. -1.
       -2   -1    0    0    0  501  0.00000000000E+00  0.00000000000E+00 -0.15201439655E+04  0.15201439655E+04  0.25500000920E-02 0.  1.
    10030    2    1    2    0    0  0.00000000000E+00  0.00000000000E+00 -0.25049081393E+03  0.27897971171E+04  0.27785288026E+04 0.  0.
        2    1    3    3  502    0  0.11178102460E+04 -0.35468301265E+03 -0.87308532021E+03  0.14620457455E+04  0.25500000920E-02 0. -1.
       -2    1    3    3    0  502 -0.11178102460E+04  0.35468301265E+03  0.62259450627E+03  0.13277513716E+04  0.25500000920E-02 0.  1.
</event>
<event>
 5   0  0.2540232E-05  0.2732290E+04  0.7818609E-02  0.8324604E-01
        2   -1    0    0  501    0  0.00000000000E+00  0.00000000000E+00  0.11055612069E+04  0.11055612069E+04  0.25500000920E-02 0.  1.
       -2   -1    0    0    0  501  0.00000000000E+00  0.00000000000E+00 -0.16881486546E+04  0.16881486546E+04  0.25500000920E-02 0. -1.
    10030    2    1    2    0    0  0.00000000000E+00  0.00000000000E+00 -0.58258744776E+03  0.27937098615E+04  0.27322896362E+04 0.  0.
        1    1    3    3  502    0 -0.62679598357E+02  0.35808457175E+03 -0.16377862682E+04  0.16776463134E+04  0.50400001928E-02 0. -1.
       -1    1    3    3    0  502  0.62679598357E+02 -0.35808457175E+03  0.10551988205E+04  0.11160635481E+04  0.50400001928E-02 0.  1.
</event>
<event>
 5   0  0.1041909E-05  0.2695801E+04  0.7818609E-02  0.8336369E-01
       -1   -1    0    0    0  501  0.00000000000E+00  0.00000000000E+00  0.16688763191E+04  0.16688763191E+04  0.50400001928E-02 0. -1.
        1   -1    0    0  501    0  0.00000000000E+00  0.00000000000E+00 -0.10886583401E+04  0.10886583401E+04  0.50400001928E-02 0.  1.
    10030    2    1    2    0    0  0.00000000000E+00  0.00000000000E+00  0.58021797903E+03  0.27575346592E+04  0.26958012712E+04 0.  0.
        5    1    3    3  502    0  0.89445387108E+03 -0.10083309184E+04  0.29616615901E+03  0.13800418299E+04  0.46999998093E+01 0. -1.
       -5    1    3    3    0  502 -0.89445387108E+03  0.10083309184E+04  0.28405182002E+03  0.13774928293E+04  0.46999998093E+01 0.  1.
</event>
<event>
 5   0  0.1096672E-05  0.2055607E+04  0.7818609E-02  0.8581055E-01
        1   -1    0    0  501    0  0.00000000000E+00  0.00000000000E+00  0.12459721708E+04  0.12459721708E+04  0.50400001928E-02 0.  1.
       -1   -1    0    0    0  501  0.00000000000E+00  0.00000000000E+00 -0.84783614493E+03  0.84783614494E+03  0.50400001928E-02 0. -1.
    10030    2    1    2    0    0  0.00000000000E+00  0.00000000000E+00  0.39813602589E+03  0.20938083158E+04  0.20556072018E+04 0.  0.
        1    1    3    3  502    0  0.28523346639E+03 -0.74220612426E+03 -0.46430475884E+03  0.92076434029E+03  0.50400001928E-02 0. -1.
       -1    1    3    3    0  502 -0.28523346639E+03  0.74220612426E+03  0.86244078473E+03  0.11730439755E+04  0.50400001928E-02 0.  1.
</event>
<event>
 5   0  0.2540232E-05  0.2662037E+04  0.7818609E-02  0.8347429E-01
       -2   -1    0    0    0  501  0.00000000000E+00  0.00000000000E+00  0.79896536334E+03  0.79896536334E+03  0.25500000920E-02 0.  1.
        2   -1    0    0  501    0  0.00000000000E+00  0.00000000000E+00 -0.22173806000E+04  0.22173806000E+04  0.25500000920E-02 0. -1.
    10030    2    1    2    0    0  0.00000000000E+00  0.00000000000E+00 -0.14184152366E+04  0.30163459633E+04  0.26620370371E+04 0.  0.
        1    1    3    3  502    0  0.78755956642E+03  0.41282024700E+03  0.41303874676E+03  0.98044461003E+03  0.50400001928E-02 0.  1.
       -1    1    3    3    0  502 -0.78755956642E+03 -0.41282024700E+03 -0.18314539834E+04  0.20359013533E+04  0.50400001928E-02 0. -1.
</event>
<event>
 5   0  0.9971923E-06  0.2702627E+04  0.7818609E-02  0.8334153E-01
        1   -1    0    0  501    0  0.00000000000E+00  0.00000000000E+00  0.11352325053E+04  0.11352325053E+04  0.50400001928E-02 0. -1.
       -1   -1    0    0    0  501  0.00000000000E+00  0.00000000000E+00 -0.16085237975E+04  0.16085237975E+04  0.50400001928E-02 0.  1.
    10030    2    1    2    0    0  0.00000000000E+00  0.00000000000E+00 -0.47329129215E+03  0.27437563028E+04  0.27026272406E+04 0.  0.
        2    1    3    3  502    0  0.62740710053E+03  0.96691390543E+03  0.47941525595E+03  0.12483593865E+04  0.25500000920E-02 0. -1.
       -2    1    3    3    0  502 -0.62740710053E+03 -0.96691390543E+03 -0.95270654810E+03  0.14953969162E+04  0.25500000920E-02 0.  1.
</event>
<event>
 5   0  0.1005265E-05  0.3166340E+04  0.7818609E-02  0.8197764E-01
        1   -1    0    0  501    0  0.00000000000E+00  0.00000000000E+00  0.16217906437E+04  0.16217906437E+04  0.50400001928E-02 0. -1.
       -1   -1    0    0    0  501  0.00000000000E+00  0.00000000000E+00 -0.15454688284E+04  0.15454688285E+04  0.50400001928E-02 0.  1.
    10030    2    1    2    0    0  0.00000000000E+00  0.00000000000E+00  0.76321815222E+02  0.31672594721E+04  0.31663397708E+04 0.  0.
        3    1    3    3  502    0  0.15822540317E+02 -0.14735411466E+04 -0.54067202580E+03  0.15696815324E+04  0.10100000352E+00 0.  1.
       -3    1    3    3    0  502 -0.15822540317E+02  0.14735411466E+04  0.61699384102E+03  0.15975779397E+04  0.10100000352E+00 0. -1.
</event>
<event>
 5   0  0.1036691E-05  0.2714251E+04  0.7818609E-02  0.8330396E-01
       -1   -1    0    0    0  501  0.00000000000E+00  0.00000000000E+00  0.15126300028E+04  0.15126300028E+04  0.50400001928E-02 0. -1.
        1   -1    0    0  501    0  0.00000000000E+00  0.00000000000E+00 -0.12176073065E+04  0.12176073065E+04  0.50400001928E-02 0.  1.
    10030    2    1    2    0    0  0.00000000000E+00  0.00000000000E+00  0.29502269634E+03  0.27302373093E+04  0.27142507942E+04 0.  0.
        4    1    3    3  502    0 -0.89191903362E+03 -0.89342119975E+03 -0.35348514109E+03  0.13109822121E+04  0.12699999809E+01 0. -1.
       -4    1    3    3    0  502  0.89191903362E+03  0.89342119975E+03  0.64850783743E+03  0.14192550972E+04  0.12699999809E+01 0.  1.
</event>
<event>
 5   0  0.2540232E-05  0.2614764E+04  0.7818609E-02  0.8363203E-01
       -2   -1    0    0    0  501  0.00000000000E+00  0.00000000000E+00  0.90567342878E+03  0.90567342878E+03  0.25500000920E-02 0. -1.
        2   -1    0    0  501    0  0.00000000000E+00  0.00000000000E+00 -0.18872678355E+04  0.18872678355E+04  0.25500000920E-02 0.  1.
    10030    2    1    2    0    0  0.00000000000E+00  0.00000000000E+00 -0.98159440677E+03  0.27929412643E+04  0.26147644878E+04 0.  0.
        1    1    3    3  502    0 -0.24295138544E+03 -0.12033071307E+04 -0.10400268694E+02  0.12276325151E+04  0.50400001928E-02 0. -1.
       -1    1    3    3    0  502  0.24295138544E+03  0.12033071307E+04 -0.97119413807E+03  0.15653087492E+04  0.50400001928E-02 0.  1.
</event>
<event>
 5   0  0.9971923E-06  0.2725057E+04  0.7818609E-02  0.8326920E-01
       -1   -1    0    0    0  501  0.00000000000E+00  0.00000000000E+00  0.16080618427E+04  0.16080618427E+04  0.50400001928E-02 0. -1.
        1   -1    0    0  501    0  0.00000000000E+00  0.00000000000E+00 -0.11544856223E+04  0.11544856223E+04  0.50400001928E-02 0.  1.
    10030    2    1    2    0    0  0.00000000000E+00  0.00000000000E+00  0.45357622042E+03  0.27625474651E+04  0.27250572671E+04 0.  0.
        2    1    3    3  502    0 -0.10397831791E+04  0.55372661696E+03  0.92083978746E+03  0.14952284575E+04  0.25500000920E-02 0. -1.
       -2    1    3    3    0  502  0.10397831791E+04 -0.55372661696E+03 -0.46726356704E+03  0.12673190076E+04  0.25500000920E-02 0.  1.
</event>
<event>
 5   0  0.1005265E-05  0.2674627E+04  0.7818609E-02  0.8343285E-01
       -1   -1    0    0    0  501  0.00000000000E+00  0.00000000000E+00  0.11890576218E+04  0.11890576218E+04  0.50400001928E-02 0.  1.
        1   -1    0    0  501    0  0.00000000000E+00  0.00000000000E+00 -0.15040541781E+04  0.15040541781E+04  0.50400001928E-02 0. -1.
    10030    2    1    2    0    0  0.00000000000E+00  0.00000000000E+00 -0.31499655624E+03  0.26931117999E+04  0.26746267658E+04 0.  0.
        3    1    3    3  502    0  0.12161926513E+04 -0.30549919531E+03 -0.62541715537E+03  0.14012854641E+04  0.10100000352E+00 0.  1.
       -3    1    3    3    0  502 -0.12161926513E+04  0.30549919531E+03  0.31042059914E+03  0.12918263358E+04  0.10100000352E+00 0. -1.
</event>
<event>
 5   0  0.1041909E-05  0.2857366E+04  0.7818609E-02  0.8285677E-01
       -1   -1    0    0    0  501  0.00000000000E+00  0.00000000000E+00  0.78955794898E+03  0.78955794899E+03  0.50400001928E-02 0.  1.
        1   -1    0    0  501    0  0.00000000000E+00  0.00000000000E+00 -0.25851610501E+04  0.25851610501E+04  0.50400001928E-02 0. -1.
    10030    2    1    2    0    0  0.00000000000E+00  0.00000000000E+00 -0.17956031011E+04  0.33747189991E+04  0.28573655395E+04 0.  0.
        5    1    3    3  502    0 -0.32546338232E+03 -0.55967156210E+03  0.60634807389E+03  0.88703931557E+03  0.46999998093E+01 0.  1.
       -5    1    3    3    0  502  0.32546338232E+03  0.55967156210E+03 -0.24019511750E+04  0.24876796835E+04  0.46999998093E+01 0. -1.
</event>
<event>
 5   0  0.2540232E-05  0.2706760E+04  0.7818609E-02  0.8332815E-01
       -2   -1    0    0    0  501  0.00000000000E+00  0.00000000000E+00  0.10957274905E+04  0.10957274905E+04  0.25500000920E-02 0. -1.
        2   -1    0    0  501    0  0.00000000000E+00  0.00000000000E+00 -0.16716180254E+04  0.16716180254E+04  0.25500000920E-02 0.  1.
    10030    2    1    2    0    0  0.00000000000E+00  0.00000000000E+00 -0.57589053482E+03  0.27673455159E+04  0.27067602953E+04 0.  0.
        1    1    3    3  502    0 -0.26036692561E+03  0.92075778727E+03 -0.12664741501E+04  0.15873067163E+04  0.50400001928E-02 0.  1.
       -1    1    3    3    0  502  0.26036692561E+03 -0.92075778727E+03  0.69058361530E+03  0.11800387996E+04  0.50400001928E-02 0. -1.
</event>
<event>
 5   0  0.1041909E-05  0.2470945E+04  0.7818609E-02  0.8413410E-01
        1   -1    0    0  501    0  0.00000000000E+00  0.00000000000E+00  0.16157961402E+04  0.16157961402E+04  0.50400001928E-02 0.  1.
       -1   -1    0    0    0  501  0.00000000000E+00  0.00000000000E+00 -0.94466859701E+03  0.94466859703E+03  0.50400001928E-02 0. -1.
    10030    2    1    2    0    0  0.00000000000E+00  0.00000000000E+00  0.67112754314E+03  0.25604647372E+04  0.24709446556E+04 0.  0.
        5    1    3    3  502    0 -0.43562584925E+03  0.71409495803E+03  0.12777167410E+04  0.15271816034E+04  0.46999998093E+01 0.  1.
       -5    1    3    3    0  502  0.43562584925E+03 -0.71409495803E+03 -0.60658919784E+03  0.10332831338E+04  0.46999998093E+01 0. -1.
</event>
<event>
 5   0  0.2540684E-05  0.2657280E+04  0.7818609E-02  0.8349001E-01
        2   -1    0    0  501    0  0.00000000000E+00  0.00000000000E+00  0.15846071068E+04  0.15846071068E+04  0.25500000920E-02 0.  1.
       -2   -1    0    0    0  501  0.00000000000E+00  0.00000000000E+00 -0.11140205049E+04  0.11140205049E+04  0.25500000920E-02 0. -1.
    10030    2    1    2    0    0  0.00000000000E+00  0.00000000000E+00  0.47058660188E+03  0.26986276117E+04  0.26572804212E+04 0.  0.
        2    1    3    3  502    0 -0.37810867065E+02  0.12768348822E+04  0.60642153213E+03  0.14140311357E+04  0.25500000920E-02 0.  1.
       -2    1    3    3    0  502  0.37810867065E+02 -0.12768348822E+04 -0.13583493025E+03  0.12845964761E+04  0.25500000920E-02 0. -1.
</event>
<event>
 5   0  0.9971923E-06  0.2736037E+04  0.7818609E-02  0.8323406E-01
       -1   -1    0    0    0  501  0.00000000000E+00  0.00000000000E+00  0.93484782147E+03  0.93484782148E+03  0.50400001928E-02 0. -1.
        1   -1    0    0  501    0  0.00000000000E+00  0.00000000000E+00 -0.20019024940E+04  0.20019024940E+04  0.50400001928E-02 0.  1.
    10030    2    1    2    0    0  0.00000000000E+00  0.00000000000E+00 -0.10670546725E+04  0.29367503155E+04  0.27360366849E+04 0.  0.
        2    1    3    3  502    0 -0.13660389128E+03 -0.14801163545E+03 -0.19859002668E+04  0.19960881586E+04  0.25500000920E-02 0.  1.
       -2    1    3    3    0  502  0.13660389128E+03  0.14801163545E+03  0.91884559424E+03  0.94066215689E+03  0.25500000920E-02 0. -1.
</event>
<event>
 5   0  0.2641216E-05  0.2805409E+04  0.7818609E-02  0.8301591E-01
        2   -1    0    0  501    0  0.00000000000E+00  0.00000000000E+00  0.17791021244E+04  0.17791021244E+04  0.25500000920E-02 0.  1.
       -2   -1    0    0    0  501  0.00000000000E+00  0.00000000000E+00 -0.11059402085E+04  0.11059402085E+04  0.25500000920E-02 0. -1.
    10030    2    1    2    0    0  0.00000000000E+00  0.00000000000E+00  0.67316191590E+03  0.28850423330E+04  0.28054094706E+04 0.  0.
        5    1    3    3  502    0  0.12871768563E+04  0.26718928293E+02 -0.23601860766E+03  0.13089175045E+04  0.46999998093E+01 0. -1.
       -5    1    3    3    0  502 -0.12871768563E+04 -0.26718928293E+02  0.90918052355E+03  0.15761248284E+04  0.46999998093E+01 0.  1.
</event>
<event>
 5   0  0.2516518E-05  0.2743450E+04  0.7818609E-02  0.8321043E-01
       -2   -1    0    0    0  501  0.00000000000E+00  0.00000000000E+00  0.12531827947E+04  0.12531827947E+04  0.25500000920E-02 0.  1.
        2   -1    0    0  501    0  0.00000000000E+00  0.00000000000E+00 -0.15014809708E+04  0.15014809708E+04  0.25500000920E-02 0. -1.
    10030    2    1    2    0    0  0.00000000000E+00  0.00000000000E+00 -0.24829817613E+03  0.27546637656E+04  0.27434504692E+04 0.  0.
        4    1    3    3  502    0  0.22067322806E+03  0.83109804672E+03  0.94896042937E+03  0.12806046018E+04  0.12699999809E+01 0.  1.
       -4    1    3    3    0  502 -0.22067322806E+03 -0.83109804672E+03 -0.11972586055E+04  0.14740591637E+04  0.12699999809E+01 0. -1.
</event>
<event>
 5   0  0.2516518E-05  0.2848282E+04  0.7818609E-02  0.8288434E-01
        2   -1    0    0  501    0  0.00000000000E+00  0.00000000000E+00  0.20731852776E+04  0.20731852776E+04  0.25500000920E-02 0. -1.
       -2   -1    0    0    0  501  0.00000000000E+00  0.00000000000E+00 -0.97829023509E+03  0.97829023510E+03  0.25500000920E-02 0.  1.
    10030    2    1    2    0    0  0.00000000000E+00  0.00000000000E+00  0.10948950425E+04  0.30514755127E+04  0.28482815258E+04 0.  0.
        4    1    3    3  502    0 -0.33381305078E+03  0.99243956804E+03  0.15816132909E+04  0.18968051202E+04  0.12699999809E+01 0. -1.
       -4    1    3    3    0  502  0.33381305078E+03 -0.99243956804E+03 -0.48671824841E+03  0.11546703925E+04  0.12699999809E+01 0.  1.
</event>
<event>
 5   0  0.1041909E-05  0.2736068E+04  0.7818609E-02  0.8323396E-01
        1   -1    0    0  501    0  0.00000000000E+00  0.00000000000E+00  0.14825526341E+04  0.14825526341E+04  0.50400001928E-02 0.  1.
       -1   -1    0    0    0  501  0.00000000000E+00  0.00000000000E+00 -0.12623615785E+04  0.12623615785E+04  0.50400001928E-02 0. -1.
    10030    2    1    2    0    0  0.00000000000E+00  0.00000000000E+00  0.22019105567E+03  0.27449142126E+04  0.27360683350E+04 0.  0.
        5    1    3    3  502    0  0.23175182172E+03  0.11473754856E+04  0.82042136335E+03  0.14294379019E+04  0.46999998093E+01 0.  1.
       -5    1    3    3    0  502 -0.23175182172E+03 -0.11473754856E+04 -0.60023030768E+03  0.13154763107E+04  0.46999998093E+01 0. -1.
</event>
<event>
 5   0  0.8740500E-06  0.2722801E+04  0.7818609E-02  0.8327645E-01
        3   -1    0    0  501    0  0.00000000000E+00  0.00000000000E+00  0.15677510615E+04  0.15677510647E+04  0.10100000352E+00 0. -1.
       -3   -1    0    0    0  501  0.00000000000E+00  0.00000000000E+00 -0.11822101813E+04  0.11822101856E+04  0.10100000352E+00 0.  1.
    10030    2    1    2    0    0  0.00000000000E+00  0.00000000000E+00  0.38554088019E+03  0.27499612503E+04  0.27228009674E+04 0.  0.
        2    1    3    3  502    0  0.66812367359E+03  0.86546459283E+03 -0.62648878164E+03  0.12601215807E+04  0.25500000920E-02 0.  1.
       -2    1    3    3    0  502 -0.66812367359E+03 -0.86546459283E+03  0.10120296618E+04  0.14898396696E+04  0.25500000920E-02 0. -1.
</event>
<event>
 5   0  0.1041909E-05  0.2456071E+04  0.7818609E-02  0.8418805E-01
       -1   -1    0    0    0  501  0.00000000000E+00  0.00000000000E+00  0.10286156780E+04  0.10286156780E+04  0.50400001928E-02 0. -1.
        1   -1    0    0  501    0  0.00000000000E+00  0.00000000000E+00 -0.14661170396E+04  0.14661170396E+04  0.50400001928E-02 0.  1.
    10030    2    1    2    0    0  0.00000000000E+00  0.00000000000E+00 -0.43750136154E+03  0.24947327176E+04  0.24560708237E+04 0.  0.
        5    1    3    3  502    0  0.48466554956E+03 -0.76828895464E+02 -0.13621910396E+04  0.14478915334E+04  0.46999998093E+01 0.  1.
       -5    1    3    3    0  502 -0.48466554956E+03  0.76828895464E+02  0.92468967809E+03  0.10468411842E+04  0.46999998093E+01 0. -1.
</event>
<event>
 5   0  0.2516518E-05  0.2659699E+04  0.7818609E-02  0.8348201E-01
       -2   -1    0    0    0  501  0.00000000000E+00  0.00000000000E+00  0.64271861019E+03  0.64271861020E+03  0.25500000920E-02 0. -1.
        2   -1    0    0  501    0  0.00000000000E+00  0.00000000000E+00 -0.27515917328E+04  0.27515917328E+04  0.25500000920E-02 0.  1.
    10030    2    1    2    0    0  0.00000000000E+00  0.00000000000E+00 -0.21088731226E+04  0.33943103430E+04  0.26596986403E+04 0.  0.
        4    1    3    3  502    0  0.65528106880E+03 -0.71448618120E+03 -0.22161398055E+04  0.24189173266E+04  0.12699999809E+01 0.  1.
       -4    1    3    3    0  502 -0.65528106880E+03  0.71448618120E+03  0.10726668294E+03  0.97539301640E+03  0.12699999809E+01 0. -1.
</event>
<event>
 5   0  0.2641216E-05  0.2807335E+04  0.7818609E-02  0.8300995E-01
       -2   -1    0    0    0  501  0.00000000000E+00  0.00000000000E+00  0.87129251914E+03  0.87129251914E+03  0.25500000920E-02 0. -1.
        2   -1    0    0  501    0  0.00000000000E+00  0.00000000000E+00 -0.22613328565E+04  0.22613328565E+04  0.25500000920E-02 0.  1.
    10030    2    1    2    0    0  0.00000000000E+00  0.00000000000E+00 -0.13900403374E+04  0.31326253757E+04  0.28073349648E+04 0.  0.
        5    1    3    3  502    0  0.10470987998E+02  0.14036179099E+04 -0.69806234512E+03  0.15676625932E+04  0.46999998093E+01 0. -1.
       -5    1    3    3    0  502 -0.10470987998E+02 -0.14036179099E+04 -0.69197799228E+03  0.15649627824E+04  0.46999998093E+01 0.  1.
</event>
<event>
 5   0  0.1005265E-05  0.2707770E+04  0.7818609E-02  0.8332488E-01
       -1   -1    0    0    0  501  0.00000000000E+00  0.00000000000E+00  0.81723189480E+03  0.81723189482E+03  0.50400001928E-02 0. -1.
        1   -1    0    0  501    0  0.00000000000E+00  0.00000000000E+00 -0.22429429621E+04  0.22429429621E+04  0.50400001928E-02 0.  1.
    10030    2    1    2    0    0  0.00000000000E+00  0.00000000000E+00 -0.14257110673E+04  0.30601748569E+04  0.27077699510E+04 0.  0.
        3    1    3    3  502    0 -0.79583084144E+03 -0.50696453685E+02  0.52365395901E+03  0.95400751443E+03  0.10100000352E+00 0. -1.
       -3    1    3    3    0  502  0.79583084144E+03  0.50696453685E+02 -0.19493650263E+04  0.21061673425E+04  0.10100000352E+00 0.  1.
</event>
<event>
 5   0  0.2516518E-05  0.2687481E+04  0.7818609E-02  0.8339078E-01
        2   -1    0    0  501    0  0.00000000000E+00  0.00000000000E+00  0.98943332693E+03  0.98943332694E+03  0.25500000920E-02 0.  1.
       -2   -1    0    0    0  501  0.00000000000E+00  0.00000000000E+00 -0.18249218498E+04  0.18249218498E+04  0.25500000920E-02 0. -1.
    10030    2    1    2    0    0  0.00000000000E+00  0.00000000000E+00 -0.83548852283E+03  0.28143551767E+04  0.26874809746E+04 0.  0.
        4    1    3    3  502    0  0.40635146987E+03  0.66570317219E+03 -0.15636394875E+04  0.17473557996E+04  0.12699999809E+01 0. -1.
       -4    1    3    3    0  502 -0.40635146987E+03 -0.66570317219E+03  0.72815096468E+03  0.10669993771E+04  0.12699999809E+01 0.  1.
</event>
<event>
 5   0  0.2540232E-05  0.2640772E+04  0.7818609E-02  0.8354482E-01
       -2   -1    0    0    0  501  0.00000000000E+00  0.00000000000E+00  0.73301196533E+03  0.73301196533E+03  0.25500000920E-02 0. -1.
        2   -1    0    0  501    0  0.00000000000E+00  0.00000000000E+00 -0.23784321201E+04  0.23784321201E+04  0.25500000920E-02 0.  1.
    10030    2    1    2    0    0  0.00000000000E+00  0.00000000000E+00 -0.16454201548E+04  0.31114440854E+04  0.26407720104E+04 0.  0.
        1    1    3    3  502    0  0.45100922897E+03 -0.11031925859E+04 -0.15310888845E+03  0.12016178835E+04  0.50400001928E-02 0. -1.
       -1    1    3    3    0  502 -0.45100922897E+03  0.11031925859E+04 -0.14923112663E+04  0.19098262020E+04  0.50400001928E-02 0.  1.
</event>
<event>
 5   0  0.1005265E-05  0.2669834E+04  0.7818609E-02  0.8344860E-01
        1   -1    0    0  501    0  0.00000000000E+00  0.00000000000E+00  0.14389766740E+04  0.14389766740E+04  0.50400001928E-02 0.  1.
       -1   -1    0    0    0  501  0.00000000000E+00  0.00000000000E+00 -0.12383823216E+04  0.12383823216E+04  0.50400001928E-02 0. -1.
    10030    2    1    2    0    0  0.00000000000E+00  0.00000000000E+00  0.20059435238E+03  0.26773589956E+04  0.26698339081E+04 0.  0.
        3    1    3    3  502    0  0.78881620809E+03 -0.10302825518E+04 -0.21409902527E+03  0.13151241574E+04  0.10100000352E+00 0.  1.
       -3    1    3    3    0  502 -0.78881620809E+03  0.10302825518E+04  0.41469337765E+03  0.13622348381E+04  0.10100000352E+00 0. -1.
</event>
<event>
 5   0  0.2615843E-05  0.2706113E+04  0.7818609E-02  0.8333024E-01
       -2   -1    0    0    0  501  0.00000000000E+00  0.00000000000E+00  0.85424077456E+03  0.85424077457E+03  0.25500000920E-02 0.  1.
        2   -1    0    0  501    0  0.00000000000E+00  0.00000000000E+00 -0.21431445960E+04  0.21431445960E+04  0.25500000920E-02 0. -1.
    10030    2    1    2    0    0  0.00000000000E+00  0.00000000000E+00 -0.12889038215E+04  0.29973853706E+04  0.27061127099E+04 0.  0.
        3    1    3    3  502    0 -0.18577275816E+03  0.75752193808E+01  0.84002399218E+03  0.86035412433E+03  0.10100000352E+00 0.  1.
       -3    1    3    3    0  502  0.18577275816E+03 -0.75752193808E+01 -0.21289278136E+04  0.21370312463E+04  0.10100000352E+00 0. -1.
</event>
<event>
 5   0  0.1005265E-05  0.2684992E+04  0.7818609E-02  0.8339891E-01
        1   -1    0    0  501    0  0.00000000000E+00  0.00000000000E+00  0.16468207246E+04  0.16468207246E+04  0.50400001928E-02 0.  1.
       -1   -1    0    0    0  501  0.00000000000E+00  0.00000000000E+00 -0.10944089393E+04  0.10944089393E+04  0.50400001928E-02 0. -1.
    10030    2    1    2    0    0  0.00000000000E+00  0.00000000000E+00  0.55241178533E+03  0.27412296640E+04  0.26849918603E+04 0.  0.
        3    1    3    3  502    0  0.41834282287E+03 -0.11726745048E+04 -0.23642564858E+03  0.12673094765E+04  0.10100000352E+00 0. -1.
       -3    1    3    3    0  502 -0.41834282287E+03  0.11726745048E+04  0.78883743391E+03  0.14739201875E+04  0.10100000352E+00 0.  1.
</event>
<event>
 5   0  0.1041909E-05  0.2700368E+04  0.7818609E-02  0.8334886E-01
       -1   -1    0    0    0  501  0.00000000000E+00  0.00000000000E+00  0.12061103597E+04  0.12061103597E+04  0.50400001928E-02 0. -1.
        1   -1    0    0  501    0  0.00000000000E+00  0.00000000000E+00 -0.15114672305E+04  0.15114672305E+04  0.50400001928E-02 0.  1.
    10030    2    1    2    0    0  0.00000000000E+00  0.00000000000E+00 -0.30535687080E+03  0.27175775902E+04  0.27003675935E+04 0.  0.
        5    1    3    3  502    0 -0.11454364117E+04  0.53372764370E+03  0.32583527609E+03  0.13050212596E+04  0.46999998093E+01 0. -1.
       -5    1    3    3    0  502  0.11454364117E+04 -0.53372764370E+03 -0.63119214689E+03  0.14125563306E+04  0.46999998093E+01 0.  1.
</event>
<event>
 5   0  0.1096672E-05  0.2737029E+04  0.7818609E-02  0.8323090E-01
       -1   -1    0    0    0  501  0.00000000000E+00  0.00000000000E+00  0.12134691558E+04  0.12134691558E+04  0.50400001928E-02 0. -1.
        1   -1    0    0  501    0  0.00000000000E+00  0.00000000000E+00 -0.15433695843E+04  0.15433695843E+04  0.50400001928E-02 0.  1.
    10030    2    1    2    0    0  0.00000000000E+00  0.00000000000E+00 -0.32990042851E+03  0.27568387401E+04  0.27370285980E+04 0.  0.
        1    1    3    3  502    0  0.72476507669E+03  0.82148605591E+03  0.66117372005E+03  0.12795602544E+04  0.50400001928E-02 0. -1.
       -1    1    3    3    0  502 -0.72476507669E+03 -0.82148605591E+03 -0.99107414856E+03  0.14772784857E+04  0.50400001928E-02 0.  1.
</event>
<event>
 5   0  0.1096672E-05  0.2688462E+04  0.7818609E-02  0.8338758E-01
        1   -1    0    0  501    0  0.00000000000E+00  0.00000000000E+00  0.17313105626E+04  0.17313105626E+04  0.50400001928E-02 0.  1.
       -1   -1    0    0    0  501  0.00000000000E+00  0.00000000000E+00 -0.10436929350E+04  0.10436929350E+04  0.50400001928E-02 0. -1.
    10030    2    1    2    0    0  0.00000000000E+00  0.00000000000E+00  0.68761762763E+03  0.27750034977E+04  0.26884617182E+04 0.  0.
        1    1    3    3  502    0  0.57464997467E+03  0.84808636818E+03  0.12421602630E+04  0.16101040961E+04  0.50400001928E-02 0.  1.
       -1    1    3    3    0  502 -0.57464997467E+03 -0.84808636818E+03 -0.55454263538E+03  0.11648994016E+04  0.50400001928E-02 0. -1.
</event>
<event>
 5   0  0.2615843E-05  0.2697999E+04  0.7818609E-02  0.8335655E-01
       -2   -1    0    0    0  501  0.00000000000E+00  0.00000000000E+00  0.12160798064E+04  0.12160798064E+04  0.25500000920E-02 0. -1.
        2   -1    0    0  501    0  0.00000000000E+00  0.00000000000E+00 -0.14964475332E+04  0.14964475332E+04  0.25500000920E-02 0.  1.
    10030    2    1    2    0    0  0.00000000000E+00  0.00000000000E+00 -0.28036772683E+03  0.27125273396E+04  0.26979989818E+04 0.  0.
        3    1    3    3  502    0  0.10729239991E+04  0.72939801579E+03 -0.51178510271E+03  0.13946724973E+04  0.10100000352E+00 0.  1.
       -3    1    3    3    0  502 -0.10729239991E+04 -0.72939801579E+03  0.23141737588E+03  0.13178548423E+04  0.10100000352E+00 0. -1.
</event>
<event>
 5   0  0.1096672E-05  0.2702142E+04  0.7818609E-02  0.8334310E-01
        1   -1    0    0  501    0  0.00000000000E+00  0.00000000000E+00  0.22865255944E+04  0.22865255944E+04  0.50400001928E-02 0.  1.
       -1   -1    0    0    0  501  0.00000000000E+00  0.00000000000E+00 -0.79832619845E+03  0.79832619847E+03  0.50400001928E-02 0. -1.
    10030    2    1    2    0    0  0.00000000000E+00  0.00000000000E+00  0.14881993960E+04  0.30848517929E+04  0.27021423245E+04 0.  0.
        1    1    3    3  502    0  0.38563128077E+03  0.61228300814E+03 -0.55845739856E+03  0.91404410878E+03  0.50400001928E-02 0. -1.
       -1    1    3    3    0  502 -0.38563128077E+03 -0.61228300814E+03  0.20466567945E+04  0.21708076841E+04  0.50400001928E-02 0.  1.
</event>
<event>
 5   0  0.9971923E-06  0.2665458E+04  0.7818609E-02  0.8346300E-01
       -1   -1    0    0    0  501  0.00000000000E+00  0.00000000000E+00  0.19091089308E+04  0.19091089308E+04  0.50400001928E-02 0. -1.
        1   -1    0    0  501    0  0.00000000000E+00  0.00000000000E+00 -0.93036400306E+03  0.93036400307E+03  0.50400001928E-02 0.  1.
    10030    2    1    2    0    0  0.00000000000E+00  0.00000000000E+00  0.97874492774E+03  0.28394729339E+04  0.26654577297E+04 0.  0.
        2    1    3    3  502    0  0.60081310841E+02 -0.81154873668E+03  0.16137128988E+04  0.18072881441E+04  0.25500000920E-02 0. -1.
       -2    1    3    3    0  502 -0.60081310841E+02  0.81154873668E+03 -0.63496797110E+03  0.10321847898E+04  0.25500000920E-02 0.  1.
</event>
<event>
 5   0  0.1041909E-05  0.2544293E+04  0.7818609E-02  0.8387374E-01
       -1   -1    0    0    0  501  0.00000000000E+00  0.00000000000E+00  0.14007783548E+04  0.14007783548E+04  0.50400001928E-02 0.  1.
        1   -1    0    0  501    0  0.00000000000E+00  0.00000000000E+00 -0.11553271664E+04  0.11553271664E+04  0.50400001928E-02 0. -1.
    10030    2    1    2    0    0  0.00000000000E+00  0.00000000000E+00  0.24545118845E+03  0.25561055212E+04  0.25442934481E+04 0.  0.
        5    1    3    3  502    0 -0.12461304719E+04  0.25356534997E+03  0.15750796480E+03  0.12813927535E+04  0.46999998093E+01 0. -1.
       -5    1    3    3    0  502  0.12461304719E+04 -0.25356534997E+03  0.87943223646E+02  0.12747127678E+04  0.46999998093E+01 0.  1.
</event>
<event>
 5   0  0.2516518E-05  0.2700985E+04  0.7818609E-02  0.8334686E-01
        2   -1    0    0  501    0  0.00000000000E+00  0.00000000000E+00  0.11534486991E+04  0.11534486991E+04  0.25500000920E-02 0.  1.
       -2   -1    0    0    0  501  0.00000000000E+00  0.00000000000E+00 -0.15811968604E+04  0.15811968604E+04  0.25500000920E-02 0. -1.
    10030    2    1    2    0    0  0.00000000000E+00  0.00000000000E+00 -0.42774816123E+03  0.27346455595E+04  0.27009846069E+04 0.  0.
        4    1    3    3  502    0 -0.37482790980E+03  0.10236394302E+04  0.59323964466E+03  0.12410755553E+04  0.12699999809E+01 0.  1.
       -4    1    3    3    0  502  0.37482790980E+03 -0.10236394302E+04 -0.10209878059E+04  0.14935700043E+04  0.12699999809E+01 0. -1.
</event>
<event>
 5   0  0.2615843E-05  0.2694137E+04  0.7818609E-02  0.8336910E-01
       -2   -1    0    0    0  501  0.00000000000E+00  0.00000000000E+00  0.13591596475E+04  0.13591596475E+04  0.25500000920E-02 0.  1.
        2   -1    0    0  501    0  0.00000000000E+00  0.00000000000E+00 -0.13350845373E+04  0.13350845373E+04  0.25500000920E-02 0. -1.
    10030    2    1    2    0    0  0.00000000000E+00  0.00000000000E+00  0.24075110171E+02  0.26942441848E+04  0.26941366180E+04 0.  0.
        3    1    3    3  502    0  0.31985370868E+02  0.45667758920E+03 -0.12549051041E+04  0.13358010012E+04  0.10100000352E+00 0. -1.
       -3    1    3    3    0  502 -0.31985370868E+02 -0.45667758920E+03  0.12789802142E+04  0.13584431836E+04  0.10100000352E+00 0.  1.
</event>
<event>
 5   0  0.1036691E-05  0.2717391E+04  0.7818609E-02  0.8329384E-01
        1   -1    0    0  501    0  0.00000000000E+00  0.00000000000E+00  0.23042639934E+04  0.23042639934E+04  0.50400001928E-02 0. -1.
       -1   -1    0    0    0  501  0.00000000000E+00  0.00000000000E+00 -0.80114665236E+03  0.80114665238E+03  0.50400001928E-02 0.  1.
    10030    2    1    2    0    0  0.00000000000E+00  0.00000000000E+00  0.15031173411E+04  0.31054106458E+04  0.27173909432E+04 0.  0.
        4    1    3    3  502    0 -0.11684032188E+04  0.51779615124E+03  0.12786974962E+04  0.18078572498E+04  0.12699999809E+01 0. -1.
       -4    1    3    3    0  502  0.11684032188E+04 -0.51779615124E+03  0.22441984486E+03  0.12975533960E+04  0.12699999809E+01 0.  1.
</event>
<event>
 5   0  0.9971923E-06  0.2588582E+04  0.7818609E-02  0.8372090E-01
        1   -1    0    0  501    0  0.00000000000E+00  0.00000000000E+00  0.16162327616E+04  0.16162327616E+04  0.50400001928E-02 0.  1.
       -1   -1    0    0    0  501  0.00000000000E+00  0.00000000000E+00 -0.10364773744E+04  0.10364773744E+04  0.50400001928E-02 0. -1.
    10030    2    1    2    0    0  0.00000000000E+00  0.00000000000E+00  0.57975538722E+03  0.26527101360E+04  0.25885816110E+04 0.  0.
        2    1    3    3  502    0 -0.32220889936E+02  0.90693877451E+03  0.12355680598E+04  0.15330376893E+04  0.25500000920E-02 0.  1.
       -2    1    3    3    0  502  0.32220889936E+02 -0.90693877451E+03 -0.65581267254E+03  0.11196724467E+04  0.25500000920E-02 0. -1.
</event>
<event>
 5   0  0.1036691E-05  0.2751650E+04  0.7818609E-02  0.8318438E-01
       -1   -1    0    0    0  501  0.00000000000E+00  0.00000000000E+00  0.10433795055E+04  0.10433795055E+04  0.50400001928E-02 0. -1.
        1   -1    0    0  501    0  0.00000000000E+00  0.00000000000E+00 -0.18141950558E+04  0.18141950558E+04  0.50400001928E-02 0.  1.
    10030    2    1    2    0    0  0.00000000000E+00  0.00000000000E+00 -0.77081555027E+03  0.28575745613E+04  0.27516496435E+04 0.  0.
        4    1    3    3  502    0  0.21870946124E+03 -0.84522234706E+03  0.71884882571E+03  0.11309199315E+04  0.12699999809E+01 0. -1.
       -4    1    3    3    0  502 -0.21870946124E+03  0.84522234706E+03 -0.14896643760E+04  0.17266546297E+04  0.12699999809E+01 0.  1.
</event>
<event>
 5   0  0.1096672E-05  0.2574182E+04  0.7818609E-02  0.8377024E-01
        1   -1    0    0  501    0  0.00000000000E+00  0.00000000000E+00  0.12103303439E+04  0.12103303439E+04  0.50400001928E-02 0. -1.
       -1   -1    0    0    0  501  0.00000000000E+00  0.00000000000E+00 -0.13687203454E+04  0.13687203454E+04  0.50400001928E-02 0.  1.
    10030    2    1    2    0    0  0.00000000000E+00  0.00000000000E+00 -0.15839000149E+03  0.25790506893E+04  0.25741824071E+04 0.  0.
        1    1    3    3  502    0  0.60748896890E+03 -0.45631385744E+02 -0.12151287471E+04  0.13592876601E+04  0.50400001928E-02 0.  1.
       -1    1    3    3    0  502 -0.60748896890E+03  0.45631385744E+02  0.10567387457E+04  0.12197630292E+04  0.50400001928E-02 0. -1.
</event>
<event>
 5   0  0.8740500E-06  0.2654492E+04  0.7818609E-02  0.8349923E-01
        3   -1    0    0  501    0  0.00000000000E+00  0.00000000000E+00  0.15191530670E+04  0.15191530704E+04  0.10100000352E+00 0. -1.
       -3   -1    0    0    0  501  0.00000000000E+00  0.00000000000E+00 -0.11595818706E+04  0.11595818750E+04  0.10100000352E+00 0.  1.
    10030    2    1    2    0    0  0.00000000000E+00  0.00000000000E+00  0.35957119643E+03  0.26787349454E+04  0.26544923172E+04 0.  0.
        3    1    3    3  502    0  0.34325491868E+03 -0.11658017554E+04 -0.35862681691E+03  0.12670954487E+04  0.10100000352E+00 0.  1.
       -3    1    3    3    0  502 -0.34325491868E+03  0.11658017554E+04  0.71819801334E+03  0.14116394967E+04  0.10100000352E+00 0. -1.
</event>
<event>
 5   0  0.1036691E-05  0.2711573E+04  0.7818609E-02  0.8331260E-01
       -1   -1    0    0    0  501  0.00000000000E+00  0.00000000000E+00  0.18907634850E+04  0.18907634850E+04  0.50400001928E-02 0. -1.
        1   -1    0    0  501    0  0.00000000000E+00  0.00000000000E+00 -0.97217722082E+03  0.97217722084E+03  0.50400001928E-02 0.  1.
    10030    2    1    2    0    0  0.00000000000E+00  0.00000000000E+00  0.91858626415E+03  0.28629407058E+04  0.27115731154E+04 0.  0.
        4    1    3    3  502    0 -0.51083597445E+03 -0.16538769117E+03  0.17737179221E+04  0.18532089362E+04  0.12699999809E+01 0. -1.
       -4    1    3    3    0  502  0.51083597445E+03  0.16538769117E+03 -0.85513165796E+03  0.10097317696E+04  0.12699999809E+01 0.  1.
</event>
<event>
 5   0  0.2516518E-05  0.2689653E+04  0.7818609E-02  0.8338370E-01
        2   -1    0    0  501    0  0.00000000000E+00  0.00000000000E+00  0.15385045711E+04  0.15385045711E+04  0.25500000920E-02 0.  1.
       -2   -1    0    0    0  501  0.00000000000E+00  0.00000000000E+00 -0.11755297057E+04  0.11755297057E+04  0.25500000920E-02 0. -1.
    10030    2    1    2    0    0  0.00000000000E+00  0.00000000000E+00  0.36297486533E+03  0.27140342768E+04  0.26896526361E+04 0.  0.
        4    1    3    3  502    0 -0.32774569840E+03 -0.10798908730E+04 -0.55656249792E+03  0.12583103621E+04  0.12699999809E+01 0. -1.
       -4    1    3    3    0  502  0.32774569840E+03  0.10798908730E+04  0.91953736325E+03  0.14557239147E+04  0.12699999809E+01 0.  1.
</event>
<event>
 5   0  0.2516518E-05  0.2701219E+04  0.7818609E-02  0.8334610E-01
       -2   -1    0    0    0  501  0.00000000000E+00  0.00000000000E+00  0.11610960860E+04  0.11610960860E+04  0.25500000920E-02 0. -1.
        2   -1    0    0  501    0  0.00000000000E+00  0.00000000000E+00 -0.15710548222E+04  0.15710548222E+04  0.25500000920E-02 0.  1.
    10030    2    1    2    0    0  0.00000000000E+00  0.00000000000E+00 -0.40995873619E+03  0.27321509082E+04  0.27012186916E+04 0.  0.
        4    1    3    3  502    0  0.59832688384E+03 -0.90084113622E+03  0.61338040961E+03  0.12432807215E+04  0.12699999809E+01 0. -1.
       -4    1    3    3    0  502 -0.59832688384E+03  0.90084113622E+03 -0.10233391458E+04  0.14888701867E+04  0.12699999809E+01 0.  1.
</event>
<event>
 5   0  0.1096672E-05  0.2702363E+04  0.7818609E-02  0.8334239E-01
       -1   -1    0    0    0  501  0.00000000000E+00  0.00000000000E+00  0.11526066055E+04  0.11526066055E+04  0.50400001928E-02 0.  1.
        1   -1    0    0  501    0  0.00000000000E+00  0.00000000000E+00 -0.15839670534E+04  0.15839670534E+04  0.50400001928E-02 0. -1.
    10030    2    1    2    0    0  0.00000000000E+00  0.00000000000E+00 -0.43136044791E+03  0.27365736590E+04  0.27023625876E+04 0.  0.
        1    1    3    3  502    0  0.40103884849E+02 -0.85819440596E+03  0.84039562964E+03  0.12018197761E+04  0.50400001928E-02 0.  1.
       -1    1    3    3    0  502 -0.40103884849E+02  0.85819440596E+03 -0.12717560776E+04  0.15347538828E+04  0.50400001928E-02 0. -1.
</event>
<event>
 5   0  0.1036691E-05  0.2659092E+04  0.7818609E-02  0.8348402E-01
       -1   -1    0    0    0  501  0.00000000000E+00  0.00000000000E+00  0.18170628504E+04  0.18170628504E+04  0.50400001928E-02 0. -1.
        1   -1    0    0  501    0  0.00000000000E+00  0.00000000000E+00 -0.97282963774E+03  0.97282963775E+03  0.50400001928E-02 0.  1.
    10030    2    1    2    0    0  0.00000000000E+00  0.00000000000E+00  0.84423321268E+03  0.27898924882E+04  0.26590920214E+04 0.  0.
        4    1    3    3  502    0 -0.12238621682E+04 -0.51676864189E+03  0.47765975004E+03  0.14117538332E+04  0.12699999809E+01 0.  1.
       -4    1    3    3    0  502  0.12238621682E+04  0.51676864189E+03  0.36657346264E+03  0.13781386550E+04  0.12699999809E+01 0. -1.
</event>
<event>
 5   0  0.2516518E-05  0.2686771E+04  0.7818609E-02  0.8339310E-01
        2   -1    0    0  501    0  0.00000000000E+00  0.00000000000E+00  0.13705455814E+04  0.13705455814E+04  0.25500000920E-02 0.  1.
       -2   -1    0    0    0  501  0.00000000000E+00  0.00000000000E+00 -0.13167640629E+04  0.13167640629E+04  0.25500000920E-02 0. -1.
    10030    2    1    2    0    0  0.00000000000E+00  0.00000000000E+00  0.53781518558E+02  0.26873096443E+04  0.26867714217E+04 0.  0.
        4    1    3    3  502    0  0.11507619089E+02 -0.51615586483E+02  0.13695034931E+04  0.13705247260E+04  0.12699999809E+01 0.  1.
       -4    1    3    3    0  502 -0.11507619089E+02  0.51615586483E+02 -0.13157219745E+04  0.13167849183E+04  0.12699999809E+01 0. -1.
</event>
<event>
 5   0  0.2516518E-05  0.2706490E+04  0.7818609E-02  0.8332902E-01
       -2   -1    0    0    0  501  0.00000000000E+00  0.00000000000E+00  0.11630364712E+04  0.11630364712E+04  0.25500000920E-02 0. -1.
        2   -1    0    0  501    0  0.00000000000E+00  0.00000000000E+00 -0.15745613559E+04  0.15745613559E+04  0.25500000920E-02 0.  1.
    10030    2    1    2    0    0  0.00000000000E+00  0.00000000000E+00 -0.41152488469E+03  0.27375978271E+04  0.27064901870E+04 0.  0.
        4    1    3    3  502    0  0.91853361705E+02  0.55009413976E+02  0.11587450581E+04  0.11636815708E+04  0.12699999809E+01 0. -1.
       -4    1    3    3    0  502 -0.91853361705E+02 -0.55009413976E+02 -0.15702699428E+04  0.15739162563E+04  0.12699999809E+01 0.  1.
</event>
<event>
 5   0  0.2641216E-05  0.2469634E+04  0.7818609E-02  0.8413884E-01
        2   -1    0    0  501    0  0.00000000000E+00  0.00000000000E+00  0.11002988036E+04  0.11002988036E+04  0.25500000920E-02 0.  1.
       -2   -1    0    0    0  501  0.00000000000E+00  0.00000000000E+00 -0.13857807064E+04  0.13857807064E+04  0.25500000920E-02 0. -1.
    10030    2    1    2    0    0  0.00000000000E+00  0.00000000000E+00 -0.28548190282E+03  0.24860795101E+04  0.24696338622E+04 0.  0.
        5    1    3    3  502    0  0.20143758743E+03  0.11882180447E+04  0.12795779736E+03  0.12119548305E+04  0.46999998093E+01 0.  1.
       -5    1    3    3    0  502 -0.20143758743E+03 -0.11882180447E+04 -0.41343970018E+03  0.12741246795E+04  0.46999998093E+01 0. -1.
</event>
<event>
 5   0  0.2540232E-05  0.2587424E+04  0.7818609E-02  0.8372486E-01
        2   -1    0    0  501    0  0.00000000000E+00  0.00000000000E+00  0.64719224463E+03  0.64719224463E+03  0.25500000920E-02 0. -1.
       -2   -1    0    0    0  501  0.00000000000E+00  0.00000000000E+00 -0.25860798893E+04  0.25860798893E+04  0.25500000920E-02 0.  1.
    10030    2    1    2    0    0  0.00000000000E+00  0.00000000000E+00 -0.19388876446E+04  0.32332721339E+04  0.25874240846E+04 0.  0.
        1    1    3    3  502    0  0.60793563788E+03 -0.84902265468E+03 -0.15093466967E+02  0.10443433443E+04  0.50400001928E-02 0. -1.
       -1    1    3    3    0  502 -0.60793563788E+03  0.84902265468E+03 -0.19237941777E+04  0.21889287896E+04  0.50400001928E-02 0.  1.
</event>
<event>
 5   0  0.1041909E-05  0.2684226E+04  0.7818609E-02  0.8340141E-01
       -1   -1    0    0    0  501  0.00000000000E+00  0.00000000000E+00  0.11983192677E+04  0.11983192677E+04  0.50400001928E-02 0. -1.
        1   -1    0    0  501    0  0.00000000000E+00  0.00000000000E+00 -0.15031615199E+04  0.15031615199E+04  0.50400001928E-02 0.  1.
    10030    2    1    2    0    0  0.00000000000E+00  0.00000000000E+00 -0.30484225223E+03  0.27014807876E+04  0.26842260797E+04 0.  0.
        5    1    3    3  502    0  0.49264273491E+02 -0.70375765680E+03  0.99664641832E+03  0.12210765665E+04  0.46999998093E+01 0. -1.
       -5    1    3    3    0  502 -0.49264273491E+02  0.70375765680E+03 -0.13014886705E+04  0.14804042210E+04  0.46999998093E+01 0.  1.
</event>
<event>
 5   0  0.2641216E-05  0.2727932E+04  0.7818609E-02  0.8325998E-01
        2   -1    0    0  501    0  0.00000000000E+00  0.00000000000E+00  0.68030238249E+03  0.68030238250E+03  0.25500000920E-02 0. -1.
       -2   -1    0    0    0  501  0.00000000000E+00  0.00000000000E+00 -0.27346716264E+04  0.27346716264E+04  0.25500000920E-02 0.  1.
    10030    2    1    2    0    0  0.00000000000E+00  0.00000000000E+00 -0.20543692439E+04  0.34149740089E+04  0.27279322739E+04 0.  0.
        5    1    3    3  502    0 -0.10040226196E+04 -0.83774243510E+03 -0.54152363992E+03  0.14153246097E+04  0.46999998093E+01 0. -1.
       -5    1    3    3    0  502  0.10040226196E+04  0.83774243510E+03 -0.15128456039E+04  0.19996493992E+04  0.46999998093E+01 0.  1.
</event>
<event>
 5   0  0.9971923E-06  0.2759408E+04  0.7818609E-02  0.8315982E-01
       -1   -1    0    0    0  501  0.00000000000E+00  0.00000000000E+00  0.96827531405E+03  0.96827531407E+03  0.50400001928E-02 0. -1.
        1   -1    0    0  501    0  0.00000000000E+00  0.00000000000E+00 -0.19659526804E+04  0.19659526804E+04  0.50400001928E-02 0.  1.
    10030    2    1    2    0    0  0.00000000000E+00  0.00000000000E+00 -0.99767736631E+03  0.29342279944E+04  0.27594082330E+04 0.  0.
        2    1    3    3  502    0  0.13156694506E+04  0.26583766196E+03 -0.15935103547E+03  0.13516835866E+04  0.25500000920E-02 0. -1.
       -2    1    3    3    0  502 -0.13156694506E+04 -0.26583766196E+03 -0.83832633084E+03  0.15825444078E+04  0.25500000920E-02 0.  1.
</event>
<event>
 5   0  0.2641216E-05  0.2589277E+04  0.7818609E-02  0.8371853E-01
       -2   -1    0    0    0  501  0.00000000000E+00  0.00000000000E+00  0.16839624239E+04  0.16839624239E+04  0.25500000920E-02 0.  1.
        2   -1    0    0  501    0  0.00000000000E+00  0.00000000000E+00 -0.99532436189E+03  0.99532436190E+03  0.25500000920E-02 0. -1.
    10030    2    1    2    0    0  0.00000000000E+00  0.00000000000E+00  0.68863806203E+03  0.26792867858E+04  0.25892769841E+04 0.  0.
        5    1    3    3  502    0 -0.69539003920E+03  0.10495122065E+04  0.65650802796E+03  0.14198831145E+04  0.46999998093E+01 0.  1.
       -5    1    3    3    0  502  0.69539003920E+03 -0.10495122065E+04  0.32130034063E+02  0.12594036713E+04  0.46999998093E+01 0. -1.
</event>
<event>
 5   0  0.1005265E-05  0.2676412E+04  0.7818609E-02  0.8342699E-01
        1   -1    0    0  501    0  0.00000000000E+00  0.00000000000E+00  0.16430618422E+04  0.16430618422E+04  0.50400001928E-02 0. -1.
       -1   -1    0    0    0  501  0.00000000000E+00  0.00000000000E+00 -0.10899131237E+04  0.10899131237E+04  0.50400001928E-02 0.  1.
    10030    2    1    2    0    0  0.00000000000E+00  0.00000000000E+00  0.55314871849E+03  0.27329749659E+04  0.26764115265E+04 0.  0.
        3    1    3    3  502    0 -0.11281728538E+04 -0.71969902664E+03  0.28407657536E+03  0.13680059166E+04  0.10100000352E+00 0. -1.
       -3    1    3    3    0  502  0.11281728538E+04  0.71969902664E+03  0.26907214313E+03  0.13649690493E+04  0.10100000352E+00 0.  1.
</event>
<event>
 5   0  0.1036691E-05  0.2265422E+04  0.7818609E-02  0.8491681E-01
       -1   -1    0    0    0  501  0.00000000000E+00  0.00000000000E+00  0.14570796833E+04  0.14570796833E+04  0.50400001928E-02 0. -1.
        1   -1    0    0  501    0  0.00000000000E+00  0.00000000000E+00 -0.88055177357E+03  0.88055177359E+03  0.50400001928E-02 0.  1.
    10030    2    1    2    0    0  0.00000000000E+00  0.00000000000E+00  0.57652790972E+03  0.23376314569E+04  0.22654219028E+04 0.  0.
        4    1    3    3  502    0  0.84655711994E+03 -0.33281966610E+03  0.98476375703E+03  0.13405928381E+04  0.12699999809E+01 0.  1.
       -4    1    3    3    0  502 -0.84655711994E+03  0.33281966610E+03 -0.40823584731E+03  0.99703861881E+03  0.12699999809E+01 0. -1.
</event>
<event>
 5   0  0.1005265E-05  0.2695971E+04  0.7818609E-02  0.8336314E-01
       -1   -1    0    0    0  501  0.00000000000E+00  0.00000000000E+00  0.11177969332E+04  0.11177969332E+04  0.50400001928E-02 0.  1.
        1   -1    0    0  501    0  0.00000000000E+00  0.00000000000E+00 -0.16255764671E+04  0.16255764672E+04  0.50400001928E-02 0. -1.
    10030    2    1    2    0    0  0.00000000000E+00  0.00000000000E+00 -0.50777953395E+03  0.27433734004E+04  0.26959706153E+04 0.  0.
        3    1    3    3  502    0  0.29595148420E+03  0.12716973831E+04 -0.59483751663E+03  0.14347937819E+04  0.10100000352E+00 0. -1.
       -3    1    3    3    0  502 -0.29595148420E+03 -0.12716973831E+04  0.87057982680E+02  0.13085796184E+04  0.10100000352E+00 0.  1.
</event>
<event>
 5   0  0.1005265E-05  0.2127325E+04  0.7818609E-02  0.8549301E-01
        1   -1    0    0  501    0  0.00000000000E+00  0.00000000000E+00  0.89641382909E+03  0.89641382910E+03  0.50400001928E-02 0.  1.
       -1   -1    0    0    0  501  0.00000000000E+00  0.00000000000E+00 -0.12621160083E+04  0.12621160083E+04  0.50400001928E-02 0. -1.
    10030    2    1    2    0    0  0.00000000000E+00  0.00000000000E+00 -0.36570217916E+03  0.21585298374E+04  0.21273253101E+04 0.  0.
        3    1    3    3  502    0 -0.92435387882E+03 -0.29162700082E+03 -0.62734284526E+03  0.11545715468E+04  0.10100000352E+00 0. -1.
       -3    1    3    3    0  502  0.92435387882E+03  0.29162700082E+03  0.26164066610E+03  0.10039582906E+04  0.10100000352E+00 0.  1.
</event>
<event>
 5   0  0.2540684E-05  0.2838230E+04  0.7818609E-02  0.8291497E-01
        2   -1    0    0  501    0  0.00000000000E+00  0.00000000000E+00  0.34151248009E+04  0.34151248009E+04  0.25500000920E-02 0. -1.
       -2   -1    0    0    0  501  0.00000000000E+00  0.00000000000E+00 -0.58969645043E+03  0.58969645043E+03  0.25500000920E-02 0.  1.
    10030    2    1    2    0    0  0.00000000000E+00  0.00000000000E+00  0.28254283505E+04  0.40048212514E+04  0.28382297109E+04 0.  0.
        2    1    3    3  502    0 -0.74591972074E+03 -0.26698996015E+03  0.30740202572E+04  0.31744732492E+04  0.25500000920E-02 0. -1.
       -2    1    3    3    0  502  0.74591972074E+03  0.26698996015E+03 -0.24859190665E+03  0.83034800215E+03  0.25500000920E-02 0.  1.
</event>
<event>
 5   0  0.1041909E-05  0.3116183E+04  0.7818609E-02  0.8211311E-01
       -1   -1    0    0    0  501  0.00000000000E+00  0.00000000000E+00  0.13736068912E+04  0.13736068912E+04  0.50400001928E-02 0. -1.
        1   -1    0    0  501    0  0.00000000000E+00  0.00000000000E+00 -0.17673539745E+04  0.17673539746E+04  0.50400001928E-02 0.  1.
    10030    2    1    2    0    0  0.00000000000E+00  0.00000000000E+00 -0.39374708338E+03  0.31409608657E+04  0.31161833056E+04 0.  0.
        5    1    3    3  502    0  0.48845713921E+03 -0.96034215122E+03  0.93758895204E+03  0.14282655766E+04  0.46999998093E+01 0. -1.
       -5    1    3    3    0  502 -0.48845713921E+03  0.96034215122E+03 -0.13313360354E+04  0.17126952891E+04  0.46999998093E+01 0.  1.
</event>
<event>
 5   0  0.9971923E-06  0.2672454E+04  0.7818609E-02  0.8343999E-01
       -1   -1    0    0    0  501  0.00000000000E+00  0.00000000000E+00  0.14363840003E+04  0.14363840003E+04  0.50400001928E-02 0. -1.
        1   -1    0    0  501    0  0.00000000000E+00  0.00000000000E+00 -0.12430534384E+04  0.12430534384E+04  0.50400001928E-02 0.  1.
    10030    2    1    2    0    0  0.00000000000E+00  0.00000000000E+00  0.19333056192E+03  0.26794374388E+04  0.26724536071E+04 0.  0.
        2    1    3    3  502    0  0.11757521811E+04 -0.43496947301E+03  0.56037845426E+03  0.13731772085E+04  0.25500000920E-02 0. -1.
       -2    1    3    3    0  502 -0.11757521811E+04  0.43496947301E+03 -0.36704789234E+03  0.13062602303E+04  0.25500000920E-02 0.  1.
</event>
<event>
 5   0  0.1005265E-05  0.2743612E+04  0.7818609E-02  0.8320992E-01
       -1   -1    0    0    0  501  0.00000000000E+00  0.00000000000E+00  0.14539141190E+04  0.14539141190E+04  0.50400001928E-02 0.  1.
        1   -1    0    0  501    0  0.00000000000E+00  0.00000000000E+00 -0.12943346795E+04  0.12943346795E+04  0.50400001928E-02 0. -1.
    10030    2    1    2    0    0  0.00000000000E+00  0.00000000000E+00  0.15957943950E+03  0.27482487985E+04  0.27436118277E+04 0.  0.
        3    1    3    3  502    0 -0.55976031646E+02  0.12045090661E+04  0.73501759995E+03  0.14121707719E+04  0.10100000352E+00 0.  1.
       -3    1    3    3    0  502  0.55976031646E+02 -0.12045090661E+04 -0.57543816045E+03  0.13360780266E+04  0.10100000352E+00 0. -1.
</event>
<event>
 5   0  0.2540232E-05  0.2680482E+04  0.7818609E-02  0.8341366E-01
       -2   -1    0    0    0  501  0.00000000000E+00  0.00000000000E+00  0.95762026885E+03  0.95762026885E+03  0.25500000920E-02 0.  1.
        2   -1    0    0  501    0  0.00000000000E+00  0.00000000000E+00 -0.18757398087E+04  0.18757398087E+04  0.25500000920E-02 0. -1.
    10030    2    1    2    0    0  0.00000000000E+00  0.00000000000E+00 -0.91811953984E+03  0.28333600775E+04  0.26804823893E+04 0.  0.
        1    1    3    3  502    0  0.25757714233E+03 -0.82090350847E+03  0.62717688283E+03  0.10646968568E+04  0.50400001928E-02 0.  1.
       -1    1    3    3    0  502 -0.25757714233E+03  0.82090350847E+03 -0.15452964227E+04  0.17686632207E+04  0.50400001928E-02 0. -1.
</event>
<event>
 5   0  0.2540684E-05  0.2675756E+04  0.7818609E-02  0.8342914E-01
       -2   -1    0    0    0  501  0.00000000000E+00  0.00000000000E+00  0.16615364366E+04  0.16615364366E+04  0.25500000920E-02 0. -1.
        2   -1    0    0  501    0  0.00000000000E+00  0.00000000000E+00 -0.10772667219E+04  0.10772667219E+04  0.25500000920E-02 0.  1.
    10030    2    1    2    0    0  0.00000000000E+00  0.00000000000E+00  0.58426971470E+03  0.27388031586E+04  0.26757562748E+04 0.  0.
        2    1    3    3  502    0 -0.77090690309E+03  0.15118234460E+03 -0.81632417463E+03  0.11329336753E+04  0.25500000920E-02 0.  1.
       -2    1    3    3    0  502  0.77090690309E+03 -0.15118234460E+03  0.14005938893E+04  0.16058694833E+04  0.25500000920E-02 0. -1.
</event>
<event>
 5   0  0.1005265E-05  0.2688184E+04  0.7818609E-02  0.8338849E-01
       -1   -1    0    0    0  501  0.00000000000E+00  0.00000000000E+00  0.99704930423E+03  0.99704930424E+03  0.50400001928E-02 0.  1.
        1   -1    0    0  501    0  0.00000000000E+00  0.00000000000E+00 -0.18119300557E+04  0.18119300558E+04  0.50400001928E-02 0. -1.
    10030    2    1    2    0    0  0.00000000000E+00  0.00000000000E+00 -0.81488075151E+03  0.28089793600E+04  0.26881842209E+04 0.  0.
        3    1    3    3  502    0 -0.62766047275E+03 -0.80633307081E+03 -0.13198629700E+04  0.16691821231E+04  0.10100000352E+00 0. -1.
       -3    1    3    3    0  502  0.62766047275E+03  0.80633307081E+03  0.50498221850E+03  0.11397972369E+04  0.10100000352E+00 0.  1.
</event>
<event>
 5   0  0.2540232E-05  0.2695110E+04  0.7818609E-02  0.8336593E-01
        2   -1    0    0  501    0  0.00000000000E+00  0.00000000000E+00  0.18003834713E+04  0.18003834713E+04  0.25500000920E-02 0. -1.
       -2   -1    0    0    0  501  0.00000000000E+00  0.00000000000E+00 -0.10086211383E+04  0.10086211383E+04  0.25500000920E-02 0.  1.
    10030    2    1    2    0    0  0.00000000000E+00  0.00000000000E+00  0.79176233300E+03  0.28090046097E+04  0.26951102585E+04 0.  0.
        1    1    3    3  502    0 -0.25562979488E+03 -0.10413836869E+04 -0.45474461456E+03  0.11647399881E+04  0.50400001928E-02 0.  1.
       -1    1    3    3    0  502  0.25562979488E+03  0.10413836869E+04  0.12465069476E+04  0.16442646216E+04  0.50400001928E-02 0. -1.
</event>
<event>
 5   0  0.1096672E-05  0.2656680E+04  0.7818609E-02  0.8349199E-01
        1   -1    0    0  501    0  0.00000000000E+00  0.00000000000E+00  0.13953055484E+04  0.13953055484E+04  0.50400001928E-02 0.  1.
       -1   -1    0    0    0  501  0.00000000000E+00  0.00000000000E+00 -0.12645881437E+04  0.12645881437E+04  0.50400001928E-02 0. -1.
    10030    2    1    2    0    0  0.00000000000E+00  0.00000000000E+00  0.13071740471E+03  0.26598936921E+04  0.26566797725E+04 0.  0.
        1    1    3    3  502    0 -0.11580531977E+04 -0.55136053853E+03  0.41132151429E+03  0.13469487890E+04  0.50400001928E-02 0.  1.
       -1    1    3    3    0  502  0.11580531977E+04  0.55136053853E+03 -0.28060410959E+03  0.13129449031E+04  0.50400001928E-02 0. -1.
</event>
<event>
 5   0  0.1005265E-05  0.2710785E+04  0.7818609E-02  0.8331514E-01
        1   -1    0    0  501    0  0.00000000000E+00  0.00000000000E+00  0.14212830107E+04  0.14212830107E+04  0.50400001928E-02 0.  1.
       -1   -1    0    0    0  501  0.00000000000E+00  0.00000000000E+00 -0.12925562255E+04  0.12925562255E+04  0.50400001928E-02 0. -1.
    10030    2    1    2    0    0  0.00000000000E+00  0.00000000000E+00  0.12872678519E+03  0.27138392362E+04  0.27107845386E+04 0.  0.
        3    1    3    3  502    0  0.11323112501E+04 -0.57448088634E+03  0.53916688746E+03  0.13794411907E+04  0.10100000352E+00 0. -1.
       -3    1    3    3    0  502 -0.11323112501E+04  0.57448088634E+03 -0.41044010227E+03  0.13343980455E+04  0.10100000352E+00 0.  1.
</event>
<event>
 5   0  0.2516518E-05  0.2534064E+04  0.7818609E-02  0.8390950E-01
        2   -1    0    0  501    0  0.00000000000E+00  0.00000000000E+00  0.23075361278E+04  0.23075361278E+04  0.25500000920E-02 0.  1.
       -2   -1    0    0    0  501  0.00000000000E+00  0.00000000000E+00 -0.69570725222E+03  0.69570725223E+03  0.25500000920E-02 0. -1.
    10030    2    1    2    0    0  0.00000000000E+00  0.00000000000E+00  0.16118288756E+04  0.30032433801E+04  0.25340636290E+04 0.  0.
        4    1    3    3  502    0 -0.49725732043E+03  0.10595771430E+04  0.23090400202E+03  0.11930158573E+04  0.12699999809E+01 0. -1.
       -4    1    3    3    0  502  0.49725732043E+03 -0.10595771430E+04  0.13809248736E+04  0.18102275228E+04  0.12699999809E+01 0.  1.
</event>
<event>
 5   0  0.2641216E-05  0.2753622E+04  0.7818609E-02  0.8317813E-01
       -2   -1    0    0    0  501  0.00000000000E+00  0.00000000000E+00  0.27816278957E+04  0.27816278957E+04  0.25500000920E-02 0. -1.
        2   -1    0    0  501    0  0.00000000000E+00  0.00000000000E+00 -0.68147433800E+03  0.68147433801E+03  0.25500000920E-02 0.  1.
    10030    2    1    2    0    0  0.00000000000E+00  0.00000000000E+00  0.21001535577E+04  0.34631022337E+04  0.27536216362E+04 0.  0.
        5    1    3    3  502    0  0.13178252630E+04 -0.33428044520E+03  0.13232485813E+04  0.18972126233E+04  0.46999998093E+01 0.  1.
       -5    1    3    3    0  502 -0.13178252630E+04  0.33428044520E+03  0.77690497635E+03  0.15658896104E+04  0.46999998093E+01 0. -1.
</event>
<event>
 5   0  0.2540232E-05  0.2719709E+04  0.7818609E-02  0.8328638E-01
        2   -1    0    0  501    0  0.00000000000E+00  0.00000000000E+00  0.26514538699E+04  0.26514538699E+04  0.25500000920E-02 0.  1.
       -2   -1    0    0    0  501  0.00000000000E+00  0.00000000000E+00 -0.69743031555E+03  0.69743031556E+03  0.25500000920E-02 0. -1.
    10030    2    1    2    0    0  0.00000000000E+00  0.00000000000E+00  0.19540235543E+04  0.33488841854E+04  0.27197090353E+04 0.  0.
        1    1    3    3  502    0  0.72305729639E+03  0.84238899867E+03  0.19440428795E+04  0.22386901966E+04  0.50400001928E-02 0.  1.
       -1    1    3    3    0  502 -0.72305729639E+03 -0.84238899867E+03  0.99806748104E+01  0.11101939888E+04  0.50400001928E-02 0. -1.
</event>
<event>
 5   0  0.2641216E-05  0.2726012E+04  0.7818609E-02  0.8326614E-01
        2   -1    0    0  501    0  0.00000000000E+00  0.00000000000E+00  0.16112135426E+04  0.16112135426E+04  0.25500000920E-02 0.  1.
       -2   -1    0    0    0  501  0.00000000000E+00  0.00000000000E+00 -0.11530352063E+04  0.11530352063E+04  0.25500000920E-02 0. -1.
    10030    2    1    2    0    0  0.00000000000E+00  0.00000000000E+00  0.45817833627E+03  0.27642487488E+04  0.27260124280E+04 0.  0.
        5    1    3    3  502    0  0.10431545340E+04 -0.80279104379E+03  0.58777228567E+03  0.14415766340E+04  0.46999998093E+01 0.  1.
       -5    1    3    3    0  502 -0.10431545340E+04  0.80279104379E+03 -0.12959394940E+03  0.13226721149E+04  0.46999998093E+01 0. -1.
</event>
<event>
 5   0  0.2516518E-05  0.1944152E+04  0.7818609E-02  0.8633186E-01
       -2   -1    0    0    0  501  0.00000000000E+00  0.00000000000E+00  0.13340952609E+04  0.13340952609E+04  0.25500000920E-02 0.  1.
        2   -1    0    0  501    0  0.00000000000E+00  0.00000000000E+00 -0.70829403440E+03  0.70829403441E+03  0.25500000920E-02 0. -1.
    10030    2    1    2    0    0  0.00000000000E+00  0.00000000000E+00  0.62580122653E+03  0.20423892953E+04  0.19441519639E+04 0.  0.
        4    1    3    3  502    0 -0.89856594276E+02 -0.88064851603E+03  0.73483455449E+03  0.11504779232E+04  0.12699999809E+01 0.  1.
       -4    1    3    3    0  502  0.89856594276E+02  0.88064851603E+03 -0.10903332796E+03  0.89191137218E+03  0.12699999809E+01 0. -1.
</event>
<event>
 5   0  0.1005265E-05  0.2708840E+04  0.7818609E-02  0.8332142E-01
        1   -1    0    0  501    0  0.00000000000E+00  0.00000000000E+00  0.15421546391E+04  0.15421546391E+04  0.50400001928E-02 0.  1.
       -1   -1    0    0    0  501  0.00000000000E+00  0.00000000000E+00 -0.11895397166E+04  0.11895397166E+04  0.50400001928E-02 0. -1.
    10030    2    1    2    0    0  0.00000000000E+00  0.00000000000E+00  0.35261492249E+03  0.27316943557E+04  0.27088404843E+04 0.  0.
        3    1    3    3  502    0 -0.86666435299E+03  0.24378148137E+03  0.11967327028E+04  0.14975665873E+04  0.10100000352E+00 0.  1.
       -3    1    3    3    0  502  0.86666435299E+03 -0.24378148137E+03 -0.84411778029E+03  0.12341277683E+04  0.10100000352E+00 0. -1.
</event>
<event>
 5   0  0.1005265E-05  0.2717611E+04  0.7818609E-02  0.8329313E-01
       -1   -1    0    0    0  501  0.00000000000E+00  0.00000000000E+00  0.76962064099E+03  0.76962064101E+03  0.50400001928E-02 0. -1.
        1   -1    0    0  501    0  0.00000000000E+00  0.00000000000E+00 -0.23990430414E+04  0.23990430414E+04  0.50400001928E-02 0.  1.
    10030    2    1    2    0    0  0.00000000000E+00  0.00000000000E+00 -0.16294224004E+04  0.31686636824E+04  0.27176114831E+04 0.  0.
        3    1    3    3  502    0  0.10721632357E+03  0.13411475672E+04 -0.59292810708E+03  0.14702842880E+04  0.10100000352E+00 0. -1.
       -3    1    3    3    0  502 -0.10721632357E+03 -0.13411475672E+04 -0.10364942933E+04  0.16983793944E+04  0.10100000352E+00 0.  1.
</event>
<event>
 5   0  0.2615843E-05  0.1679924E+04  0.7818609E-02  0.8772898E-01
        2   -1    0    0  501    0  0.00000000000E+00  0.00000000000E+00  0.78875773060E+03  0.78875773060E+03  0.25500000920E-02 0. -1.
       -2   -1    0    0    0  501  0.00000000000E+00  0.00000000000E+00 -0.89449034844E+03  0.89449034845E+03  0.25500000920E-02 0.  1.
    10030    2    1    2    0    0  0.00000000000E+00  0.00000000000E+00 -0.10573261784E+03  0.16832480791E+04  0.16799240189E+04 0.  0.
        3    1    3    3  502    0 -0.52510043764E+03 -0.36320163844E+03 -0.59973951418E+03  0.87597568165E+03  0.10100000352E+00 0.  1.
       -3    1    3    3    0  502  0.52510043764E+03  0.36320163844E+03  0.49400689633E+03  0.80727239740E+03  0.10100000352E+00 0. -1.
</event>
<event>
 5   0  0.2516518E-05  0.2702313E+04  0.7818609E-02  0.8334255E-01
       -2   -1    0    0    0  501  0.00000000000E+00  0.00000000000E+00  0.15874877988E+04  0.15874877988E+04  0.25500000920E-02 0.  1.
        2   -1    0    0  501    0  0.00000000000E+00  0.00000000000E+00 -0.11500077440E+04  0.11500077440E+04  0.25500000920E-02 0. -1.
    10030    2    1    2    0    0  0.00000000000E+00  0.00000000000E+00  0.43748005478E+03  0.27374955428E+04  0.27023125372E+04 0.  0.
        4    1    3    3  502    0  0.62568754518E+02 -0.12123142157E+04 -0.38228121169E+03  0.12726983713E+04  0.12699999809E+01 0. -1.
       -4    1    3    3    0  502 -0.62568754518E+02  0.12123142157E+04  0.81976126647E+03  0.14647971715E+04  0.12699999809E+01 0.  1.
</event>
<event>
 5   0  0.9971923E-06  0.2297600E+04  0.7818609E-02  0.8478868E-01
        1   -1    0    0  501    0  0.00000000000E+00  0.00000000000E+00  0.15900032450E+04  0.15900032450E+04  0.50400001928E-02 0.  1.
       -1   -1    0    0    0  501  0.00000000000E+00  0.00000000000E+00 -0.83002463003E+03  0.83002463005E+03  0.50400001928E-02 0. -1.
    10030    2    1    2    0    0  0.00000000000E+00  0.00000000000E+00  0.75997861493E+03  0.24200278750E+04  0.22976003614E+04 0.  0.
        2    1    3    3  502    0 -0.44760593512E+02  0.10052664915E+04  0.96375782107E+03  0.13933389277E+04  0.25500000920E-02 0.  1.
       -2    1    3    3    0  502  0.44760593512E+02 -0.10052664915E+04 -0.20377920614E+03  0.10266889473E+04  0.25500000920E-02 0. -1.
</event>
<event>
 5   0  0.1096672E-05  0.2622882E+04  0.7818609E-02  0.8360470E-01
        1   -1    0    0  501    0  0.00000000000E+00  0.00000000000E+00  0.17268426561E+04  0.17268426561E+04  0.50400001928E-02 0.  1.
       -1   -1    0    0    0  501  0.00000000000E+00  0.00000000000E+00 -0.99596661893E+03  0.99596661894E+03  0.50400001928E-02 0. -1.
    10030    2    1    2    0    0  0.00000000000E+00  0.00000000000E+00  0.73087603714E+03  0.27228092750E+04  0.26228821107E+04 0.  0.
        1    1    3    3  502    0  0.15239560639E+03  0.74770334614E+03 -0.74177680580E+03  0.10641980757E+04  0.50400001928E-02 0. -1.
       -1    1    3    3    0  502 -0.15239560639E+03 -0.74770334614E+03  0.14726528429E+04  0.16586111993E+04  0.50400001928E-02 0.  1.
</event>
<event>
 5   0  0.9971923E-06  0.2694463E+04  0.7818609E-02  0.8336804E-01
       -1   -1    0    0    0  501  0.00000000000E+00  0.00000000000E+00  0.11189728560E+04  0.11189728560E+04  0.50400001928E-02 0. -1.
        1   -1    0    0  501    0  0.00000000000E+00  0.00000000000E+00 -0.16220519319E+04  0.16220519319E+04  0.50400001928E-02 0.  1.
    10030    2    1    2    0    0  0.00000000000E+00  0.00000000000E+00 -0.50307907592E+03  0.27410247879E+04  0.26944625311E+04 0.  0.
        2    1    3    3  502    0  0.11847520204E+04  0.50582024465E+03 -0.65274119433E+03  0.14441476852E+04  0.25500000920E-02 0.  1.
       -2    1    3    3    0  502 -0.11847520204E+04 -0.50582024465E+03  0.14966211841E+03  0.12968771027E+04  0.25500000920E-02 0. -1.
</event>
<event>
 5   0  0.2516518E-05  0.2536436E+04  0.7818609E-02  0.8390119E-01
       -2   -1    0    0    0  501  0.00000000000E+00  0.00000000000E+00  0.77790078000E+03  0.77790078001E+03  0.25500000920E-02 0. -1.
        2   -1    0    0  501    0  0.00000000000E+00  0.00000000000E+00 -0.20675853862E+04  0.20675853862E+04  0.25500000920E-02 0.  1.
    10030    2    1    2    0    0  0.00000000000E+00  0.00000000000E+00 -0.12896846062E+04  0.28454861662E+04  0.25364355183E+04 0.  0.
        4    1    3    3  502    0 -0.90598190831E+03 -0.27031263398E+03 -0.15931178225E+04  0.18525382985E+04  0.12699999809E+01 0.  1.
       -4    1    3    3    0  502  0.90598190831E+03  0.27031263398E+03  0.30343321630E+03  0.99294786768E+03  0.12699999809E+01 0. -1.
</event>
<event>
 5   0  0.2516518E-05  0.2651116E+04  0.7818609E-02  0.8351043E-01
       -2   -1    0    0    0  501  0.00000000000E+00  0.00000000000E+00  0.11496941583E+04  0.11496941583E+04  0.25500000920E-02 0.  1.
        2   -1    0    0  501    0  0.00000000000E+00  0.00000000000E+00 -0.15283224776E+04  0.15283224776E+04  0.25500000920E-02 0. -1.
    10030    2    1    2    0    0  0.00000000000E+00  0.00000000000E+00 -0.37862831936E+03  0.26780166359E+04  0.26511155573E+04 0.  0.
        4    1    3    3  502    0 -0.20131456642E+03 -0.67630875129E+03 -0.13228327486E+04  0.14992695473E+04  0.12699999809E+01 0. -1.
       -4    1    3    3    0  502  0.20131456642E+03  0.67630875129E+03  0.94420442927E+03  0.11787470886E+04  0.12699999809E+01 0.  1.
</event>
<event>
 5   0  0.2641216E-05  0.2629821E+04  0.7818609E-02  0.8358142E-01
       -2   -1    0    0    0  501  0.00000000000E+00  0.00000000000E+00  0.10931319237E+04  0.10931319237E+04  0.25500000920E-02 0. -1.
        2   -1    0    0  501    0  0.00000000000E+00  0.00000000000E+00 -0.15816847523E+04  0.15816847523E+04  0.25500000920E-02 0.  1.
    10030    2    1    2    0    0  0.00000000000E+00  0.00000000000E+00 -0.48855282857E+03  0.26748166760E+04  0.26298213597E+04 0.  0.
        5    1    3    3  502    0 -0.12399138452E+04 -0.35872776781E+03  0.10805379721E+02  0.12908178807E+04  0.46999998093E+01 0.  1.
       -5    1    3    3    0  502  0.12399138452E+04  0.35872776781E+03 -0.49935820829E+03  0.13839987952E+04  0.46999998093E+01 0. -1.
</event>
<event>
 5   0  0.1005265E-05  0.2580155E+04  0.7818609E-02  0.8374974E-01
       -1   -1    0    0    0  501  0.00000000000E+00  0.00000000000E+00  0.14206719635E+04  0.14206719635E+04  0.50400001928E-02 0. -1.
        1   -1    0    0  501    0  0.00000000000E+00  0.00000000000E+00 -0.11714877340E+04  0.11714877340E+04  0.50400001928E-02 0.  1.
    10030    2    1    2    0    0  0.00000000000E+00  0.00000000000E+00  0.24918422951E+03  0.25921596976E+04  0.25801548631E+04 0.  0.
        3    1    3    3  502    0  0.27582267285E+03  0.53848307326E+03 -0.10201203654E+04  0.11860386744E+04  0.10100000352E+00 0.  1.
       -3    1    3    3    0  502 -0.27582267285E+03 -0.53848307326E+03  0.12693045949E+04  0.14061210232E+04  0.10100000352E+00 0. -1.
</event>
<event>
 5   0  0.9971923E-06  0.2841221E+04  0.7818609E-02  0.8290584E-01
       -1   -1    0    0    0  501  0.00000000000E+00  0.00000000000E+00  0.20653820067E+04  0.20653820067E+04  0.50400001928E-02 0.  1.
        1   -1    0    0  501    0  0.00000000000E+00  0.00000000000E+00 -0.97712382891E+03  0.97712382892E+03  0.50400001928E-02 0. -1.
    10030    2    1    2    0    0  0.00000000000E+00  0.00000000000E+00  0.10882581778E+04  0.30425058356E+04  0.28412208465E+04 0.  0.
        2    1    3    3  502    0  0.67132467770E+03 -0.90786645795E+03  0.14673161154E+04  0.18514629110E+04  0.25500000920E-02 0.  1.
       -2    1    3    3    0  502 -0.67132467770E+03  0.90786645795E+03 -0.37905793755E+03  0.11910429247E+04  0.25500000920E-02 0. -1.
</event>
<event>
 5   0  0.2540232E-05  0.2710437E+04  0.7818609E-02  0.8331627E-01
       -2   -1    0    0    0  501  0.00000000000E+00  0.00000000000E+00  0.13876267089E+04  0.13876267089E+04  0.25500000920E-02 0. -1.
        2   -1    0    0  501    0  0.00000000000E+00  0.00000000000E+00 -0.13235668660E+04  0.13235668660E+04  0.25500000920E-02 0.  1.
    10030    2    1    2    0    0  0.00000000000E+00  0.00000000000E+00  0.64059842950E+02  0.27111935749E+04  0.27104366691E+04 0.  0.
        1    1    3    3  502    0 -0.29661992638E+03 -0.16337052530E+03  0.13446247887E+04  0.13866106634E+04  0.50400001928E-02 0. -1.
       -1    1    3    3    0  502  0.29661992638E+03  0.16337052530E+03 -0.12805649458E+04  0.13245829116E+04  0.50400001928E-02 0.  1.
</event>
<event>
 5   0  0.1036691E-05  0.2659598E+04  0.7818609E-02  0.8348234E-01
       -1   -1    0    0    0  501  0.00000000000E+00  0.00000000000E+00  0.10186177655E+04  0.10186177655E+04  0.50400001928E-02 0.  1.
        1   -1    0    0  501    0  0.00000000000E+00  0.00000000000E+00 -0.17360446075E+04  0.17360446075E+04  0.50400001928E-02 0. -1.
    10030    2    1    2    0    0  0.00000000000E+00  0.00000000000E+00 -0.71742684199E+03  0.27546623730E+04  0.26595983748E+04 0.  0.
        4    1    3    3  502    0  0.13067060063E+04  0.18250158138E+02 -0.10384760952E+03  0.13109536964E+04  0.12699999809E+01 0. -1.
       -4    1    3    3    0  502 -0.13067060063E+04 -0.18250158138E+02 -0.61357923247E+03  0.14437086765E+04  0.12699999809E+01 0.  1.
</event>
<event>
 5   0  0.2516518E-05  0.2691692E+04  0.7818609E-02  0.8337706E-01
        2   -1    0    0  501    0  0.00000000000E+00  0.00000000000E+00  0.24187493551E+04  0.24187493551E+04  0.25500000920E-02 0.  1.
       -2   -1    0    0    0  501  0.00000000000E+00  0.00000000000E+00 -0.74885876787E+03  0.74885876788E+03  0.25500000920E-02 0. -1.
    10030    2    1    2    0    0  0.00000000000E+00  0.00000000000E+00  0.16698905872E+04  0.31676081229E+04  0.26916921532E+04 0.  0.
        4    1    3    3  502    0 -0.75815338304E+03  0.22614032960E+03  0.21161895603E+04  0.22592467482E+04  0.12699999809E+01 0.  1.
       -4    1    3    3    0  502  0.75815338304E+03 -0.22614032960E+03 -0.44629897314E+03  0.90836137479E+03  0.12699999809E+01 0. -1.
</event>
<event>
 5   0  0.8740500E-06  0.2716176E+04  0.7818609E-02  0.8329775E-01
       -3   -1    0    0    0  501  0.00000000000E+00  0.00000000000E+00  0.18923629141E+04  0.18923629168E+04  0.10100000352E+00 0.  1.
        3   -1    0    0  501    0  0.00000000000E+00  0.00000000000E+00 -0.97465638273E+03  0.97465638796E+03  0.10100000352E+00 0. -1.
    10030    2    1    2    0    0  0.00000000000E+00  0.00000000000E+00  0.91770653140E+03  0.28670193048E+04  0.27161764332E+04 0.  0.
        5    1    3    3  502    0  0.82550171597E+02 -0.47022437405E+03 -0.88315313478E+03  0.10039457367E+04  0.46999998093E+01 0. -1.
       -5    1    3    3    0  502 -0.82550171597E+02  0.47022437405E+03  0.18008596662E+04  0.18630735681E+04  0.46999998093E+01 0.  1.
</event>
<event>
 5   0  0.2540684E-05  0.2704019E+04  0.7818609E-02  0.8333702E-01
        2   -1    0    0  501    0  0.00000000000E+00  0.00000000000E+00  0.14830817302E+04  0.14830817302E+04  0.25500000920E-02 0.  1.
       -2   -1    0    0    0  501  0.00000000000E+00  0.00000000000E+00 -0.12325211293E+04  0.12325211293E+04  0.25500000920E-02 0. -1.
    10030    2    1    2    0    0  0.00000000000E+00  0.00000000000E+00  0.25056060093E+03  0.27156028596E+04  0.27040189119E+04 0.  0.
        2    1    3    3  502    0  0.22456394964E+03  0.34784013942E+03  0.14178479444E+04  0.14770628028E+04  0.25500000920E-02 0.  1.
       -2    1    3    3    0  502 -0.22456394964E+03 -0.34784013942E+03 -0.11672873434E+04  0.12385400568E+04  0.25500000920E-02 0. -1.
</event>
<event>
 5   0  0.1036691E-05  0.2683959E+04  0.7818609E-02  0.8340228E-01
       -1   -1    0    0    0  501  0.00000000000E+00  0.00000000000E+00  0.11583573630E+04  0.11583573630E+04  0.50400001928E-02 0.  1.
        1   -1    0    0  501    0  0.00000000000E+00  0.00000000000E+00 -0.15547098663E+04  0.15547098663E+04  0.50400001928E-02 0. -1.
    10030    2    1    2    0    0  0.00000000000E+00  0.00000000000E+00 -0.39635250337E+03  0.27130672293E+04  0.26839594788E+04 0.  0.
        4    1    3    3  502    0  0.64928058009E+03 -0.28247489431E+03 -0.13505177703E+04  0.15248794045E+04  0.12699999809E+01 0. -1.
       -4    1    3    3    0  502 -0.64928058009E+03  0.28247489431E+03  0.95416526689E+03  0.11881878248E+04  0.12699999809E+01 0.  1.
</event>
<event>
 5   0  0.2516518E-05  0.2605348E+04  0.7818609E-02  0.8366387E-01
       -2   -1    0    0    0  501  0.00000000000E+00  0.00000000000E+00  0.16699993951E+04  0.16699993951E+04  0.25500000920E-02 0. -1.
        2   -1    0    0  501    0  0.00000000000E+00  0.00000000000E+00 -0.10161438515E+04  0.10161438515E+04  0.25500000920E-02 0.  1.
    10030    2    1    2    0    0  0.00000000000E+00  0.00000000000E+00  0.65385554367E+03  0.26861432466E+04  0.26053480515E+04 0.  0.
        4    1    3    3  502    0 -0.54488949054E+03  0.11428484697E+04  0.10908394042E+02  0.12661468270E+04  0.12699999809E+01 0.  1.
       -4    1    3    3    0  502  0.54488949054E+03 -0.11428484697E+04  0.64294714963E+03  0.14199964196E+04  0.12699999809E+01 0. -1.
</event>
<event>
 5   0  0.1005265E-05  0.2691159E+04  0.7818609E-02  0.8337879E-01
        1   -1    0    0  501    0  0.00000000000E+00  0.00000000000E+00  0.12975080058E+04  0.12975080058E+04  0.50400001928E-02 0.  1.
       -1   -1    0    0    0  501  0.00000000000E+00  0.00000000000E+00 -0.13954317865E+04  0.13954317865E+04  0.50400001928E-02 0. -1.
    10030    2    1    2    0    0  0.00000000000E+00  0.00000000000E+00 -0.97923780673E+02  0.26929397924E+04  0.26911587947E+04 0.  0.
        3    1    3    3  502    0 -0.12548672095E+03 -0.46927036772E+03 -0.13046318931E+04  0.13921300161E+04  0.10100000352E+00 0. -1.
       -3    1    3    3    0  502  0.12548672095E+03  0.46927036772E+03  0.12067081124E+04  0.13008097762E+04  0.10100000352E+00 0.  1.
</event>
<event>
 5   0  0.2641216E-05  0.2684636E+04  0.7818609E-02  0.8340007E-01
        2   -1    0    0  501    0  0.00000000000E+00  0.00000000000E+00  0.18146359034E+04  0.18146359034E+04  0.25500000920E-02 0. -1.
       -2   -1    0    0    0  501  0.00000000000E+00  0.00000000000E+00 -0.99293624126E+03  0.99293624126E+03  0.25500000920E-02 0.  1.
    10030    2    1    2    0    0  0.00000000000E+00  0.00000000000E+00  0.82169966219E+03  0.28075721447E+04  0.26846361044E+04 0.  0.
        5    1    3    3  502    0  0.33758989140E+03 -0.50937073667E+03  0.16607228298E+04  0.17695897518E+04  0.46999998093E+01 0. -1.
       -5    1    3    3    0  502 -0.33758989140E+03  0.50937073667E+03 -0.83902316765E+03  0.10379823929E+04  0.46999998093E+01 0.  1.
</event>
<event>
 5   0  0.2641216E-05  0.2622572E+04  0.7818609E-02  0.8360574E-01
        2   -1    0    0  501    0  0.00000000000E+00  0.00000000000E+00  0.14208736006E+04  0.14208736006E+04  0.25500000920E-02 0. -1.
       -2   -1    0    0    0  501  0.00000000000E+00  0.00000000000E+00 -0.12101506458E+04  0.12101506458E+04  0.25500000920E-02 0.  1.
    10030    2    1    2    0    0  0.00000000000E+00  0.00000000000E+00  0.21072295479E+03  0.26310242464E+04  0.26225721003E+04 0.  0.
        5    1    3    3  502    0 -0.61476483851E+03  0.10344483856E+04  0.62802974504E+03  0.13573734636E+04  0.46999998093E+01 0. -1.
       -5    1    3    3    0  502  0.61476483851E+03 -0.10344483856E+04 -0.41730679025E+03  0.12736507827E+04  0.46999998093E+01 0.  1.
</event>
<event>
 5   0  0.2540232E-05  0.2521633E+04  0.7818609E-02  0.8395319E-01
        2   -1    0    0  501    0  0.00000000000E+00  0.00000000000E+00  0.25921129242E+04  0.25921129242E+04  0.25500000920E-02 0.  1.
       -2   -1    0    0    0  501  0.00000000000E+00  0.00000000000E+00 -0.61326752830E+03  0.61326752830E+03  0.25500000920E-02 0. -1.
    10030    2    1    2    0    0  0.00000000000E+00  0.00000000000E+00  0.19788453959E+04  0.32053804525E+04  0.25216333485E+04 0.  0.
        1    1    3    3  502    0 -0.47421166170E+03  0.89548663853E+03  0.19431138194E+04  0.21914525628E+04  0.50400001928E-02 0.  1.
       -1    1    3    3    0  502  0.47421166170E+03 -0.89548663853E+03  0.35731576495E+02  0.10139278897E+04  0.50400001928E-02 0. -1.
</event>
<event>
 5   0  0.9971923E-06  0.2713877E+04  0.7818609E-02  0.8330516E-01
        1   -1    0    0  501    0  0.00000000000E+00  0.00000000000E+00  0.19821677715E+04  0.19821677715E+04  0.50400001928E-02 0. -1.
       -1   -1    0    0    0  501  0.00000000000E+00  0.00000000000E+00 -0.92892345514E+03  0.92892345515E+03  0.50400001928E-02 0.  1.
    10030    2    1    2    0    0  0.00000000000E+00  0.00000000000E+00  0.10532443164E+04  0.29110912267E+04  0.27138770311E+04 0.  0.
        2    1    3    3  502    0 -0.44621678541E+03  0.11814342795E+04  0.10590655615E+04  0.16481857420E+04  0.25500000920E-02 0. -1.
       -2    1    3    3    0  502  0.44621678541E+03 -0.11814342795E+04 -0.58212451389E+01  0.12629054847E+04  0.25500000920E-02 0.  1.
</event>
<event>
 5   0  0.1005265E-05  0.2628521E+04  0.7818609E-02  0.8358577E-01
       -1   -1    0    0    0  501  0.00000000000E+00  0.00000000000E+00  0.12454898465E+04  0.12454898465E+04  0.50400001928E-02 0.  1.
        1   -1    0    0  501    0  0.00000000000E+00  0.00000000000E+00 -0.13868278806E+04  0.13868278806E+04  0.50400001928E-02 0. -1.
    10030    2    1    2    0    0  0.00000000000E+00  0.00000000000E+00 -0.14133803413E+03  0.26323177271E+04  0.26285205300E+04 0.  0.
        3    1    3    3  502    0 -0.47125315055E+03  0.40105542685E+03 -0.12318072517E+04  0.13785042992E+04  0.10100000352E+00 0. -1.
       -3    1    3    3    0  502  0.47125315055E+03 -0.40105542685E+03  0.10904692176E+04  0.12538134279E+04  0.10100000352E+00 0.  1.
</event>
<event>
 5   0  0.1005265E-05  0.1743447E+04  0.7818609E-02  0.8736966E-01
        1   -1    0    0  501    0  0.00000000000E+00  0.00000000000E+00  0.96463111862E+03  0.96463111863E+03  0.50400001928E-02 0.  1.
       -1   -1    0    0    0  501  0.00000000000E+00  0.00000000000E+00 -0.78776428022E+03  0.78776428024E+03  0.50400001928E-02 0. -1.
    10030    2    1    2    0    0  0.00000000000E+00  0.00000000000E+00  0.17686683840E+03  0.17523953989E+04  0.17434470899E+04 0.  0.
        3    1    3    3  502    0  0.15411832730E+03 -0.81386189241E+03 -0.18458228231E+03  0.84864260314E+03  0.10100000352E+00 0. -1.
       -3    1    3    3    0  502 -0.15411832730E+03  0.81386189241E+03  0.36144912071E+03  0.90375279573E+03  0.10100000352E+00 0.  1.
</event>
<event>
 5   0  0.2516518E-05  0.2195366E+04  0.7818609E-02  0.8520359E-01
        2   -1    0    0  501    0  0.00000000000E+00  0.00000000000E+00  0.23484964721E+04  0.23484964721E+04  0.25500000920E-02 0.  1.
       -2   -1    0    0    0  501  0.00000000000E+00  0.00000000000E+00 -0.51305522886E+03  0.51305522887E+03  0.25500000920E-02 0. -1.
    10030    2    1    2    0    0  0.00000000000E+00  0.00000000000E+00  0.18354412432E+04  0.28615517009E+04  0.21953663885E+04 0.  0.
        4    1    3    3  502    0  0.10238425190E+04  0.27721378183E+03  0.12859443804E+04  0.16669599716E+04  0.12699999809E+01 0.  1.
       -4    1    3    3    0  502 -0.10238425190E+04 -0.27721378183E+03  0.54949686284E+03  0.11945917293E+04  0.12699999809E+01 0. -1.
</event>
<event>
 5   0  0.1041909E-05  0.2760929E+04  0.7818609E-02  0.8315502E-01
       -1   -1    0    0    0  501  0.00000000000E+00  0.00000000000E+00  0.13421731404E+04  0.13421731404E+04  0.50400001928E-02 0.  1.
        1   -1    0    0  501    0  0.00000000000E+00  0.00000000000E+00 -0.14198484000E+04  0.14198484001E+04  0.50400001928E-02 0. -1.
    10030    2    1    2    0    0  0.00000000000E+00  0.00000000000E+00 -0.77675259658E+02  0.27620215404E+04  0.27609291088E+04 0.  0.
        5    1    3    3  502    0 -0.49553258739E+03  0.11486992980E+04 -0.62267601423E+03  0.13974298305E+04  0.46999998093E+01 0. -1.
       -5    1    3    3    0  502  0.49553258739E+03 -0.11486992980E+04  0.54500075457E+03  0.13645917100E+04  0.46999998093E+01 0.  1.
</event>
<event>
 5   0  0.1036691E-05  0.2856475E+04  0.7818609E-02  0.8285947E-01
        1   -1    0    0  501    0  0.00000000000E+00  0.00000000000E+00  0.14956795471E+04  0.14956795471E+04  0.50400001928E-02 0. -1.
       -1   -1    0    0    0  501  0.00000000000E+00  0.00000000000E+00 -0.13638361875E+04  0.13638361875E+04  0.50400001928E-02 0.  1.
    10030    2    1    2    0    0  0.00000000000E+00  0.00000000000E+00  0.13184335961E+03  0.28595157346E+04  0.28564746743E+04 0.  0.
        4    1    3    3  502    0  0.73180253524E+02  0.83088679884E+03  0.12265230583E+04  0.14832695801E+04  0.12699999809E+01 0. -1.
       -4    1    3    3    0  502 -0.73180253524E+02 -0.83088679884E+03 -0.10946796987E+04  0.13762461544E+04  0.12699999809E+01 0.  1.
</event>
<event>
 5   0  0.9971923E-06  0.2208325E+04  0.7818609E-02  0.8514971E-01
        1   -1    0    0  501    0  0.00000000000E+00  0.00000000000E+00  0.22225740191E+04  0.22225740191E+04  0.50400001928E-02 0. -1.
       -1   -1    0    0    0  501  0.00000000000E+00  0.00000000000E+00 -0.54854187410E+03  0.54854187413E+03  0.50400001928E-02 0.  1.
    10030    2    1    2    0    0  0.00000000000E+00  0.00000000000E+00  0.16740321450E+04  0.27711158932E+04  0.22083250828E+04 0.  0.
        2    1    3    3  502    0  0.52220704804E+03  0.55585322243E+03  0.18389346507E+04  0.19908173335E+04  0.25500000920E-02 0. -1.
       -2    1    3    3    0  502 -0.52220704804E+03 -0.55585322243E+03 -0.16490250569E+03  0.78029855972E+03  0.25500000920E-02 0.  1.
</event>
<event>
 5   0  0.2615843E-05  0.2735832E+04  0.7818609E-02  0.8323472E-01
       -2   -1    0    0    0  501  0.00000000000E+00  0.00000000000E+00  0.10859897904E+04  0.10859897904E+04  0.25500000920E-02 0.  1.
        2   -1    0    0  501    0  0.00000000000E+00  0.00000000000E+00 -0.17230307073E+04  0.17230307073E+04  0.25500000920E-02 0. -1.
    10030    2    1    2    0    0  0.00000000000E+00  0.00000000000E+00 -0.63704091690E+03  0.28090204977E+04  0.27358316883E+04 0.  0.
        3    1    3    3  502    0  0.71023801661E+03  0.21615093496E+03  0.86114311829E+03  0.11369814191E+04  0.10100000352E+00 0.  1.
       -3    1    3    3    0  502 -0.71023801661E+03 -0.21615093496E+03 -0.14981840352E+04  0.16720390786E+04  0.10100000352E+00 0. -1.
</event>
<event>
 5   0  0.2516518E-05  0.2394122E+04  0.7818609E-02  0.8441707E-01
       -2   -1    0    0    0  501  0.00000000000E+00  0.00000000000E+00  0.15546080899E+04  0.15546080899E+04  0.25500000920E-02 0.  1.
        2   -1    0    0  501    0  0.00000000000E+00  0.00000000000E+00 -0.92174690018E+03  0.92174690019E+03  0.25500000920E-02 0. -1.
    10030    2    1    2    0    0  0.00000000000E+00  0.00000000000E+00  0.63286118968E+03  0.24763549901E+04  0.23941221254E+04 0.  0.
        4    1    3    3  502    0  0.11591296815E+04  0.63835751262E+02  0.61851851614E+03  0.13153795610E+04  0.12699999809E+01 0.  1.
       -4    1    3    3    0  502 -0.11591296815E+04 -0.63835751262E+02  0.14342673538E+02  0.11609754291E+04  0.12699999809E+01 0. -1.
</event>
<event>
 5   0  0.2540232E-05  0.2724398E+04  0.7818609E-02  0.8327132E-01
        2   -1    0    0  501    0  0.00000000000E+00  0.00000000000E+00  0.12225235666E+04  0.12225235666E+04  0.25500000920E-02 0. -1.
       -2   -1    0    0    0  501  0.00000000000E+00  0.00000000000E+00 -0.15178323257E+04  0.15178323257E+04  0.25500000920E-02 0.  1.
    10030    2    1    2    0    0  0.00000000000E+00  0.00000000000E+00 -0.29530875912E+03  0.27403558922E+04  0.27243977597E+04 0.  0.
        1    1    3    3  502    0 -0.59559868238E+03 -0.98696201929E+03  0.58237504139E+03  0.12915078423E+04  0.50400001928E-02 0. -1.
       -1    1    3    3    0  502  0.59559868238E+03  0.98696201929E+03 -0.87768380051E+03  0.14488480499E+04  0.50400001928E-02 0.  1.
</event>
<event>
 5   0  0.2615843E-05  0.1794234E+04  0.7818609E-02  0.8709372E-01
       -2   -1    0    0    0  501  0.00000000000E+00  0.00000000000E+00  0.76292142825E+03  0.76292142826E+03  0.25500000920E-02 0.  1.
        2   -1    0    0  501    0  0.00000000000E+00  0.00000000000E+00 -0.10549171019E+04  0.10549171019E+04  0.25500000920E-02 0. -1.
    10030    2    1    2    0    0  0.00000000000E+00  0.00000000000E+00 -0.29199567369E+03  0.18178385302E+04  0.17942339447E+04 0.  0.
        3    1    3    3  502    0  0.46549373495E+03  0.20951012491E+03  0.60143373981E+03  0.78886086435E+03  0.10100000352E+00 0.  1.
       -3    1    3    3    0  502 -0.46549373495E+03 -0.20951012491E+03 -0.89342941350E+03  0.10289776659E+04  0.10100000352E+00 0. -1.
</event>
<event>
 5   0  0.1041909E-05  0.2713105E+04  0.7818609E-02  0.8330765E-01
       -1   -1    0    0    0  501  0.00000000000E+00  0.00000000000E+00  0.78204252085E+03  0.78204252087E+03  0.50400001928E-02 0. -1.
        1   -1    0    0  501    0  0.00000000000E+00  0.00000000000E+00 -0.23531141251E+04  0.23531141251E+04  0.50400001928E-02 0.  1.
    10030    2    1    2    0    0  0.00000000000E+00  0.00000000000E+00 -0.15710716042E+04  0.31351566459E+04  0.27131054548E+04 0.  0.
        5    1    3    3  502    0  0.26143402860E+03  0.76500559309E+02 -0.23211762190E+04  0.23371095859E+04  0.46999998093E+01 0.  1.
       -5    1    3    3    0  502 -0.26143402860E+03 -0.76500559309E+02  0.75010461479E+03  0.79804706003E+03  0.46999998093E+01 0. -1.
</event>
<event>
 5   0  0.1036691E-05  0.2050277E+04  0.7818609E-02  0.8583469E-01
       -1   -1    0    0    0  501  0.00000000000E+00  0.00000000000E+00  0.15581370908E+04  0.15581370908E+04  0.50400001928E-02 0. -1.
        1   -1    0    0  501    0  0.00000000000E+00  0.00000000000E+00 -0.67446470326E+03  0.67446470328E+03  0.50400001928E-02 0.  1.
    10030    2    1    2    0    0  0.00000000000E+00  0.00000000000E+00  0.88367238757E+03  0.22326017941E+04  0.20502765381E+04 0.  0.
        4    1    3    3  502    0 -0.86304463279E+02 -0.97086201695E+03  0.95966219647E+02  0.97940422940E+03  0.12699999809E+01 0. -1.
       -4    1    3    3    0  502  0.86304463279E+02  0.97086201695E+03  0.78770616793E+03  0.12531975647E+04  0.12699999809E+01 0.  1.
</event>
<event>
 5   0  0.1041909E-05  0.2020405E+04  0.7818609E-02  0.8597140E-01
       -1   -1    0    0    0  501  0.00000000000E+00  0.00000000000E+00  0.57829663182E+03  0.57829663184E+03  0.50400001928E-02 0. -1.
        1   -1    0    0  501    0  0.00000000000E+00  0.00000000000E+00 -0.17646811389E+04  0.17646811389E+04  0.50400001928E-02 0.  1.
    10030    2    1    2    0    0  0.00000000000E+00  0.00000000000E+00 -0.11863845071E+04  0.23429777708E+04  0.20204050672E+04 0.  0.
        5    1    3    3  502    0 -0.64954145484E+03 -0.76872412510E+03 -0.69459557308E+03  0.12228352228E+04  0.46999998093E+01 0. -1.
       -5    1    3    3    0  502  0.64954145484E+03  0.76872412510E+03 -0.49178893402E+03  0.11201425479E+04  0.46999998093E+01 0.  1.
</event>
<event>
 5   0  0.1096672E-05  0.2729325E+04  0.7818609E-02  0.8325552E-01
       -1   -1    0    0    0  501  0.00000000000E+00  0.00000000000E+00  0.11234837548E+04  0.11234837549E+04  0.50400001928E-02 0.  1.
        1   -1    0    0  501    0  0.00000000000E+00  0.00000000000E+00 -0.16576157487E+04  0.16576157487E+04  0.50400001928E-02 0. -1.
    10030    2    1    2    0    0  0.00000000000E+00  0.00000000000E+00 -0.53413199389E+03  0.27810995036E+04  0.27293254592E+04 0.  0.
        1    1    3    3  502    0 -0.95500685481E+03 -0.86712728344E+03 -0.72088687424E+03  0.14777096142E+04  0.50400001928E-02 0. -1.
       -1    1    3    3    0  502  0.95500685481E+03  0.86712728344E+03  0.18675488034E+03  0.13033898894E+04  0.50400001928E-02 0.  1.
</event>
<event>
 5   0  0.2516518E-05  0.2669407E+04  0.7818609E-02  0.8345000E-01
        2   -1    0    0  501    0  0.00000000000E+00  0.00000000000E+00  0.12248590047E+04  0.12248590047E+04  0.25500000920E-02 0.  1.
       -2   -1    0    0    0  501  0.00000000000E+00  0.00000000000E+00 -0.14543985173E+04  0.14543985173E+04  0.25500000920E-02 0. -1.
    10030    2    1    2    0    0  0.00000000000E+00  0.00000000000E+00 -0.22953951257E+03  0.26792575219E+04  0.26694067657E+04 0.  0.
        4    1    3    3  502    0 -0.56262610933E+03 -0.71407973283E+03 -0.10956034193E+04  0.14236595341E+04  0.12699999809E+01 0. -1.
       -4    1    3    3    0  502  0.56262610933E+03  0.71407973283E+03  0.86606390671E+03  0.12555979879E+04  0.12699999809E+01 0.  1.
</event>
<event>
 5   0  0.2540232E-05  0.2732062E+04  0.7818609E-02  0.8324676E-01
       -2   -1    0    0    0  501  0.00000000000E+00  0.00000000000E+00  0.81050575419E+03  0.81050575419E+03  0.25500000920E-02 0. -1.
        2   -1    0    0  501    0  0.00000000000E+00  0.00000000000E+00 -0.23023168573E+04  0.23023168573E+04  0.25500000920E-02 0.  1.
    10030    2    1    2    0    0  0.00000000000E+00  0.00000000000E+00 -0.14918111031E+04  0.31128226115E+04  0.27320622693E+04 0.  0.
        1    1    3    3  502    0 -0.12535801665E+04 -0.33341623681E+03 -0.25795367882E+03  0.13225618025E+04  0.50400001928E-02 0. -1.
       -1    1    3    3    0  502  0.12535801665E+04  0.33341623681E+03 -0.12338574243E+04  0.17902608090E+04  0.50400001928E-02 0.  1.
</event>
<event>
 5   0  0.2540684E-05  0.2729541E+04  0.7818609E-02  0.8325483E-01
        2   -1    0    0  501    0  0.00000000000E+00  0.00000000000E+00  0.16277746571E+04  0.16277746571E+04  0.25500000920E-02 0. -1.
       -2   -1    0    0    0  501  0.00000000000E+00  0.00000000000E+00 -0.11442605546E+04  0.11442605546E+04  0.25500000920E-02 0.  1.
    10030    2    1    2    0    0  0.00000000000E+00  0.00000000000E+00  0.48351410251E+03  0.27720352117E+04  0.27295408639E+04 0.  0.
        2    1    3    3  502    0  0.21008722698E+03 -0.93896704947E+03  0.12247110157E+04  0.15574700109E+04  0.25500000920E-02 0. -1.
       -2    1    3    3    0  502 -0.21008722698E+03  0.93896704947E+03 -0.74119691318E+03  0.12145652008E+04  0.25500000920E-02 0.  1.
</event>
<event>
 5   0  0.1005265E-05  0.2759470E+04  0.7818609E-02  0.8315963E-01
       -1   -1    0    0    0  501  0.00000000000E+00  0.00000000000E+00  0.92190929762E+03  0.92190929763E+03  0.50400001928E-02 0.  1.
        1   -1    0    0  501    0  0.00000000000E+00  0.00000000000E+00 -0.20649202410E+04  0.20649202410E+04  0.50400001928E-02 0. -1.
    10030    2    1    2    0    0  0.00000000000E+00  0.00000000000E+00 -0.11430109433E+04  0.29868295386E+04  0.27594703615E+04 0.  0.
        3    1    3    3  502    0 -0.10231135899E+04 -0.27753578832E+03  0.38436500579E+03  0.11276187297E+04  0.10100000352E+00 0.  1.
       -3    1    3    3    0  502  0.10231135899E+04  0.27753578832E+03 -0.15273759491E+04  0.18592108089E+04  0.10100000352E+00 0. -1.
</event>
<event>
 5   0  0.2615843E-05  0.2718861E+04  0.7818609E-02  0.8328911E-01
       -2   -1    0    0    0  501  0.00000000000E+00  0.00000000000E+00  0.96679467222E+03  0.96679467223E+03  0.25500000920E-02 0.  1.
        2   -1    0    0  501    0  0.00000000000E+00  0.00000000000E+00 -0.19115238853E+04  0.19115238853E+04  0.25500000920E-02 0. -1.
    10030    2    1    2    0    0  0.00000000000E+00  0.00000000000E+00 -0.94472921308E+03  0.28783185575E+04  0.27188608704E+04 0.  0.
        3    1    3    3  502    0  0.10963535476E+04 -0.11390044503E+02 -0.13231983193E+04  0.17184221358E+04  0.10100000352E+00 0. -1.
       -3    1    3    3    0  502 -0.10963535476E+04  0.11390044503E+02  0.37846910626E+03  0.11598964217E+04  0.10100000352E+00 0.  1.
</event>
<event>
 5   0  0.2641216E-05  0.2602899E+04  0.7818609E-02  0.8367217E-01
       -2   -1    0    0    0  501  0.00000000000E+00  0.00000000000E+00  0.10373029370E+04  0.10373029370E+04  0.25500000920E-02 0. -1.
        2   -1    0    0  501    0  0.00000000000E+00  0.00000000000E+00 -0.16328604975E+04  0.16328604975E+04  0.25500000920E-02 0.  1.
    10030    2    1    2    0    0  0.00000000000E+00  0.00000000000E+00 -0.59555756051E+03  0.26701634344E+04  0.26028991449E+04 0.  0.
        5    1    3    3  502    0  0.52780586419E+03 -0.68133989337E+03  0.70258599333E+03  0.11119587441E+04  0.46999998093E+01 0. -1.
       -5    1    3    3    0  502 -0.52780586419E+03  0.68133989337E+03 -0.12981435538E+04  0.15582046903E+04  0.46999998093E+01 0.  1.
</event>
<event>
 5   0  0.2540232E-05  0.2730935E+04  0.7818609E-02  0.8325037E-01
        2   -1    0    0  501    0  0.00000000000E+00  0.00000000000E+00  0.26602901140E+04  0.26602901140E+04  0.25500000920E-02 0. -1.
       -2   -1    0    0    0  501  0.00000000000E+00  0.00000000000E+00 -0.70086407730E+03  0.70086407730E+03  0.25500000920E-02 0.  1.
    10030    2    1    2    0    0  0.00000000000E+00  0.00000000000E+00  0.19594260367E+04  0.33611541913E+04  0.27309352069E+04 0.  0.
        1    1    3    3  502    0  0.73427667037E+03 -0.11459998416E+04  0.11146714145E+04  0.17592527470E+04  0.50400001928E-02 0.  1.
       -1    1    3    3    0  502 -0.73427667037E+03  0.11459998416E+04  0.84475462219E+03  0.16019014443E+04  0.50400001928E-02 0. -1.
</event>
<event>
 5   0  0.1005265E-05  0.2697455E+04  0.7818609E-02  0.8335831E-01
       -1   -1    0    0    0  501  0.00000000000E+00  0.00000000000E+00  0.13261085711E+04  0.13261085711E+04  0.50400001928E-02 0.  1.
        1   -1    0    0  501    0  0.00000000000E+00  0.00000000000E+00 -0.13717320723E+04  0.13717320723E+04  0.50400001928E-02 0. -1.
    10030    2    1    2    0    0  0.00000000000E+00  0.00000000000E+00 -0.45623501155E+02  0.26978406434E+04  0.26974548436E+04 0.  0.
        3    1    3    3  502    0  0.11852658555E+04  0.12791083320E+03  0.60803143945E+03  0.13382520581E+04  0.10100000352E+00 0.  1.
       -3    1    3    3    0  502 -0.11852658555E+04 -0.12791083320E+03 -0.65365494061E+03  0.13595885853E+04  0.10100000352E+00 0. -1.
</event>
<event>
 5   0  0.1036691E-05  0.2706349E+04  0.7818609E-02  0.8332948E-01
        1   -1    0    0  501    0  0.00000000000E+00  0.00000000000E+00  0.14614304796E+04  0.14614304796E+04  0.50400001928E-02 0.  1.
       -1   -1    0    0    0  501  0.00000000000E+00  0.00000000000E+00 -0.12529373690E+04  0.12529373690E+04  0.50400001928E-02 0. -1.
    10030    2    1    2    0    0  0.00000000000E+00  0.00000000000E+00  0.20849311058E+03  0.27143678487E+04  0.27063487286E+04 0.  0.
        4    1    3    3  502    0 -0.83119052386E+03 -0.10306982141E+04 -0.17561923772E+03  0.13356871733E+04  0.12699999809E+01 0. -1.
       -4    1    3    3    0  502  0.83119052386E+03  0.10306982141E+04  0.38411234830E+03  0.13786806753E+04  0.12699999809E+01 0.  1.
</event>
<event>
 5   0  0.1005265E-05  0.2858014E+04  0.7818609E-02  0.8285480E-01
        1   -1    0    0  501    0  0.00000000000E+00  0.00000000000E+00  0.17141965428E+04  0.17141965428E+04  0.50400001928E-02 0.  1.
       -1   -1    0    0    0  501  0.00000000000E+00  0.00000000000E+00 -0.11912645589E+04  0.11912645590E+04  0.50400001928E-02 0. -1.
    10030    2    1    2    0    0  0.00000000000E+00  0.00000000000E+00  0.52293198390E+03  0.29054611018E+04  0.28580144076E+04 0.  0.
        3    1    3    3  502    0 -0.17344638946E+03 -0.12837922017E+04  0.87468432530E+03  0.15630990839E+04  0.10100000352E+00 0.  1.
       -3    1    3    3    0  502  0.17344638946E+03  0.12837922017E+04 -0.35175234141E+03  0.13423620179E+04  0.10100000352E+00 0. -1.
</event>
<event>
 5   0  0.2516518E-05  0.2700599E+04  0.7818609E-02  0.8334811E-01
       -2   -1    0    0    0  501  0.00000000000E+00  0.00000000000E+00  0.12411403467E+04  0.12411403467E+04  0.25500000920E-02 0.  1.
        2   -1    0    0  501    0  0.00000000000E+00  0.00000000000E+00 -0.14690590839E+04  0.14690590839E+04  0.25500000920E-02 0. -1.
    10030    2    1    2    0    0  0.00000000000E+00  0.00000000000E+00 -0.22791873715E+03  0.27101994306E+04  0.27005988230E+04 0.  0.
        4    1    3    3  502    0 -0.42804378265E+03 -0.19837984904E+03 -0.13836570667E+04  0.14618770589E+04  0.12699999809E+01 0. -1.
       -4    1    3    3    0  502  0.42804378265E+03  0.19837984904E+03  0.11557383295E+04  0.12483223717E+04  0.12699999809E+01 0.  1.
</event>
<event>
 5   0  0.2641216E-05  0.2744608E+04  0.7818609E-02  0.8320675E-01
       -2   -1    0    0    0  501  0.00000000000E+00  0.00000000000E+00  0.18048863517E+04  0.18048863517E+04  0.25500000920E-02 0. -1.
        2   -1    0    0  501    0  0.00000000000E+00  0.00000000000E+00 -0.10434001509E+04  0.10434001509E+04  0.25500000920E-02 0.  1.
    10030    2    1    2    0    0  0.00000000000E+00  0.00000000000E+00  0.76148620074E+03  0.28482865026E+04  0.27446083085E+04 0.  0.
        5    1    3    3  502    0  0.68642803865E+03  0.98508442811E+03  0.10703928125E+04  0.16085203281E+04  0.46999998093E+01 0. -1.
       -5    1    3    3    0  502 -0.68642803865E+03 -0.98508442811E+03 -0.30890661175E+03  0.12397661745E+04  0.46999998093E+01 0.  1.
</event>
<event>
 5   0  0.2540684E-05  0.2749863E+04  0.7818609E-02  0.8319005E-01
       -2   -1    0    0    0  501  0.00000000000E+00  0.00000000000E+00  0.14805020150E+04  0.14805020150E+04  0.25500000920E-02 0.  1.
        2   -1    0    0  501    0  0.00000000000E+00  0.00000000000E+00 -0.12768885249E+04  0.12768885249E+04  0.25500000920E-02 0. -1.
    10030    2    1    2    0    0  0.00000000000E+00  0.00000000000E+00  0.20361349007E+03  0.27573905400E+04  0.27498625669E+04 0.  0.
        2    1    3    3  502    0 -0.10550286746E+04  0.73589461657E+03  0.58873847198E+03  0.14146516813E+04  0.25500000920E-02 0.  1.
       -2    1    3    3    0  502  0.10550286746E+04 -0.73589461657E+03 -0.38512498191E+03  0.13427388587E+04  0.25500000920E-02 0. -1.
</event>
<event>
 5   0  0.2615843E-05  0.1955829E+04  0.7818609E-02  0.8627555E-01
       -2   -1    0    0    0  501  0.00000000000E+00  0.00000000000E+00  0.52794311515E+03  0.52794311515E+03  0.25500000920E-02 0.  1.
        2   -1    0    0  501    0  0.00000000000E+00  0.00000000000E+00 -0.18114020431E+04  0.18114020431E+04  0.25500000920E-02 0. -1.
    10030    2    1    2    0    0  0.00000000000E+00  0.00000000000E+00 -0.12834589280E+04  0.23393451583E+04  0.19558294787E+04 0.  0.
        3    1    3    3  502    0  0.38662469664E+03  0.52273931471E+03  0.23197383461E+03  0.69032377718E+03  0.10100000352E+00 0.  1.
       -3    1    3    3    0  502 -0.38662469664E+03 -0.52273931471E+03 -0.15154327626E+04  0.16490213811E+04  0.10100000352E+00 0. -1.
</event>
<event>
 5   0  0.2540684E-05  0.2663573E+04  0.7818609E-02  0.8346922E-01
       -2   -1    0    0    0  501  0.00000000000E+00  0.00000000000E+00  0.10563244546E+04  0.10563244546E+04  0.25500000920E-02 0. -1.
        2   -1    0    0  501    0  0.00000000000E+00  0.00000000000E+00 -0.16790821006E+04  0.16790821006E+04  0.25500000920E-02 0.  1.
    10030    2    1    2    0    0  0.00000000000E+00  0.00000000000E+00 -0.62275764595E+03  0.27354065552E+04  0.26635731521E+04 0.  0.
        2    1    3    3  502    0 -0.30959763298E+03  0.32695798011E+03  0.97577952106E+03  0.10746617555E+04  0.25500000920E-02 0. -1.
       -2    1    3    3    0  502  0.30959763298E+03 -0.32695798011E+03 -0.15985371670E+04  0.16607447996E+04  0.25500000920E-02 0.  1.
</event>
<event>
 5   0  0.2615843E-05  0.2709638E+04  0.7818609E-02  0.8331885E-01
        2   -1    0    0  501    0  0.00000000000E+00  0.00000000000E+00  0.15950035222E+04  0.15950035222E+04  0.25500000920E-02 0. -1.
       -2   -1    0    0    0  501  0.00000000000E+00  0.00000000000E+00 -0.11508023913E+04  0.11508023913E+04  0.25500000920E-02 0.  1.
    10030    2    1    2    0    0  0.00000000000E+00  0.00000000000E+00  0.44420113096E+03  0.27458059135E+04  0.27096375163E+04 0.  0.
        3    1    3    3  502    0  0.10538210516E+04 -0.75284086021E+03 -0.18098489688E+03  0.13076940440E+04  0.10100000352E+00 0.  1.
       -3    1    3    3    0  502 -0.10538210516E+04  0.75284086021E+03  0.62518602784E+03  0.14381118695E+04  0.10100000352E+00 0. -1.
</event>
<event>
 5   0  0.2615843E-05  0.2726528E+04  0.7818609E-02  0.8326449E-01
        2   -1    0    0  501    0  0.00000000000E+00  0.00000000000E+00  0.12820287924E+04  0.12820287924E+04  0.25500000920E-02 0. -1.
       -2   -1    0    0    0  501  0.00000000000E+00  0.00000000000E+00 -0.14496465627E+04  0.14496465627E+04  0.25500000920E-02 0.  1.
    10030    2    1    2    0    0  0.00000000000E+00  0.00000000000E+00 -0.16761777033E+03  0.27316753551E+04  0.27265279256E+04 0.  0.
        3    1    3    3  502    0  0.67399939011E+03  0.60819006665E+03  0.93512554146E+03  0.13033150515E+04  0.10100000352E+00 0. -1.
       -3    1    3    3    0  502 -0.67399939011E+03 -0.60819006665E+03 -0.11027433118E+04  0.14283603036E+04  0.10100000352E+00 0.  1.
</event>
<event>
 5   0  0.2516518E-05  0.2706995E+04  0.7818609E-02  0.8332739E-01
        2   -1    0    0  501    0  0.00000000000E+00  0.00000000000E+00  0.15531323596E+04  0.15531323596E+04  0.25500000920E-02 0.  1.
       -2   -1    0    0    0  501  0.00000000000E+00  0.00000000000E+00 -0.11795231563E+04  0.11795231563E+04  0.25500000920E-02 0. -1.
    10030    2    1    2    0    0  0.00000000000E+00  0.00000000000E+00  0.37360920333E+03  0.27326555159E+04  0.27069950742E+04 0.  0.
        4    1    3    3  502    0 -0.35198223094E+03  0.58327571150E+03  0.13674431645E+04  0.15277448961E+04  0.12699999809E+01 0.  1.
       -4    1    3    3    0  502  0.35198223094E+03 -0.58327571150E+03 -0.99383396114E+03  0.12049106198E+04  0.12699999809E+01 0. -1.
</event>
<event>
 5   0  0.1005265E-05  0.2031518E+04  0.7818609E-02  0.8592025E-01
       -1   -1    0    0    0  501  0.00000000000E+00  0.00000000000E+00  0.99322012063E+03  0.99322012065E+03  0.50400001928E-02 0.  1.
        1   -1    0    0  501    0  0.00000000000E+00  0.00000000000E+00 -0.10388097503E+04  0.10388097503E+04  0.50400001928E-02 0. -1.
    10030    2    1    2    0    0  0.00000000000E+00  0.00000000000E+00 -0.45589629625E+02  0.20320298709E+04  0.20315183932E+04 0.  0.
        3    1    3    3  502    0  0.59693056143E+03  0.16773169833E+03  0.78196148670E+03  0.99795981617E+03  0.10100000352E+00 0.  1.
       -3    1    3    3    0  502 -0.59693056143E+03 -0.16773169833E+03 -0.82755111633E+03  0.10340700548E+04  0.10100000352E+00 0. -1.
</event>
<event>
 5   0  0.9971923E-06  0.2662779E+04  0.7818609E-02  0.8347184E-01
        1   -1    0    0  501    0  0.00000000000E+00  0.00000000000E+00  0.19202308970E+04  0.19202308970E+04  0.50400001928E-02 0.  1.
       -1   -1    0    0    0  501  0.00000000000E+00  0.00000000000E+00 -0.92311695877E+03  0.92311695879E+03  0.50400001928E-02 0. -1.
    10030    2    1    2    0    0  0.00000000000E+00  0.00000000000E+00  0.99711393826E+03  0.28433478558E+04  0.26627787785E+04 0.  0.
        2    1    3    3  502    0  0.77291393788E+03 -0.24359728696E+03 -0.62941984698E+03  0.10261115619E+04  0.25500000920E-02 0.  1.
       -2    1    3    3    0  502 -0.77291393788E+03  0.24359728696E+03  0.16265337852E+04  0.18172362940E+04  0.25500000920E-02 0. -1.
</event>
<event>
 5   0  0.9971923E-06  0.1812732E+04  0.7818609E-02  0.8699558E-01
        1   -1    0    0  501    0  0.00000000000E+00  0.00000000000E+00  0.13644920957E+04  0.13644920957E+04  0.50400001928E-02 0. -1.
       -1   -1    0    0    0  501  0.00000000000E+00  0.00000000000E+00 -0.60205511846E+03  0.60205511848E+03  0.50400001928E-02 0.  1.
    10030    2    1    2    0    0  0.00000000000E+00  0.00000000000E+00  0.76243697722E+03  0.19665472142E+04  0.18127321372E+04 0.  0.
        2    1    3    3  502    0 -0.81026359279E+03 -0.27765625954E+03  0.70281711957E+03  0.11079584793E+04  0.25500000920E-02 0.  1.
       -2    1    3    3    0  502  0.81026359279E+03  0.27765625954E+03  0.59619857653E+02  0.85858873489E+03  0.25500000920E-02 0. -1.
</event>
<event>
 5   0  0.1005265E-05  0.2686398E+04  0.7818609E-02  0.8339432E-01
       -1   -1    0    0    0  501  0.00000000000E+00  0.00000000000E+00  0.18894874142E+04  0.18894874142E+04  0.50400001928E-02 0.  1.
        1   -1    0    0  501    0  0.00000000000E+00  0.00000000000E+00 -0.95485359410E+03  0.95485359411E+03  0.50400001928E-02 0. -1.
    10030    2    1    2    0    0  0.00000000000E+00  0.00000000000E+00  0.93463382011E+03  0.28443410083E+04  0.26863982195E+04 0.  0.
        3    1    3    3  502    0 -0.65304099243E+03 -0.11417196094E+04  0.75572424426E+03  0.15169394674E+04  0.10100000352E+00 0.  1.
       -3    1    3    3    0  502  0.65304099243E+03  0.11417196094E+04  0.17890957585E+03  0.13274015409E+04  0.10100000352E+00 0. -1.
</event>
<event>
 5   0  0.2540232E-05  0.2657323E+04  0.7818609E-02  0.8348986E-01
       -2   -1    0    0    0  501  0.00000000000E+00  0.00000000000E+00  0.11282884881E+04  0.11282884881E+04  0.25500000920E-02 0. -1.
        2   -1    0    0  501    0  0.00000000000E+00  0.00000000000E+00 -0.15646193451E+04  0.15646193451E+04  0.25500000920E-02 0.  1.
    10030    2    1    2    0    0  0.00000000000E+00  0.00000000000E+00 -0.43633085698E+03  0.26929078332E+04  0.26573234619E+04 0.  0.
        1    1    3    3  502    0 -0.24203906108E+03 -0.10727111078E+04  0.53750769708E+03  0.12240124805E+04  0.50400001928E-02 0. -1.
       -1    1    3    3    0  502  0.24203906108E+03  0.10727111078E+04 -0.97383855406E+03  0.14688953527E+04  0.50400001928E-02 0.  1.
</event>
<event>
 5   0  0.1005265E-05  0.1664136E+04  0.7818609E-02  0.8782088E-01
       -1   -1    0    0    0  501  0.00000000000E+00  0.00000000000E+00  0.31703658246E+03  0.31703658250E+03  0.50400001928E-02 0. -1.
        1   -1    0    0  501    0  0.00000000000E+00  0.00000000000E+00 -0.21837757541E+04  0.21837757541E+04  0.50400001928E-02 0.  1.
    10030    2    1    2    0    0  0.00000000000E+00  0.00000000000E+00 -0.18667391716E+04  0.25008123366E+04  0.16641355738E+04 0.  0.
        3    1    3    3  502    0 -0.40395773546E+03  0.31440632875E+03  0.52410154721E+02  0.51456780517E+03  0.10100000352E+00 0. -1.
       -3    1    3    3    0  502  0.40395773546E+03 -0.31440632875E+03 -0.19191493263E+04  0.19862445314E+04  0.10100000352E+00 0.  1.
</event>
<event>
 5   0  0.2615843E-05  0.2708785E+04  0.7818609E-02  0.8332160E-01
        2   -1    0    0  501    0  0.00000000000E+00  0.00000000000E+00  0.21237899947E+04  0.21237899947E+04  0.25500000920E-02 0.  1.
       -2   -1    0    0    0  501  0.00000000000E+00  0.00000000000E+00 -0.86372916044E+03  0.86372916045E+03  0.25500000920E-02 0. -1.
    10030    2    1    2    0    0  0.00000000000E+00  0.00000000000E+00  0.12600608342E+04  0.29875191551E+04  0.27087852252E+04 0.  0.
        3    1    3    3  502    0  0.12394826281E+04 -0.51688981079E+03  0.43619883856E+03  0.14120062672E+04  0.10100000352E+00 0. -1.
       -3    1    3    3    0  502 -0.12394826281E+04  0.51688981079E+03  0.82386199567E+03  0.15755128879E+04  0.10100000352E+00 0.  1.
</event>
<event>
 5   0  0.1096672E-05  0.1771195E+04  0.7818609E-02  0.8721769E-01
       -1   -1    0    0    0  501  0.00000000000E+00  0.00000000000E+00  0.98431102726E+03  0.98431102727E+03  0.50400001928E-02 0.  1.
        1   -1    0    0  501    0  0.00000000000E+00  0.00000000000E+00 -0.79678362853E+03  0.79678362855E+03  0.50400001928E-02 0. -1.
    10030    2    1    2    0    0  0.00000000000E+00  0.00000000000E+00  0.18752739873E+03  0.17810946558E+04  0.17711949773E+04 0.  0.
        1    1    3    3  502    0 -0.66927205376E+03 -0.38216632721E+03 -0.34491616457E+03  0.84435972441E+03  0.50400001928E-02 0. -1.
       -1    1    3    3    0  502  0.66927205376E+03  0.38216632721E+03  0.53244356330E+03  0.93673493141E+03  0.50400001928E-02 0.  1.
</event>
<event>
 5   0  0.2516518E-05  0.2746248E+04  0.7818609E-02  0.8320153E-01
       -2   -1    0    0    0  501  0.00000000000E+00  0.00000000000E+00  0.15133887685E+04  0.15133887685E+04  0.25500000920E-02 0. -1.
        2   -1    0    0  501    0  0.00000000000E+00  0.00000000000E+00 -0.12458589224E+04  0.12458589224E+04  0.25500000920E-02 0.  1.
    10030    2    1    2    0    0  0.00000000000E+00  0.00000000000E+00  0.26752984607E+03  0.27592476909E+04  0.27462475491E+04 0.  0.
        4    1    3    3  502    0 -0.37387665405E+03  0.10616059887E+03 -0.11894406560E+04  0.12513290983E+04  0.12699999809E+01 0.  1.
       -4    1    3    3    0  502  0.37387665405E+03 -0.10616059887E+03  0.14569705020E+04  0.15079185926E+04  0.12699999809E+01 0. -1.
</event>
<event>
 5   0  0.2516518E-05  0.2949002E+04  0.7818609E-02  0.8258445E-01
        2   -1    0    0  501    0  0.00000000000E+00  0.00000000000E+00  0.19315198738E+04  0.19315198738E+04  0.25500000920E-02 0. -1.
       -2   -1    0    0    0  501  0.00000000000E+00  0.00000000000E+00 -0.11256177611E+04  0.11256177611E+04  0.25500000920E-02 0.  1.
    10030    2    1    2    0    0  0.00000000000E+00  0.00000000000E+00  0.80590211273E+03  0.30571376349E+04  0.29490019165E+04 0.  0.
        4    1    3    3  502    0  0.11068690755E+04 -0.92879176051E+03  0.98343005883E+02  0.14482700868E+04  0.12699999809E+01 0.  1.
       -4    1    3    3    0  502 -0.11068690755E+04  0.92879176051E+03  0.70755910685E+03  0.16088675481E+04  0.12699999809E+01 0. -1.
</event>
<event>
 5   0  0.1041909E-05  0.2644557E+04  0.7818609E-02  0.8353222E-01
       -1   -1    0    0    0  501  0.00000000000E+00  0.00000000000E+00  0.14454908375E+04  0.14454908375E+04  0.50400001928E-02 0.  1.
        1   -1    0    0  501    0  0.00000000000E+00  0.00000000000E+00 -0.12095684526E+04  0.12095684526E+04  0.50400001928E-02 0. -1.
    10030    2    1    2    0    0  0.00000000000E+00  0.00000000000E+00  0.23592238486E+03  0.26550592901E+04  0.26445567610E+04 0.  0.
        5    1    3    3  502    0  0.65211603071E+03  0.11151831663E+04  0.40105479833E+03  0.13526846836E+04  0.46999998093E+01 0.  1.
       -5    1    3    3    0  502 -0.65211603071E+03 -0.11151831663E+04 -0.16513241346E+03  0.13023746066E+04  0.46999998093E+01 0. -1.
</event>
<event>
 5   0  0.1005265E-05  0.2696187E+04  0.7818609E-02  0.8336243E-01
       -1   -1    0    0    0  501  0.00000000000E+00  0.00000000000E+00  0.87921566302E+03  0.87921566303E+03  0.50400001928E-02 0.  1.
        1   -1    0    0  501    0  0.00000000000E+00  0.00000000000E+00 -0.20670201522E+04  0.20670201522E+04  0.50400001928E-02 0. -1.
    10030    2    1    2    0    0  0.00000000000E+00  0.00000000000E+00 -0.11878044892E+04  0.29462358152E+04  0.26961873033E+04 0.  0.
        3    1    3    3  502    0 -0.12168021185E+03 -0.41559430909E+02 -0.20603040502E+04  0.20643124884E+04  0.10100000352E+00 0. -1.
       -3    1    3    3    0  502  0.12168021185E+03  0.41559430909E+02  0.87249956102E+03  0.88192332685E+03  0.10100000352E+00 0.  1.
</event>
<event>
 5   0  0.9971923E-06  0.2685958E+04  0.7818609E-02  0.8339576E-01
       -1   -1    0    0    0  501  0.00000000000E+00  0.00000000000E+00  0.88682823376E+03  0.88682823377E+03  0.50400001928E-02 0.  1.
        1   -1    0    0  501    0  0.00000000000E+00  0.00000000000E+00 -0.20337563747E+04  0.20337563747E+04  0.50400001928E-02 0. -1.
    10030    2    1    2    0    0  0.00000000000E+00  0.00000000000E+00 -0.11469281410E+04  0.29205846085E+04  0.26859579846E+04 0.  0.
        2    1    3    3  502    0  0.76086701950E+03 -0.19948108422E+03 -0.17570723398E+04  0.19251011744E+04  0.25500000920E-02 0. -1.
       -2    1    3    3    0  502 -0.76086701950E+03  0.19948108422E+03  0.61014419880E+03  0.99548343415E+03  0.25500000920E-02 0.  1.
</event>
<event>
 5   0  0.2516518E-05  0.2699889E+04  0.7818609E-02  0.8335041E-01
        2   -1    0    0  501    0  0.00000000000E+00  0.00000000000E+00  0.17374669561E+04  0.17374669561E+04  0.25500000920E-02 0. -1.
       -2   -1    0    0    0  501  0.00000000000E+00  0.00000000000E+00 -0.10488547254E+04  0.10488547254E+04  0.25500000920E-02 0.  1.
    10030    2    1    2    0    0  0.00000000000E+00  0.00000000000E+00  0.68861223063E+03  0.27863216815E+04  0.26998892030E+04 0.  0.
        4    1    3    3  502    0 -0.11442816811E+04  0.12486149895E+03 -0.38352150834E+03  0.12132853415E+04  0.12699999809E+01 0.  1.
       -4    1    3    3    0  502  0.11442816811E+04 -0.12486149895E+03  0.10721337390E+04  0.15730363400E+04  0.12699999809E+01 0. -1.
</event>
<event>
 5   0  0.1005265E-05  0.2771542E+04  0.7818609E-02  0.8312158E-01
       -1   -1    0    0    0  501  0.00000000000E+00  0.00000000000E+00  0.18390357114E+04  0.18390357114E+04  0.50400001928E-02 0. -1.
        1   -1    0    0  501    0  0.00000000000E+00  0.00000000000E+00 -0.10442220214E+04  0.10442220214E+04  0.50400001928E-02 0.  1.
    10030    2    1    2    0    0  0.00000000000E+00  0.00000000000E+00  0.79481369008E+03  0.28832577328E+04  0.27715422335E+04 0.  0.
        3    1    3    3  502    0 -0.38351314109E+03  0.13268384247E+04  0.27980581349E+03  0.14092103598E+04  0.10100000352E+00 0.  1.
       -3    1    3    3    0  502  0.38351314109E+03 -0.13268384247E+04  0.51500787659E+03  0.14740473730E+04  0.10100000352E+00 0. -1.
</event>
<event>
 5   0  0.2540684E-05  0.2735940E+04  0.7818609E-02  0.8323437E-01
        2   -1    0    0  501    0  0.00000000000E+00  0.00000000000E+00  0.17246066656E+04  0.17246066656E+04  0.25500000920E-02 0. -1.
       -2   -1    0    0    0  501  0.00000000000E+00  0.00000000000E+00 -0.10850834410E+04  0.10850834410E+04  0.25500000920E-02 0.  1.
    10030    2    1    2    0    0  0.00000000000E+00  0.00000000000E+00  0.63952322460E+03  0.28096901067E+04  0.27359401566E+04 0.  0.
        2    1    3    3  502    0  0.13675814749E+04  0.18665570089E+02  0.29230823136E+03  0.13985962949E+04  0.25500000920E-02 0.  1.
       -2    1    3    3    0  502 -0.13675814749E+04 -0.18665570089E+02  0.34721499324E+03  0.14110938118E+04  0.25500000920E-02 0. -1.
</event>
<event>
 5   0  0.2516518E-05  0.2676587E+04  0.7818609E-02  0.8342642E-01
       -2   -1    0    0    0  501  0.00000000000E+00  0.00000000000E+00  0.14255690458E+04  0.14255690458E+04  0.25500000920E-02 0. -1.
        2   -1    0    0  501    0  0.00000000000E+00  0.00000000000E+00 -0.12563612855E+04  0.12563612856E+04  0.25500000920E-02 0.  1.
    10030    2    1    2    0    0  0.00000000000E+00  0.00000000000E+00  0.16920776021E+03  0.26819303313E+04  0.26765871994E+04 0.  0.
        4    1    3    3  502    0 -0.54188104738E+03  0.10788416813E+04 -0.49403806841E+03  0.13044576148E+04  0.12699999809E+01 0.  1.
       -4    1    3    3    0  502  0.54188104738E+03 -0.10788416813E+04  0.66324582863E+03  0.13774727166E+04  0.12699999809E+01 0. -1.
</event>
<event>
 5   0  0.1041909E-05  0.2697591E+04  0.7818609E-02  0.8335787E-01
        1   -1    0    0  501    0  0.00000000000E+00  0.00000000000E+00  0.13422523607E+04  0.13422523607E+04  0.50400001928E-02 0. -1.
       -1   -1    0    0    0  501  0.00000000000E+00  0.00000000000E+00 -0.13553704756E+04  0.13553704756E+04  0.50400001928E-02 0.  1.
    10030    2    1    2    0    0  0.00000000000E+00  0.00000000000E+00 -0.13118114866E+02  0.26976228363E+04  0.26975909404E+04 0.  0.
        5    1    3    3  502    0 -0.46785773888E+03  0.98345313303E+03 -0.80227959540E+03  0.13526808818E+04  0.46999998093E+01 0.  1.
       -5    1    3    3    0  502  0.46785773888E+03 -0.98345313303E+03  0.78916148054E+03  0.13449419545E+04  0.46999998093E+01 0. -1.
</event>
<event>
 5   0  0.9971923E-06  0.2695064E+04  0.7818609E-02  0.8336608E-01
        1   -1    0    0  501    0  0.00000000000E+00  0.00000000000E+00  0.23347261789E+04  0.23347261790E+04  0.50400001928E-02 0. -1.
       -1   -1    0    0    0  501  0.00000000000E+00  0.00000000000E+00 -0.77775419875E+03  0.77775419877E+03  0.50400001928E-02 0.  1.
    10030    2    1    2    0    0  0.00000000000E+00  0.00000000000E+00  0.15569719802E+04  0.31124803777E+04  0.26950644435E+04 0.  0.
        2    1    3    3  502    0 -0.10408621808E+04 -0.71104729782E+03  0.22841701696E+03  0.12810763727E+04  0.25500000920E-02 0.  1.
       -2    1    3    3    0  502  0.10408621808E+04  0.71104729782E+03  0.13285549632E+04  0.18314040050E+04  0.25500000920E-02 0. -1.
</event>
<event>
 5   0  0.2540684E-05  0.2674757E+04  0.7818609E-02  0.8343242E-01
        2   -1    0    0  501    0  0.00000000000E+00  0.00000000000E+00  0.14038487812E+04  0.14038487812E+04  0.25500000920E-02 0. -1.
       -2   -1    0    0    0  501  0.00000000000E+00  0.00000000000E+00 -0.12740551522E+04  0.12740551522E+04  0.25500000920E-02 0.  1.
    10030    2    1    2    0    0  0.00000000000E+00  0.00000000000E+00  0.12979362900E+03  0.26779039333E+04  0.26747566413E+04 0.  0.
        2    1    3    3  502    0  0.11419942731E+04  0.15246377095E+03  0.74480166766E+03  0.13719058442E+04  0.25500000920E-02 0. -1.
       -2    1    3    3    0  502 -0.11419942731E+04 -0.15246377095E+03 -0.61500803867E+03  0.13059980891E+04  0.25500000920E-02 0.  1.
</event>
<event>
 5   0  0.2615843E-05  0.2648907E+04  0.7818609E-02  0.8351776E-01
        2   -1    0    0  501    0  0.00000000000E+00  0.00000000000E+00  0.12114938466E+04  0.12114938466E+04  0.25500000920E-02 0. -1.
       -2   -1    0    0    0  501  0.00000000000E+00  0.00000000000E+00 -0.14479449970E+04  0.14479449970E+04  0.25500000920E-02 0.  1.
    10030    2    1    2    0    0  0.00000000000E+00  0.00000000000E+00 -0.23645115044E+03  0.26594388436E+04  0.26489065322E+04 0.  0.
        3    1    3    3  502    0 -0.11485925194E+04  0.65872112499E+03 -0.86506480962E+02  0.13268992718E+04  0.10100000352E+00 0. -1.
       -3    1    3    3    0  502  0.11485925194E+04 -0.65872112499E+03 -0.14994466948E+03  0.13325395717E+04  0.10100000352E+00 0.  1.
</event>
<event>
 5   0  0.2641216E-05  0.2727018E+04  0.7818609E-02  0.8326292E-01
       -2   -1    0    0    0  501  0.00000000000E+00  0.00000000000E+00  0.17785406355E+04  0.17785406355E+04  0.25500000920E-02 0. -1.
        2   -1    0    0  501    0  0.00000000000E+00  0.00000000000E+00 -0.10453270049E+04  0.10453270049E+04  0.25500000920E-02 0.  1.
    10030    2    1    2    0    0  0.00000000000E+00  0.00000000000E+00  0.73321363060E+03  0.28238676404E+04  0.27270178259E+04 0.  0.
        5    1    3    3  502    0 -0.34802717776E+03  0.10937975831E+04 -0.39547757019E+03  0.12140595817E+04  0.46999998093E+01 0.  1.
       -5    1    3    3    0  502  0.34802717776E+03 -0.10937975831E+04  0.11286912008E+04  0.16098080588E+04  0.46999998093E+01 0. -1.
</event>
<event>
 5   0  0.9971923E-06  0.2722229E+04  0.7818609E-02  0.8327828E-01
        1   -1    0    0  501    0  0.00000000000E+00  0.00000000000E+00  0.21101048364E+04  0.21101048364E+04  0.50400001928E-02 0. -1.
       -1   -1    0    0    0  501  0.00000000000E+00  0.00000000000E+00 -0.87798102789E+03  0.87798102791E+03  0.50400001928E-02 0.  1.
    10030    2    1    2    0    0  0.00000000000E+00  0.00000000000E+00  0.12321238085E+04  0.29880858643E+04  0.27222285086E+04 0.  0.
        2    1    3    3  502    0  0.58582524650E+03  0.11265208351E+04  0.77881177302E+02  0.12721265224E+04  0.25500000920E-02 0.  1.
       -2    1    3    3    0  502 -0.58582524650E+03 -0.11265208351E+04  0.11542426312E+04  0.17159593419E+04  0.25500000920E-02 0. -1.
</event>
<event>
 5   0  0.2540684E-05  0.2650749E+04  0.7818609E-02  0.8351165E-01
       -2   -1    0    0    0  501  0.00000000000E+00  0.00000000000E+00  0.97000738426E+03  0.97000738426E+03  0.25500000920E-02 0. -1.
        2   -1    0    0  501    0  0.00000000000E+00  0.00000000000E+00 -0.18109317643E+04  0.18109317643E+04  0.25500000920E-02 0.  1.
    10030    2    1    2    0    0  0.00000000000E+00  0.00000000000E+00 -0.84092438005E+03  0.27809391486E+04  0.26507487122E+04 0.  0.
        2    1    3    3  502    0 -0.59547958393E+00 -0.64961532989E+03 -0.16324582633E+04  0.17569634068E+04  0.25500000920E-02 0.  1.
       -2    1    3    3    0  502  0.59547958393E+00  0.64961532989E+03  0.79153388324E+03  0.10239757418E+04  0.25500000920E-02 0. -1.
</event>
<event>
 5   0  0.9971923E-06  0.2613548E+04  0.7818609E-02  0.8363614E-01
        1   -1    0    0  501    0  0.00000000000E+00  0.00000000000E+00  0.10929032214E+04  0.10929032214E+04  0.50400001928E-02 0. -1.
       -1   -1    0    0    0  501  0.00000000000E+00  0.00000000000E+00 -0.15624967909E+04  0.15624967909E+04  0.50400001928E-02 0.  1.
    10030    2    1    2    0    0  0.00000000000E+00  0.00000000000E+00 -0.46959356952E+03  0.26554000123E+04  0.26135476091E+04 0.  0.
        2    1    3    3  502    0 -0.11723344772E+04 -0.53215227416E+03 -0.46221960103E+03  0.13679185388E+04  0.25500000920E-02 0.  1.
       -2    1    3    3    0  502  0.11723344772E+04  0.53215227416E+03 -0.73739684813E+01  0.12874814735E+04  0.25500000920E-02 0. -1.
</event>
<event>
 5   0  0.2641216E-05  0.2705287E+04  0.7818609E-02  0.8333292E-01
       -2   -1    0    0    0  501  0.00000000000E+00  0.00000000000E+00  0.14523830862E+04  0.14523830862E+04  0.25500000920E-02 0. -1.
        2   -1    0    0  501    0  0.00000000000E+00  0.00000000000E+00 -0.12597532686E+04  0.12597532686E+04  0.25500000920E-02 0.  1.
    10030    2    1    2    0    0  0.00000000000E+00  0.00000000000E+00  0.19262981763E+03  0.27121363548E+04  0.27052869275E+04 0.  0.
        5    1    3    3  502    0 -0.11923122044E+04 -0.17114164196E+03  0.71327891364E+03  0.13998881216E+04  0.46999998093E+01 0.  1.
       -5    1    3    3    0  502  0.11923122044E+04  0.17114164196E+03 -0.52064909601E+03  0.13122482332E+04  0.46999998093E+01 0. -1.
</event>
<event>
 5   0  0.1096672E-05  0.2713054E+04  0.7818609E-02  0.8330782E-01
        1   -1    0    0  501    0  0.00000000000E+00  0.00000000000E+00  0.21717070615E+04  0.21717070615E+04  0.50400001928E-02 0.  1.
       -1   -1    0    0    0  501  0.00000000000E+00  0.00000000000E+00 -0.84733580395E+03  0.84733580397E+03  0.50400001928E-02 0. -1.
    10030    2    1    2    0    0  0.00000000000E+00  0.00000000000E+00  0.13243712575E+04  0.30190428655E+04  0.27130537399E+04 0.  0.
        1    1    3    3  502    0 -0.46018892778E+03 -0.81738881585E+03 -0.42826710418E+03  0.10311697426E+04  0.50400001928E-02 0. -1.
       -1    1    3    3    0  502  0.46018892778E+03  0.81738881585E+03  0.17526383617E+04  0.19878731228E+04  0.50400001928E-02 0.  1.
</event>
<event>
 5   0  0.9971923E-06  0.2601832E+04  0.7818609E-02  0.8367579E-01
       -1   -1    0    0    0  501  0.00000000000E+00  0.00000000000E+00  0.84378765716E+03  0.84378765717E+03  0.50400001928E-02 0. -1.
        1   -1    0    0  501    0  0.00000000000E+00  0.00000000000E+00 -0.20056975939E+04  0.20056975939E+04  0.50400001928E-02 0.  1.
    10030    2    1    2    0    0  0.00000000000E+00  0.00000000000E+00 -0.11619099368E+04  0.28494852511E+04  0.26018323342E+04 0.  0.
        2    1    3    3  502    0  0.14555465648E+02  0.12854730896E+04 -0.36265880371E+03  0.13357298880E+04  0.25500000920E-02 0. -1.
       -2    1    3    3    0  502 -0.14555465648E+02 -0.12854730896E+04 -0.79925113307E+03  0.15137553631E+04  0.25500000920E-02 0.  1.
</event>
<event>
 5   0  0.1096672E-05  0.2700799E+04  0.7818609E-02  0.8334746E-01
        1   -1    0    0  501    0  0.00000000000E+00  0.00000000000E+00  0.11056154770E+04  0.11056154770E+04  0.50400001928E-02 0.  1.
       -1   -1    0    0    0  501  0.00000000000E+00  0.00000000000E+00 -0.16493785672E+04  0.16493785672E+04  0.50400001928E-02 0. -1.
    10030    2    1    2    0    0  0.00000000000E+00  0.00000000000E+00 -0.54376309022E+03  0.27549940443E+04  0.27007987496E+04 0.  0.
        1    1    3    3  502    0 -0.82562904896E+03 -0.22053810917E+03  0.79469925676E+03  0.11669821305E+04  0.50400001928E-02 0.  1.
       -1    1    3    3    0  502  0.82562904896E+03  0.22053810917E+03 -0.13384623470E+04  0.15880119138E+04  0.50400001928E-02 0. -1.
</event>
<event>
 5   0  0.2641216E-05  0.2651380E+04  0.7818609E-02  0.8350955E-01
       -2   -1    0    0    0  501  0.00000000000E+00  0.00000000000E+00  0.84955373138E+03  0.84955373138E+03  0.25500000920E-02 0. -1.
        2   -1    0    0  501    0  0.00000000000E+00  0.00000000000E+00 -0.20686795659E+04  0.20686795659E+04  0.25500000920E-02 0.  1.
    10030    2    1    2    0    0  0.00000000000E+00  0.00000000000E+00 -0.12191258345E+04  0.29182332973E+04  0.26513803531E+04 0.  0.
        5    1    3    3  502    0  0.11207954727E+04 -0.43617715473E+03  0.42382597726E+01  0.12026940820E+04  0.46999998093E+01 0. -1.
       -5    1    3    3    0  502 -0.11207954727E+04  0.43617715473E+03 -0.12233640943E+04  0.17155392153E+04  0.46999998093E+01 0.  1.
</event>
<event>
 5   0  0.1041909E-05  0.2012563E+04  0.7818609E-02  0.8600769E-01
       -1   -1    0    0    0  501  0.00000000000E+00  0.00000000000E+00  0.53096545147E+03  0.53096545149E+03  0.50400001928E-02 0.  1.
        1   -1    0    0  501    0  0.00000000000E+00  0.00000000000E+00 -0.19070970694E+04  0.19070970694E+04  0.50400001928E-02 0. -1.
    10030    2    1    2    0    0  0.00000000000E+00  0.00000000000E+00 -0.13761316179E+04  0.24380625209E+04  0.20125631980E+04 0.  0.
        5    1    3    3  502    0  0.64989006587E+02 -0.44876855849E+03  0.40016829383E+03  0.60479214897E+03  0.46999998093E+01 0.  1.
       -5    1    3    3    0  502 -0.64989006587E+02  0.44876855849E+03 -0.17762999117E+04  0.18332703719E+04  0.46999998093E+01 0. -1.
</event>
<event>
 5   0  0.1005265E-05  0.2715832E+04  0.7818609E-02  0.8329886E-01
       -1   -1    0    0    0  501  0.00000000000E+00  0.00000000000E+00  0.10804277552E+04  0.10804277552E+04  0.50400001928E-02 0.  1.
        1   -1    0    0  501    0  0.00000000000E+00  0.00000000000E+00 -0.17066720217E+04  0.17066720217E+04  0.50400001928E-02 0. -1.
    10030    2    1    2    0    0  0.00000000000E+00  0.00000000000E+00 -0.62624426643E+03  0.27870997769E+04  0.27158319692E+04 0.  0.
        3    1    3    3  502    0  0.11465085344E+04  0.42045343211E+03  0.29632447807E+03  0.12566109639E+04  0.10100000352E+00 0. -1.
       -3    1    3    3    0  502 -0.11465085344E+04 -0.42045343211E+03 -0.92256874450E+03  0.15304888130E+04  0.10100000352E+00 0.  1.
</event>
<event>
 5   0  0.2540232E-05  0.2742832E+04  0.7818609E-02  0.8321240E-01
        2   -1    0    0  501    0  0.00000000000E+00  0.00000000000E+00  0.25223736465E+04  0.25223736465E+04  0.25500000920E-02 0. -1.
       -2   -1    0    0    0  501  0.00000000000E+00  0.00000000000E+00 -0.74563961632E+03  0.74563961633E+03  0.25500000920E-02 0.  1.
    10030    2    1    2    0    0  0.00000000000E+00  0.00000000000E+00  0.17767340302E+04  0.32680132629E+04  0.27428319074E+04 0.  0.
        1    1    3    3  502    0 -0.11650783649E+04  0.61359802460E+03  0.13449855218E+04  0.18822582676E+04  0.50400001928E-02 0. -1.
       -1    1    3    3    0  502  0.11650783649E+04 -0.61359802460E+03  0.43174850843E+03  0.13857549952E+04  0.50400001928E-02 0.  1.
</event>
<event>
 5   0  0.1005265E-05  0.2524428E+04  0.7818609E-02  0.8394334E-01
       -1   -1    0    0    0  501  0.00000000000E+00  0.00000000000E+00  0.15341235978E+04  0.15341235978E+04  0.50400001928E-02 0.  1.
        1   -1    0    0  501    0  0.00000000000E+00  0.00000000000E+00 -0.10384979868E+04  0.10384979869E+04  0.50400001928E-02 0. -1.
    10030    2    1    2    0    0  0.00000000000E+00  0.00000000000E+00  0.49562561098E+03  0.25726215847E+04  0.25244280683E+04 0.  0.
        3    1    3    3  502    0 -0.17339891839E+03  0.68560986608E+03 -0.81763983909E+03  0.10810471729E+04  0.10100000352E+00 0. -1.
       -3    1    3    3    0  502  0.17339891839E+03 -0.68560986608E+03  0.13132654501E+04  0.14915744118E+04  0.10100000352E+00 0.  1.
</event>
<event>
 5   0  0.2615843E-05  0.2697287E+04  0.7818609E-02  0.8335886E-01
        2   -1    0    0  501    0  0.00000000000E+00  0.00000000000E+00  0.18543291742E+04  0.18543291742E+04  0.25500000920E-02 0. -1.
       -2   -1    0    0    0  501  0.00000000000E+00  0.00000000000E+00 -0.98086079565E+03  0.98086079566E+03  0.25500000920E-02 0.  1.
    10030    2    1    2    0    0  0.00000000000E+00  0.00000000000E+00  0.87346837856E+03  0.28351899699E+04  0.26972866286E+04 0.  0.
        3    1    3    3  502    0 -0.69525712981E+03 -0.89897033944E+03  0.12000205543E+04  0.16527490701E+04  0.10100000352E+00 0. -1.
       -3    1    3    3    0  502  0.69525712981E+03  0.89897033944E+03 -0.32655217576E+03  0.11824408998E+04  0.10100000352E+00 0.  1.
</event>
<event>
 5   0  0.1096672E-05  0.2431999E+04  0.7818609E-02  0.8427620E-01
       -1   -1    0    0    0  501  0.00000000000E+00  0.00000000000E+00  0.87055504617E+03  0.87055504618E+03  0.50400001928E-02 0. -1.
        1   -1    0    0  501    0  0.00000000000E+00  0.00000000000E+00 -0.16985196764E+04  0.16985196764E+04  0.50400001928E-02 0.  1.
    10030    2    1    2    0    0  0.00000000000E+00  0.00000000000E+00 -0.82796463022E+03  0.25690747226E+04  0.24319990751E+04 0.  0.
        1    1    3    3  502    0  0.87481900055E+03 -0.23189392836E+03 -0.12718975288E+04  0.15610273545E+04  0.50400001928E-02 0.  1.
       -1    1    3    3    0  502 -0.87481900055E+03  0.23189392836E+03  0.44393289860E+03  0.10080473680E+04  0.50400001928E-02 0. -1.
</event>
<event>
 5   0  0.1096672E-05  0.3263458E+04  0.7818609E-02  0.8172256E-01
       -1   -1    0    0    0  501  0.00000000000E+00  0.00000000000E+00  0.17618435535E+04  0.17618435535E+04  0.50400001928E-02 0.  1.
        1   -1    0    0  501    0  0.00000000000E+00  0.00000000000E+00 -0.15112238248E+04  0.15112238248E+04  0.50400001928E-02 0. -1.
    10030    2    1    2    0    0  0.00000000000E+00  0.00000000000E+00  0.25061972869E+03  0.32730673783E+04  0.32634582599E+04 0.  0.
        1    1    3    3  502    0  0.40955761072E+03  0.12847651185E+04 -0.79618877334E+03  0.15659742683E+04  0.50400001928E-02 0. -1.
       -1    1    3    3    0  502 -0.40955761072E+03 -0.12847651185E+04  0.10468085020E+04  0.17070931100E+04  0.50400001928E-02 0.  1.
</event>
<event>
 5   0  0.2540232E-05  0.2707710E+04  0.7818609E-02  0.8332508E-01
        2   -1    0    0  501    0  0.00000000000E+00  0.00000000000E+00  0.12618669708E+04  0.12618669708E+04  0.25500000920E-02 0. -1.
       -2   -1    0    0    0  501  0.00000000000E+00  0.00000000000E+00 -0.14525488333E+04  0.14525488333E+04  0.25500000920E-02 0.  1.
    10030    2    1    2    0    0  0.00000000000E+00  0.00000000000E+00 -0.19068186254E+03  0.27144158041E+04  0.27077100260E+04 0.  0.
        1    1    3    3  502    0 -0.62694654666E+03  0.77918205538E+03  0.81946313712E+03  0.12929448870E+04  0.50400001928E-02 0. -1.
       -1    1    3    3    0  502  0.62694654666E+03 -0.77918205538E+03 -0.10101449997E+04  0.14214709171E+04  0.50400001928E-02 0.  1.
</event>
<event>
 5   0  0.1096672E-05  0.2731929E+04  0.7818609E-02  0.8324719E-01
        1   -1    0    0  501    0  0.00000000000E+00  0.00000000000E+00  0.13757842359E+04  0.13757842359E+04  0.50400001928E-02 0.  1.
       -1   -1    0    0    0  501  0.00000000000E+00  0.00000000000E+00 -0.13562149520E+04  0.13562149520E+04  0.50400001928E-02 0. -1.
    10030    2    1    2    0    0  0.00000000000E+00  0.00000000000E+00  0.19569283902E+02  0.27319991880E+04  0.27319290998E+04 0.  0.
        1    1    3    3  502    0  0.80941088262E+03 -0.80543019527E+03 -0.73989809879E+03  0.13606296237E+04  0.50400001928E-02 0. -1.
       -1    1    3    3    0  502 -0.80941088262E+03  0.80543019527E+03  0.75946738269E+03  0.13713695643E+04  0.50400001928E-02 0.  1.
</event>
<event>
 5   0  0.1096672E-05  0.2728941E+04  0.7818609E-02  0.8325675E-01
        1   -1    0    0  501    0  0.00000000000E+00  0.00000000000E+00  0.10358758259E+04  0.10358758259E+04  0.50400001928E-02 0.  1.
       -1   -1    0    0    0  501  0.00000000000E+00  0.00000000000E+00 -0.17973003599E+04  0.17973003599E+04  0.50400001928E-02 0. -1.
    10030    2    1    2    0    0  0.00000000000E+00  0.00000000000E+00 -0.76142453396E+03  0.28331761858E+04  0.27289411827E+04 0.  0.
        1    1    3    3  502    0 -0.58974408998E+03  0.59091762347E+03 -0.15011939592E+04  0.17177208832E+04  0.50400001928E-02 0.  1.
       -1    1    3    3    0  502  0.58974408998E+03 -0.59091762347E+03  0.73976942528E+03  0.11154553026E+04  0.50400001928E-02 0. -1.
</event>
<event>
 5   0  0.2615843E-05  0.2675094E+04  0.7818609E-02  0.8343132E-01
        2   -1    0    0  501    0  0.00000000000E+00  0.00000000000E+00  0.17303132478E+04  0.17303132478E+04  0.25500000920E-02 0. -1.
       -2   -1    0    0    0  501  0.00000000000E+00  0.00000000000E+00 -0.10339355143E+04  0.10339355143E+04  0.25500000920E-02 0.  1.
    10030    2    1    2    0    0  0.00000000000E+00  0.00000000000E+00  0.69637773349E+03  0.27642487621E+04  0.26750942547E+04 0.  0.
        3    1    3    3  502    0  0.50591928122E+03 -0.46617180846E+03  0.15334844810E+04  0.16807275620E+04  0.10100000352E+00 0. -1.
       -3    1    3    3    0  502 -0.50591928122E+03  0.46617180846E+03 -0.83710674752E+03  0.10835212001E+04  0.10100000352E+00 0.  1.
</event>
<event>
 5   0  0.2641216E-05  0.2689718E+04  0.7818609E-02  0.8338349E-01
       -2   -1    0    0    0  501  0.00000000000E+00  0.00000000000E+00  0.12763978390E+04  0.12763978390E+04  0.25500000920E-02 0. -1.
        2   -1    0    0  501    0  0.00000000000E+00  0.00000000000E+00 -0.14169920077E+04  0.14169920077E+04  0.25500000920E-02 0.  1.
    10030    2    1    2    0    0  0.00000000000E+00  0.00000000000E+00 -0.14059416871E+03  0.26933898467E+04  0.26897178562E+04 0.  0.
        5    1    3    3  502    0 -0.42668357172E+03 -0.26920572354E+02  0.12065279104E+04  0.12800450290E+04  0.46999998093E+01 0. -1.
       -5    1    3    3    0  502  0.42668357172E+03  0.26920572354E+02 -0.13471220791E+04  0.14133448177E+04  0.46999998093E+01 0.  1.
</event>
<event>
 5   0  0.2540684E-05  0.2582840E+04  0.7818609E-02  0.8374053E-01
        2   -1    0    0  501    0  0.00000000000E+00  0.00000000000E+00  0.56556309067E+03  0.56556309068E+03  0.25500000920E-02 0.  1.
       -2   -1    0    0    0  501  0.00000000000E+00  0.00000000000E+00 -0.29488597342E+04  0.29488597342E+04  0.25500000920E-02 0. -1.
    10030    2    1    2    0    0  0.00000000000E+00  0.00000000000E+00 -0.23832966436E+04  0.35144228249E+04  0.25828404715E+04 0.  0.
        2    1    3    3  502    0  0.59497231572E+03  0.11353256335E+04 -0.97732535452E+03  0.16118688530E+04  0.25500000920E-02 0. -1.
       -2    1    3    3    0  502 -0.59497231572E+03 -0.11353256335E+04 -0.14059712890E+04  0.19025539719E+04  0.25500000920E-02 0.  1.
</event>
<event>
 5   0  0.2540684E-05  0.2646058E+04  0.7818609E-02  0.8352722E-01
        2   -1    0    0  501    0  0.00000000000E+00  0.00000000000E+00  0.20979633227E+04  0.20979633227E+04  0.25500000920E-02 0.  1.
       -2   -1    0    0    0  501  0.00000000000E+00  0.00000000000E+00 -0.83433584255E+03  0.83433584255E+03  0.25500000920E-02 0. -1.
    10030    2    1    2    0    0  0.00000000000E+00  0.00000000000E+00  0.12636274801E+04  0.29322991652E+04  0.26460581977E+04 0.  0.
        2    1    3    3  502    0  0.69886660427E+02  0.86217267723E+03 -0.47756995301E+03  0.98807840311E+03  0.25500000920E-02 0. -1.
       -2    1    3    3    0  502 -0.69886660427E+02 -0.86217267723E+03  0.17411974331E+04  0.19442207621E+04  0.25500000920E-02 0.  1.
</event>
<event>
 5   0  0.2615843E-05  0.1784696E+04  0.7818609E-02  0.8714481E-01
        2   -1    0    0  501    0  0.00000000000E+00  0.00000000000E+00  0.54331782227E+03  0.54331782228E+03  0.25500000920E-02 0. -1.
       -2   -1    0    0    0  501  0.00000000000E+00  0.00000000000E+00 -0.14655969299E+04  0.14655969299E+04  0.25500000920E-02 0.  1.
    10030    2    1    2    0    0  0.00000000000E+00  0.00000000000E+00 -0.92227910768E+03  0.20089147522E+04  0.17846959767E+04 0.  0.
        3    1    3    3  502    0  0.18711325994E+03 -0.23279364583E+03  0.48538469661E+03  0.56991452648E+03  0.10100000352E+00 0. -1.
       -3    1    3    3    0  502 -0.18711325994E+03  0.23279364583E+03 -0.14076638043E+04  0.14390002257E+04  0.10100000352E+00 0.  1.
</event>
<event>
 5   0  0.9971923E-06  0.2783794E+04  0.7818609E-02  0.8308317E-01
        1   -1    0    0  501    0  0.00000000000E+00  0.00000000000E+00  0.14971480839E+04  0.14971480839E+04  0.50400001928E-02 0.  1.
       -1   -1    0    0    0  501  0.00000000000E+00  0.00000000000E+00 -0.12940455981E+04  0.12940455981E+04  0.50400001928E-02 0. -1.
    10030    2    1    2    0    0  0.00000000000E+00  0.00000000000E+00  0.20310248579E+03  0.27911936820E+04  0.27837944519E+04 0.  0.
        2    1    3    3  502    0 -0.11965722564E+04  0.38506608612E+03 -0.49779742708E+03  0.13519849607E+04  0.25500000920E-02 0.  1.
       -2    1    3    3    0  502  0.11965722564E+04 -0.38506608612E+03  0.70089991287E+03  0.14392087213E+04  0.25500000920E-02 0. -1.
</event>
<event>
 5   0  0.2540232E-05  0.2696108E+04  0.7818609E-02  0.8336269E-01
        2   -1    0    0  501    0  0.00000000000E+00  0.00000000000E+00  0.16104896729E+04  0.16104896729E+04  0.25500000920E-02 0. -1.
       -2   -1    0    0    0  501  0.00000000000E+00  0.00000000000E+00 -0.11283833717E+04  0.11283833717E+04  0.25500000920E-02 0.  1.
    10030    2    1    2    0    0  0.00000000000E+00  0.00000000000E+00  0.48210630118E+03  0.27388730446E+04  0.26961081338E+04 0.  0.
        1    1    3    3  502    0  0.24248741576E+03  0.13080715104E+04  0.46221850535E+03  0.14083668449E+04  0.50400001928E-02 0. -1.
       -1    1    3    3    0  502 -0.24248741576E+03 -0.13080715104E+04  0.19887795833E+02  0.13305061997E+04  0.50400001928E-02 0.  1.
</event>
<event>
 5   0  0.1005265E-05  0.2757618E+04  0.7818609E-02  0.8316548E-01
       -1   -1    0    0    0  501  0.00000000000E+00  0.00000000000E+00  0.12918575019E+04  0.12918575019E+04  0.50400001928E-02 0. -1.
        1   -1    0    0  501    0  0.00000000000E+00  0.00000000000E+00 -0.14716129940E+04  0.14716129940E+04  0.50400001928E-02 0.  1.
    10030    2    1    2    0    0  0.00000000000E+00  0.00000000000E+00 -0.17975549212E+03  0.27634704959E+04  0.27576180201E+04 0.  0.
        3    1    3    3  502    0 -0.46225110638E+03 -0.42861821064E+02 -0.13909401307E+04  0.14663654655E+04  0.10100000352E+00 0.  1.
       -3    1    3    3    0  502  0.46225110638E+03  0.42861821064E+02  0.12111846386E+04  0.12971050304E+04  0.10100000352E+00 0. -1.
</event>
<event>
 5   0  0.1005265E-05  0.2503762E+04  0.7818609E-02  0.8401646E-01
        1   -1    0    0  501    0  0.00000000000E+00  0.00000000000E+00  0.13385695071E+04  0.13385695071E+04  0.50400001928E-02 0. -1.
       -1   -1    0    0    0  501  0.00000000000E+00  0.00000000000E+00 -0.11708067613E+04  0.11708067613E+04  0.50400001928E-02 0.  1.
    10030    2    1    2    0    0  0.00000000000E+00  0.00000000000E+00  0.16776274584E+03  0.25093762684E+04  0.25037621528E+04 0.  0.
        3    1    3    3  502    0 -0.11539176897E+04  0.45440677900E+03  0.25512895752E+03  0.12661367820E+04  0.10100000352E+00 0. -1.
       -3    1    3    3    0  502  0.11539176897E+04 -0.45440677900E+03 -0.87366211679E+02  0.12432394864E+04  0.10100000352E+00 0.  1.
</event>
<event>
 5   0  0.1036691E-05  0.2390259E+04  0.7818609E-02  0.8443160E-01
        1   -1    0    0  501    0  0.00000000000E+00  0.00000000000E+00  0.17133549736E+04  0.17133549736E+04  0.50400001928E-02 0. -1.
       -1   -1    0    0    0  501  0.00000000000E+00  0.00000000000E+00 -0.83364742927E+03  0.83364742929E+03  0.50400001928E-02 0.  1.
    10030    2    1    2    0    0  0.00000000000E+00  0.00000000000E+00  0.87970754430E+03  0.25470024029E+04  0.23902585376E+04 0.  0.
        4    1    3    3  502    0 -0.35709556532E+03  0.65877793804E+03  0.14319427556E+04  0.16161581861E+04  0.12699999809E+01 0. -1.
       -4    1    3    3    0  502  0.35709556532E+03 -0.65877793804E+03 -0.55223521125E+03  0.93084421676E+03  0.12699999809E+01 0.  1.
</event>
<event>
 5   0  0.2516518E-05  0.2655366E+04  0.7818609E-02  0.8349634E-01
       -2   -1    0    0    0  501  0.00000000000E+00  0.00000000000E+00  0.10935105970E+04  0.10935105970E+04  0.25500000920E-02 0. -1.
        2   -1    0    0  501    0  0.00000000000E+00  0.00000000000E+00 -0.16120031498E+04  0.16120031498E+04  0.25500000920E-02 0.  1.
    10030    2    1    2    0    0  0.00000000000E+00  0.00000000000E+00 -0.51849255281E+03  0.27055137467E+04  0.26553662848E+04 0.  0.
        4    1    3    3  502    0 -0.97638184769E+03 -0.45860181094E+03  0.52938925166E+03  0.12016204585E+04  0.12699999809E+01 0. -1.
       -4    1    3    3    0  502  0.97638184769E+03  0.45860181094E+03 -0.10478818045E+04  0.15038932883E+04  0.12699999809E+01 0.  1.
</event>
<event>
 5   0  0.1005265E-05  0.2622908E+04  0.7818609E-02  0.8360461E-01
       -1   -1    0    0    0  501  0.00000000000E+00  0.00000000000E+00  0.16085340491E+04  0.16085340491E+04  0.50400001928E-02 0.  1.
        1   -1    0    0  501    0  0.00000000000E+00  0.00000000000E+00 -0.10692413386E+04  0.10692413386E+04  0.50400001928E-02 0. -1.
    10030    2    1    2    0    0  0.00000000000E+00  0.00000000000E+00  0.53929271049E+03  0.26777753877E+04  0.26229076231E+04 0.  0.
        3    1    3    3  502    0 -0.84968256167E+02 -0.99577304107E+03 -0.59730991051E+03  0.11642863451E+04  0.10100000352E+00 0. -1.
       -3    1    3    3    0  502  0.84968256167E+02  0.99577304107E+03  0.11366026210E+04  0.15134890426E+04  0.10100000352E+00 0.  1.
</event>
<event>
 5   0  0.2641216E-05  0.2650747E+04  0.7818609E-02  0.8351165E-01
       -2   -1    0    0    0  501  0.00000000000E+00  0.00000000000E+00  0.15408058027E+04  0.15408058027E+04  0.25500000920E-02 0.  1.
        2   -1    0    0  501    0  0.00000000000E+00  0.00000000000E+00 -0.11400624477E+04  0.11400624477E+04  0.25500000920E-02 0. -1.
    10030    2    1    2    0    0  0.00000000000E+00  0.00000000000E+00  0.40074335499E+03  0.26808682503E+04  0.26507469398E+04 0.  0.
        5    1    3    3  502    0 -0.99024889228E+03 -0.49476388290E+03  0.93749430281E+03  0.14506211863E+04  0.46999998093E+01 0.  1.
       -5    1    3    3    0  502  0.99024889228E+03  0.49476388290E+03 -0.53675094782E+03  0.12302470640E+04  0.46999998093E+01 0. -1.
</event>
<event>
 5   0  0.1005265E-05  0.2648725E+04  0.7818609E-02  0.8351836E-01
       -1   -1    0    0    0  501  0.00000000000E+00  0.00000000000E+00  0.12040622236E+04  0.12040622236E+04  0.50400001928E-02 0. -1.
        1   -1    0    0  501    0  0.00000000000E+00  0.00000000000E+00 -0.14566820286E+04  0.14566820286E+04  0.50400001928E-02 0.  1.
    10030    2    1    2    0    0  0.00000000000E+00  0.00000000000E+00 -0.25261980502E+03  0.26607442522E+04  0.26487248271E+04 0.  0.
        3    1    3    3  502    0  0.10755034274E+04 -0.76952318210E+03 -0.19778219956E+03  0.13371579409E+04  0.10100000352E+00 0. -1.
       -3    1    3    3    0  502 -0.10755034274E+04  0.76952318210E+03 -0.54837605461E+02  0.13235863113E+04  0.10100000352E+00 0.  1.
</event>
<event>
 5   0  0.2540232E-05  0.2748836E+04  0.7818609E-02  0.8319331E-01
       -2   -1    0    0    0  501  0.00000000000E+00  0.00000000000E+00  0.11226905242E+04  0.11226905242E+04  0.25500000920E-02 0. -1.
        2   -1    0    0  501    0  0.00000000000E+00  0.00000000000E+00 -0.16825867068E+04  0.16825867068E+04  0.25500000920E-02 0.  1.
    10030    2    1    2    0    0  0.00000000000E+00  0.00000000000E+00 -0.55989618255E+03  0.28052772310E+04  0.27488355002E+04 0.  0.
        1    1    3    3  502    0  0.98364595251E+03 -0.78842386022E+03  0.27888350291E+03  0.12911032304E+04  0.50400001928E-02 0. -1.
       -1    1    3    3    0  502 -0.98364595251E+03  0.78842386022E+03 -0.83877968547E+03  0.15141740006E+04  0.50400001928E-02 0.  1.
</event>
<event>
 5   0  0.1005265E-05  0.2619940E+04  0.7818609E-02  0.8361459E-01
        1   -1    0    0  501    0  0.00000000000E+00  0.00000000000E+00  0.16320592004E+04  0.16320592004E+04  0.50400001928E-02 0. -1.
       -1   -1    0    0    0  501  0.00000000000E+00  0.00000000000E+00 -0.10514456688E+04  0.10514456688E+04  0.50400001928E-02 0.  1.
    10030    2    1    2    0    0  0.00000000000E+00  0.00000000000E+00  0.58061353158E+03  0.26835048692E+04  0.26199401348E+04 0.  0.
        3    1    3    3  502    0  0.10494166704E+04 -0.58933136483E+03  0.81999453905E+03  0.14563577376E+04  0.10100000352E+00 0. -1.
       -3    1    3    3    0  502 -0.10494166704E+04  0.58933136483E+03 -0.23938100747E+03  0.12271471316E+04  0.10100000352E+00 0.  1.
</event>
<event>
 5   0  0.2641216E-05  0.2331134E+04  0.7818609E-02  0.8465746E-01
        2   -1    0    0  501    0  0.00000000000E+00  0.00000000000E+00  0.17474752293E+04  0.17474752293E+04  0.25500000920E-02 0. -1.
       -2   -1    0    0    0  501  0.00000000000E+00  0.00000000000E+00 -0.77743395558E+03  0.77743395559E+03  0.25500000920E-02 0.  1.
    10030    2    1    2    0    0  0.00000000000E+00  0.00000000000E+00  0.97004127367E+03  0.25249091848E+04  0.23311341272E+04 0.  0.
        5    1    3    3  502    0  0.76656326005E+03  0.46070027491E+03 -0.32454578807E+03  0.95142841744E+03  0.46999998093E+01 0. -1.
       -5    1    3    3    0  502 -0.76656326005E+03 -0.46070027491E+03  0.12945870617E+04  0.15734807674E+04  0.46999998093E+01 0.  1.
</event>
<event>
 5   0  0.2615843E-05  0.2732169E+04  0.7818609E-02  0.8324642E-01
       -2   -1    0    0    0  501  0.00000000000E+00  0.00000000000E+00  0.11484959970E+04  0.11484959970E+04  0.25500000920E-02 0. -1.
        2   -1    0    0  501    0  0.00000000000E+00  0.00000000000E+00 -0.16248966820E+04  0.16248966820E+04  0.25500000920E-02 0.  1.
    10030    2    1    2    0    0  0.00000000000E+00  0.00000000000E+00 -0.47640068501E+03  0.27733926789E+04  0.27321693467E+04 0.  0.
        3    1    3    3  502    0  0.74901162852E+03  0.10400583846E+04  0.24163414919E+03  0.13042725694E+04  0.10100000352E+00 0.  1.
       -3    1    3    3    0  502 -0.74901162852E+03 -0.10400583846E+04 -0.71803483420E+03  0.14691201096E+04  0.10100000352E+00 0. -1.
</event>
<event>
 5   0  0.2615843E-05  0.2627912E+04  0.7818609E-02  0.8358781E-01
        2   -1    0    0  501    0  0.00000000000E+00  0.00000000000E+00  0.61915382166E+03  0.61915382167E+03  0.25500000920E-02 0.  1.
       -2   -1    0    0    0  501  0.00000000000E+00  0.00000000000E+00 -0.27884514670E+04  0.27884514670E+04  0.25500000920E-02 0. -1.
    10030    2    1    2    0    0  0.00000000000E+00  0.00000000000E+00 -0.21692976453E+04  0.34076052886E+04  0.26279120094E+04 0.  0.
        3    1    3    3  502    0 -0.72809781995E+03 -0.61642516770E+03 -0.22562587230E+04  0.24496550488E+04  0.10100000352E+00 0. -1.
       -3    1    3    3    0  502  0.72809781995E+03  0.61642516770E+03  0.86961077681E+02  0.95795023985E+03  0.10100000352E+00 0.  1.
</event>
<event>
 5   0  0.1096672E-05  0.2740969E+04  0.7818609E-02  0.8321833E-01
        1   -1    0    0  501    0  0.00000000000E+00  0.00000000000E+00  0.20752383981E+04  0.20752383981E+04  0.50400001928E-02 0. -1.
       -1   -1    0    0    0  501  0.00000000000E+00  0.00000000000E+00 -0.90506613449E+03  0.90506613450E+03  0.50400001928E-02 0.  1.
    10030    2    1    2    0    0  0.00000000000E+00  0.00000000000E+00  0.11701722636E+04  0.29803045326E+04  0.27409691681E+04 0.  0.
        1    1    3    3  502    0 -0.55795919436E+03  0.10361543020E+04  0.13487624429E+04  0.17899984155E+04  0.50400001928E-02 0. -1.
       -1    1    3    3    0  502  0.55795919436E+03 -0.10361543020E+04 -0.17859017929E+03  0.11903061171E+04  0.50400001928E-02 0.  1.
</event>
<event>
 5   0  0.1036691E-05  0.2721657E+04  0.7818609E-02  0.8328012E-01
       -1   -1    0    0    0  501  0.00000000000E+00  0.00000000000E+00  0.12389540001E+04  0.12389540001E+04  0.50400001928E-02 0.  1.
        1   -1    0    0  501    0  0.00000000000E+00  0.00000000000E+00 -0.14946920325E+04  0.14946920325E+04  0.50400001928E-02 0. -1.
    10030    2    1    2    0    0  0.00000000000E+00  0.00000000000E+00 -0.25573803243E+03  0.27336460326E+04  0.27216573425E+04 0.  0.
        4    1    3    3  502    0  0.52597229172E+03  0.10457202918E+04 -0.82495445577E+03  0.14320367479E+04  0.12699999809E+01 0. -1.
       -4    1    3    3    0  502 -0.52597229172E+03 -0.10457202918E+04  0.56921642334E+03  0.13016092846E+04  0.12699999809E+01 0.  1.
</event>
<event>
 5   0  0.1096672E-05  0.2774283E+04  0.7818609E-02  0.8311297E-01
        1   -1    0    0  501    0  0.00000000000E+00  0.00000000000E+00  0.11186691150E+04  0.11186691150E+04  0.50400001928E-02 0.  1.
       -1   -1    0    0    0  501  0.00000000000E+00  0.00000000000E+00 -0.17200452837E+04  0.17200452837E+04  0.50400001928E-02 0. -1.
    10030    2    1    2    0    0  0.00000000000E+00  0.00000000000E+00 -0.60137616866E+03  0.28387143987E+04  0.27742829958E+04 0.  0.
        1    1    3    3  502    0 -0.15103960191E+02 -0.13246717218E+04  0.12017727924E+03  0.13301976840E+04  0.50400001928E-02 0.  1.
       -1    1    3    3    0  502  0.15103960191E+02  0.13246717218E+04 -0.72155344790E+03  0.15085167146E+04  0.50400001928E-02 0. -1.
</event>
<event>
 5   0  0.8740500E-06  0.2642790E+04  0.7818609E-02  0.8353810E-01
       -3   -1    0    0    0  501  0.00000000000E+00  0.00000000000E+00  0.15295060108E+04  0.15295060141E+04  0.10100000352E+00 0. -1.
        3   -1    0    0  501    0  0.00000000000E+00  0.00000000000E+00 -0.11416000427E+04  0.11416000471E+04  0.10100000352E+00 0.  1.
    10030    2    1    2    0    0  0.00000000000E+00  0.00000000000E+00  0.38790596815E+03  0.26711060613E+04  0.26427895396E+04 0.  0.
        2    1    3    3  502    0 -0.10317227750E+04  0.22479289962E+03  0.99688316602E+03  0.14521569402E+04  0.25500000920E-02 0. -1.
       -2    1    3    3    0  502  0.10317227750E+04 -0.22479289962E+03 -0.60897719787E+03  0.12189491211E+04  0.25500000920E-02 0.  1.
</event>
<event>
 5   0  0.1005265E-05  0.2715660E+04  0.7818609E-02  0.8329942E-01
       -1   -1    0    0    0  501  0.00000000000E+00  0.00000000000E+00  0.10930346973E+04  0.10930346973E+04  0.50400001928E-02 0. -1.
        1   -1    0    0  501    0  0.00000000000E+00  0.00000000000E+00 -0.16867740923E+04  0.16867740923E+04  0.50400001928E-02 0.  1.
    10030    2    1    2    0    0  0.00000000000E+00  0.00000000000E+00 -0.59373939494E+03  0.27798087896E+04  0.27156602213E+04 0.  0.
        3    1    3    3  502    0 -0.84469209333E+03 -0.61267557511E+03  0.59246055115E+03  0.11999523356E+04  0.10100000352E+00 0. -1.
       -3    1    3    3    0  502  0.84469209333E+03  0.61267557511E+03 -0.11861999461E+04  0.15798564540E+04  0.10100000352E+00 0.  1.
</event>
<event>
 5   0  0.1036691E-05  0.2758272E+04  0.7818609E-02  0.8316342E-01
       -1   -1    0    0    0  501  0.00000000000E+00  0.00000000000E+00  0.17194414219E+04  0.17194414220E+04  0.50400001928E-02 0.  1.
        1   -1    0    0  501    0  0.00000000000E+00  0.00000000000E+00 -0.11061825749E+04  0.11061825749E+04  0.50400001928E-02 0. -1.
    10030    2    1    2    0    0  0.00000000000E+00  0.00000000000E+00  0.61325884709E+03  0.28256239968E+04  0.27582720239E+04 0.  0.
        4    1    3    3  502    0  0.63442410986E+03  0.11560722599E+04  0.72024262975E+03  0.15025804737E+04  0.12699999809E+01 0. -1.
       -4    1    3    3    0  502 -0.63442410986E+03 -0.11560722599E+04 -0.10698378266E+03  0.13230435231E+04  0.12699999809E+01 0.  1.
</event>
<event>
 5   0  0.9971923E-06  0.2610308E+04  0.7818609E-02  0.8364708E-01
       -1   -1    0    0    0  501  0.00000000000E+00  0.00000000000E+00  0.17551232901E+04  0.17551232901E+04  0.50400001928E-02 0. -1.
        1   -1    0    0  501    0  0.00000000000E+00  0.00000000000E+00 -0.97054545327E+03  0.97054545328E+03  0.50400001928E-02 0.  1.
    10030    2    1    2    0    0  0.00000000000E+00  0.00000000000E+00  0.78457783679E+03  0.27256687433E+04  0.26103079735E+04 0.  0.
        2    1    3    3  502    0  0.22428334749E+02 -0.11031233065E+04 -0.33568968036E+03  0.11532873107E+04  0.25500000920E-02 0.  1.
       -2    1    3    3    0  502 -0.22428334749E+02  0.11031233065E+04  0.11202675171E+04  0.15723814326E+04  0.25500000920E-02 0. -1.
</event>
<event>
 5   0  0.2540684E-05  0.2612838E+04  0.7818609E-02  0.8363854E-01
       -2   -1    0    0    0  501  0.00000000000E+00  0.00000000000E+00  0.16436816484E+04  0.16436816484E+04  0.25500000920E-02 0.  1.
        2   -1    0    0  501    0  0.00000000000E+00  0.00000000000E+00 -0.10383580029E+04  0.10383580029E+04  0.25500000920E-02 0. -1.
    10030    2    1    2    0    0  0.00000000000E+00  0.00000000000E+00  0.60532364553E+03  0.26820396513E+04  0.26128375333E+04 0.  0.
        2    1    3    3  502    0 -0.63850790302E+03 -0.74618028546E+03 -0.58169730281E+03  0.11414241599E+04  0.25500000920E-02 0. -1.
       -2    1    3    3    0  502  0.63850790302E+03  0.74618028546E+03  0.11870209483E+04  0.15406154914E+04  0.25500000920E-02 0.  1.
</event>
<event>
 5   0  0.1041909E-05  0.2746966E+04  0.7818609E-02  0.8319925E-01
       -1   -1    0    0    0  501  0.00000000000E+00  0.00000000000E+00  0.12767581605E+04  0.12767581605E+04  0.50400001928E-02 0. -1.
        1   -1    0    0  501    0  0.00000000000E+00  0.00000000000E+00 -0.14775350641E+04  0.14775350641E+04  0.50400001928E-02 0.  1.
    10030    2    1    2    0    0  0.00000000000E+00  0.00000000000E+00 -0.20077690362E+03  0.27542932246E+04  0.27469655626E+04 0.  0.
        5    1    3    3  502    0  0.13800059648E+03  0.90246058740E+03  0.92848407906E+03  0.13021459409E+04  0.46999998093E+01 0. -1.
       -5    1    3    3    0  502 -0.13800059648E+03 -0.90246058740E+03 -0.11292609827E+04  0.14521472837E+04  0.46999998093E+01 0.  1.
</event>
<event>
 5   0  0.1005265E-05  0.2506822E+04  0.7818609E-02  0.8400559E-01
       -1   -1    0    0    0  501  0.00000000000E+00  0.00000000000E+00  0.83119664386E+03  0.83119664387E+03  0.50400001928E-02 0.  1.
        1   -1    0    0  501    0  0.00000000000E+00  0.00000000000E+00 -0.18900929441E+04  0.18900929441E+04  0.50400001928E-02 0. -1.
    10030    2    1    2    0    0  0.00000000000E+00  0.00000000000E+00 -0.10588963002E+04  0.27212895880E+04  0.25068218219E+04 0.  0.
        3    1    3    3  502    0 -0.45499415742E+03 -0.11647767624E+04 -0.43660752937E+03  0.13245190578E+04  0.10100000352E+00 0. -1.
       -3    1    3    3    0  502  0.45499415742E+03  0.11647767624E+04 -0.62228877088E+03  0.13967705302E+04  0.10100000352E+00 0.  1.
</event>
<event>
 5   0  0.2540684E-05  0.2736354E+04  0.7818609E-02  0.8323305E-01
       -2   -1    0    0    0  501  0.00000000000E+00  0.00000000000E+00  0.85335876435E+03  0.85335876435E+03  0.25500000920E-02 0.  1.
        2   -1    0    0  501    0  0.00000000000E+00  0.00000000000E+00 -0.21935772568E+04  0.21935772568E+04  0.25500000920E-02 0. -1.
    10030    2    1    2    0    0  0.00000000000E+00  0.00000000000E+00 -0.13402184925E+04  0.30469360212E+04  0.27363540541E+04 0.  0.
        2    1    3    3  502    0 -0.71751851379E+03  0.91115068948E+03  0.13814295166E+03  0.11679519989E+04  0.25500000920E-02 0.  1.
       -2    1    3    3    0  502  0.71751851379E+03 -0.91115068948E+03 -0.14783614442E+04  0.18789840223E+04  0.25500000920E-02 0. -1.
</event>
<event>
 5   0  0.9971923E-06  0.2676277E+04  0.7818609E-02  0.8342743E-01
        1   -1    0    0  501    0  0.00000000000E+00  0.00000000000E+00  0.12176410792E+04  0.12176410792E+04  0.50400001928E-02 0.  1.
       -1   -1    0    0    0  501  0.00000000000E+00  0.00000000000E+00 -0.14705606736E+04  0.14705606736E+04  0.50400001928E-02 0. -1.
    10030    2    1    2    0    0  0.00000000000E+00  0.00000000000E+00 -0.25291959442E+03  0.26882017528E+04  0.26762773292E+04 0.  0.
        2    1    3    3  502    0  0.65022422005E+00 -0.86643638887E+03  0.89783999960E+03  0.12477295795E+04  0.25500000920E-02 0.  1.
       -2    1    3    3    0  502 -0.65022422005E+00  0.86643638887E+03 -0.11507595940E+04  0.14404721733E+04  0.25500000920E-02 0. -1.
</event>
<event>
 5   0  0.1041909E-05  0.2700820E+04  0.7818609E-02  0.8334739E-01
        1   -1    0    0  501    0  0.00000000000E+00  0.00000000000E+00  0.22514736784E+04  0.22514736784E+04  0.50400001928E-02 0.  1.
       -1   -1    0    0    0  501  0.00000000000E+00  0.00000000000E+00 -0.80996154521E+03  0.80996154522E+03  0.50400001928E-02 0. -1.
    10030    2    1    2    0    0  0.00000000000E+00  0.00000000000E+00  0.14415121331E+04  0.30614352236E+04  0.27008199492E+04 0.  0.
        5    1    3    3  502    0 -0.11432228663E+04  0.61031478883E+01  0.15354643266E+04  0.19143324055E+04  0.46999998093E+01 0.  1.
       -5    1    3    3    0  502  0.11432228663E+04 -0.61031478883E+01 -0.93952193501E+02  0.11471028180E+04  0.46999998093E+01 0. -1.
</event>
<event>
 5   0  0.2540232E-05  0.2729122E+04  0.7818609E-02  0.8325617E-01
        2   -1    0    0  501    0  0.00000000000E+00  0.00000000000E+00  0.17888057953E+04  0.17888057953E+04  0.25500000920E-02 0. -1.
       -2   -1    0    0    0  501  0.00000000000E+00  0.00000000000E+00 -0.10409328830E+04  0.10409328830E+04  0.25500000920E-02 0.  1.
    10030    2    1    2    0    0  0.00000000000E+00  0.00000000000E+00  0.74787291225E+03  0.28297386783E+04  0.27291220373E+04 0.  0.
        1    1    3    3  502    0  0.27214161969E+03  0.12830589954E+04  0.76428009672E+03  0.15180334361E+04  0.50400001928E-02 0. -1.
       -1    1    3    3    0  502 -0.27214161969E+03 -0.12830589954E+04 -0.16407184472E+02  0.13117052422E+04  0.50400001928E-02 0.  1.
</event>
<event>
 5   0  0.2540684E-05  0.2769007E+04  0.7818609E-02  0.8312955E-01
       -2   -1    0    0    0  501  0.00000000000E+00  0.00000000000E+00  0.96462308952E+03  0.96462308952E+03  0.25500000920E-02 0. -1.
        2   -1    0    0  501    0  0.00000000000E+00  0.00000000000E+00 -0.19871492779E+04  0.19871492779E+04  0.25500000920E-02 0.  1.
    10030    2    1    2    0    0  0.00000000000E+00  0.00000000000E+00 -0.10225261884E+04  0.29517723674E+04  0.27690070970E+04 0.  0.
        2    1    3    3  502    0 -0.68282737659E+03  0.72946040396E+03 -0.15328955439E+04  0.18297908229E+04  0.25500000920E-02 0.  1.
       -2    1    3    3    0  502  0.68282737659E+03 -0.72946040396E+03  0.51036935550E+03  0.11219815445E+04  0.25500000920E-02 0. -1.
</event>
<event>
 5   0  0.2516518E-05  0.2699106E+04  0.7818609E-02  0.8335295E-01
        2   -1    0    0  501    0  0.00000000000E+00  0.00000000000E+00  0.14923446750E+04  0.14923446750E+04  0.25500000920E-02 0. -1.
       -2   -1    0    0    0  501  0.00000000000E+00  0.00000000000E+00 -0.12204241231E+04  0.12204241231E+04  0.25500000920E-02 0.  1.
    10030    2    1    2    0    0  0.00000000000E+00  0.00000000000E+00  0.27192055189E+03  0.27127687980E+04  0.26991061048E+04 0.  0.
        4    1    3    3  502    0  0.22203630388E+03 -0.12057633206E+04 -0.43092184957E+03  0.12995616795E+04  0.12699999809E+01 0.  1.
       -4    1    3    3    0  502 -0.22203630388E+03  0.12057633206E+04  0.70284240146E+03  0.14132071185E+04  0.12699999809E+01 0. -1.
</event>
<event>
 5   0  0.2641216E-05  0.2761331E+04  0.7818609E-02  0.8315375E-01
       -2   -1    0    0    0  501  0.00000000000E+00  0.00000000000E+00  0.13839736592E+04  0.13839736592E+04  0.25500000920E-02 0.  1.
        2   -1    0    0  501    0  0.00000000000E+00  0.00000000000E+00 -0.13773649750E+04  0.13773649750E+04  0.25500000920E-02 0. -1.
    10030    2    1    2    0    0  0.00000000000E+00  0.00000000000E+00  0.66086842453E+01  0.27613386343E+04  0.27613307260E+04 0.  0.
        5    1    3    3  502    0 -0.11823343269E+04  0.19601368096E+03 -0.68217477673E+03  0.13790287668E+04  0.46999998093E+01 0. -1.
       -5    1    3    3    0  502  0.11823343269E+04 -0.19601368096E+03  0.68878346098E+03  0.13823098675E+04  0.46999998093E+01 0.  1.
</event>
<event>
 5   0  0.2516518E-05  0.2646231E+04  0.7818609E-02  0.8352665E-01
        2   -1    0    0  501    0  0.00000000000E+00  0.00000000000E+00  0.17708260936E+04  0.17708260936E+04  0.25500000920E-02 0. -1.
       -2   -1    0    0    0  501  0.00000000000E+00  0.00000000000E+00 -0.98859746730E+03  0.98859746730E+03  0.25500000920E-02 0.  1.
    10030    2    1    2    0    0  0.00000000000E+00  0.00000000000E+00  0.78222862633E+03  0.27594235609E+04  0.26462306711E+04 0.  0.
        4    1    3    3  502    0 -0.13703220320E+02  0.52628580818E+03  0.16569024779E+04  0.17385315540E+04  0.12699999809E+01 0. -1.
       -4    1    3    3    0  502  0.13703220320E+02 -0.52628580818E+03 -0.87467385161E+03  0.10208920069E+04  0.12699999809E+01 0.  1.
</event>
<event>
 5   0  0.2540232E-05  0.2784504E+04  0.7818609E-02  0.8308095E-01
       -2   -1    0    0    0  501  0.00000000000E+00  0.00000000000E+00  0.12022048199E+04  0.12022048199E+04  0.25500000920E-02 0. -1.
        2   -1    0    0  501    0  0.00000000000E+00  0.00000000000E+00 -0.16123421203E+04  0.16123421203E+04  0.25500000920E-02 0.  1.
    10030    2    1    2    0    0  0.00000000000E+00  0.00000000000E+00 -0.41013730049E+03  0.28145469402E+04  0.27845038828E+04 0.  0.
        1    1    3    3  502    0 -0.95533385343E+03 -0.47338757340E+03  0.69991637346E+03  0.12753985636E+04  0.50400001928E-02 0. -1.
       -1    1    3    3    0  502  0.95533385343E+03  0.47338757340E+03 -0.11100536739E+04  0.15391483766E+04  0.50400001928E-02 0.  1.
</event>
<event>
 5   0  0.9971923E-06  0.2738315E+04  0.7818609E-02  0.8322679E-01
        1   -1    0    0  501    0  0.00000000000E+00  0.00000000000E+00  0.24704060724E+04  0.24704060724E+04  0.50400001928E-02 0. -1.
       -1   -1    0    0    0  501  0.00000000000E+00  0.00000000000E+00 -0.75881946146E+03  0.75881946147E+03  0.50400001928E-02 0.  1.
    10030    2    1    2    0    0  0.00000000000E+00  0.00000000000E+00  0.17115866109E+04  0.32292255339E+04  0.27383149603E+04 0.  0.
        2    1    3    3  502    0  0.69383102269E+03 -0.97445998806E+03  0.16412455377E+04  0.20309260625E+04  0.25500000920E-02 0. -1.
       -2    1    3    3    0  502 -0.69383102269E+03  0.97445998806E+03  0.70341073195E+02  0.11982994713E+04  0.25500000920E-02 0.  1.
</event>
<event>
 5   0  0.2540684E-05  0.2669126E+04  0.7818609E-02  0.8345092E-01
       -2   -1    0    0    0  501  0.00000000000E+00  0.00000000000E+00  0.10299971969E+04  0.10299971969E+04  0.25500000920E-02 0. -1.
        2   -1    0    0  501    0  0.00000000000E+00  0.00000000000E+00 -0.17291882442E+04  0.17291882442E+04  0.25500000920E-02 0.  1.
    10030    2    1    2    0    0  0.00000000000E+00  0.00000000000E+00 -0.69919104723E+03  0.27591854411E+04  0.26691264822E+04 0.  0.
        2    1    3    3  502    0 -0.57689140815E+03 -0.98217350308E+03 -0.10684659900E+04  0.15617580027E+04  0.25500000920E-02 0.  1.
       -2    1    3    3    0  502  0.57689140815E+03  0.98217350308E+03  0.36927494282E+03  0.11974274384E+04  0.25500000920E-02 0. -1.
</event>
<event>
 5   0  0.2615843E-05  0.2728275E+04  0.7818609E-02  0.8325889E-01
        2   -1    0    0  501    0  0.00000000000E+00  0.00000000000E+00  0.18036307659E+04  0.18036307659E+04  0.25500000920E-02 0.  1.
       -2   -1    0    0    0  501  0.00000000000E+00  0.00000000000E+00 -0.10317359778E+04  0.10317359778E+04  0.25500000920E-02 0. -1.
    10030    2    1    2    0    0  0.00000000000E+00  0.00000000000E+00  0.77189478804E+03  0.28353667437E+04  0.27282747310E+04 0.  0.
        3    1    3    3  502    0  0.35927234816E+02  0.78839812039E+03  0.15422804278E+04  0.17324812526E+04  0.10100000352E+00 0. -1.
       -3    1    3    3    0  502 -0.35927234816E+02 -0.78839812039E+03 -0.77038563974E+03  0.11028854911E+04  0.10100000352E+00 0.  1.
</event>
<event>
 5   0  0.2641216E-05  0.2708139E+04  0.7818609E-02  0.8332369E-01
        2   -1    0    0  501    0  0.00000000000E+00  0.00000000000E+00  0.12109785496E+04  0.12109785496E+04  0.25500000920E-02 0.  1.
       -2   -1    0    0    0  501  0.00000000000E+00  0.00000000000E+00 -0.15140686526E+04  0.15140686526E+04  0.25500000920E-02 0. -1.
    10030    2    1    2    0    0  0.00000000000E+00  0.00000000000E+00 -0.30309010301E+03  0.27250472022E+04  0.27081393324E+04 0.  0.
        5    1    3    3  502    0 -0.37018734519E+03 -0.12967813731E+03  0.11525507911E+04  0.12174771069E+04  0.46999998093E+01 0.  1.
       -5    1    3    3    0  502  0.37018734519E+03  0.12967813731E+03 -0.14556408941E+04  0.15075700953E+04  0.46999998093E+01 0. -1.
</event>
<event>
 5   0  0.2540232E-05  0.2773246E+04  0.7818609E-02  0.8311623E-01
       -2   -1    0    0    0  501  0.00000000000E+00  0.00000000000E+00  0.14697688020E+04  0.14697688020E+04  0.25500000920E-02 0. -1.
        2   -1    0    0  501    0  0.00000000000E+00  0.00000000000E+00 -0.13081804825E+04  0.13081804825E+04  0.25500000920E-02 0.  1.
    10030    2    1    2    0    0  0.00000000000E+00  0.00000000000E+00  0.16158831953E+03  0.27779492845E+04  0.27732456513E+04 0.  0.
        1    1    3    3  502    0 -0.10910333102E+04  0.84220792946E+03  0.23289035418E+03  0.13978218047E+04  0.50400001928E-02 0.  1.
       -1    1    3    3    0  502  0.10910333102E+04 -0.84220792946E+03 -0.71302034652E+02  0.13801274799E+04  0.50400001928E-02 0. -1.
</event>
<event>
 5   0  0.1096672E-05  0.2687223E+04  0.7818609E-02  0.8339163E-01
       -1   -1    0    0    0  501  0.00000000000E+00  0.00000000000E+00  0.98752788293E+03  0.98752788294E+03  0.50400001928E-02 0. -1.
        1   -1    0    0  501    0  0.00000000000E+00  0.00000000000E+00 -0.18280917046E+04  0.18280917046E+04  0.50400001928E-02 0.  1.
    10030    2    1    2    0    0  0.00000000000E+00  0.00000000000E+00 -0.84056382163E+03  0.28156195875E+04  0.26872227528E+04 0.  0.
        1    1    3    3  502    0 -0.25931012532E+00  0.50470960251E+03  0.88442977786E+03  0.10183063793E+04  0.50400001928E-02 0. -1.
       -1    1    3    3    0  502  0.25931012532E+00 -0.50470960251E+03 -0.17249935995E+04  0.17973132082E+04  0.50400001928E-02 0.  1.
</event>
<event>
 5   0  0.2540684E-05  0.2239543E+04  0.7818609E-02  0.8502148E-01
       -2   -1    0    0    0  501  0.00000000000E+00  0.00000000000E+00  0.74010675713E+03  0.74010675714E+03  0.25500000920E-02 0.  1.
        2   -1    0    0  501    0  0.00000000000E+00  0.00000000000E+00 -0.16941984705E+04  0.16941984705E+04  0.25500000920E-02 0. -1.
    10030    2    1    2    0    0  0.00000000000E+00  0.00000000000E+00 -0.95409171340E+03  0.24343052277E+04  0.22395425747E+04 0.  0.
        2    1    3    3  502    0 -0.59840841989E+03 -0.78538058543E+03  0.97065787450E+02  0.99213762557E+03  0.25500000920E-02 0.  1.
       -2    1    3    3    0  502  0.59840841989E+03  0.78538058543E+03 -0.10511575008E+04  0.14421676021E+04  0.25500000920E-02 0. -1.
</event>
<event>
 5   0  0.1005265E-05  0.2476775E+04  0.7818609E-02  0.8411307E-01
        1   -1    0    0  501    0  0.00000000000E+00  0.00000000000E+00  0.11573299749E+04  0.11573299749E+04  0.50400001928E-02 0. -1.
       -1   -1    0    0    0  501  0.00000000000E+00  0.00000000000E+00 -0.13251219619E+04  0.13251219619E+04  0.50400001928E-02 0.  1.
    10030    2    1    2    0    0  0.00000000000E+00  0.00000000000E+00 -0.16779198700E+03  0.24824519369E+04  0.24767748117E+04 0.  0.
        3    1    3    3  502    0 -0.99753987115E+03  0.64030398158E+03  0.27543430002E+03  0.12169383909E+04  0.10100000352E+00 0. -1.
       -3    1    3    3    0  502  0.99753987115E+03 -0.64030398158E+03 -0.44322628703E+03  0.12655135460E+04  0.10100000352E+00 0.  1.
</event>
<event>
 5   0  0.2641216E-05  0.2658817E+04  0.7818609E-02  0.8348492E-01
        2   -1    0    0  501    0  0.00000000000E+00  0.00000000000E+00  0.21377194784E+04  0.21377194784E+04  0.25500000920E-02 0.  1.
       -2   -1    0    0    0  501  0.00000000000E+00  0.00000000000E+00 -0.82673496356E+03  0.82673496357E+03  0.25500000920E-02 0. -1.
    10030    2    1    2    0    0  0.00000000000E+00  0.00000000000E+00  0.13109845148E+04  0.29644544419E+04  0.26588173574E+04 0.  0.
        5    1    3    3  502    0 -0.87118096829E+03  0.30429244006E+03  0.17224469216E+04  0.19540715587E+04  0.46999998093E+01 0. -1.
       -5    1    3    3    0  502  0.87118096829E+03 -0.30429244006E+03 -0.41146240682E+03  0.10103828833E+04  0.46999998093E+01 0.  1.
</event>
<event>
 5   0  0.1036691E-05  0.2245543E+04  0.7818609E-02  0.8499708E-01
        1   -1    0    0  501    0  0.00000000000E+00  0.00000000000E+00  0.10183632901E+04  0.10183632901E+04  0.50400001928E-02 0. -1.
       -1   -1    0    0    0  501  0.00000000000E+00  0.00000000000E+00 -0.12378841911E+04  0.12378841912E+04  0.50400001928E-02 0.  1.
    10030    2    1    2    0    0  0.00000000000E+00  0.00000000000E+00 -0.21952090108E+03  0.22562474812E+04  0.22455429790E+04 0.  0.
        4    1    3    3  502    0  0.10035229117E+04 -0.32488932360E+02  0.39512915770E+03  0.10790006623E+04  0.12699999809E+01 0.  1.
       -4    1    3    3    0  502 -0.10035229117E+04  0.32488932360E+02 -0.61465005878E+03  0.11772468189E+04  0.12699999809E+01 0. -1.
</event>
<event>
 5   0  0.2516518E-05  0.2715511E+04  0.7818609E-02  0.8329990E-01
       -2   -1    0    0    0  501  0.00000000000E+00  0.00000000000E+00  0.10674512754E+04  0.10674512754E+04  0.25500000920E-02 0. -1.
        2   -1    0    0  501    0  0.00000000000E+00  0.00000000000E+00 -0.17270111742E+04  0.17270111742E+04  0.25500000920E-02 0.  1.
    10030    2    1    2    0    0  0.00000000000E+00  0.00000000000E+00 -0.65955989884E+03  0.27944624496E+04  0.27155112083E+04 0.  0.
        4    1    3    3  502    0 -0.11241604135E+04  0.65678961082E+03 -0.72619321169E+03  0.14907942252E+04  0.12699999809E+01 0.  1.
       -4    1    3    3    0  502  0.11241604135E+04 -0.65678961082E+03  0.66633312855E+02  0.13036682245E+04  0.12699999809E+01 0. -1.
</event>
<event>
 5   0  0.1096672E-05  0.2755488E+04  0.7818609E-02  0.8317222E-01
        1   -1    0    0  501    0  0.00000000000E+00  0.00000000000E+00  0.21090005485E+04  0.21090005485E+04  0.50400001928E-02 0. -1.
       -1   -1    0    0    0  501  0.00000000000E+00  0.00000000000E+00 -0.90003699134E+03  0.90003699135E+03  0.50400001928E-02 0.  1.
    10030    2    1    2    0    0  0.00000000000E+00  0.00000000000E+00  0.12089635572E+04  0.30090375399E+04  0.27554879847E+04 0.  0.
        1    1    3    3  502    0  0.51798374933E+03  0.29714732520E+03 -0.75136741451E+03  0.95976908112E+03  0.50400001928E-02 0.  1.
       -1    1    3    3    0  502 -0.51798374933E+03 -0.29714732520E+03  0.19603309717E+04  0.20492684587E+04  0.50400001928E-02 0. -1.
</event>
<event>
 5   0  0.2540232E-05  0.2703471E+04  0.7818609E-02  0.8333880E-01
        2   -1    0    0  501    0  0.00000000000E+00  0.00000000000E+00  0.18526461502E+04  0.18526461502E+04  0.25500000920E-02 0. -1.
       -2   -1    0    0    0  501  0.00000000000E+00  0.00000000000E+00 -0.98625862228E+03  0.98625862228E+03  0.25500000920E-02 0.  1.
    10030    2    1    2    0    0  0.00000000000E+00  0.00000000000E+00  0.86638752789E+03  0.28389047725E+04  0.27034705396E+04 0.  0.
        1    1    3    3  502    0 -0.16892081946E+03  0.82908588306E+03 -0.67378450396E+03  0.10816206371E+04  0.50400001928E-02 0.  1.
       -1    1    3    3    0  502  0.16892081946E+03 -0.82908588306E+03  0.15401720319E+04  0.17572841354E+04  0.50400001928E-02 0. -1.
</event>
<event>
 5   0  0.1036691E-05  0.2606908E+04  0.7818609E-02  0.8365858E-01
       -1   -1    0    0    0  501  0.00000000000E+00  0.00000000000E+00  0.11265321169E+04  0.11265321169E+04  0.50400001928E-02 0.  1.
        1   -1    0    0  501    0  0.00000000000E+00  0.00000000000E+00 -0.15081620008E+04  0.15081620008E+04  0.50400001928E-02 0. -1.
    10030    2    1    2    0    0  0.00000000000E+00  0.00000000000E+00 -0.38162988393E+03  0.26346941177E+04  0.26069084613E+04 0.  0.
        4    1    3    3  502    0  0.34998402785E+03  0.27643838095E+03 -0.14286485102E+04  0.14966446395E+04  0.12699999809E+01 0. -1.
       -4    1    3    3    0  502 -0.34998402785E+03 -0.27643838095E+03  0.10470186263E+04  0.11380494782E+04  0.12699999809E+01 0.  1.
</event>
<event>
 5   0  0.2615843E-05  0.2882514E+04  0.7818609E-02  0.8278099E-01
       -2   -1    0    0    0  501  0.00000000000E+00  0.00000000000E+00  0.12220978731E+04  0.12220978731E+04  0.25500000920E-02 0. -1.
        2   -1    0    0  501    0  0.00000000000E+00  0.00000000000E+00 -0.16997175943E+04  0.16997175943E+04  0.25500000920E-02 0.  1.
    10030    2    1    2    0    0  0.00000000000E+00  0.00000000000E+00 -0.47761972123E+03  0.29218154674E+04  0.28825136648E+04 0.  0.
        3    1    3    3  502    0 -0.27567908222E+03  0.33338897733E+03  0.11547345773E+04  0.12331095331E+04  0.10100000352E+00 0. -1.
       -3    1    3    3    0  502  0.27567908222E+03 -0.33338897733E+03 -0.16323542985E+04  0.16887059343E+04  0.10100000352E+00 0.  1.
</event>
<event>
 5   0  0.1005265E-05  0.2701415E+04  0.7818609E-02  0.8334546E-01
       -1   -1    0    0    0  501  0.00000000000E+00  0.00000000000E+00  0.12518441814E+04  0.12518441814E+04  0.50400001928E-02 0. -1.
        1   -1    0    0  501    0  0.00000000000E+00  0.00000000000E+00 -0.14573783763E+04  0.14573783763E+04  0.50400001928E-02 0.  1.
    10030    2    1    2    0    0  0.00000000000E+00  0.00000000000E+00 -0.20553419488E+03  0.27092225577E+04  0.27014149185E+04 0.  0.
        3    1    3    3  502    0  0.11509177088E+04  0.29943011730E+03 -0.74504030162E+03  0.14033371045E+04  0.10100000352E+00 0.  1.
       -3    1    3    3    0  502 -0.11509177088E+04 -0.29943011730E+03  0.53950610674E+03  0.13058854532E+04  0.10100000352E+00 0. -1.
</event>
<event>
 5   0  0.2540232E-05  0.1859093E+04  0.7818609E-02  0.8675491E-01
       -2   -1    0    0    0  501  0.00000000000E+00  0.00000000000E+00  0.85663041274E+03  0.85663041274E+03  0.25500000920E-02 0.  1.
        2   -1    0    0  501    0  0.00000000000E+00  0.00000000000E+00 -0.10086688425E+04  0.10086688425E+04  0.25500000920E-02 0. -1.
    10030    2    1    2    0    0  0.00000000000E+00  0.00000000000E+00 -0.15203842977E+03  0.18652992553E+04  0.18590926893E+04 0.  0.
        1    1    3    3  502    0  0.30296207189E+03 -0.28280078898E+03  0.75880067954E+03  0.86460440350E+03  0.50400001928E-02 0.  1.
       -1    1    3    3    0  502 -0.30296207189E+03  0.28280078898E+03 -0.91083910932E+03  0.10006948518E+04  0.50400001928E-02 0. -1.
</event>
<event>
 5   0  0.1036691E-05  0.2740050E+04  0.7818609E-02  0.8322126E-01
        1   -1    0    0  501    0  0.00000000000E+00  0.00000000000E+00  0.11280378755E+04  0.11280378755E+04  0.50400001928E-02 0.  1.
       -1   -1    0    0    0  501  0.00000000000E+00  0.00000000000E+00 -0.16639227515E+04  0.16639227515E+04  0.50400001928E-02 0. -1.
    10030    2    1    2    0    0  0.00000000000E+00  0.00000000000E+00 -0.53588487603E+03  0.27919606270E+04  0.27400495511E+04 0.  0.
        4    1    3    3  502    0 -0.81255726612E+03 -0.31920260931E+03 -0.13437994258E+04  0.16024787444E+04  0.12699999809E+01 0. -1.
       -4    1    3    3    0  502  0.81255726612E+03  0.31920260931E+03  0.80791454976E+03  0.11894818826E+04  0.12699999809E+01 0.  1.
</event>
<event>
 5   0  0.2615843E-05  0.2626977E+04  0.7818609E-02  0.8359095E-01
        2   -1    0    0  501    0  0.00000000000E+00  0.00000000000E+00  0.13656748102E+04  0.13656748102E+04  0.25500000920E-02 0. -1.
       -2   -1    0    0    0  501  0.00000000000E+00  0.00000000000E+00 -0.12632960080E+04  0.12632960080E+04  0.25500000920E-02 0.  1.
    10030    2    1    2    0    0  0.00000000000E+00  0.00000000000E+00  0.10237880220E+03  0.26289708181E+04  0.26269766165E+04 0.  0.
        3    1    3    3  502    0  0.30859742922E+03  0.12448870990E+04 -0.23235457643E+03  0.13034434863E+04  0.10100000352E+00 0.  1.
       -3    1    3    3    0  502 -0.30859742922E+03 -0.12448870990E+04  0.33473337863E+03  0.13255273318E+04  0.10100000352E+00 0. -1.
</event>
<event>
 5   0  0.1036691E-05  0.2547707E+04  0.7818609E-02  0.8386184E-01
        1   -1    0    0  501    0  0.00000000000E+00  0.00000000000E+00  0.15532686485E+04  0.15532686485E+04  0.50400001928E-02 0. -1.
       -1   -1    0    0    0  501  0.00000000000E+00  0.00000000000E+00 -0.10447017654E+04  0.10447017654E+04  0.50400001928E-02 0.  1.
    10030    2    1    2    0    0  0.00000000000E+00  0.00000000000E+00  0.50856688309E+03  0.25979704139E+04  0.25477068114E+04 0.  0.
        4    1    3    3  502    0 -0.54432804367E+03 -0.40748368832E+03 -0.84417099297E+03  0.10839567582E+04  0.12699999809E+01 0.  1.
       -4    1    3    3    0  502  0.54432804367E+03  0.40748368832E+03  0.13527378761E+04  0.15140136557E+04  0.12699999809E+01 0. -1.
</event>
<event>
 5   0  0.8740500E-06  0.2185621E+04  0.7818609E-02  0.8524437E-01
        3   -1    0    0  501    0  0.00000000000E+00  0.00000000000E+00  0.63690182532E+03  0.63690183333E+03  0.10100000352E+00 0.  1.
       -3   -1    0    0    0  501  0.00000000000E+00  0.00000000000E+00 -0.18750684246E+04  0.18750684273E+04  0.10100000352E+00 0. -1.
    10030    2    1    2    0    0  0.00000000000E+00  0.00000000000E+00 -0.12381665992E+04  0.25119702606E+04  0.21856207500E+04 0.  0.
        2    1    3    3  502    0  0.86394782843E+02 -0.85883324286E+03  0.15119545647E+03  0.87630968476E+03  0.25500000920E-02 0.  1.
       -2    1    3    3    0  502 -0.86394782843E+02  0.85883324286E+03 -0.13893620557E+04  0.16356605759E+04  0.25500000920E-02 0. -1.
</event>
<event>
 5   0  0.1036691E-05  0.2685458E+04  0.7818609E-02  0.8339739E-01
       -1   -1    0    0    0  501  0.00000000000E+00  0.00000000000E+00  0.11208641940E+04  0.11208641940E+04  0.50400001928E-02 0.  1.
        1   -1    0    0  501    0  0.00000000000E+00  0.00000000000E+00 -0.16085103941E+04  0.16085103941E+04  0.50400001928E-02 0. -1.
    10030    2    1    2    0    0  0.00000000000E+00  0.00000000000E+00 -0.48764620006E+03  0.27293745881E+04  0.26854584015E+04 0.  0.
        4    1    3    3  502    0  0.71098063012E+02  0.13163718052E+04  0.15357818828E+02  0.13183804988E+04  0.12699999809E+01 0.  1.
       -4    1    3    3    0  502 -0.71098063012E+02 -0.13163718052E+04 -0.50300401889E+03  0.14109940893E+04  0.12699999809E+01 0. -1.
</event>
<event>
 5   0  0.1041909E-05  0.2727110E+04  0.7818609E-02  0.8326262E-01
       -1   -1    0    0    0  501  0.00000000000E+00  0.00000000000E+00  0.21477279418E+04  0.21477279418E+04  0.50400001928E-02 0. -1.
        1   -1    0    0  501    0  0.00000000000E+00  0.00000000000E+00 -0.86569738496E+03  0.86569738498E+03  0.50400001928E-02 0.  1.
    10030    2    1    2    0    0  0.00000000000E+00  0.00000000000E+00  0.12820305569E+04  0.30134253268E+04  0.27271101649E+04 0.  0.
        5    1    3    3  502    0 -0.12289497391E+04  0.40627928318E+03  0.16718253886E+03  0.13051254379E+04  0.46999998093E+01 0.  1.
       -5    1    3    3    0  502  0.12289497391E+04 -0.40627928318E+03  0.11148480180E+04  0.17082998889E+04  0.46999998093E+01 0. -1.
</event>
<event>
 5   0  0.2540684E-05  0.2757200E+04  0.7818609E-02  0.8316681E-01
        2   -1    0    0  501    0  0.00000000000E+00  0.00000000000E+00  0.15775477797E+04  0.15775477797E+04  0.25500000920E-02 0. -1.
       -2   -1    0    0    0  501  0.00000000000E+00  0.00000000000E+00 -0.12047420722E+04  0.12047420722E+04  0.25500000920E-02 0.  1.
    10030    2    1    2    0    0  0.00000000000E+00  0.00000000000E+00  0.37280570745E+03  0.27822898519E+04  0.27572001604E+04 0.  0.
        2    1    3    3  502    0  0.58374039698E+03 -0.15292736034E+03  0.14371975219E+04  0.15587419112E+04  0.25500000920E-02 0. -1.
       -2    1    3    3    0  502 -0.58374039698E+03  0.15292736034E+03 -0.10643918145E+04  0.12235479407E+04  0.25500000920E-02 0.  1.
</event>
<event>
 5   0  0.2516518E-05  0.2688566E+04  0.7818609E-02  0.8338725E-01
        2   -1    0    0  501    0  0.00000000000E+00  0.00000000000E+00  0.10483130517E+04  0.10483130517E+04  0.25500000920E-02 0.  1.
       -2   -1    0    0    0  501  0.00000000000E+00  0.00000000000E+00 -0.17238137164E+04  0.17238137164E+04  0.25500000920E-02 0. -1.
    10030    2    1    2    0    0  0.00000000000E+00  0.00000000000E+00 -0.67550066468E+03  0.27721267681E+04  0.26885657274E+04 0.  0.
        4    1    3    3  502    0 -0.11898181099E+04 -0.52319676804E+03 -0.69147667046E+03  0.14722579908E+04  0.12699999809E+01 0. -1.
       -4    1    3    3    0  502  0.11898181099E+04  0.52319676804E+03  0.15976005781E+02  0.12998687774E+04  0.12699999809E+01 0.  1.
</event>
<event>
 5   0  0.2641216E-05  0.2670538E+04  0.7818609E-02  0.8344628E-01
       -2   -1    0    0    0  501  0.00000000000E+00  0.00000000000E+00  0.12792989863E+04  0.12792989863E+04  0.25500000920E-02 0. -1.
        2   -1    0    0  501    0  0.00000000000E+00  0.00000000000E+00 -0.13936876389E+04  0.13936876389E+04  0.25500000920E-02 0.  1.
    10030    2    1    2    0    0  0.00000000000E+00  0.00000000000E+00 -0.11438865263E+03  0.26729866252E+04  0.26705379111E+04 0.  0.
        5    1    3    3  502    0  0.10315326029E+04  0.69656871090E+02  0.78857130693E+03  0.13002993451E+04  0.46999998093E+01 0. -1.
       -5    1    3    3    0  502 -0.10315326029E+04 -0.69656871090E+02 -0.90295995956E+03  0.13726872802E+04  0.46999998093E+01 0.  1.
</event>
<event>
 5   0  0.2641216E-05  0.2723750E+04  0.7818609E-02  0.8327340E-01
        2   -1    0    0  501    0  0.00000000000E+00  0.00000000000E+00  0.19613356353E+04  0.19613356353E+04  0.25500000920E-02 0.  1.
       -2   -1    0    0    0  501  0.00000000000E+00  0.00000000000E+00 -0.94563261680E+03  0.94563261680E+03  0.25500000920E-02 0. -1.
    10030    2    1    2    0    0  0.00000000000E+00  0.00000000000E+00  0.10157030185E+04  0.29069682521E+04  0.27237495841E+04 0.  0.
        5    1    3    3  502    0 -0.33107497240E+03  0.12473681435E+04  0.43691013386E+02  0.12913051217E+04  0.46999998093E+01 0. -1.
       -5    1    3    3    0  502  0.33107497240E+03 -0.12473681435E+04  0.97201200514E+03  0.16156631304E+04  0.46999998093E+01 0.  1.
</event>
<event>
 5   0  0.1036691E-05  0.2620364E+04  0.7818609E-02  0.8361317E-01
        1   -1    0    0  501    0  0.00000000000E+00  0.00000000000E+00  0.16819793217E+04  0.16819793217E+04  0.50400001928E-02 0. -1.
       -1   -1    0    0    0  501  0.00000000000E+00  0.00000000000E+00 -0.10205692572E+04  0.10205692572E+04  0.50400001928E-02 0.  1.
    10030    2    1    2    0    0  0.00000000000E+00  0.00000000000E+00  0.66141006452E+03  0.27025485789E+04  0.26203636289E+04 0.  0.
        4    1    3    3  502    0  0.11104538700E+04  0.27264498412E+03 -0.32899044407E+03  0.11898232684E+04  0.12699999809E+01 0.  1.
       -4    1    3    3    0  502 -0.11104538700E+04 -0.27264498412E+03  0.99040050860E+03  0.15127253105E+04  0.12699999809E+01 0. -1.
</event>
<event>
 5   0  0.1096672E-05  0.2672198E+04  0.7818609E-02  0.8344082E-01
       -1   -1    0    0    0  501  0.00000000000E+00  0.00000000000E+00  0.93764713143E+03  0.93764713145E+03  0.50400001928E-02 0.  1.
        1   -1    0    0  501    0  0.00000000000E+00  0.00000000000E+00 -0.19038725538E+04  0.19038725538E+04  0.50400001928E-02 0. -1.
    10030    2    1    2    0    0  0.00000000000E+00  0.00000000000E+00 -0.96622542233E+03  0.28415196852E+04  0.26721980755E+04 0.  0.
        1    1    3    3  502    0 -0.11611934572E+04  0.32567927788E+03 -0.10946380899E+04  0.16287018711E+04  0.50400001928E-02 0. -1.
       -1    1    3    3    0  502  0.11611934572E+04 -0.32567927788E+03  0.12841266754E+03  0.12128178141E+04  0.50400001928E-02 0.  1.
</event>
<event>
 5   0  0.2615843E-05  0.2607839E+04  0.7818609E-02  0.8365543E-01
        2   -1    0    0  501    0  0.00000000000E+00  0.00000000000E+00  0.16740816017E+04  0.16740816017E+04  0.25500000920E-02 0.  1.
       -2   -1    0    0    0  501  0.00000000000E+00  0.00000000000E+00 -0.10156055780E+04  0.10156055780E+04  0.25500000920E-02 0. -1.
    10030    2    1    2    0    0  0.00000000000E+00  0.00000000000E+00  0.65847602367E+03  0.26896871796E+04  0.26078394219E+04 0.  0.
        3    1    3    3  502    0  0.10182461559E+04  0.27119013150E+03  0.11213508209E+04  0.15387647628E+04  0.10100000352E+00 0.  1.
       -3    1    3    3    0  502 -0.10182461559E+04 -0.27119013150E+03 -0.46287479724E+03  0.11509224168E+04  0.10100000352E+00 0. -1.
</event>
<event>
 5   0  0.2540232E-05  0.2696128E+04  0.7818609E-02  0.8336262E-01
       -2   -1    0    0    0  501  0.00000000000E+00  0.00000000000E+00  0.12238813900E+04  0.12238813900E+04  0.25500000920E-02 0.  1.
        2   -1    0    0  501    0  0.00000000000E+00  0.00000000000E+00 -0.14848468650E+04  0.14848468650E+04  0.25500000920E-02 0. -1.
    10030    2    1    2    0    0  0.00000000000E+00  0.00000000000E+00 -0.26096547508E+03  0.27087282550E+04  0.26961279236E+04 0.  0.
        1    1    3    3  502    0 -0.12291487095E+04  0.18944486947E+02 -0.68634144427E+03  0.14079169087E+04  0.50400001928E-02 0. -1.
       -1    1    3    3    0  502  0.12291487095E+04 -0.18944486947E+02  0.42537596919E+03  0.13008113463E+04  0.50400001928E-02 0.  1.
</event>
<event>
 5   0  0.2641216E-05  0.2700350E+04  0.7818609E-02  0.8334891E-01
        2   -1    0    0  501    0  0.00000000000E+00  0.00000000000E+00  0.16467511647E+04  0.16467511647E+04  0.25500000920E-02 0.  1.
       -2   -1    0    0    0  501  0.00000000000E+00  0.00000000000E+00 -0.11070115403E+04  0.11070115403E+04  0.25500000920E-02 0. -1.
    10030    2    1    2    0    0  0.00000000000E+00  0.00000000000E+00  0.53973962443E+03  0.27537627050E+04  0.27003500094E+04 0.  0.
        5    1    3    3  502    0  0.10420786935E+04  0.39196795303E+03 -0.50903350365E+03  0.12242156989E+04  0.46999998093E+01 0. -1.
       -5    1    3    3    0  502 -0.10420786935E+04 -0.39196795303E+03  0.10487731281E+04  0.15295470061E+04  0.46999998093E+01 0.  1.
</event>
<event>
 5   0  0.1005265E-05  0.2326375E+04  0.7818609E-02  0.8467594E-01
        1   -1    0    0  501    0  0.00000000000E+00  0.00000000000E+00  0.88232258880E+03  0.88232258881E+03  0.50400001928E-02 0.  1.
       -1   -1    0    0    0  501  0.00000000000E+00  0.00000000000E+00 -0.15334584990E+04  0.15334584990E+04  0.50400001928E-02 0. -1.
    10030    2    1    2    0    0  0.00000000000E+00  0.00000000000E+00 -0.65113591016E+03  0.24157810878E+04  0.23263749248E+04 0.  0.
        3    1    3    3  502    0  0.90920614722E+03 -0.23412205514E+03  0.38750726728E+03  0.10156922995E+04  0.10100000352E+00 0.  1.
       -3    1    3    3    0  502 -0.90920614722E+03  0.23412205514E+03 -0.10386431774E+04  0.14000887883E+04  0.10100000352E+00 0. -1.
</event>
<event>
 5   0  0.2540684E-05  0.2753615E+04  0.7818609E-02  0.8317815E-01
       -2   -1    0    0    0  501  0.00000000000E+00  0.00000000000E+00  0.17897705188E+04  0.17897705188E+04  0.25500000920E-02 0.  1.
        2   -1    0    0  501    0  0.00000000000E+00  0.00000000000E+00 -0.10591296979E+04  0.10591296979E+04  0.25500000920E-02 0. -1.
    10030    2    1    2    0    0  0.00000000000E+00  0.00000000000E+00  0.73064082091E+03  0.28489002166E+04  0.27536151574E+04 0.  0.
        2    1    3    3  502    0  0.83419160630E+03  0.10730676095E+04  0.59257876346E+03  0.14827337325E+04  0.25500000920E-02 0.  1.
       -2    1    3    3    0  502 -0.83419160630E+03 -0.10730676095E+04  0.13806205746E+03  0.13661664841E+04  0.25500000920E-02 0. -1.
</event>
<event>
 5   0  0.1096672E-05  0.2660147E+04  0.7818609E-02  0.8348053E-01
       -1   -1    0    0    0  501  0.00000000000E+00  0.00000000000E+00  0.18537042618E+04  0.18537042618E+04  0.50400001928E-02 0.  1.
        1   -1    0    0  501    0  0.00000000000E+00  0.00000000000E+00 -0.95435720182E+03  0.95435720183E+03  0.50400001928E-02 0. -1.
    10030    2    1    2    0    0  0.00000000000E+00  0.00000000000E+00  0.89934705996E+03  0.28080614636E+04  0.26601473736E+04 0.  0.
        1    1    3    3  502    0 -0.85902160637E+03 -0.27083342657E+03  0.14827785765E+04  0.17349066753E+04  0.50400001928E-02 0.  1.
       -1    1    3    3    0  502  0.85902160637E+03  0.27083342657E+03 -0.58343151652E+03  0.10731547883E+04  0.50400001928E-02 0. -1.
</event>
<event>
 5   0  0.2615843E-05  0.2549318E+04  0.7818609E-02  0.8385623E-01
        2   -1    0    0  501    0  0.00000000000E+00  0.00000000000E+00  0.17028916351E+04  0.17028916351E+04  0.25500000920E-02 0.  1.
       -2   -1    0    0    0  501  0.00000000000E+00  0.00000000000E+00 -0.95411562615E+03  0.95411562616E+03  0.25500000920E-02 0. -1.
    10030    2    1    2    0    0  0.00000000000E+00  0.00000000000E+00  0.74877600897E+03  0.26570072613E+04  0.25493179627E+04 0.  0.
        3    1    3    3  502    0  0.77394468712E+03 -0.93006244003E+03 -0.43483597664E+02  0.12107424807E+04  0.10100000352E+00 0. -1.
       -3    1    3    3    0  502 -0.77394468712E+03  0.93006244003E+03  0.79225960664E+03  0.14462647806E+04  0.10100000352E+00 0.  1.
</event>
<event>
 5   0  0.2540684E-05  0.2598099E+04  0.7818609E-02  0.8368847E-01
        2   -1    0    0  501    0  0.00000000000E+00  0.00000000000E+00  0.19643470667E+04  0.19643470667E+04  0.25500000920E-02 0. -1.
       -2   -1    0    0    0  501  0.00000000000E+00  0.00000000000E+00 -0.85907926207E+03  0.85907926207E+03  0.25500000920E-02 0.  1.
    10030    2    1    2    0    0  0.00000000000E+00  0.00000000000E+00  0.11052678046E+04  0.28234263287E+04  0.25980991732E+04 0.  0.
        2    1    3    3  502    0 -0.94704722791E+03 -0.10045829952E+03 -0.40746987940E+03  0.10358677640E+04  0.25500000920E-02 0.  1.
       -2    1    3    3    0  502  0.94704722791E+03  0.10045829952E+03  0.15127376840E+04  0.17875585648E+04  0.25500000920E-02 0. -1.
</event>
<event>
 5   0  0.1096672E-05  0.1907200E+04  0.7818609E-02  0.8651281E-01
        1   -1    0    0  501    0  0.00000000000E+00  0.00000000000E+00  0.91663908709E+03  0.91663908711E+03  0.50400001928E-02 0.  1.
       -1   -1    0    0    0  501  0.00000000000E+00  0.00000000000E+00 -0.99205075788E+03  0.99205075789E+03  0.50400001928E-02 0. -1.
    10030    2    1    2    0    0  0.00000000000E+00  0.00000000000E+00 -0.75411670783E+02  0.19086898450E+04  0.19071995187E+04 0.  0.
        1    1    3    3  502    0  0.94095925647E+03  0.97101776928E+02  0.82884894204E+02  0.94958042479E+03  0.50400001928E-02 0.  1.
       -1    1    3    3    0  502 -0.94095925647E+03 -0.97101776928E+02 -0.15829656499E+03  0.95910942021E+03  0.50400001928E-02 0. -1.
</event>
<event>
 5   0  0.2641216E-05  0.2205287E+04  0.7818609E-02  0.8516231E-01
        2   -1    0    0  501    0  0.00000000000E+00  0.00000000000E+00  0.18367455079E+04  0.18367455079E+04  0.25500000920E-02 0. -1.
       -2   -1    0    0    0  501  0.00000000000E+00  0.00000000000E+00 -0.66194407487E+03  0.66194407487E+03  0.25500000920E-02 0.  1.
    10030    2    1    2    0    0  0.00000000000E+00  0.00000000000E+00  0.11748014330E+04  0.24986895828E+04  0.22052871069E+04 0.  0.
        5    1    3    3  502    0  0.18215146420E+03  0.83863678425E+02 -0.64109832471E+03  0.67174505909E+03  0.46999998093E+01 0.  1.
       -5    1    3    3    0  502 -0.18215146420E+03 -0.83863678425E+02  0.18158997577E+04  0.18269445237E+04  0.46999998093E+01 0. -1.
</event>
<event>
 5   0  0.2540684E-05  0.2750568E+04  0.7818609E-02  0.8318782E-01
        2   -1    0    0  501    0  0.00000000000E+00  0.00000000000E+00  0.20474718840E+04  0.20474718840E+04  0.25500000920E-02 0.  1.
       -2   -1    0    0    0  501  0.00000000000E+00  0.00000000000E+00 -0.92377605181E+03  0.92377605181E+03  0.25500000920E-02 0. -1.
    10030    2    1    2    0    0  0.00000000000E+00  0.00000000000E+00  0.11236958322E+04  0.29712479358E+04  0.27505675729E+04 0.  0.
        2    1    3    3  502    0 -0.13299244129E+04 -0.75735401030E+02  0.93129744365E+03  0.16253460319E+04  0.25500000920E-02 0. -1.
       -2    1    3    3    0  502  0.13299244129E+04  0.75735401030E+02  0.19239838855E+03  0.13459019039E+04  0.25500000920E-02 0.  1.
</event>
<event>
 5   0  0.2641216E-05  0.2989410E+04  0.7818609E-02  0.8246761E-01
        2   -1    0    0  501    0  0.00000000000E+00  0.00000000000E+00  0.14444535071E+04  0.14444535071E+04  0.25500000920E-02 0. -1.
       -2   -1    0    0    0  501  0.00000000000E+00  0.00000000000E+00 -0.15467044852E+04  0.15467044852E+04  0.25500000920E-02 0.  1.
    10030    2    1    2    0    0  0.00000000000E+00  0.00000000000E+00 -0.10225097802E+03  0.29911579923E+04  0.29894097866E+04 0.  0.
        5    1    3    3  502    0 -0.74503527455E+03 -0.34217687498E+03 -0.13016395645E+04  0.15383270849E+04  0.46999998093E+01 0.  1.
       -5    1    3    3    0  502  0.74503527455E+03  0.34217687498E+03  0.11993885865E+04  0.14528309074E+04  0.46999998093E+01 0. -1.
</event>
<event>
 5   0  0.1096672E-05  0.2710002E+04  0.7818609E-02  0.8331767E-01
        1   -1    0    0  501    0  0.00000000000E+00  0.00000000000E+00  0.23318242363E+04  0.23318242363E+04  0.50400001928E-02 0. -1.
       -1   -1    0    0    0  501  0.00000000000E+00  0.00000000000E+00 -0.78737832939E+03  0.78737832941E+03  0.50400001928E-02 0.  1.
    10030    2    1    2    0    0  0.00000000000E+00  0.00000000000E+00  0.15444459069E+04  0.31192025657E+04  0.27100021193E+04 0.  0.
        1    1    3    3  502    0  0.69010479750E+03  0.91087602365E+03  0.16102305977E+04  0.19745334487E+04  0.50400001928E-02 0. -1.
       -1    1    3    3    0  502 -0.69010479750E+03 -0.91087602365E+03 -0.65784690809E+02  0.11446691171E+04  0.50400001928E-02 0.  1.
</event>
<event>
 5   0  0.2516518E-05  0.2727200E+04  0.7818609E-02  0.8326233E-01
       -2   -1    0    0    0  501  0.00000000000E+00  0.00000000000E+00  0.12076876181E+04  0.12076876181E+04  0.25500000920E-02 0.  1.
        2   -1    0    0  501    0  0.00000000000E+00  0.00000000000E+00 -0.15396402630E+04  0.15396402630E+04  0.25500000920E-02 0. -1.
    10030    2    1    2    0    0  0.00000000000E+00  0.00000000000E+00 -0.33195264486E+03  0.27473278811E+04  0.27271996494E+04 0.  0.
        4    1    3    3  502    0  0.12123974416E+04 -0.28512986368E+03 -0.72522794508E+03  0.14412368926E+04  0.12699999809E+01 0. -1.
       -4    1    3    3    0  502 -0.12123974416E+04  0.28512986368E+03  0.39327530021E+03  0.13060909885E+04  0.12699999809E+01 0.  1.
</event>
<event>
 5   0  0.2615843E-05  0.2644185E+04  0.7818609E-02  0.8353346E-01
        2   -1    0    0  501    0  0.00000000000E+00  0.00000000000E+00  0.16994538949E+04  0.16994538949E+04  0.25500000920E-02 0. -1.
       -2   -1    0    0    0  501  0.00000000000E+00  0.00000000000E+00 -0.10285232970E+04  0.10285232970E+04  0.25500000920E-02 0.  1.
    10030    2    1    2    0    0  0.00000000000E+00  0.00000000000E+00  0.67093059794E+03  0.27279771920E+04  0.26441845043E+04 0.  0.
        3    1    3    3  502    0 -0.20572885551E+03 -0.76146950629E+03  0.14301105045E+04  0.16332104078E+04  0.10100000352E+00 0. -1.
       -3    1    3    3    0  502  0.20572885551E+03  0.76146950629E+03 -0.75917990653E+03  0.10947667841E+04  0.10100000352E+00 0.  1.
</event>
<event>
 5   0  0.2641216E-05  0.2703156E+04  0.7818609E-02  0.8333982E-01
       -2   -1    0    0    0  501  0.00000000000E+00  0.00000000000E+00  0.15048072282E+04  0.15048072282E+04  0.25500000920E-02 0.  1.
        2   -1    0    0  501    0  0.00000000000E+00  0.00000000000E+00 -0.12139515461E+04  0.12139515461E+04  0.25500000920E-02 0. -1.
    10030    2    1    2    0    0  0.00000000000E+00  0.00000000000E+00  0.29085568206E+03  0.27187587743E+04  0.27031559787E+04 0.  0.
        5    1    3    3  502    0 -0.98589480076E+03 -0.15805703029E+03 -0.77074736766E+03  0.12613659967E+04  0.46999998093E+01 0. -1.
       -5    1    3    3    0  502  0.98589480076E+03  0.15805703029E+03  0.10616030497E+04  0.14573927776E+04  0.46999998093E+01 0.  1.
</event>
<event>
 5   0  0.2615843E-05  0.2686798E+04  0.7818609E-02  0.8339301E-01
       -2   -1    0    0    0  501  0.00000000000E+00  0.00000000000E+00  0.12115163091E+04  0.12115163091E+04  0.25500000920E-02 0. -1.
        2   -1    0    0  501    0  0.00000000000E+00  0.00000000000E+00 -0.14896384129E+04  0.14896384129E+04  0.25500000920E-02 0.  1.
    10030    2    1    2    0    0  0.00000000000E+00  0.00000000000E+00 -0.27812210377E+03  0.27011547220E+04  0.26867982670E+04 0.  0.
        3    1    3    3  502    0 -0.99216804812E+03  0.25731332105E+02  0.77112823381E+03  0.12568604936E+04  0.10100000352E+00 0. -1.
       -3    1    3    3    0  502  0.99216804812E+03 -0.25731332105E+02 -0.10492503376E+04  0.14442942284E+04  0.10100000352E+00 0.  1.
</event>
<event>
 5   0  0.1005265E-05  0.2833942E+04  0.7818609E-02  0.8292807E-01
       -1   -1    0    0    0  501  0.00000000000E+00  0.00000000000E+00  0.77579902248E+03  0.77579902250E+03  0.50400001928E-02 0. -1.
        1   -1    0    0  501    0  0.00000000000E+00  0.00000000000E+00 -0.25880509669E+04  0.25880509669E+04  0.50400001928E-02 0.  1.
    10030    2    1    2    0    0  0.00000000000E+00  0.00000000000E+00 -0.18122519445E+04  0.33638499894E+04  0.28339424202E+04 0.  0.
        3    1    3    3  502    0  0.93250513616E+03  0.21096884634E+03 -0.21474964090E+04  0.23507051112E+04  0.10100000352E+00 0.  1.
       -3    1    3    3    0  502 -0.93250513616E+03 -0.21096884634E+03  0.33524446452E+03  0.10131448782E+04  0.10100000352E+00 0. -1.
</event>
<event>
 5   0  0.1005265E-05  0.2674633E+04  0.7818609E-02  0.8343283E-01
       -1   -1    0    0    0  501  0.00000000000E+00  0.00000000000E+00  0.73300124748E+03  0.73300124749E+03  0.50400001928E-02 0. -1.
        1   -1    0    0  501    0  0.00000000000E+00  0.00000000000E+00 -0.24398536150E+04  0.24398536150E+04  0.50400001928E-02 0.  1.
    10030    2    1    2    0    0  0.00000000000E+00  0.00000000000E+00 -0.17068523675E+04  0.31728548624E+04  0.26746332410E+04 0.  0.
        3    1    3    3  502    0 -0.82651068631E+03 -0.65895002178E+02  0.39129044007E+03  0.91682620196E+03  0.10100000352E+00 0. -1.
       -3    1    3    3    0  502  0.82651068631E+03  0.65895002178E+02 -0.20981428075E+04  0.22560286605E+04  0.10100000352E+00 0.  1.
</event>
<event>
 5   0  0.2516518E-05  0.2716679E+04  0.7818609E-02  0.8329614E-01
        2   -1    0    0  501    0  0.00000000000E+00  0.00000000000E+00  0.93417992148E+03  0.93417992148E+03  0.25500000920E-02 0. -1.
       -2   -1    0    0    0  501  0.00000000000E+00  0.00000000000E+00 -0.19750861410E+04  0.19750861410E+04  0.25500000920E-02 0.  1.
    10030    2    1    2    0    0  0.00000000000E+00  0.00000000000E+00 -0.10409062195E+04  0.29092660625E+04  0.27166787194E+04 0.  0.
        4    1    3    3  502    0 -0.35799285337E+03  0.12658147788E+04 -0.15786800080E+03  0.13249037157E+04  0.12699999809E+01 0. -1.
       -4    1    3    3    0  502  0.35799285337E+03 -0.12658147788E+04 -0.88303821875E+03  0.15843623468E+04  0.12699999809E+01 0.  1.
</event>
<event>
 5   0  0.1041909E-05  0.2711126E+04  0.7818609E-02  0.8331404E-01
       -1   -1    0    0    0  501  0.00000000000E+00  0.00000000000E+00  0.23994468677E+04  0.23994468677E+04  0.50400001928E-02 0.  1.
        1   -1    0    0  501    0  0.00000000000E+00  0.00000000000E+00 -0.76582263203E+03  0.76582263205E+03  0.50400001928E-02 0. -1.
    10030    2    1    2    0    0  0.00000000000E+00  0.00000000000E+00  0.16336242357E+04  0.31652694998E+04  0.27111257556E+04 0.  0.
        5    1    3    3  502    0  0.11750607907E+04 -0.18427328976E+03  0.57656806813E+02  0.11908278232E+04  0.46999998093E+01 0. -1.
       -5    1    3    3    0  502 -0.11750607907E+04  0.18427328976E+03  0.15759674289E+04  0.19744416765E+04  0.46999998093E+01 0.  1.
</event>
<event>
 5   0  0.8740500E-06  0.2638166E+04  0.7818609E-02  0.8355351E-01
       -3   -1    0    0    0  501  0.00000000000E+00  0.00000000000E+00  0.12059280640E+04  0.12059280682E+04  0.10100000352E+00 0.  1.
        3   -1    0    0  501    0  0.00000000000E+00  0.00000000000E+00 -0.14428555218E+04  0.14428555253E+04  0.10100000352E+00 0. -1.
    10030    2    1    2    0    0  0.00000000000E+00  0.00000000000E+00 -0.23692745781E+03  0.26487835936E+04  0.26381660117E+04 0.  0.
        5    1    3    3  502    0  0.84894504893E+03 -0.27615412820E+03 -0.10934481816E+04  0.14116018612E+04  0.46999998093E+01 0. -1.
       -5    1    3    3    0  502 -0.84894504893E+03  0.27615412820E+03  0.85652072380E+03  0.12371817324E+04  0.46999998093E+01 0.  1.
</event>
<event>
 5   0  0.1005265E-05  0.2707746E+04  0.7818609E-02  0.8332496E-01
        1   -1    0    0  501    0  0.00000000000E+00  0.00000000000E+00  0.13888606928E+04  0.13888606928E+04  0.50400001928E-02 0.  1.
       -1   -1    0    0    0  501  0.00000000000E+00  0.00000000000E+00 -0.13197664196E+04  0.13197664196E+04  0.50400001928E-02 0. -1.
    10030    2    1    2    0    0  0.00000000000E+00  0.00000000000E+00  0.69094273197E+02  0.27086271124E+04  0.27077457073E+04 0.  0.
        3    1    3    3  502    0 -0.55257580496E+02 -0.13210983012E+04  0.32553282217E+03  0.13617362998E+04  0.10100000352E+00 0.  1.
       -3    1    3    3    0  502  0.55257580496E+02  0.13210983012E+04 -0.25643854898E+03  0.13468908127E+04  0.10100000352E+00 0. -1.
</event>
<event>
 5   0  0.8740500E-06  0.2651992E+04  0.7818609E-02  0.8350752E-01
        3   -1    0    0  501    0  0.00000000000E+00  0.00000000000E+00  0.10302759380E+04  0.10302759429E+04  0.10100000352E+00 0. -1.
       -3   -1    0    0    0  501  0.00000000000E+00  0.00000000000E+00 -0.17065963288E+04  0.17065963318E+04  0.10100000352E+00 0.  1.
    10030    2    1    2    0    0  0.00000000000E+00  0.00000000000E+00 -0.67632039080E+03  0.27368722747E+04  0.26519918132E+04 0.  0.
        4    1    3    3  502    0 -0.50955888900E+03  0.45459271636E+03 -0.15111835850E+04  0.16583070402E+04  0.12699999809E+01 0.  1.
       -4    1    3    3    0  502  0.50955888900E+03 -0.45459271636E+03  0.83486319421E+03  0.10785652345E+04  0.12699999809E+01 0. -1.
</event>
<event>
 5   0  0.1005265E-05  0.2710405E+04  0.7818609E-02  0.8331637E-01
       -1   -1    0    0    0  501  0.00000000000E+00  0.00000000000E+00  0.67726898387E+03  0.67726898388E+03  0.50400001928E-02 0. -1.
        1   -1    0    0  501    0  0.00000000000E+00  0.00000000000E+00 -0.27117351158E+04  0.27117351158E+04  0.50400001928E-02 0.  1.
    10030    2    1    2    0    0  0.00000000000E+00  0.00000000000E+00 -0.20344661319E+04  0.33890040996E+04  0.27104051995E+04 0.  0.
        3    1    3    3  502    0  0.49220784054E+03  0.92291084597E+03 -0.20946855271E+04  0.23413116955E+04  0.10100000352E+00 0.  1.
       -3    1    3    3    0  502 -0.49220784054E+03 -0.92291084597E+03  0.60219395223E+02  0.10476924041E+04  0.10100000352E+00 0. -1.
</event>
<event>
 5   0  0.2540232E-05  0.2694842E+04  0.7818609E-02  0.8336681E-01
        2   -1    0    0  501    0  0.00000000000E+00  0.00000000000E+00  0.13159887506E+04  0.13159887506E+04  0.25500000920E-02 0.  1.
       -2   -1    0    0    0  501  0.00000000000E+00  0.00000000000E+00 -0.13796038946E+04  0.13796038946E+04  0.25500000920E-02 0. -1.
    10030    2    1    2    0    0  0.00000000000E+00  0.00000000000E+00 -0.63615143921E+02  0.26955926452E+04  0.26948418919E+04 0.  0.
        1    1    3    3  502    0  0.10890935015E+04 -0.53811268953E+03 -0.61493934868E+03  0.13615580503E+04  0.50400001928E-02 0. -1.
       -1    1    3    3    0  502 -0.10890935015E+04  0.53811268953E+03  0.55132420476E+03  0.13340345949E+04  0.50400001928E-02 0.  1.
</event>
<event>
 5   0  0.9971923E-06  0.2710873E+04  0.7818609E-02  0.8331486E-01
       -1   -1    0    0    0  501  0.00000000000E+00  0.00000000000E+00  0.96912146418E+03  0.96912146419E+03  0.50400001928E-02 0.  1.
        1   -1    0    0  501    0  0.00000000000E+00  0.00000000000E+00 -0.18957463006E+04  0.18957463006E+04  0.50400001928E-02 0. -1.
    10030    2    1    2    0    0  0.00000000000E+00  0.00000000000E+00 -0.92662483638E+03  0.28648677648E+04  0.27108732398E+04 0.  0.
        2    1    3    3  502    0  0.37923682625E+02  0.13486153352E+04 -0.32549377195E+03  0.13878572418E+04  0.25500000920E-02 0. -1.
       -2    1    3    3    0  502 -0.37923682625E+02 -0.13486153352E+04 -0.60113106444E+03  0.14770105229E+04  0.25500000920E-02 0.  1.
</event>
<event>
 5   0  0.1005265E-05  0.2854888E+04  0.7818609E-02  0.8286427E-01
       -1   -1    0    0    0  501  0.00000000000E+00  0.00000000000E+00  0.11706247897E+04  0.11706247897E+04  0.50400001928E-02 0. -1.
        1   -1    0    0  501    0  0.00000000000E+00  0.00000000000E+00 -0.17406061033E+04  0.17406061033E+04  0.50400001928E-02 0.  1.
    10030    2    1    2    0    0  0.00000000000E+00  0.00000000000E+00 -0.56998131364E+03  0.29112308930E+04  0.28548881965E+04 0.  0.
        3    1    3    3  502    0 -0.50360930382E+03 -0.12720552940E+04 -0.70027428934E+03  0.15369226046E+04  0.10100000352E+00 0.  1.
       -3    1    3    3    0  502  0.50360930382E+03  0.12720552940E+04  0.13029297570E+03  0.13743082884E+04  0.10100000352E+00 0. -1.
</event>
<event>
 5   0  0.9971923E-06  0.2699738E+04  0.7818609E-02  0.8335090E-01
       -1   -1    0    0    0  501  0.00000000000E+00  0.00000000000E+00  0.15124164527E+04  0.15124164527E+04  0.50400001928E-02 0.  1.
        1   -1    0    0  501    0  0.00000000000E+00  0.00000000000E+00 -0.12047911213E+04  0.12047911213E+04  0.50400001928E-02 0. -1.
    10030    2    1    2    0    0  0.00000000000E+00  0.00000000000E+00  0.30762533144E+03  0.27172075740E+04  0.26997377012E+04 0.  0.
        2    1    3    3  502    0 -0.85932654312E+03 -0.74039194752E+03  0.89034283400E+03  0.14419891490E+04  0.25500000920E-02 0.  1.
       -2    1    3    3    0  502  0.85932654312E+03  0.74039194752E+03 -0.58271750256E+03  0.12752184250E+04  0.25500000920E-02 0. -1.
</event>
<event>
 5   0  0.1005265E-05  0.2718583E+04  0.7818609E-02  0.8329000E-01
        1   -1    0    0  501    0  0.00000000000E+00  0.00000000000E+00  0.17125403741E+04  0.17125403741E+04  0.50400001928E-02 0. -1.
       -1   -1    0    0    0  501  0.00000000000E+00  0.00000000000E+00 -0.10789080827E+04  0.10789080827E+04  0.50400001928E-02 0.  1.
    10030    2    1    2    0    0  0.00000000000E+00  0.00000000000E+00  0.63363229141E+03  0.27914484568E+04  0.27185831983E+04 0.  0.
        3    1    3    3  502    0  0.10761681483E+04 -0.81038471279E+03  0.13081919739E+03  0.13535046874E+04  0.10100000352E+00 0.  1.
       -3    1    3    3    0  502 -0.10761681483E+04  0.81038471279E+03  0.50281309402E+03  0.14379437694E+04  0.10100000352E+00 0. -1.
</event>
<event>
 5   0  0.2641216E-05  0.2690481E+04  0.7818609E-02  0.8338100E-01
        2   -1    0    0  501    0  0.00000000000E+00  0.00000000000E+00  0.16345117859E+04  0.16345117859E+04  0.25500000920E-02 0.  1.
       -2   -1    0    0    0  501  0.00000000000E+00  0.00000000000E+00 -0.11071637185E+04  0.11071637185E+04  0.25500000920E-02 0. -1.
    10030    2    1    2    0    0  0.00000000000E+00  0.00000000000E+00  0.52734806736E+03  0.27416755044E+04  0.26904811071E+04 0.  0.
        5    1    3    3  502    0 -0.59991569893E+03 -0.12019094095E+04  0.19043872360E+03  0.13567512934E+04  0.46999998093E+01 0. -1.
       -5    1    3    3    0  502  0.59991569893E+03  0.12019094095E+04  0.33690934377E+03  0.13849242111E+04  0.46999998093E+01 0.  1.
</event>
<event>
 5   0  0.2540232E-05  0.2695000E+04  0.7818609E-02  0.8336629E-01
        2   -1    0    0  501    0  0.00000000000E+00  0.00000000000E+00  0.13493484063E+04  0.13493484063E+04  0.25500000920E-02 0. -1.
       -2   -1    0    0    0  501  0.00000000000E+00  0.00000000000E+00 -0.13456545880E+04  0.13456545880E+04  0.25500000920E-02 0.  1.
    10030    2    1    2    0    0  0.00000000000E+00  0.00000000000E+00  0.36938183331E+01  0.26950029943E+04  0.26950004629E+04 0.  0.
        1    1    3    3  502    0  0.15978550320E+03 -0.32069680616E+03 -0.12971458526E+04  0.13457210749E+04  0.50400001928E-02 0.  1.
       -1    1    3    3    0  502 -0.15978550320E+03  0.32069680616E+03  0.13008396710E+04  0.13492819194E+04  0.50400001928E-02 0. -1.
</event>
<event>
 5   0  0.1096672E-05  0.2639173E+04  0.7818609E-02  0.8355016E-01
       -1   -1    0    0    0  501  0.00000000000E+00  0.00000000000E+00  0.10204544219E+04  0.10204544219E+04  0.50400001928E-02 0. -1.
        1   -1    0    0  501    0  0.00000000000E+00  0.00000000000E+00 -0.17064047591E+04  0.17064047591E+04  0.50400001928E-02 0.  1.
    10030    2    1    2    0    0  0.00000000000E+00  0.00000000000E+00 -0.68595033719E+03  0.27268591810E+04  0.26391728113E+04 0.  0.
        1    1    3    3  502    0  0.10850239211E+03 -0.11996678102E+04 -0.89970286507E+03  0.15034762617E+04  0.50400001928E-02 0.  1.
       -1    1    3    3    0  502 -0.10850239211E+03  0.11996678102E+04  0.21375252789E+03  0.12233829193E+04  0.50400001928E-02 0. -1.
</event>
<event>
 5   0  0.2540684E-05  0.2663859E+04  0.7818609E-02  0.8346828E-01
        2   -1    0    0  501    0  0.00000000000E+00  0.00000000000E+00  0.11433733236E+04  0.11433733236E+04  0.25500000920E-02 0.  1.
       -2   -1    0    0    0  501  0.00000000000E+00  0.00000000000E+00 -0.15515804998E+04  0.15515804998E+04  0.25500000920E-02 0. -1.
    10030    2    1    2    0    0  0.00000000000E+00  0.00000000000E+00 -0.40820717622E+03  0.26949538233E+04  0.26638586695E+04 0.  0.
        2    1    3    3  502    0  0.15518336349E+03  0.32545652004E+03 -0.15012687388E+04  0.15439597303E+04  0.25500000920E-02 0. -1.
       -2    1    3    3    0  502 -0.15518336349E+03 -0.32545652004E+03  0.10930615625E+04  0.11509940931E+04  0.25500000920E-02 0.  1.
</event>
<event>
 5   0  0.2641216E-05  0.2685292E+04  0.7818609E-02  0.8339793E-01
       -2   -1    0    0    0  501  0.00000000000E+00  0.00000000000E+00  0.12954999172E+04  0.12954999172E+04  0.25500000920E-02 0.  1.
        2   -1    0    0  501    0  0.00000000000E+00  0.00000000000E+00 -0.13915081629E+04  0.13915081629E+04  0.25500000920E-02 0. -1.
    10030    2    1    2    0    0  0.00000000000E+00  0.00000000000E+00 -0.96008245698E+02  0.26870080802E+04  0.26852923192E+04 0.  0.
        5    1    3    3  502    0 -0.85248271757E+03  0.67510669074E+03  0.74001464057E+03  0.13153477053E+04  0.46999998093E+01 0.  1.
       -5    1    3    3    0  502  0.85248271757E+03 -0.67510669074E+03 -0.83602288627E+03  0.13716603749E+04  0.46999998093E+01 0. -1.
</event>
<event>
 5   0  0.9971923E-06  0.2748172E+04  0.7818609E-02  0.8319542E-01
        1   -1    0    0  501    0  0.00000000000E+00  0.00000000000E+00  0.26339855512E+04  0.26339855512E+04  0.50400001928E-02 0.  1.
       -1   -1    0    0    0  501  0.00000000000E+00  0.00000000000E+00 -0.71682704412E+03  0.71682704413E+03  0.50400001928E-02 0. -1.
    10030    2    1    2    0    0  0.00000000000E+00  0.00000000000E+00  0.19171585071E+04  0.33508125954E+04  0.27481718119E+04 0.  0.
        2    1    3    3  502    0  0.41679653402E+03 -0.10675451292E+04  0.34217395473E+02  0.11465351211E+04  0.25500000920E-02 0. -1.
       -2    1    3    3    0  502 -0.41679653402E+03  0.10675451292E+04  0.18829411117E+04  0.22042774743E+04  0.25500000920E-02 0.  1.
</event>
<event>
 5   0  0.2540684E-05  0.2680545E+04  0.7818609E-02  0.8341345E-01
       -2   -1    0    0    0  501  0.00000000000E+00  0.00000000000E+00  0.77963247813E+03  0.77963247813E+03  0.25500000920E-02 0.  1.
        2   -1    0    0  501    0  0.00000000000E+00  0.00000000000E+00 -0.23040735683E+04  0.23040735683E+04  0.25500000920E-02 0. -1.
    10030    2    1    2    0    0  0.00000000000E+00  0.00000000000E+00 -0.15244410901E+04  0.30837060464E+04  0.26805451578E+04 0.  0.
        2    1    3    3  502    0  0.65768481804E+02 -0.28106013139E+03 -0.22678906615E+04  0.22861864192E+04  0.25500000920E-02 0. -1.
       -2    1    3    3    0  502 -0.65768481804E+02  0.28106013139E+03  0.74344957136E+03  0.79751962723E+03  0.25500000920E-02 0.  1.
</event>
<event>
 5   0  0.2615843E-05  0.2712619E+04  0.7818609E-02  0.8330922E-01
       -2   -1    0    0    0  501  0.00000000000E+00  0.00000000000E+00  0.15032973066E+04  0.15032973066E+04  0.25500000920E-02 0.  1.
        2   -1    0    0  501    0  0.00000000000E+00  0.00000000000E+00 -0.12236935655E+04  0.12236935655E+04  0.25500000920E-02 0. -1.
    10030    2    1    2    0    0  0.00000000000E+00  0.00000000000E+00  0.27960374116E+03  0.27269908721E+04  0.27126188388E+04 0.  0.
        3    1    3    3  502    0  0.85226720320E+03 -0.79100967924E+03 -0.56212346936E+03  0.12915256495E+04  0.10100000352E+00 0. -1.
       -3    1    3    3    0  502 -0.85226720320E+03  0.79100967924E+03  0.84172721052E+03  0.14354652226E+04  0.10100000352E+00 0.  1.
</event>
<event>
 5   0  0.8740500E-06  0.2259184E+04  0.7818609E-02  0.8494190E-01
        3   -1    0    0  501    0  0.00000000000E+00  0.00000000000E+00  0.13093997643E+04  0.13093997682E+04  0.10100000352E+00 0.  1.
       -3   -1    0    0    0  501  0.00000000000E+00  0.00000000000E+00 -0.97447558439E+03  0.97447558962E+03  0.10100000352E+00 0. -1.
    10030    2    1    2    0    0  0.00000000000E+00  0.00000000000E+00  0.33492417990E+03  0.22838753578E+04  0.22591840217E+04 0.  0.
        2    1    3    3  502    0 -0.25558625280E+03  0.13370980028E+03  0.12715410657E+04  0.13038478918E+04  0.25500000920E-02 0.  1.
       -2    1    3    3    0  502  0.25558625280E+03 -0.13370980028E+03 -0.93661688579E+03  0.98002746597E+03  0.25500000920E-02 0. -1.
</event>
<event>
 5   0  0.1041909E-05  0.2685119E+04  0.7818609E-02  0.8339850E-01
        1   -1    0    0  501    0  0.00000000000E+00  0.00000000000E+00  0.14146168766E+04  0.14146168767E+04  0.50400001928E-02 0. -1.
       -1   -1    0    0    0  501  0.00000000000E+00  0.00000000000E+00 -0.12741721174E+04  0.12741721174E+04  0.50400001928E-02 0.  1.
    10030    2    1    2    0    0  0.00000000000E+00  0.00000000000E+00  0.14044475927E+03  0.26887889940E+04  0.26851185307E+04 0.  0.
        5    1    3    3  502    0 -0.12823079199E+04 -0.38952181261E+03 -0.99022905092E+01  0.13402093081E+04  0.46999998093E+01 0. -1.
       -5    1    3    3    0  502  0.12823079199E+04  0.38952181261E+03  0.15034704978E+03  0.13485796860E+04  0.46999998093E+01 0.  1.
</event>
<event>
 5   0  0.2540232E-05  0.2287919E+04  0.7818609E-02  0.8482700E-01
       -2   -1    0    0    0  501  0.00000000000E+00  0.00000000000E+00  0.72529164507E+03  0.72529164508E+03  0.25500000920E-02 0.  1.
        2   -1    0    0  501    0  0.00000000000E+00  0.00000000000E+00 -0.18042987591E+04  0.18042987591E+04  0.25500000920E-02 0. -1.
    10030    2    1    2    0    0  0.00000000000E+00  0.00000000000E+00 -0.10790071141E+04  0.25295904042E+04  0.22879185433E+04 0.  0.
        1    1    3    3  502    0 -0.41818912334E+03  0.51687083538E+03  0.48974506730E+03  0.82576499945E+03  0.50400001928E-02 0.  1.
       -1    1    3    3    0  502  0.41818912334E+03 -0.51687083538E+03 -0.15687521814E+04  0.17038254048E+04  0.50400001928E-02 0. -1.
</event>
<event>
 5   0  0.1036691E-05  0.2730351E+04  0.7818609E-02  0.8325224E-01
       -1   -1    0    0    0  501  0.00000000000E+00  0.00000000000E+00  0.16437971392E+04  0.16437971392E+04  0.50400001928E-02 0.  1.
        1   -1    0    0  501    0  0.00000000000E+00  0.00000000000E+00 -0.11337798501E+04  0.11337798501E+04  0.50400001928E-02 0. -1.
    10030    2    1    2    0    0  0.00000000000E+00  0.00000000000E+00  0.51001728912E+03  0.27775769894E+04  0.27303509475E+04 0.  0.
        4    1    3    3  502    0  0.49607934117E+03 -0.11623347460E+04 -0.27024133807E+03  0.12923423572E+04  0.12699999809E+01 0.  1.
       -4    1    3    3    0  502 -0.49607934117E+03  0.11623347460E+04  0.78025862719E+03  0.14852346322E+04  0.12699999809E+01 0. -1.
</event>
<event>
 5   0  0.9971923E-06  0.2614776E+04  0.7818609E-02  0.8363199E-01
        1   -1    0    0  501    0  0.00000000000E+00  0.00000000000E+00  0.14032105714E+04  0.14032105714E+04  0.50400001928E-02 0.  1.
       -1   -1    0    0    0  501  0.00000000000E+00  0.00000000000E+00 -0.12181093644E+04  0.12181093644E+04  0.50400001928E-02 0. -1.
    10030    2    1    2    0    0  0.00000000000E+00  0.00000000000E+00  0.18510120699E+03  0.26213199358E+04  0.26147764243E+04 0.  0.
        2    1    3    3  502    0 -0.62467492432E+03  0.18843099336E+03  0.12283195591E+04  0.13908608628E+04  0.25500000920E-02 0.  1.
       -2    1    3    3    0  502  0.62467492432E+03 -0.18843099336E+03 -0.10432183521E+04  0.12304590731E+04  0.25500000920E-02 0. -1.
</event>
<event>
 5   0  0.2516518E-05  0.2659191E+04  0.7818609E-02  0.8348369E-01
        2   -1    0    0  501    0  0.00000000000E+00  0.00000000000E+00  0.14653546920E+04  0.14653546920E+04  0.25500000920E-02 0. -1.
       -2   -1    0    0    0  501  0.00000000000E+00  0.00000000000E+00 -0.12064139418E+04  0.12064139418E+04  0.25500000920E-02 0.  1.
    10030    2    1    2    0    0  0.00000000000E+00  0.00000000000E+00  0.25894075021E+03  0.26717686338E+04  0.26591911027E+04 0.  0.
        4    1    3    3  502    0  0.21969198715E+03 -0.78635138009E+03  0.11838191633E+04  0.14380690131E+04  0.12699999809E+01 0.  1.
       -4    1    3    3    0  502 -0.21969198715E+03  0.78635138009E+03 -0.92487841309E+03  0.12336996207E+04  0.12699999809E+01 0. -1.
</event>
<event>
 5   0  0.2540684E-05  0.2225266E+04  0.7818609E-02  0.8507985E-01
        2   -1    0    0  501    0  0.00000000000E+00  0.00000000000E+00  0.10277277233E+04  0.10277277233E+04  0.25500000920E-02 0. -1.
       -2   -1    0    0    0  501  0.00000000000E+00  0.00000000000E+00 -0.12045526553E+04  0.12045526553E+04  0.25500000920E-02 0.  1.
    10030    2    1    2    0    0  0.00000000000E+00  0.00000000000E+00 -0.17682493196E+03  0.22322803786E+04  0.22252659689E+04 0.  0.
        2    1    3    3  502    0 -0.41256489514E+03  0.48194227747E+03 -0.10053363532E+04  0.11887721963E+04  0.25500000920E-02 0.  1.
       -2    1    3    3    0  502  0.41256489514E+03 -0.48194227747E+03  0.82851142126E+03  0.10435081824E+04  0.25500000920E-02 0. -1.
</event>
<event>
 5   0  0.2615843E-05  0.2710344E+04  0.7818609E-02  0.8331657E-01
       -2   -1    0    0    0  501  0.00000000000E+00  0.00000000000E+00  0.98796307287E+03  0.98796307287E+03  0.25500000920E-02 0.  1.
        2   -1    0    0  501    0  0.00000000000E+00  0.00000000000E+00 -0.18588661621E+04  0.18588661621E+04  0.25500000920E-02 0. -1.
    10030    2    1    2    0    0  0.00000000000E+00  0.00000000000E+00 -0.87090308925E+03  0.28468292350E+04  0.27103439823E+04 0.  0.
        3    1    3    3  502    0  0.11002447444E+04  0.47765308322E+03  0.22702342766E+03  0.12207500204E+04  0.10100000352E+00 0.  1.
       -3    1    3    3    0  502 -0.11002447444E+04 -0.47765308322E+03 -0.10979265169E+04  0.16260792146E+04  0.10100000352E+00 0. -1.
</event>
<event>
 5   0  0.9971923E-06  0.2701584E+04  0.7818609E-02  0.8334491E-01
       -1   -1    0    0    0  501  0.00000000000E+00  0.00000000000E+00  0.98120804643E+03  0.98120804644E+03  0.50400001928E-02 0.  1.
        1   -1    0    0  501    0  0.00000000000E+00  0.00000000000E+00 -0.18595840749E+04  0.18595840749E+04  0.50400001928E-02 0. -1.
    10030    2    1    2    0    0  0.00000000000E+00  0.00000000000E+00 -0.87837602849E+03  0.28407921214E+04  0.27015838742E+04 0.  0.
        2    1    3    3  502    0 -0.10696755115E+04 -0.66274672735E+03 -0.95561578798E+03  0.15800760927E+04  0.25500000920E-02 0. -1.
       -2    1    3    3    0  502  0.10696755115E+04  0.66274672735E+03  0.77239759497E+02  0.12607160287E+04  0.25500000920E-02 0.  1.
</event>
<event>
 5   0  0.2516518E-05  0.2706587E+04  0.7818609E-02  0.8332871E-01
        2   -1    0    0  501    0  0.00000000000E+00  0.00000000000E+00  0.17168109536E+04  0.17168109536E+04  0.25500000920E-02 0. -1.
       -2   -1    0    0    0  501  0.00000000000E+00  0.00000000000E+00 -0.10667475379E+04  0.10667475379E+04  0.25500000920E-02 0.  1.
    10030    2    1    2    0    0  0.00000000000E+00  0.00000000000E+00  0.65006341570E+03  0.27835584916E+04  0.27065874144E+04 0.  0.
        4    1    3    3  502    0 -0.96773931481E+03 -0.54998576255E+03 -0.46653091296E+03  0.12069202236E+04  0.12699999809E+01 0.  1.
       -4    1    3    3    0  502  0.96773931481E+03  0.54998576255E+03  0.11165943287E+04  0.15766382680E+04  0.12699999809E+01 0. -1.
</event>
<event>
 5   0  0.2615843E-05  0.2650922E+04  0.7818609E-02  0.8351107E-01
       -2   -1    0    0    0  501  0.00000000000E+00  0.00000000000E+00  0.11935575569E+04  0.11935575569E+04  0.25500000920E-02 0.  1.
        2   -1    0    0  501    0  0.00000000000E+00  0.00000000000E+00 -0.14719416101E+04  0.14719416101E+04  0.25500000920E-02 0. -1.
    10030    2    1    2    0    0  0.00000000000E+00  0.00000000000E+00 -0.27838405319E+03  0.26654991671E+04  0.26509221280E+04 0.  0.
        3    1    3    3  502    0 -0.54081318614E+03 -0.10061273101E+04  0.53687115564E+03  0.12621417172E+04  0.10100000352E+00 0.  1.
       -3    1    3    3    0  502  0.54081318614E+03  0.10061273101E+04 -0.81525520883E+03  0.14033574499E+04  0.10100000352E+00 0. -1.
</event>
<event>
 5   0  0.1005265E-05  0.1743783E+04  0.7818609E-02  0.8736780E-01
       -1   -1    0    0    0  501  0.00000000000E+00  0.00000000000E+00  0.90058490185E+03  0.90058490186E+03  0.50400001928E-02 0.  1.
        1   -1    0    0  501    0  0.00000000000E+00  0.00000000000E+00 -0.84411204937E+03  0.84411204938E+03  0.50400001928E-02 0. -1.
    10030    2    1    2    0    0  0.00000000000E+00  0.00000000000E+00  0.56472852481E+02  0.17446969512E+04  0.17437827470E+04 0.  0.
        3    1    3    3  502    0  0.27024141793E+02  0.41392682530E+03 -0.73906121379E+03  0.84751236503E+03  0.10100000352E+00 0. -1.
       -3    1    3    3    0  502 -0.27024141793E+02 -0.41392682530E+03  0.79553406627E+03  0.89718458621E+03  0.10100000352E+00 0.  1.
</event>
<event>
 5   0  0.2540232E-05  0.2641816E+04  0.7818609E-02  0.8354135E-01
        2   -1    0    0  501    0  0.00000000000E+00  0.00000000000E+00  0.24784889261E+04  0.24784889261E+04  0.25500000920E-02 0.  1.
       -2   -1    0    0    0  501  0.00000000000E+00  0.00000000000E+00 -0.70397624532E+03  0.70397624532E+03  0.25500000920E-02 0. -1.
    10030    2    1    2    0    0  0.00000000000E+00  0.00000000000E+00  0.17745126808E+04  0.31824651715E+04  0.26418155335E+04 0.  0.
        1    1    3    3  502    0  0.55695230180E+03  0.30482748538E+03  0.22826151950E+04  0.23692715738E+04  0.50400001928E-02 0.  1.
       -1    1    3    3    0  502 -0.55695230180E+03 -0.30482748538E+03 -0.50810251413E+03  0.81319359762E+03  0.50400001928E-02 0. -1.
</event>
<event>
 5   0  0.9971923E-06  0.2689812E+04  0.7818609E-02  0.8338318E-01
       -1   -1    0    0    0  501  0.00000000000E+00  0.00000000000E+00  0.14026080753E+04  0.14026080753E+04  0.50400001928E-02 0. -1.
        1   -1    0    0  501    0  0.00000000000E+00  0.00000000000E+00 -0.12895772660E+04  0.12895772660E+04  0.50400001928E-02 0.  1.
    10030    2    1    2    0    0  0.00000000000E+00  0.00000000000E+00  0.11303080928E+03  0.26921853413E+04  0.26898115079E+04 0.  0.
        2    1    3    3  502    0 -0.21113589903E+03 -0.34631324370E+03  0.13399341780E+04  0.13999767255E+04  0.25500000920E-02 0. -1.
       -2    1    3    3    0  502  0.21113589903E+03  0.34631324370E+03 -0.12269033687E+04  0.12922086158E+04  0.25500000920E-02 0.  1.
</event>
<event>
 5   0  0.1096672E-05  0.2708234E+04  0.7818609E-02  0.8332338E-01
        1   -1    0    0  501    0  0.00000000000E+00  0.00000000000E+00  0.20665314747E+04  0.20665314747E+04  0.50400001928E-02 0. -1.
       -1   -1    0    0    0  501  0.00000000000E+00  0.00000000000E+00 -0.88729963809E+03  0.88729963810E+03  0.50400001928E-02 0.  1.
    10030    2    1    2    0    0  0.00000000000E+00  0.00000000000E+00  0.11792318366E+04  0.29538311128E+04  0.27082338375E+04 0.  0.
        1    1    3    3  502    0 -0.84363806875E+02  0.15771150120E+03  0.20535914052E+04  0.20613655254E+04  0.50400001928E-02 0. -1.
       -1    1    3    3    0  502  0.84363806875E+02 -0.15771150120E+03 -0.87435956861E+03  0.89246558744E+03  0.50400001928E-02 0.  1.
</event>
<event>
 5   0  0.2516518E-05  0.2682571E+04  0.7818609E-02  0.8340682E-01
       -2   -1    0    0    0  501  0.00000000000E+00  0.00000000000E+00  0.10280285811E+04  0.10280285811E+04  0.25500000920E-02 0. -1.
        2   -1    0    0  501    0  0.00000000000E+00  0.00000000000E+00 -0.17499965519E+04  0.17499965519E+04  0.25500000920E-02 0.  1.
    10030    2    1    2    0    0  0.00000000000E+00  0.00000000000E+00 -0.72196797082E+03  0.27780251330E+04  0.26825707611E+04 0.  0.
        4    1    3    3  502    0 -0.10122208422E+04  0.53007093203E+03  0.36649283556E+03  0.11999520148E+04  0.12699999809E+01 0. -1.
       -4    1    3    3    0  502  0.10122208422E+04 -0.53007093203E+03 -0.10884608064E+04  0.15780731182E+04  0.12699999809E+01 0.  1.
</event>
<event>
 5   0  0.2516518E-05  0.2693498E+04  0.7818609E-02  0.8337118E-01
        2   -1    0    0  501    0  0.00000000000E+00  0.00000000000E+00  0.12661497175E+04  0.12661497175E+04  0.25500000920E-02 0.  1.
       -2   -1    0    0    0  501  0.00000000000E+00  0.00000000000E+00 -0.14324788306E+04  0.14324788306E+04  0.25500000920E-02 0. -1.
    10030    2    1    2    0    0  0.00000000000E+00  0.00000000000E+00 -0.16632911310E+03  0.26986285482E+04  0.26934978499E+04 0.  0.
        4    1    3    3  502    0 -0.12204022825E+04  0.31573674462E+03  0.39172104021E+03  0.13200448512E+04  0.12699999809E+01 0.  1.
       -4    1    3    3    0  502  0.12204022825E+04 -0.31573674462E+03 -0.55805015331E+03  0.13785836970E+04  0.12699999809E+01 0. -1.
</event>
<event>
 5   0  0.2516518E-05  0.2708492E+04  0.7818609E-02  0.8332255E-01
        2   -1    0    0  501    0  0.00000000000E+00  0.00000000000E+00  0.14839461282E+04  0.14839461282E+04  0.25500000920E-02 0.  1.
       -2   -1    0    0    0  501  0.00000000000E+00  0.00000000000E+00 -0.12358817406E+04  0.12358817406E+04  0.25500000920E-02 0. -1.
    10030    2    1    2    0    0  0.00000000000E+00  0.00000000000E+00  0.24806438754E+03  0.27198278688E+04  0.27084917750E+04 0.  0.
        4    1    3    3  502    0 -0.95205039291E+03  0.78636420347E+03 -0.43436323905E+03  0.13089849684E+04  0.12699999809E+01 0. -1.
       -4    1    3    3    0  502  0.95205039291E+03 -0.78636420347E+03  0.68242762658E+03  0.14108429004E+04  0.12699999809E+01 0.  1.
</event>
<event>
 5   0  0.1096672E-05  0.2689528E+04  0.7818609E-02  0.8338411E-01
        1   -1    0    0  501    0  0.00000000000E+00  0.00000000000E+00  0.12707385438E+04  0.12707385438E+04  0.50400001928E-02 0. -1.
       -1   -1    0    0    0  501  0.00000000000E+00  0.00000000000E+00 -0.14231017269E+04  0.14231017269E+04  0.50400001928E-02 0.  1.
    10030    2    1    2    0    0  0.00000000000E+00  0.00000000000E+00 -0.15236318309E+03  0.26938402707E+04  0.26895280003E+04 0.  0.
        1    1    3    3  502    0 -0.11552840546E+04  0.47090533828E+03 -0.57893971751E+03  0.13753560561E+04  0.50400001928E-02 0.  1.
       -1    1    3    3    0  502  0.11552840546E+04 -0.47090533828E+03  0.42657653442E+03  0.13184842146E+04  0.50400001928E-02 0. -1.
</event>
<event>
 5   0  0.2615843E-05  0.2768953E+04  0.7818609E-02  0.8312973E-01
        2   -1    0    0  501    0  0.00000000000E+00  0.00000000000E+00  0.14276064380E+04  0.14276064380E+04  0.25500000920E-02 0.  1.
       -2   -1    0    0    0  501  0.00000000000E+00  0.00000000000E+00 -0.13426493254E+04  0.13426493254E+04  0.25500000920E-02 0. -1.
    10030    2    1    2    0    0  0.00000000000E+00  0.00000000000E+00  0.84957112623E+02  0.27702557633E+04  0.27689527413E+04 0.  0.
        3    1    3    3  502    0  0.51682582561E+03  0.80090361977E+03  0.10470522935E+04  0.14159357534E+04  0.10100000352E+00 0.  1.
       -3    1    3    3    0  502 -0.51682582561E+03 -0.80090361977E+03 -0.96209518086E+03  0.13543200100E+04  0.10100000352E+00 0. -1.
</event>
<event>
 5   0  0.2540232E-05  0.2662244E+04  0.7818609E-02  0.8347360E-01
        2   -1    0    0  501    0  0.00000000000E+00  0.00000000000E+00  0.21200217407E+04  0.21200217407E+04  0.25500000920E-02 0. -1.
       -2   -1    0    0    0  501  0.00000000000E+00  0.00000000000E+00 -0.83578672825E+03  0.83578672825E+03  0.25500000920E-02 0.  1.
    10030    2    1    2    0    0  0.00000000000E+00  0.00000000000E+00  0.12842350125E+04  0.29558084690E+04  0.26622441920E+04 0.  0.
        1    1    3    3  502    0 -0.49972703046E+03  0.12328641951E+04  0.58998440285E+03  0.14552535258E+04  0.50400001928E-02 0. -1.
       -1    1    3    3    0  502  0.49972703046E+03 -0.12328641951E+04  0.69425060964E+03  0.15005549432E+04  0.50400001928E-02 0.  1.
</event>
<event>
 5   0  0.9971923E-06  0.2763287E+04  0.7818609E-02  0.8314758E-01
       -1   -1    0    0    0  501  0.00000000000E+00  0.00000000000E+00  0.12018605479E+04  0.12018605479E+04  0.50400001928E-02 0. -1.
        1   -1    0    0  501    0  0.00000000000E+00  0.00000000000E+00 -0.15883192482E+04  0.15883192483E+04  0.50400001928E-02 0.  1.
    10030    2    1    2    0    0  0.00000000000E+00  0.00000000000E+00 -0.38645870032E+03  0.27901797962E+04  0.27632866243E+04 0.  0.
        2    1    3    3  502    0  0.26371505756E+03 -0.13384865822E+02 -0.15626041222E+04  0.15847575301E+04  0.25500000920E-02 0.  1.
       -2    1    3    3    0  502 -0.26371505756E+03  0.13384865822E+02  0.11761454219E+04  0.12054222661E+04  0.25500000920E-02 0. -1.
</event>
<event>
 5   0  0.1096672E-05  0.2741565E+04  0.7818609E-02  0.8321643E-01
        1   -1    0    0  501    0  0.00000000000E+00  0.00000000000E+00  0.14796306012E+04  0.14796306012E+04  0.50400001928E-02 0.  1.
       -1   -1    0    0    0  501  0.00000000000E+00  0.00000000000E+00 -0.12699421839E+04  0.12699421839E+04  0.50400001928E-02 0. -1.
    10030    2    1    2    0    0  0.00000000000E+00  0.00000000000E+00  0.20968841731E+03  0.27495727852E+04  0.27415654777E+04 0.  0.
        1    1    3    3  502    0  0.52245494966E+03 -0.44997726072E+03 -0.10833551123E+04  0.12841717210E+04  0.50400001928E-02 0. -1.
       -1    1    3    3    0  502 -0.52245494966E+03  0.44997726072E+03  0.12930435296E+04  0.14654010642E+04  0.50400001928E-02 0.  1.
</event>
<event>
 5   0  0.9971923E-06  0.2697853E+04  0.7818609E-02  0.8335702E-01
       -1   -1    0    0    0  501  0.00000000000E+00  0.00000000000E+00  0.14027042548E+04  0.14027042548E+04  0.50400001928E-02 0.  1.
        1   -1    0    0  501    0  0.00000000000E+00  0.00000000000E+00 -0.12972107648E+04  0.12972107648E+04  0.50400001928E-02 0. -1.
    10030    2    1    2    0    0  0.00000000000E+00  0.00000000000E+00  0.10549348994E+03  0.26999150196E+04  0.26978532645E+04 0.  0.
        2    1    3    3  502    0 -0.40915858034E+03 -0.10591610055E+04  0.78156855408E+03  0.13784346862E+04  0.25500000920E-02 0.  1.
       -2    1    3    3    0  502  0.40915858034E+03  0.10591610055E+04 -0.67607506414E+03  0.13214803335E+04  0.25500000920E-02 0. -1.
</event>
<event>
 5   0  0.2615843E-05  0.2921328E+04  0.7818609E-02  0.8266560E-01
        2   -1    0    0  501    0  0.00000000000E+00  0.00000000000E+00  0.14817428232E+04  0.14817428232E+04  0.25500000920E-02 0. -1.
       -2   -1    0    0    0  501  0.00000000000E+00  0.00000000000E+00 -0.14398845457E+04  0.14398845457E+04  0.25500000920E-02 0.  1.
    10030    2    1    2    0    0  0.00000000000E+00  0.00000000000E+00  0.41858277508E+02  0.29216273690E+04  0.29213275009E+04 0.  0.
        3    1    3    3  502    0  0.76726107065E+03 -0.83779437066E+03  0.93914626259E+03  0.14739690196E+04  0.10100000352E+00 0. -1.
       -3    1    3    3    0  502 -0.76726107065E+03  0.83779437066E+03 -0.89728798508E+03  0.14476583493E+04  0.10100000352E+00 0.  1.
</event>
<event>
 5   0  0.9971923E-06  0.2817721E+04  0.7818609E-02  0.8297788E-01
       -1   -1    0    0    0  501  0.00000000000E+00  0.00000000000E+00  0.84699090066E+03  0.84699090067E+03  0.50400001928E-02 0.  1.
        1   -1    0    0  501    0  0.00000000000E+00  0.00000000000E+00 -0.23434582179E+04  0.23434582179E+04  0.50400001928E-02 0. -1.
    10030    2    1    2    0    0  0.00000000000E+00  0.00000000000E+00 -0.14964673172E+04  0.31904491186E+04  0.28177209135E+04 0.  0.
        2    1    3    3  502    0 -0.63072932189E+03 -0.12363102807E+04 -0.47412552641E+03  0.14666552432E+04  0.25500000920E-02 0.  1.
       -2    1    3    3    0  502  0.63072932189E+03  0.12363102807E+04 -0.10223417908E+04  0.17237938754E+04  0.25500000920E-02 0. -1.
</event>
<event>
 5   0  0.2540684E-05  0.2708981E+04  0.7818609E-02  0.8332097E-01
       -2   -1    0    0    0  501  0.00000000000E+00  0.00000000000E+00  0.73254269394E+03  0.73254269394E+03  0.25500000920E-02 0.  1.
        2   -1    0    0  501    0  0.00000000000E+00  0.00000000000E+00 -0.25044880291E+04  0.25044880292E+04  0.25500000920E-02 0. -1.
    10030    2    1    2    0    0  0.00000000000E+00  0.00000000000E+00 -0.17719453352E+04  0.32370307231E+04  0.27089809212E+04 0.  0.
        2    1    3    3  502    0 -0.74768565763E+03 -0.81447804426E+03  0.49003056726E+02  0.11067111759E+04  0.25500000920E-02 0.  1.
       -2    1    3    3    0  502  0.74768565763E+03  0.81447804426E+03 -0.18209483919E+04  0.21303195472E+04  0.25500000920E-02 0. -1.
</event>
<event>
 5   0  0.1005265E-05  0.2632483E+04  0.7818609E-02  0.8357250E-01
       -1   -1    0    0    0  501  0.00000000000E+00  0.00000000000E+00  0.14866695088E+04  0.14866695089E+04  0.50400001928E-02 0.  1.
        1   -1    0    0  501    0  0.00000000000E+00  0.00000000000E+00 -0.11653511868E+04  0.11653511868E+04  0.50400001928E-02 0. -1.
    10030    2    1    2    0    0  0.00000000000E+00  0.00000000000E+00  0.32131832203E+03  0.26520206957E+04  0.26324832965E+04 0.  0.
        3    1    3    3  502    0  0.91089120610E+03 -0.92451181657E+03  0.38148262957E+03  0.13527652772E+04  0.10100000352E+00 0.  1.
       -3    1    3    3    0  502 -0.91089120610E+03  0.92451181657E+03 -0.60164307543E+02  0.12992554185E+04  0.10100000352E+00 0. -1.
</event>
<event>
 5   0  0.1096672E-05  0.2729699E+04  0.7818609E-02  0.8325433E-01
       -1   -1    0    0    0  501  0.00000000000E+00  0.00000000000E+00  0.81338613369E+03  0.81338613371E+03  0.50400001928E-02 0.  1.
        1   -1    0    0  501    0  0.00000000000E+00  0.00000000000E+00 -0.22901959492E+04  0.22901959492E+04  0.50400001928E-02 0. -1.
    10030    2    1    2    0    0  0.00000000000E+00  0.00000000000E+00 -0.14768098155E+04  0.31035820829E+04  0.27296986123E+04 0.  0.
        1    1    3    3  502    0 -0.13555244273E+04  0.11379743027E+03 -0.86510068188E+03  0.16120780124E+04  0.50400001928E-02 0.  1.
       -1    1    3    3    0  502  0.13555244273E+04 -0.11379743027E+03 -0.61170913362E+03  0.14915040705E+04  0.50400001928E-02 0. -1.
</event>
<event>
 5   0  0.2516518E-05  0.2663813E+04  0.7818609E-02  0.8346843E-01
        2   -1    0    0  501    0  0.00000000000E+00  0.00000000000E+00  0.16375090701E+04  0.16375090702E+04  0.25500000920E-02 0. -1.
       -2   -1    0    0    0  501  0.00000000000E+00  0.00000000000E+00 -0.10833372292E+04  0.10833372292E+04  0.25500000920E-02 0.  1.
    10030    2    1    2    0    0  0.00000000000E+00  0.00000000000E+00  0.55417184098E+03  0.27208462993E+04  0.26638127102E+04 0.  0.
        4    1    3    3  502    0 -0.10665648379E+04  0.45725595067E+03 -0.39061456597E+03  0.12244284013E+04  0.12699999809E+01 0.  1.
       -4    1    3    3    0  502  0.10665648379E+04 -0.45725595067E+03  0.94478640695E+03  0.14964178980E+04  0.12699999809E+01 0. -1.
</event>
<event>
 5   0  0.2641216E-05  0.2701971E+04  0.7818609E-02  0.8334366E-01
        2   -1    0    0  501    0  0.00000000000E+00  0.00000000000E+00  0.15965646494E+04  0.15965646494E+04  0.25500000920E-02 0. -1.
       -2   -1    0    0    0  501  0.00000000000E+00  0.00000000000E+00 -0.11431807283E+04  0.11431807283E+04  0.25500000920E-02 0.  1.
    10030    2    1    2    0    0  0.00000000000E+00  0.00000000000E+00  0.45338392115E+03  0.27397453777E+04  0.27019710870E+04 0.  0.
        5    1    3    3  502    0 -0.11041382508E+04  0.73547450842E+03 -0.32013773260E+02  0.13270610389E+04  0.46999998093E+01 0.  1.
       -5    1    3    3    0  502  0.11041382508E+04 -0.73547450842E+03  0.48539769441E+03  0.14126843388E+04  0.46999998093E+01 0. -1.
</event>
<event>
 5   0  0.9971923E-06  0.1706848E+04  0.7818609E-02  0.8757468E-01
        1   -1    0    0  501    0  0.00000000000E+00  0.00000000000E+00  0.14829243467E+04  0.14829243467E+04  0.50400001928E-02 0.  1.
       -1   -1    0    0    0  501  0.00000000000E+00  0.00000000000E+00 -0.49114638692E+03  0.49114638695E+03  0.50400001928E-02 0. -1.
    10030    2    1    2    0    0  0.00000000000E+00  0.00000000000E+00  0.99177795976E+03  0.19740707336E+04  0.17068484818E+04 0.  0.
        2    1    3    3  502    0 -0.85040983793E+02  0.25256503935E+03 -0.44178847962E+03  0.51594392017E+03  0.25500000920E-02 0. -1.
       -2    1    3    3    0  502  0.85040983793E+02 -0.25256503935E+03  0.14335664394E+04  0.14581268135E+04  0.25500000920E-02 0.  1.
</event>
<event>
 5   0  0.9971923E-06  0.2757186E+04  0.7818609E-02  0.8316685E-01
       -1   -1    0    0    0  501  0.00000000000E+00  0.00000000000E+00  0.13616313464E+04  0.13616313464E+04  0.50400001928E-02 0.  1.
        1   -1    0    0  501    0  0.00000000000E+00  0.00000000000E+00 -0.13957657494E+04  0.13957657494E+04  0.50400001928E-02 0. -1.
    10030    2    1    2    0    0  0.00000000000E+00  0.00000000000E+00 -0.34134403060E+02  0.27573970958E+04  0.27571858092E+04 0.  0.
        2    1    3    3  502    0  0.45154601844E+03 -0.80191586188E+03 -0.10435743944E+04  0.13914058980E+04  0.25500000920E-02 0. -1.
       -2    1    3    3    0  502 -0.45154601844E+03  0.80191586188E+03  0.10094399914E+04  0.13659911978E+04  0.25500000920E-02 0.  1.
</event>
<event>
 5   0  0.1096672E-05  0.1716784E+04  0.7818609E-02  0.8751849E-01
       -1   -1    0    0    0  501  0.00000000000E+00  0.00000000000E+00  0.43060536514E+03  0.43060536517E+03  0.50400001928E-02 0. -1.
        1   -1    0    0  501    0  0.00000000000E+00  0.00000000000E+00 -0.17111651708E+04  0.17111651708E+04  0.50400001928E-02 0.  1.
    10030    2    1    2    0    0  0.00000000000E+00  0.00000000000E+00 -0.12805598056E+04  0.21417705359E+04  0.17167840903E+04 0.  0.
        1    1    3    3  502    0 -0.71247725356E+03 -0.13768115314E+03 -0.12123278834E+04  0.14129114741E+04  0.50400001928E-02 0. -1.
       -1    1    3    3    0  502  0.71247725356E+03  0.13768115314E+03 -0.68231922197E+02  0.72885906182E+03  0.50400001928E-02 0.  1.
</event>
<event>
 5   0  0.1041909E-05  0.2703396E+04  0.7818609E-02  0.8333904E-01
       -1   -1    0    0    0  501  0.00000000000E+00  0.00000000000E+00  0.14191871126E+04  0.14191871126E+04  0.50400001928E-02 0. -1.
        1   -1    0    0  501    0  0.00000000000E+00  0.00000000000E+00 -0.12874183275E+04  0.12874183275E+04  0.50400001928E-02 0.  1.
    10030    2    1    2    0    0  0.00000000000E+00  0.00000000000E+00  0.13176878512E+03  0.27066054401E+04  0.27033960116E+04 0.  0.
        5    1    3    3  502    0 -0.53923066829E+03 -0.11698192989E+04 -0.34425851239E+03  0.13333352613E+04  0.46999998093E+01 0.  1.
       -5    1    3    3    0  502  0.53923066829E+03  0.11698192989E+04  0.47602729751E+03  0.13732701787E+04  0.46999998093E+01 0. -1.
</event>
<event>
 5   0  0.1005265E-05  0.2715153E+04  0.7818609E-02  0.8330105E-01
       -1   -1    0    0    0  501  0.00000000000E+00  0.00000000000E+00  0.97893788769E+03  0.97893788770E+03  0.50400001928E-02 0. -1.
        1   -1    0    0  501    0  0.00000000000E+00  0.00000000000E+00 -0.18826668928E+04  0.18826668928E+04  0.50400001928E-02 0.  1.
    10030    2    1    2    0    0  0.00000000000E+00  0.00000000000E+00 -0.90372900511E+03  0.28616047805E+04  0.27151529985E+04 0.  0.
        3    1    3    3  502    0  0.13159450335E+04 -0.33354511083E+03 -0.45933699753E+03  0.14331622935E+04  0.10100000352E+00 0. -1.
       -3    1    3    3    0  502 -0.13159450335E+04  0.33354511083E+03 -0.44439200758E+03  0.14284424870E+04  0.10100000352E+00 0.  1.
</event>
<event>
 5   0  0.2540232E-05  0.2681842E+04  0.7818609E-02  0.8340921E-01
       -2   -1    0    0    0  501  0.00000000000E+00  0.00000000000E+00  0.11918820478E+04  0.11918820478E+04  0.25500000920E-02 0.  1.
        2   -1    0    0  501    0  0.00000000000E+00  0.00000000000E+00 -0.15085970779E+04  0.15085970779E+04  0.25500000920E-02 0. -1.
    10030    2    1    2    0    0  0.00000000000E+00  0.00000000000E+00 -0.31671503016E+03  0.27004791257E+04  0.26818424820E+04 0.  0.
        1    1    3    3  502    0 -0.48235898537E+03  0.12211135073E+04 -0.43279760810E+03  0.13824261854E+04  0.50400001928E-02 0. -1.
       -1    1    3    3    0  502  0.48235898537E+03 -0.12211135073E+04  0.11608257793E+03  0.13180529403E+04  0.50400001928E-02 0.  1.
</event>
<event>
 5   0  0.1041909E-05  0.2659024E+04  0.7818609E-02  0.8348424E-01
       -1   -1    0    0    0  501  0.00000000000E+00  0.00000000000E+00  0.98992742716E+03  0.98992742718E+03  0.50400001928E-02 0.  1.
        1   -1    0    0  501    0  0.00000000000E+00  0.00000000000E+00 -0.17855876567E+04  0.17855876567E+04  0.50400001928E-02 0. -1.
    10030    2    1    2    0    0  0.00000000000E+00  0.00000000000E+00 -0.79566022957E+03  0.27755150839E+04  0.26590240277E+04 0.  0.
        5    1    3    3  502    0  0.70557929839E+03 -0.98714094066E+03  0.16938295713E+03  0.12251538921E+04  0.46999998093E+01 0.  1.
       -5    1    3    3    0  502 -0.70557929839E+03  0.98714094066E+03 -0.96504318670E+03  0.15503611919E+04  0.46999998093E+01 0. -1.
</event>
<event>
 5   0  0.1096672E-05  0.2016137E+04  0.7818609E-02  0.8599113E-01
       -1   -1    0    0    0  501  0.00000000000E+00  0.00000000000E+00  0.56010431841E+03  0.56010431843E+03  0.50400001928E-02 0.  1.
        1   -1    0    0  501    0  0.00000000000E+00  0.00000000000E+00 -0.18143092400E+04  0.18143092400E+04  0.50400001928E-02 0. -1.
    10030    2    1    2    0    0  0.00000000000E+00  0.00000000000E+00 -0.12542049216E+04  0.23744135584E+04  0.20161373369E+04 0.  0.
        1    1    3    3  502    0  0.37320096047E+03  0.93354797565E+03 -0.54046583616E+03  0.11414438663E+04  0.50400001928E-02 0.  1.
       -1    1    3    3    0  502 -0.37320096047E+03 -0.93354797565E+03 -0.71373908542E+03  0.12329696922E+04  0.50400001928E-02 0. -1.
</event>
<event>
 5   0  0.1096672E-05  0.2662008E+04  0.7818609E-02  0.8347438E-01
       -1   -1    0    0    0  501  0.00000000000E+00  0.00000000000E+00  0.10841796889E+04  0.10841796889E+04  0.50400001928E-02 0.  1.
        1   -1    0    0  501    0  0.00000000000E+00  0.00000000000E+00 -0.16340200639E+04  0.16340200639E+04  0.50400001928E-02 0. -1.
    10030    2    1    2    0    0  0.00000000000E+00  0.00000000000E+00 -0.54984037502E+03  0.27181997529E+04  0.26620077871E+04 0.  0.
        1    1    3    3  502    0 -0.14898258362E+03  0.13209796190E+04 -0.34256354867E+03  0.13727828484E+04  0.50400001928E-02 0. -1.
       -1    1    3    3    0  502  0.14898258362E+03 -0.13209796190E+04 -0.20727682635E+03  0.13454169044E+04  0.50400001928E-02 0.  1.
</event>
<event>
 5   0  0.1036691E-05  0.2738362E+04  0.7818609E-02  0.8322664E-01
       -1   -1    0    0    0  501  0.00000000000E+00  0.00000000000E+00  0.14444057466E+04  0.14444057466E+04  0.50400001928E-02 0.  1.
        1   -1    0    0  501    0  0.00000000000E+00  0.00000000000E+00 -0.12978743476E+04  0.12978743476E+04  0.50400001928E-02 0. -1.
    10030    2    1    2    0    0  0.00000000000E+00  0.00000000000E+00  0.14653139894E+03  0.27422800942E+04  0.27383624056E+04 0.  0.
        4    1    3    3  502    0 -0.11190934367E+04 -0.24582084643E+03 -0.67737826287E+03  0.13310300269E+04  0.12699999809E+01 0. -1.
       -4    1    3    3    0  502  0.11190934367E+04  0.24582084643E+03  0.82390966181E+03  0.14112500673E+04  0.12699999809E+01 0.  1.
</event>
<event>
 5   0  0.1005265E-05  0.2476043E+04  0.7818609E-02  0.8411570E-01
        1   -1    0    0  501    0  0.00000000000E+00  0.00000000000E+00  0.19738986900E+04  0.19738986900E+04  0.50400001928E-02 0.  1.
       -1   -1    0    0    0  501  0.00000000000E+00  0.00000000000E+00 -0.77648204382E+03  0.77648204384E+03  0.50400001928E-02 0. -1.
    10030    2    1    2    0    0  0.00000000000E+00  0.00000000000E+00  0.11974166461E+04  0.27503807338E+04  0.24760427210E+04 0.  0.
        3    1    3    3  502    0 -0.65439616695E+03 -0.88784508304E+03 -0.25905011371E+02  0.11032562325E+04  0.10100000352E+00 0. -1.
       -3    1    3    3    0  502  0.65439616695E+03  0.88784508304E+03  0.12233216575E+04  0.16471245013E+04  0.10100000352E+00 0.  1.
</event>
<event>
 5   0  0.2540232E-05  0.2778014E+04  0.7818609E-02  0.8310127E-01
        2   -1    0    0  501    0  0.00000000000E+00  0.00000000000E+00  0.17474824360E+04  0.17474824360E+04  0.25500000920E-02 0. -1.
       -2   -1    0    0    0  501  0.00000000000E+00  0.00000000000E+00 -0.11040686819E+04  0.11040686819E+04  0.25500000920E-02 0.  1.
    10030    2    1    2    0    0  0.00000000000E+00  0.00000000000E+00  0.64341375404E+03  0.28515511179E+04  0.27780141323E+04 0.  0.
        1    1    3    3  502    0  0.74944135588E+03  0.11273603685E+04  0.24481655480E+01  0.13537391698E+04  0.50400001928E-02 0.  1.
       -1    1    3    3    0  502 -0.74944135588E+03 -0.11273603685E+04  0.64096558849E+03  0.14978119481E+04  0.50400001928E-02 0. -1.
</event>
<event>
 5   0  0.2615843E-05  0.2569738E+04  0.7818609E-02  0.8378554E-01
        2   -1    0    0  501    0  0.00000000000E+00  0.00000000000E+00  0.19003804781E+04  0.19003804781E+04  0.25500000920E-02 0. -1.
       -2   -1    0    0    0  501  0.00000000000E+00  0.00000000000E+00 -0.86871496764E+03  0.86871496764E+03  0.25500000920E-02 0.  1.
    10030    2    1    2    0    0  0.00000000000E+00  0.00000000000E+00  0.10316655105E+04  0.27690954457E+04  0.25697384813E+04 0.  0.
        3    1    3    3  502    0 -0.52512808145E+03 -0.11236176460E+04  0.87744485261E+03  0.15192714030E+04  0.10100000352E+00 0. -1.
       -3    1    3    3    0  502  0.52512808145E+03  0.11236176460E+04  0.15422065785E+03  0.12498240428E+04  0.10100000352E+00 0.  1.
</event>
<event>
 5   0  0.1005265E-05  0.2702077E+04  0.7818609E-02  0.8334331E-01
        1   -1    0    0  501    0  0.00000000000E+00  0.00000000000E+00  0.12004025221E+04  0.12004025221E+04  0.50400001928E-02 0.  1.
       -1   -1    0    0    0  501  0.00000000000E+00  0.00000000000E+00 -0.15205774949E+04  0.15205774949E+04  0.50400001928E-02 0. -1.
    10030    2    1    2    0    0  0.00000000000E+00  0.00000000000E+00 -0.32017497288E+03  0.27209800170E+04  0.27020770233E+04 0.  0.
        3    1    3    3  502    0 -0.77511547530E+03  0.42830221060E+03  0.86737304074E+03  0.12395897651E+04  0.10100000352E+00 0.  1.
       -3    1    3    3    0  502  0.77511547530E+03 -0.42830221060E+03 -0.11875480136E+04  0.14813902519E+04  0.10100000352E+00 0. -1.
</event>
<event>
 5   0  0.2641216E-05  0.2683570E+04  0.7818609E-02  0.8340356E-01
        2   -1    0    0  501    0  0.00000000000E+00  0.00000000000E+00  0.18289417576E+04  0.18289417577E+04  0.25500000920E-02 0. -1.
       -2   -1    0    0    0  501  0.00000000000E+00  0.00000000000E+00 -0.98438709206E+03  0.98438709207E+03  0.25500000920E-02 0.  1.
    10030    2    1    2    0    0  0.00000000000E+00  0.00000000000E+00  0.84455466559E+03  0.28133288497E+04  0.26835697557E+04 0.  0.
        5    1    3    3  502    0  0.80399472779E+03  0.43691293187E+03 -0.60653276037E+03  0.10978180686E+04  0.46999998093E+01 0.  1.
       -5    1    3    3    0  502 -0.80399472779E+03 -0.43691293187E+03  0.14510874260E+04  0.17155107811E+04  0.46999998093E+01 0. -1.
</event>
<event>
 5   0  0.1036691E-05  0.2036652E+04  0.7818609E-02  0.8589674E-01
        1   -1    0    0  501    0  0.00000000000E+00  0.00000000000E+00  0.19258156410E+04  0.19258156410E+04  0.50400001928E-02 0. -1.
       -1   -1    0    0    0  501  0.00000000000E+00  0.00000000000E+00 -0.53846677359E+03  0.53846677361E+03  0.50400001928E-02 0.  1.
    10030    2    1    2    0    0  0.00000000000E+00  0.00000000000E+00  0.13873488674E+04  0.24642824146E+04  0.20366518944E+04 0.  0.
        4    1    3    3  502    0 -0.49787891347E+03 -0.74269383457E+03  0.12833502564E+04  0.15641186138E+04  0.12699999809E+01 0. -1.
       -4    1    3    3    0  502  0.49787891347E+03  0.74269383457E+03  0.10399861101E+03  0.90016380086E+03  0.12699999809E+01 0.  1.
</event>
<event>
 5   0  0.9971923E-06  0.2760806E+04  0.7818609E-02  0.8315541E-01
       -1   -1    0    0    0  501  0.00000000000E+00  0.00000000000E+00  0.75461098417E+03  0.75461098419E+03  0.50400001928E-02 0.  1.
        1   -1    0    0  501    0  0.00000000000E+00  0.00000000000E+00 -0.25251594016E+04  0.25251594016E+04  0.50400001928E-02 0. -1.
    10030    2    1    2    0    0  0.00000000000E+00  0.00000000000E+00 -0.17705484175E+04  0.32797703858E+04  0.27608064194E+04 0.  0.
        2    1    3    3  502    0 -0.10408111669E+04 -0.90676586541E+03 -0.88421061505E+03  0.16393110234E+04  0.25500000920E-02 0.  1.
       -2    1    3    3    0  502  0.10408111669E+04  0.90676586541E+03 -0.88633780243E+03  0.16404593624E+04  0.25500000920E-02 0. -1.
</event>
<event>
 5   0  0.1096672E-05  0.2749305E+04  0.7818609E-02  0.8319182E-01
        1   -1    0    0  501    0  0.00000000000E+00  0.00000000000E+00  0.21760388280E+04  0.21760388280E+04  0.50400001928E-02 0.  1.
       -1   -1    0    0    0  501  0.00000000000E+00  0.00000000000E+00 -0.86839893520E+03  0.86839893522E+03  0.50400001928E-02 0. -1.
    10030    2    1    2    0    0  0.00000000000E+00  0.00000000000E+00  0.13076398928E+04  0.30444377632E+04  0.27493052222E+04 0.  0.
        1    1    3    3  502    0  0.67907542661E+02 -0.10824130593E+04 -0.28150598060E+03  0.11204798447E+04  0.50400001928E-02 0. -1.
       -1    1    3    3    0  502 -0.67907542661E+02  0.10824130593E+04  0.15891458734E+04  0.19239579185E+04  0.50400001928E-02 0.  1.
</event>
<event>
 5   0  0.1041909E-05  0.2398542E+04  0.7818609E-02  0.8440050E-01
        1   -1    0    0  501    0  0.00000000000E+00  0.00000000000E+00  0.55455221530E+03  0.55455221533E+03  0.50400001928E-02 0. -1.
       -1   -1    0    0    0  501  0.00000000000E+00  0.00000000000E+00 -0.25935357823E+04  0.25935357823E+04  0.50400001928E-02 0.  1.
    10030    2    1    2    0    0  0.00000000000E+00  0.00000000000E+00 -0.20389835670E+04  0.31480879976E+04  0.23985420685E+04 0.  0.
        5    1    3    3  502    0 -0.18578761178E+03 -0.53338074535E+03  0.36904262700E+03  0.67470482935E+03  0.46999998093E+01 0. -1.
       -5    1    3    3    0  502  0.18578761178E+03  0.53338074535E+03 -0.24080261940E+04  0.24733831683E+04  0.46999998093E+01 0.  1.
</event>
<event>
 5   0  0.2641216E-05  0.2693279E+04  0.7818609E-02  0.8337189E-01
       -2   -1    0    0    0  501  0.00000000000E+00  0.00000000000E+00  0.15563236236E+04  0.15563236236E+04  0.25500000920E-02 0.  1.
        2   -1    0    0  501    0  0.00000000000E+00  0.00000000000E+00 -0.11652061456E+04  0.11652061456E+04  0.25500000920E-02 0. -1.
    10030    2    1    2    0    0  0.00000000000E+00  0.00000000000E+00  0.39111747802E+03  0.27215297692E+04  0.26932789315E+04 0.  0.
        5    1    3    3  502    0 -0.89641306926E+03  0.24519479310E+03 -0.78920911828E+03  0.12192415674E+04  0.46999998093E+01 0. -1.
       -5    1    3    3    0  502  0.89641306926E+03 -0.24519479310E+03  0.11803265963E+04  0.15022882018E+04  0.46999998093E+01 0.  1.
</event>
<event>
 5   0  0.2516518E-05  0.2684259E+04  0.7818609E-02  0.8340131E-01
       -2   -1    0    0    0  501  0.00000000000E+00  0.00000000000E+00  0.56422745093E+03  0.56422745094E+03  0.25500000920E-02 0.  1.
        2   -1    0    0  501    0  0.00000000000E+00  0.00000000000E+00 -0.31925266992E+04  0.31925266992E+04  0.25500000920E-02 0. -1.
    10030    2    1    2    0    0  0.00000000000E+00  0.00000000000E+00 -0.26282992483E+04  0.37567541502E+04  0.26842587070E+04 0.  0.
        4    1    3    3  502    0 -0.87999385669E+03  0.94274487945E+03 -0.18343465336E+04  0.22423170859E+04  0.12699999809E+01 0. -1.
       -4    1    3    3    0  502  0.87999385669E+03 -0.94274487945E+03 -0.79395271472E+03  0.15144370643E+04  0.12699999809E+01 0.  1.
</event>
<event>
 5   0  0.1041909E-05  0.2732127E+04  0.7818609E-02  0.8324656E-01
        1   -1    0    0  501    0  0.00000000000E+00  0.00000000000E+00  0.16665516648E+04  0.16665516648E+04  0.50400001928E-02 0. -1.
       -1   -1    0    0    0  501  0.00000000000E+00  0.00000000000E+00 -0.11197549378E+04  0.11197549378E+04  0.50400001928E-02 0.  1.
    10030    2    1    2    0    0  0.00000000000E+00  0.00000000000E+00  0.54679672697E+03  0.27863066026E+04  0.27321269778E+04 0.  0.
        5    1    3    3  502    0  0.96224065489E+03 -0.46808031223E+02  0.12611132415E+04  0.15869866942E+04  0.46999998093E+01 0. -1.
       -5    1    3    3    0  502 -0.96224065489E+03  0.46808031223E+02 -0.71431651454E+03  0.11993199084E+04  0.46999998093E+01 0.  1.
</event>
<event>
 5   0  0.8740500E-06  0.2712274E+04  0.7818609E-02  0.8331033E-01
       -3   -1    0    0    0  501  0.00000000000E+00  0.00000000000E+00  0.14856139928E+04  0.14856139963E+04  0.10100000352E+00 0.  1.
        3   -1    0    0  501    0  0.00000000000E+00  0.00000000000E+00 -0.12379448183E+04  0.12379448224E+04  0.10100000352E+00 0. -1.
    10030    2    1    2    0    0  0.00000000000E+00  0.00000000000E+00  0.24766917457E+03  0.27235588187E+04  0.27122744365E+04 0.  0.
        4    1    3    3  502    0  0.40127820460E+03  0.10069151534E+04  0.94221258129E+03  0.14361993194E+04  0.12699999809E+01 0.  1.
       -4    1    3    3    0  502 -0.40127820460E+03 -0.10069151534E+04 -0.69454340673E+03  0.12873594993E+04  0.12699999809E+01 0. -1.
</event>
<event>
 5   0  0.2540232E-05  0.2602034E+04  0.7818609E-02  0.8367511E-01
       -2   -1    0    0    0  501  0.00000000000E+00  0.00000000000E+00  0.12969970382E+04  0.12969970382E+04  0.25500000920E-02 0.  1.
        2   -1    0    0  501    0  0.00000000000E+00  0.00000000000E+00 -0.13050494706E+04  0.13050494706E+04  0.25500000920E-02 0. -1.
    10030    2    1    2    0    0  0.00000000000E+00  0.00000000000E+00 -0.80524323189E+01  0.26020465088E+04  0.26020340490E+04 0.  0.
        1    1    3    3  502    0 -0.33340359219E+03 -0.14217095184E+03 -0.12535420086E+04  0.13048900728E+04  0.50400001928E-02 0. -1.
       -1    1    3    3    0  502  0.33340359219E+03  0.14217095184E+03  0.12454895763E+04  0.12971564360E+04  0.50400001928E-02 0.  1.
</event>
<event>
 5   0  0.2516518E-05  0.2774710E+04  0.7818609E-02  0.8311163E-01
        2   -1    0    0  501    0  0.00000000000E+00  0.00000000000E+00  0.88716083961E+03  0.88716083962E+03  0.25500000920E-02 0.  1.
       -2   -1    0    0    0  501  0.00000000000E+00  0.00000000000E+00 -0.21695661189E+04  0.21695661189E+04  0.25500000920E-02 0. -1.
    10030    2    1    2    0    0  0.00000000000E+00  0.00000000000E+00 -0.12824052793E+04  0.30567269585E+04  0.27747101468E+04 0.  0.
        4    1    3    3  502    0 -0.78078732609E+03  0.99213657891E+03 -0.76038737069E+01  0.12625463443E+04  0.12699999809E+01 0.  1.
       -4    1    3    3    0  502  0.78078732609E+03 -0.99213657891E+03 -0.12748014056E+04  0.17941806142E+04  0.12699999809E+01 0. -1.
</event>
<event>
 5   0  0.2516518E-05  0.2107982E+04  0.7818609E-02  0.8557735E-01
       -2   -1    0    0    0  501  0.00000000000E+00  0.00000000000E+00  0.17438338454E+04  0.17438338454E+04  0.25500000920E-02 0.  1.
        2   -1    0    0  501    0  0.00000000000E+00  0.00000000000E+00 -0.63704303331E+03  0.63704303331E+03  0.25500000920E-02 0. -1.
    10030    2    1    2    0    0  0.00000000000E+00  0.00000000000E+00  0.11067908121E+04  0.23808768787E+04  0.21079821654E+04 0.  0.
        4    1    3    3  502    0 -0.56487982219E+03  0.85729753638E+03  0.28410246753E+03  0.10652530706E+04  0.12699999809E+01 0. -1.
       -4    1    3    3    0  502  0.56487982219E+03 -0.85729753638E+03  0.82268834455E+03  0.13156238081E+04  0.12699999809E+01 0.  1.
</event>
<event>
 5   0  0.1036691E-05  0.2678952E+04  0.7818609E-02  0.8341867E-01
        1   -1    0    0  501    0  0.00000000000E+00  0.00000000000E+00  0.82851154499E+03  0.82851154501E+03  0.50400001928E-02 0.  1.
       -1   -1    0    0    0  501  0.00000000000E+00  0.00000000000E+00 -0.21655652892E+04  0.21655652892E+04  0.50400001928E-02 0. -1.
    10030    2    1    2    0    0  0.00000000000E+00  0.00000000000E+00 -0.13370537442E+04  0.29940768342E+04  0.26789519171E+04 0.  0.
        4    1    3    3  502    0 -0.97961391774E+03 -0.13371731422E+03 -0.16785270534E+04  0.19480704376E+04  0.12699999809E+01 0. -1.
       -4    1    3    3    0  502  0.97961391774E+03  0.13371731422E+03  0.34147330920E+03  0.10460063966E+04  0.12699999809E+01 0.  1.
</event>
<event>
 5   0  0.1005265E-05  0.2708514E+04  0.7818609E-02  0.8332248E-01
       -1   -1    0    0    0  501  0.00000000000E+00  0.00000000000E+00  0.14689900541E+04  0.14689900541E+04  0.50400001928E-02 0.  1.
        1   -1    0    0  501    0  0.00000000000E+00  0.00000000000E+00 -0.12484849077E+04  0.12484849077E+04  0.50400001928E-02 0. -1.
    10030    2    1    2    0    0  0.00000000000E+00  0.00000000000E+00  0.22050514643E+03  0.27174749618E+04  0.27085139189E+04 0.  0.
        3    1    3    3  502    0 -0.89867045698E+03 -0.86993014262E+03 -0.41071950153E+03  0.13164640377E+04  0.10100000352E+00 0. -1.
       -3    1    3    3    0  502  0.89867045698E+03  0.86993014262E+03  0.63122464797E+03  0.14010109242E+04  0.10100000352E+00 0.  1.
</event>
<event>
 5   0  0.1005265E-05  0.2688391E+04  0.7818609E-02  0.8338782E-01
       -1   -1    0    0    0  501  0.00000000000E+00  0.00000000000E+00  0.18060825846E+04  0.18060825846E+04  0.50400001928E-02 0. -1.
        1   -1    0    0  501    0  0.00000000000E+00  0.00000000000E+00 -0.10004312800E+04  0.10004312800E+04  0.50400001928E-02 0.  1.
    10030    2    1    2    0    0  0.00000000000E+00  0.00000000000E+00  0.80565130463E+03  0.28065138646E+04  0.26883909775E+04 0.  0.
        3    1    3    3  502    0 -0.10287907651E+04 -0.23948677240E+03 -0.46502363986E+03  0.11541279602E+04  0.10100000352E+00 0.  1.
       -3    1    3    3    0  502  0.10287907651E+04  0.23948677240E+03  0.12706749445E+04  0.16523859045E+04  0.10100000352E+00 0. -1.
</event>
<event>
 5   0  0.2516518E-05  0.2638881E+04  0.7818609E-02  0.8355113E-01
        2   -1    0    0  501    0  0.00000000000E+00  0.00000000000E+00  0.18154423006E+04  0.18154423006E+04  0.25500000920E-02 0. -1.
       -2   -1    0    0    0  501  0.00000000000E+00  0.00000000000E+00 -0.95895256609E+03  0.95895256609E+03  0.25500000920E-02 0.  1.
    10030    2    1    2    0    0  0.00000000000E+00  0.00000000000E+00  0.85648973447E+03  0.27743948667E+04  0.26388808633E+04 0.  0.
        4    1    3    3  502    0 -0.77188136793E+03 -0.47611799170E+03 -0.57931776315E+03  0.10761504875E+04  0.12699999809E+01 0.  1.
       -4    1    3    3    0  502  0.77188136793E+03  0.47611799170E+03  0.14358074976E+04  0.16982443791E+04  0.12699999809E+01 0. -1.
</event>
<event>
 5   0  0.1036691E-05  0.2136913E+04  0.7818609E-02  0.8545155E-01
        1   -1    0    0  501    0  0.00000000000E+00  0.00000000000E+00  0.11244241742E+04  0.11244241742E+04  0.50400001928E-02 0. -1.
       -1   -1    0    0    0  501  0.00000000000E+00  0.00000000000E+00 -0.10152743973E+04  0.10152743973E+04  0.50400001928E-02 0.  1.
    10030    2    1    2    0    0  0.00000000000E+00  0.00000000000E+00  0.10914977686E+03  0.21396985715E+04  0.21369127973E+04 0.  0.
        4    1    3    3  502    0 -0.29464193139E+03 -0.17395621188E+03 -0.95893179603E+03  0.10181485323E+04  0.12699999809E+01 0.  1.
       -4    1    3    3    0  502  0.29464193139E+03  0.17395621188E+03  0.10680815729E+04  0.11215500393E+04  0.12699999809E+01 0. -1.
</event>
<event>
 5   0  0.2540232E-05  0.2741527E+04  0.7818609E-02  0.8321655E-01
        2   -1    0    0  501    0  0.00000000000E+00  0.00000000000E+00  0.18257366442E+04  0.18257366442E+04  0.25500000920E-02 0. -1.
       -2   -1    0    0    0  501  0.00000000000E+00  0.00000000000E+00 -0.10291696529E+04  0.10291696529E+04  0.25500000920E-02 0.  1.
    10030    2    1    2    0    0  0.00000000000E+00  0.00000000000E+00  0.79656699128E+03  0.28549062971E+04  0.27415271280E+04 0.  0.
        1    1    3    3  502    0  0.11082529250E+04  0.79629977692E+03  0.53275507670E+03  0.14649729869E+04  0.50400001928E-02 0.  1.
       -1    1    3    3    0  502 -0.11082529250E+04 -0.79629977692E+03  0.26381191458E+03  0.13899333102E+04  0.50400001928E-02 0. -1.
</event>
<event>
 5   0  0.1041909E-05  0.2692960E+04  0.7818609E-02  0.8337293E-01
       -1   -1    0    0    0  501  0.00000000000E+00  0.00000000000E+00  0.12726966810E+04  0.12726966810E+04  0.50400001928E-02 0.  1.
        1   -1    0    0  501    0  0.00000000000E+00  0.00000000000E+00 -0.14245409641E+04  0.14245409641E+04  0.50400001928E-02 0. -1.
    10030    2    1    2    0    0  0.00000000000E+00  0.00000000000E+00 -0.15184428314E+03  0.26972376451E+04  0.26929601237E+04 0.  0.
        5    1    3    3  502    0 -0.20232500376E+03  0.24222025570E+03 -0.13869628836E+04  0.14224254603E+04  0.46999998093E+01 0. -1.
       -5    1    3    3    0  502  0.20232500376E+03 -0.24222025570E+03  0.12351186005E+04  0.12748121849E+04  0.46999998093E+01 0.  1.
</event>
<event>
 5   0  0.2615843E-05  0.2184792E+04  0.7818609E-02  0.8524785E-01
        2   -1    0    0  501    0  0.00000000000E+00  0.00000000000E+00  0.12534412021E+04  0.12534412021E+04  0.25500000920E-02 0.  1.
       -2   -1    0    0    0  501  0.00000000000E+00  0.00000000000E+00 -0.95204221899E+03  0.95204221899E+03  0.25500000920E-02 0. -1.
    10030    2    1    2    0    0  0.00000000000E+00  0.00000000000E+00  0.30139898309E+03  0.22054834211E+04  0.21847919291E+04 0.  0.
        3    1    3    3  502    0 -0.13331148804E+03  0.17693083597E+03 -0.92912865126E+03  0.95517356242E+03  0.10100000352E+00 0. -1.
       -3    1    3    3    0  502  0.13331148804E+03 -0.17693083597E+03  0.12305276344E+04  0.12503098587E+04  0.10100000352E+00 0.  1.
</event>
<event>
 5   0  0.2540232E-05  0.2681718E+04  0.7818609E-02  0.8340961E-01
       -2   -1    0    0    0  501  0.00000000000E+00  0.00000000000E+00  0.11782210342E+04  0.11782210342E+04  0.25500000920E-02 0. -1.
        2   -1    0    0  501    0  0.00000000000E+00  0.00000000000E+00 -0.15259467654E+04  0.15259467654E+04  0.25500000920E-02 0.  1.
    10030    2    1    2    0    0  0.00000000000E+00  0.00000000000E+00 -0.34772573117E+03  0.27041677996E+04  0.26817177898E+04 0.  0.
        1    1    3    3  502    0  0.10154427615E+04  0.79380178715E+03 -0.54662945226E+03  0.14000175132E+04  0.50400001928E-02 0.  1.
       -1    1    3    3    0  502 -0.10154427615E+04 -0.79380178715E+03  0.19890372108E+03  0.13041502864E+04  0.50400001928E-02 0. -1.
</event>
<event>
 5   0  0.1041909E-05  0.2669547E+04  0.7818609E-02  0.8344954E-01
        1   -1    0    0  501    0  0.00000000000E+00  0.00000000000E+00  0.14829103509E+04  0.14829103509E+04  0.50400001928E-02 0.  1.
       -1   -1    0    0    0  501  0.00000000000E+00  0.00000000000E+00 -0.12014350147E+04  0.12014350147E+04  0.50400001928E-02 0. -1.
    10030    2    1    2    0    0  0.00000000000E+00  0.00000000000E+00  0.28147533614E+03  0.26843453656E+04  0.26695470921E+04 0.  0.
        5    1    3    3  502    0 -0.19909297893E+03  0.10215743896E+04  0.98104113414E+03  0.14302853019E+04  0.46999998093E+01 0.  1.
       -5    1    3    3    0  502  0.19909297893E+03 -0.10215743896E+04 -0.69956579801E+03  0.12540600638E+04  0.46999998093E+01 0. -1.
</event>
<event>
 5   0  0.9971923E-06  0.2501285E+04  0.7818609E-02  0.8402528E-01
       -1   -1    0    0    0  501  0.00000000000E+00  0.00000000000E+00  0.71887627308E+03  0.71887627310E+03  0.50400001928E-02 0. -1.
        1   -1    0    0  501    0  0.00000000000E+00  0.00000000000E+00 -0.21757662503E+04  0.21757662503E+04  0.50400001928E-02 0.  1.
    10030    2    1    2    0    0  0.00000000000E+00  0.00000000000E+00 -0.14568899772E+04  0.28946425234E+04  0.25012850562E+04 0.  0.
        2    1    3    3  502    0  0.27860755221E+03 -0.54441609477E+03  0.53402972651E+03  0.81191058695E+03  0.25500000920E-02 0. -1.
       -2    1    3    3    0  502 -0.27860755221E+03  0.54441609477E+03 -0.19909197037E+04  0.20827319365E+04  0.25500000920E-02 0.  1.
</event>
<event>
 5   0  0.2540684E-05  0.2686205E+04  0.7818609E-02  0.8339495E-01
        2   -1    0    0  501    0  0.00000000000E+00  0.00000000000E+00  0.20675688146E+04  0.20675688146E+04  0.25500000920E-02 0.  1.
       -2   -1    0    0    0  501  0.00000000000E+00  0.00000000000E+00 -0.87248600604E+03  0.87248600605E+03  0.25500000920E-02 0. -1.
    10030    2    1    2    0    0  0.00000000000E+00  0.00000000000E+00  0.11950828085E+04  0.29400548206E+04  0.26862053959E+04 0.  0.
        2    1    3    3  502    0  0.59578583657E+03 -0.10708830390E+04 -0.41093679535E+01  0.12254664961E+04  0.25500000920E-02 0.  1.
       -2    1    3    3    0  502 -0.59578583657E+03  0.10708830390E+04  0.11991921765E+04  0.17145883245E+04  0.25500000920E-02 0. -1.
</event>
<event>
 5   0  0.2540684E-05  0.1690355E+04  0.7818609E-02  0.8766884E-01
       -2   -1    0    0    0  501  0.00000000000E+00  0.00000000000E+00  0.15580927209E+04  0.15580927209E+04  0.25500000920E-02 0.  1.
        2   -1    0    0  501    0  0.00000000000E+00  0.00000000000E+00 -0.45846123168E+03  0.45846123169E+03  0.25500000920E-02 0. -1.
    10030    2    1    2    0    0  0.00000000000E+00  0.00000000000E+00  0.10996314892E+04  0.20165539526E+04  0.16903551200E+04 0.  0.
        2    1    3    3  502    0 -0.26444318490E+03  0.50460891342E+03  0.12946046089E+04  0.14144120499E+04  0.25500000920E-02 0.  1.
       -2    1    3    3    0  502  0.26444318490E+03 -0.50460891342E+03 -0.19497311969E+03  0.60214190267E+03  0.25500000920E-02 0. -1.
</event>
<event>
 5   0  0.1005265E-05  0.2737842E+04  0.7818609E-02  0.8322830E-01
       -1   -1    0    0    0  501  0.00000000000E+00  0.00000000000E+00  0.13723942595E+04  0.13723942595E+04  0.50400001928E-02 0. -1.
        1   -1    0    0  501    0  0.00000000000E+00  0.00000000000E+00 -0.13654569086E+04  0.13654569086E+04  0.50400001928E-02 0.  1.
    10030    2    1    2    0    0  0.00000000000E+00  0.00000000000E+00  0.69373509022E+01  0.27378511681E+04  0.27378423790E+04 0.  0.
        3    1    3    3  502    0 -0.56237083370E+03 -0.67277512133E+03 -0.10477520385E+04  0.13662619305E+04  0.10100000352E+00 0.  1.
       -3    1    3    3    0  502  0.56237083370E+03  0.67277512133E+03  0.10546893894E+04  0.13715892376E+04  0.10100000352E+00 0. -1.
</event>
<event>
 5   0  0.9971923E-06  0.2673181E+04  0.7818609E-02  0.8343760E-01
        1   -1    0    0  501    0  0.00000000000E+00  0.00000000000E+00  0.10707017825E+04  0.10707017825E+04  0.50400001928E-02 0. -1.
       -1   -1    0    0    0  501  0.00000000000E+00  0.00000000000E+00 -0.16685076830E+04  0.16685076830E+04  0.50400001928E-02 0.  1.
    10030    2    1    2    0    0  0.00000000000E+00  0.00000000000E+00 -0.59780590043E+03  0.27392094655E+04  0.26731809892E+04 0.  0.
        2    1    3    3  502    0  0.83391836977E+03 -0.36911701029E+02  0.77076436834E+03  0.11361602143E+04  0.25500000920E-02 0. -1.
       -2    1    3    3    0  502 -0.83391836977E+03  0.36911701029E+02 -0.13685702688E+04  0.16030492512E+04  0.25500000920E-02 0.  1.
</event>
<event>
 5   0  0.2540232E-05  0.2524213E+04  0.7818609E-02  0.8394410E-01
        2   -1    0    0  501    0  0.00000000000E+00  0.00000000000E+00  0.12582989292E+04  0.12582989292E+04  0.25500000920E-02 0. -1.
       -2   -1    0    0    0  501  0.00000000000E+00  0.00000000000E+00 -0.12659254401E+04  0.12659254401E+04  0.25500000920E-02 0.  1.
    10030    2    1    2    0    0  0.00000000000E+00  0.00000000000E+00 -0.76265109272E+01  0.25242243693E+04  0.25242128482E+04 0.  0.
        1    1    3    3  502    0 -0.94847631464E+03  0.81498101242E+03  0.16680773211E+03  0.12615966826E+04  0.50400001928E-02 0.  1.
       -1    1    3    3    0  502  0.94847631464E+03 -0.81498101242E+03 -0.17443424303E+03  0.12626276867E+04  0.50400001928E-02 0. -1.
</event>
<event>
 5   0  0.1036691E-05  0.2526691E+04  0.7818609E-02  0.8393538E-01
       -1   -1    0    0    0  501  0.00000000000E+00  0.00000000000E+00  0.10072469609E+04  0.10072469609E+04  0.50400001928E-02 0.  1.
        1   -1    0    0  501    0  0.00000000000E+00  0.00000000000E+00 -0.15845591361E+04  0.15845591361E+04  0.50400001928E-02 0. -1.
    10030    2    1    2    0    0  0.00000000000E+00  0.00000000000E+00 -0.57731217514E+03  0.25918060970E+04  0.25266914131E+04 0.  0.
        4    1    3    3  502    0  0.10625159217E+03 -0.10643194554E+04 -0.97827272280E+03  0.14495117927E+04  0.12699999809E+01 0. -1.
       -4    1    3    3    0  502 -0.10625159217E+03  0.10643194554E+04  0.40096054766E+03  0.11422943043E+04  0.12699999809E+01 0.  1.
</event>
<event>
 5   0  0.2540232E-05  0.2658272E+04  0.7818609E-02  0.8348673E-01
       -2   -1    0    0    0  501  0.00000000000E+00  0.00000000000E+00  0.13355897349E+04  0.13355897349E+04  0.25500000920E-02 0.  1.
        2   -1    0    0  501    0  0.00000000000E+00  0.00000000000E+00 -0.13227132901E+04  0.13227132901E+04  0.25500000920E-02 0. -1.
    10030    2    1    2    0    0  0.00000000000E+00  0.00000000000E+00  0.12876444864E+02  0.26583030250E+04  0.26582718390E+04 0.  0.
        1    1    3    3  502    0  0.62349809404E+03 -0.66274544512E+03 -0.96239763442E+03  0.13244586083E+04  0.50400001928E-02 0. -1.
       -1    1    3    3    0  502 -0.62349809404E+03  0.66274544512E+03  0.97527407928E+03  0.13338444167E+04  0.50400001928E-02 0.  1.
</event>
<event>
 5   0  0.1096672E-05  0.2705487E+04  0.7818609E-02  0.8333227E-01
       -1   -1    0    0    0  501  0.00000000000E+00  0.00000000000E+00  0.11747034813E+04  0.11747034813E+04  0.50400001928E-02 0. -1.
        1   -1    0    0  501    0  0.00000000000E+00  0.00000000000E+00 -0.15577671066E+04  0.15577671066E+04  0.50400001928E-02 0.  1.
    10030    2    1    2    0    0  0.00000000000E+00  0.00000000000E+00 -0.38306362534E+03  0.27324705880E+04  0.27054866056E+04 0.  0.
        1    1    3    3  502    0  0.48630328937E+02 -0.12617920726E+04 -0.68158281947E+03  0.14349352888E+04  0.50400001928E-02 0.  1.
       -1    1    3    3    0  502 -0.48630328937E+02  0.12617920726E+04  0.29851919413E+03  0.12975352991E+04  0.50400001928E-02 0. -1.
</event>
<event>
 5   0  0.2516518E-05  0.2677810E+04  0.7818609E-02  0.8342241E-01
        2   -1    0    0  501    0  0.00000000000E+00  0.00000000000E+00  0.18030907932E+04  0.18030907932E+04  0.25500000920E-02 0.  1.
       -2   -1    0    0    0  501  0.00000000000E+00  0.00000000000E+00 -0.99421861125E+03  0.99421861125E+03  0.25500000920E-02 0. -1.
    10030    2    1    2    0    0  0.00000000000E+00  0.00000000000E+00  0.80887218199E+03  0.27973094045E+04  0.26778098696E+04 0.  0.
        4    1    3    3  502    0  0.10229703047E+04  0.85579710426E+03  0.52718688906E+03  0.14341494193E+04  0.12699999809E+01 0.  1.
       -4    1    3    3    0  502 -0.10229703047E+04 -0.85579710426E+03  0.28168529294E+03  0.13631599852E+04  0.12699999809E+01 0. -1.
</event>
<event>
 5   0  0.8740500E-06  0.1816977E+04  0.7818609E-02  0.8697323E-01
        3   -1    0    0  501    0  0.00000000000E+00  0.00000000000E+00  0.91911796321E+03  0.91911796876E+03  0.10100000352E+00 0.  1.
       -3   -1    0    0    0  501  0.00000000000E+00  0.00000000000E+00 -0.89798216565E+03  0.89798217133E+03  0.10100000352E+00 0. -1.
    10030    2    1    2    0    0  0.00000000000E+00  0.00000000000E+00  0.21135797553E+02  0.18171001401E+04  0.18169772143E+04 0.  0.
        4    1    3    3  502    0  0.41411497584E+03  0.69719431192E+03 -0.39906793608E+03  0.90378534636E+03  0.12699999809E+01 0. -1.
       -4    1    3    3    0  502 -0.41411497584E+03 -0.69719431192E+03  0.42020373363E+03  0.91331479373E+03  0.12699999809E+01 0.  1.
</event>
<event>
 5   0  0.2615843E-05  0.2904524E+04  0.7818609E-02  0.8271533E-01
       -2   -1    0    0    0  501  0.00000000000E+00  0.00000000000E+00  0.11978549438E+04  0.11978549438E+04  0.25500000920E-02 0. -1.
        2   -1    0    0  501    0  0.00000000000E+00  0.00000000000E+00 -0.17607015648E+04  0.17607015648E+04  0.25500000920E-02 0.  1.
    10030    2    1    2    0    0  0.00000000000E+00  0.00000000000E+00 -0.56284662094E+03  0.29585565086E+04  0.29045241083E+04 0.  0.
        3    1    3    3  502    0 -0.10377033383E+04  0.94718518512E+02  0.74896042682E+03  0.12832542801E+04  0.10100000352E+00 0. -1.
       -3    1    3    3    0  502  0.10377033383E+04 -0.94718518512E+02 -0.13118070478E+04  0.16753022285E+04  0.10100000352E+00 0.  1.
</event>
<event>
 5   0  0.2540684E-05  0.1923895E+04  0.7818609E-02  0.8643053E-01
        2   -1    0    0  501    0  0.00000000000E+00  0.00000000000E+00  0.92777168016E+03  0.92777168017E+03  0.25500000920E-02 0.  1.
       -2   -1    0    0    0  501  0.00000000000E+00  0.00000000000E+00 -0.99738198352E+03  0.99738198352E+03  0.25500000920E-02 0. -1.
    10030    2    1    2    0    0  0.00000000000E+00  0.00000000000E+00 -0.69610303357E+02  0.19251536637E+04  0.19238947566E+04 0.  0.
        2    1    3    3  502    0 -0.87905676579E+03  0.38638473527E+03  0.22754635919E+02  0.96049556719E+03  0.25500000920E-02 0. -1.
       -2    1    3    3    0  502  0.87905676579E+03 -0.38638473527E+03 -0.92364939276E+02  0.96465809650E+03  0.25500000920E-02 0.  1.
</event>
<event>
 5   0  0.2540232E-05  0.2774385E+04  0.7818609E-02  0.8311265E-01
       -2   -1    0    0    0  501  0.00000000000E+00  0.00000000000E+00  0.89256460234E+03  0.89256460235E+03  0.25500000920E-02 0. -1.
        2   -1    0    0  501    0  0.00000000000E+00  0.00000000000E+00 -0.21559253468E+04  0.21559253468E+04  0.25500000920E-02 0.  1.
    10030    2    1    2    0    0  0.00000000000E+00  0.00000000000E+00 -0.12633607444E+04  0.30484899491E+04  0.27743847245E+04 0.  0.
        1    1    3    3  502    0  0.16838131402E+03  0.66032313518E+03  0.69596830853E+03  0.97403839568E+03  0.50400001928E-02 0. -1.
       -1    1    3    3    0  502 -0.16838131402E+03 -0.66032313518E+03 -0.19593290530E+04  0.20744515534E+04  0.50400001928E-02 0.  1.
</event>
<event>
 5   0  0.9971923E-06  0.2553368E+04  0.7818609E-02  0.8384216E-01
       -1   -1    0    0    0  501  0.00000000000E+00  0.00000000000E+00  0.10974822162E+04  0.10974822162E+04  0.50400001928E-02 0.  1.
        1   -1    0    0  501    0  0.00000000000E+00  0.00000000000E+00 -0.14851463464E+04  0.14851463465E+04  0.50400001928E-02 0. -1.
    10030    2    1    2    0    0  0.00000000000E+00  0.00000000000E+00 -0.38766413026E+03  0.25826285627E+04  0.25533677398E+04 0.  0.
        2    1    3    3  502    0 -0.19792622474E+03 -0.42875295831E+03 -0.13935604857E+04  0.14713988980E+04  0.25500000920E-02 0. -1.
       -2    1    3    3    0  502  0.19792622474E+03  0.42875295831E+03  0.10058963554E+04  0.11112296647E+04  0.25500000920E-02 0.  1.
</event>
<event>
 5   0  0.2540684E-05  0.2672421E+04  0.7818609E-02  0.8344009E-01
        2   -1    0    0  501    0  0.00000000000E+00  0.00000000000E+00  0.15113946836E+04  0.15113946836E+04  0.25500000920E-02 0. -1.
       -2   -1    0    0    0  501  0.00000000000E+00  0.00000000000E+00 -0.11813313102E+04  0.11813313102E+04  0.25500000920E-02 0.  1.
    10030    2    1    2    0    0  0.00000000000E+00  0.00000000000E+00  0.33006337339E+03  0.26927259937E+04  0.26724205221E+04 0.  0.
        2    1    3    3  502    0 -0.15552123430E+03  0.27120992981E+03  0.14740239261E+04  0.15068139285E+04  0.25500000920E-02 0. -1.
       -2    1    3    3    0  502  0.15552123430E+03 -0.27120992981E+03 -0.11439605527E+04  0.11859120653E+04  0.25500000920E-02 0.  1.
</event>
<event>
 5   0  0.1005265E-05  0.2690615E+04  0.7818609E-02  0.8338056E-01
        1   -1    0    0  501    0  0.00000000000E+00  0.00000000000E+00  0.21365706721E+04  0.21365706721E+04  0.50400001928E-02 0. -1.
       -1   -1    0    0    0  501  0.00000000000E+00  0.00000000000E+00 -0.84708291001E+03  0.84708291003E+03  0.50400001928E-02 0.  1.
    10030    2    1    2    0    0  0.00000000000E+00  0.00000000000E+00  0.12894877620E+04  0.29836535821E+04  0.26906151731E+04 0.  0.
        3    1    3    3  502    0  0.11406944450E+03 -0.86780093389E+03  0.17776595720E+04  0.19814549864E+04  0.10100000352E+00 0. -1.
       -3    1    3    3    0  502 -0.11406944450E+03  0.86780093389E+03 -0.48817180993E+03  0.10021985957E+04  0.10100000352E+00 0.  1.
</event>
<event>
 5   0  0.1036691E-05  0.2690546E+04  0.7818609E-02  0.8338079E-01
        1   -1    0    0  501    0  0.00000000000E+00  0.00000000000E+00  0.33860447890E+04  0.33860447890E+04  0.50400001928E-02 0.  1.
       -1   -1    0    0    0  501  0.00000000000E+00  0.00000000000E+00 -0.53447586190E+03  0.53447586193E+03  0.50400001928E-02 0. -1.
    10030    2    1    2    0    0  0.00000000000E+00  0.00000000000E+00  0.28515689271E+04  0.39205206509E+04  0.26905458235E+04 0.  0.
        4    1    3    3  502    0  0.11305013966E+04 -0.40508207740E+03  0.54227660279E+03  0.13176457885E+04  0.12699999809E+01 0. -1.
       -4    1    3    3    0  502 -0.11305013966E+04  0.40508207740E+03  0.23092923243E+04  0.26028748623E+04  0.12699999809E+01 0.  1.
</event>
<event>
 5   0  0.9971923E-06  0.2711125E+04  0.7818609E-02  0.8331404E-01
        1   -1    0    0  501    0  0.00000000000E+00  0.00000000000E+00  0.22152970621E+04  0.22152970621E+04  0.50400001928E-02 0. -1.
       -1   -1    0    0    0  501  0.00000000000E+00  0.00000000000E+00 -0.82948210468E+03  0.82948210470E+03  0.50400001928E-02 0.  1.
    10030    2    1    2    0    0  0.00000000000E+00  0.00000000000E+00  0.13858149574E+04  0.30447791668E+04  0.27111246888E+04 0.  0.
        2    1    3    3  502    0  0.75485273224E+03  0.95367749402E+02 -0.56705924717E+03  0.94892246512E+03  0.25500000920E-02 0.  1.
       -2    1    3    3    0  502 -0.75485273224E+03 -0.95367749402E+02  0.19528742046E+04  0.20958567017E+04  0.25500000920E-02 0. -1.
</event>
<event>
 5   0  0.1041909E-05  0.2673559E+04  0.7818609E-02  0.8343635E-01
        1   -1    0    0  501    0  0.00000000000E+00  0.00000000000E+00  0.15692722721E+04  0.15692722721E+04  0.50400001928E-02 0.  1.
       -1   -1    0    0    0  501  0.00000000000E+00  0.00000000000E+00 -0.11387316156E+04  0.11387316156E+04  0.50400001928E-02 0. -1.
    10030    2    1    2    0    0  0.00000000000E+00  0.00000000000E+00  0.43054065650E+03  0.27080038878E+04  0.26735593876E+04 0.  0.
        5    1    3    3  502    0 -0.90821811072E+02  0.12098065254E+04 -0.35327892694E+03  0.12636093227E+04  0.46999998093E+01 0. -1.
       -5    1    3    3    0  502  0.90821811072E+02 -0.12098065254E+04  0.78381958343E+03  0.14443945651E+04  0.46999998093E+01 0.  1.
</event>
<event>
 5   0  0.2540232E-05  0.2761109E+04  0.7818609E-02  0.8315445E-01
       -2   -1    0    0    0  501  0.00000000000E+00  0.00000000000E+00  0.93557336415E+03  0.93557336415E+03  0.25500000920E-02 0.  1.
        2   -1    0    0  501    0  0.00000000000E+00  0.00000000000E+00 -0.20371798416E+04  0.20371798416E+04  0.25500000920E-02 0. -1.
    10030    2    1    2    0    0  0.00000000000E+00  0.00000000000E+00 -0.11016064775E+04  0.29727532058E+04  0.27611093407E+04 0.  0.
        1    1    3    3  502    0 -0.36595211454E+02  0.12992348663E+03 -0.20300584400E+04  0.20345408798E+04  0.50400001928E-02 0. -1.
       -1    1    3    3    0  502  0.36595211454E+02 -0.12992348663E+03  0.92845196251E+03  0.93821232596E+03  0.50400001928E-02 0.  1.
</event>
<event>
 5   0  0.2516518E-05  0.2651879E+04  0.7818609E-02  0.8350789E-01
       -2   -1    0    0    0  501  0.00000000000E+00  0.00000000000E+00  0.12798567870E+04  0.12798567870E+04  0.25500000920E-02 0.  1.
        2   -1    0    0  501    0  0.00000000000E+00  0.00000000000E+00 -0.13736818844E+04  0.13736818844E+04  0.25500000920E-02 0. -1.
    10030    2    1    2    0    0  0.00000000000E+00  0.00000000000E+00 -0.93825097320E+02  0.26535386714E+04  0.26518793962E+04 0.  0.
        4    1    3    3  502    0  0.11932341009E+04 -0.54338021089E+03  0.15080865079E+03  0.13197782144E+04  0.12699999809E+01 0.  1.
       -4    1    3    3    0  502 -0.11932341009E+04  0.54338021089E+03 -0.24463374811E+03  0.13337604570E+04  0.12699999809E+01 0. -1.
</event>
<event>
 5   0  0.2615843E-05  0.2750915E+04  0.7818609E-02  0.8318671E-01
       -2   -1    0    0    0  501  0.00000000000E+00  0.00000000000E+00  0.10902695912E+04  0.10902695912E+04  0.25500000920E-02 0.  1.
        2   -1    0    0  501    0  0.00000000000E+00  0.00000000000E+00 -0.17352438016E+04  0.17352438016E+04  0.25500000920E-02 0. -1.
    10030    2    1    2    0    0  0.00000000000E+00  0.00000000000E+00 -0.64497421039E+03  0.28255133928E+04  0.27509151569E+04 0.  0.
        3    1    3    3  502    0  0.10662551450E+04 -0.56793473369E+03  0.35294221869E+03  0.12585778148E+04  0.10100000352E+00 0.  1.
       -3    1    3    3    0  502 -0.10662551450E+04  0.56793473369E+03 -0.99791642909E+03  0.15669355780E+04  0.10100000352E+00 0. -1.
</event>
<event>
 5   0  0.9971923E-06  0.2719493E+04  0.7818609E-02  0.8328708E-01
       -1   -1    0    0    0  501  0.00000000000E+00  0.00000000000E+00  0.74825612169E+03  0.74825612171E+03  0.50400001928E-02 0.  1.
        1   -1    0    0  501    0  0.00000000000E+00  0.00000000000E+00 -0.24709597811E+04  0.24709597811E+04  0.50400001928E-02 0. -1.
    10030    2    1    2    0    0  0.00000000000E+00  0.00000000000E+00 -0.17227036594E+04  0.32192159028E+04  0.27194931753E+04 0.  0.
        2    1    3    3  502    0  0.15167458414E+03  0.56997096831E+03 -0.23116525934E+04  0.23857094955E+04  0.25500000920E-02 0. -1.
       -2    1    3    3    0  502 -0.15167458414E+03 -0.56997096831E+03  0.58894893401E+03  0.83350640734E+03  0.25500000920E-02 0.  1.
</event>
<event>
 5   0  0.9971923E-06  0.2725567E+04  0.7818609E-02  0.8326757E-01
       -1   -1    0    0    0  501  0.00000000000E+00  0.00000000000E+00  0.93904822545E+03  0.93904822546E+03  0.50400001928E-02 0. -1.
        1   -1    0    0  501    0  0.00000000000E+00  0.00000000000E+00 -0.19777243764E+04  0.19777243764E+04  0.50400001928E-02 0.  1.
    10030    2    1    2    0    0  0.00000000000E+00  0.00000000000E+00 -0.10386761509E+04  0.29167726018E+04  0.27255667785E+04 0.  0.
        2    1    3    3  502    0 -0.11849314260E+04  0.32415090223E+03 -0.11506758046E+04  0.16832085726E+04  0.25500000920E-02 0. -1.
       -2    1    3    3    0  502  0.11849314260E+04 -0.32415090223E+03  0.11199965365E+03  0.12335640292E+04  0.25500000920E-02 0.  1.
</event>
<event>
 5   0  0.8740500E-06  0.2709454E+04  0.7818609E-02  0.8331944E-01
       -3   -1    0    0    0  501  0.00000000000E+00  0.00000000000E+00  0.21420549597E+04  0.21420549621E+04  0.10100000352E+00 0.  1.
        3   -1    0    0  501    0  0.00000000000E+00  0.00000000000E+00 -0.85678730102E+03  0.85678730697E+03  0.10100000352E+00 0. -1.
    10030    2    1    2    0    0  0.00000000000E+00  0.00000000000E+00  0.12852676587E+04  0.29988422690E+04  0.27094541886E+04 0.  0.
        1    1    3    3  502    0 -0.24283342240E+03 -0.91964149710E+03 -0.42506300685E+03  0.10418191369E+04  0.50400001928E-02 0. -1.
       -1    1    3    3    0  502  0.24283342240E+03  0.91964149710E+03  0.17103306655E+04  0.19570231321E+04  0.50400001928E-02 0.  1.
</event>
<event>
 5   0  0.8740500E-06  0.2731936E+04  0.7818609E-02  0.8324717E-01
        3   -1    0    0  501    0  0.00000000000E+00  0.00000000000E+00  0.28717048806E+04  0.28717048823E+04  0.10100000352E+00 0.  1.
       -3   -1    0    0    0  501  0.00000000000E+00  0.00000000000E+00 -0.64974223962E+03  0.64974224747E+03  0.10100000352E+00 0. -1.
    10030    2    1    2    0    0  0.00000000000E+00  0.00000000000E+00  0.22219626410E+04  0.35214471298E+04  0.27319355612E+04 0.  0.
        4    1    3    3  502    0 -0.32599363737E+03  0.13264922051E+04  0.11063440046E+04  0.17577975114E+04  0.12699999809E+01 0.  1.
       -4    1    3    3    0  502  0.32599363737E+03 -0.13264922051E+04  0.11156186364E+04  0.17636496184E+04  0.12699999809E+01 0. -1.
</event>
<event>
 5   0  0.1036691E-05  0.2308097E+04  0.7818609E-02  0.8474735E-01
        1   -1    0    0  501    0  0.00000000000E+00  0.00000000000E+00  0.15650980942E+04  0.15650980942E+04  0.50400001928E-02 0.  1.
       -1   -1    0    0    0  501  0.00000000000E+00  0.00000000000E+00 -0.85095488848E+03  0.85095488850E+03  0.50400001928E-02 0. -1.
    10030    2    1    2    0    0  0.00000000000E+00  0.00000000000E+00  0.71414320575E+03  0.24160529827E+04  0.23080969427E+04 0.  0.
        4    1    3    3  502    0 -0.14063747993E+02 -0.88426700342E+03  0.11331675412E+04  0.14374269413E+04  0.12699999809E+01 0.  1.
       -4    1    3    3    0  502  0.14063747993E+02  0.88426700342E+03 -0.41902433543E+03  0.97862604141E+03  0.12699999809E+01 0. -1.
</event>
<event>
 5   0  0.1096672E-05  0.2665906E+04  0.7818609E-02  0.8346153E-01
       -1   -1    0    0    0  501  0.00000000000E+00  0.00000000000E+00  0.10521572415E+04  0.10521572415E+04  0.50400001928E-02 0. -1.
        1   -1    0    0  501    0  0.00000000000E+00  0.00000000000E+00 -0.16886860077E+04  0.16886860077E+04  0.50400001928E-02 0.  1.
    10030    2    1    2    0    0  0.00000000000E+00  0.00000000000E+00 -0.63652876617E+03  0.27408432492E+04  0.26659056334E+04 0.  0.
        1    1    3    3  502    0  0.93243598427E+03 -0.70421165864E+03  0.34117982019E+03  0.12172734264E+04  0.50400001928E-02 0. -1.
       -1    1    3    3    0  502 -0.93243598427E+03  0.70421165864E+03 -0.97770858636E+03  0.15235698227E+04  0.50400001928E-02 0.  1.
</event>
<event>
 5   0  0.2516518E-05  0.2691805E+04  0.7818609E-02  0.8337669E-01
       -2   -1    0    0    0  501  0.00000000000E+00  0.00000000000E+00  0.11791637575E+04  0.11791637575E+04  0.25500000920E-02 0. -1.
        2   -1    0    0  501    0  0.00000000000E+00  0.00000000000E+00 -0.15362191239E+04  0.15362191239E+04  0.25500000920E-02 0.  1.
    10030    2    1    2    0    0  0.00000000000E+00  0.00000000000E+00 -0.35705536645E+03  0.27153828814E+04  0.26918052786E+04 0.  0.
        4    1    3    3  502    0  0.23799506185E+02  0.62454388147E+03  0.10238990428E+04  0.11995800678E+04  0.12699999809E+01 0. -1.
       -4    1    3    3    0  502 -0.23799506185E+02 -0.62454388147E+03 -0.13809544092E+04  0.15158028136E+04  0.12699999809E+01 0.  1.
</event>
<event>
 5   0  0.2641216E-05  0.2615000E+04  0.7818609E-02  0.8363124E-01
       -2   -1    0    0    0  501  0.00000000000E+00  0.00000000000E+00  0.17042854282E+04  0.17042854282E+04  0.25500000920E-02 0.  1.
        2   -1    0    0  501    0  0.00000000000E+00  0.00000000000E+00 -0.10030929596E+04  0.10030929596E+04  0.25500000920E-02 0. -1.
    10030    2    1    2    0    0  0.00000000000E+00  0.00000000000E+00  0.70119246854E+03  0.27073783878E+04  0.26150003550E+04 0.  0.
        5    1    3    3  502    0  0.28239177037E+03 -0.12752144717E+04  0.41286715472E+03  0.13698169360E+04  0.46999998093E+01 0.  1.
       -5    1    3    3    0  502 -0.28239177037E+03  0.12752144717E+04  0.28832531382E+03  0.13375614518E+04  0.46999998093E+01 0. -1.
</event>
<event>
 5   0  0.1041909E-05  0.2650224E+04  0.7818609E-02  0.8351338E-01
       -1   -1    0    0    0  501  0.00000000000E+00  0.00000000000E+00  0.84164979356E+03  0.84164979358E+03  0.50400001928E-02 0. -1.
        1   -1    0    0  501    0  0.00000000000E+00  0.00000000000E+00 -0.20862862262E+04  0.20862862263E+04  0.50400001928E-02 0.  1.
    10030    2    1    2    0    0  0.00000000000E+00  0.00000000000E+00 -0.12446364327E+04  0.29279360198E+04  0.26502244219E+04 0.  0.
        5    1    3    3  502    0  0.27176753623E+03  0.99597746825E+03  0.29543517639E+03  0.10738401857E+04  0.46999998093E+01 0. -1.
       -5    1    3    3    0  502 -0.27176753623E+03 -0.99597746825E+03 -0.15400716091E+04  0.18540958341E+04  0.46999998093E+01 0.  1.
</event>
<event>
 5   0  0.2540232E-05  0.2661179E+04  0.7818609E-02  0.8347712E-01
        2   -1    0    0  501    0  0.00000000000E+00  0.00000000000E+00  0.12337659014E+04  0.12337659014E+04  0.25500000920E-02 0. -1.
       -2   -1    0    0    0  501  0.00000000000E+00  0.00000000000E+00 -0.14350114401E+04  0.14350114401E+04  0.25500000920E-02 0.  1.
    10030    2    1    2    0    0  0.00000000000E+00  0.00000000000E+00 -0.20124553872E+03  0.26687773415E+04  0.26611788237E+04 0.  0.
        1    1    3    3  502    0  0.13157275548E+04 -0.14215812470E+02 -0.29899326836E+03  0.13493472727E+04  0.50400001928E-02 0.  1.
       -1    1    3    3    0  502 -0.13157275548E+04  0.14215812470E+02  0.97747729641E+02  0.13194300688E+04  0.50400001928E-02 0. -1.
</event>
<event>
 5   0  0.2540684E-05  0.2737588E+04  0.7818609E-02  0.8322911E-01
       -2   -1    0    0    0  501  0.00000000000E+00  0.00000000000E+00  0.16916390581E+04  0.16916390581E+04  0.25500000920E-02 0.  1.
        2   -1    0    0  501    0  0.00000000000E+00  0.00000000000E+00 -0.11075628879E+04  0.11075628879E+04  0.25500000920E-02 0. -1.
    10030    2    1    2    0    0  0.00000000000E+00  0.00000000000E+00  0.58407617021E+03  0.27992019459E+04  0.27375877267E+04 0.  0.
        2    1    3    3  502    0  0.10000451397E+04 -0.38800223635E+03  0.11614458369E+04  0.15810099459E+04  0.25500000920E-02 0. -1.
       -2    1    3    3    0  502 -0.10000451397E+04  0.38800223635E+03 -0.57736966669E+03  0.12181920000E+04  0.25500000920E-02 0.  1.
</event>
<event>
 5   0  0.2540684E-05  0.2801117E+04  0.7818609E-02  0.8302922E-01
       -2   -1    0    0    0  501  0.00000000000E+00  0.00000000000E+00  0.91274332352E+03  0.91274332352E+03  0.25500000920E-02 0.  1.
        2   -1    0    0  501    0  0.00000000000E+00  0.00000000000E+00 -0.21490862428E+04  0.21490862428E+04  0.25500000920E-02 0. -1.
    10030    2    1    2    0    0  0.00000000000E+00  0.00000000000E+00 -0.12363429193E+04  0.30618295664E+04  0.28011170056E+04 0.  0.
        2    1    3    3  502    0 -0.18406473777E+03  0.12236298906E+04 -0.13352934648E+04  0.18204830606E+04  0.25500000920E-02 0. -1.
       -2    1    3    3    0  502  0.18406473777E+03 -0.12236298906E+04  0.98950545463E+02  0.12413465057E+04  0.25500000920E-02 0.  1.
</event>
<event>
 5   0  0.1036691E-05  0.2716246E+04  0.7818609E-02  0.8329753E-01
       -1   -1    0    0    0  501  0.00000000000E+00  0.00000000000E+00  0.15291090942E+04  0.15291090942E+04  0.50400001928E-02 0.  1.
        1   -1    0    0  501    0  0.00000000000E+00  0.00000000000E+00 -0.12062562892E+04  0.12062562892E+04  0.50400001928E-02 0. -1.
    10030    2    1    2    0    0  0.00000000000E+00  0.00000000000E+00  0.32285280498E+03  0.27353653835E+04  0.27162455425E+04 0.  0.
        4    1    3    3  502    0  0.12869809062E+04  0.34550604478E+03  0.42557328626E+03  0.13988597194E+04  0.12699999809E+01 0. -1.
       -4    1    3    3    0  502 -0.12869809062E+04 -0.34550604478E+03 -0.10272048128E+03  0.13365056640E+04  0.12699999809E+01 0.  1.
</event>
<event>
 5   0  0.1096672E-05  0.2606152E+04  0.7818609E-02  0.8366114E-01
       -1   -1    0    0    0  501  0.00000000000E+00  0.00000000000E+00  0.97058041874E+03  0.97058041875E+03  0.50400001928E-02 0.  1.
        1   -1    0    0  501    0  0.00000000000E+00  0.00000000000E+00 -0.17494763486E+04  0.17494763486E+04  0.50400001928E-02 0. -1.
    10030    2    1    2    0    0  0.00000000000E+00  0.00000000000E+00 -0.77889592987E+03  0.27200567674E+04  0.26061523263E+04 0.  0.
        1    1    3    3  502    0  0.10362532493E+04  0.65920104720E+03 -0.84395845575E+03  0.14901787451E+04  0.50400001928E-02 0. -1.
       -1    1    3    3    0  502 -0.10362532493E+04 -0.65920104720E+03  0.65062525883E+02  0.12298780223E+04  0.50400001928E-02 0.  1.
</event>
<event>
 5   0  0.2641216E-05  0.2682781E+04  0.7818609E-02  0.8340614E-01
        2   -1    0    0  501    0  0.00000000000E+00  0.00000000000E+00  0.18587613452E+04  0.18587613452E+04  0.25500000920E-02 0.  1.
       -2   -1    0    0    0  501  0.00000000000E+00  0.00000000000E+00 -0.96802565394E+03  0.96802565395E+03  0.25500000920E-02 0. -1.
    10030    2    1    2    0    0  0.00000000000E+00  0.00000000000E+00  0.89073569122E+03  0.28267869991E+04  0.26827811440E+04 0.  0.
        5    1    3    3  502    0  0.66780531624E+03 -0.74019533742E+03 -0.50027703590E+03  0.11154157434E+04  0.46999998093E+01 0. -1.
       -5    1    3    3    0  502 -0.66780531624E+03  0.74019533742E+03  0.13910127271E+04  0.17113712557E+04  0.46999998093E+01 0.  1.
</event>
<event>
 5   0  0.1041909E-05  0.2614882E+04  0.7818609E-02  0.8363164E-01
        1   -1    0    0  501    0  0.00000000000E+00  0.00000000000E+00  0.19630106582E+04  0.19630106582E+04  0.50400001928E-02 0.  1.
       -1   -1    0    0    0  501  0.00000000000E+00  0.00000000000E+00 -0.87080608417E+03  0.87080608418E+03  0.50400001928E-02 0. -1.
    10030    2    1    2    0    0  0.00000000000E+00  0.00000000000E+00  0.10922045740E+04  0.28338167424E+04  0.26148817369E+04 0.  0.
        5    1    3    3  502    0  0.51897591139E+03 -0.52032288888E+03  0.17179848753E+04  0.18685732597E+04  0.46999998093E+01 0.  1.
       -5    1    3    3    0  502 -0.51897591139E+03  0.52032288888E+03 -0.62578030127E+03  0.96524348263E+03  0.46999998093E+01 0. -1.
</event>
<event>
 5   0  0.2540684E-05  0.2703786E+04  0.7818609E-02  0.8333778E-01
       -2   -1    0    0    0  501  0.00000000000E+00  0.00000000000E+00  0.99381956772E+03  0.99381956772E+03  0.25500000920E-02 0. -1.
        2   -1    0    0  501    0  0.00000000000E+00  0.00000000000E+00 -0.18389806917E+04  0.18389806917E+04  0.25500000920E-02 0.  1.
    10030    2    1    2    0    0  0.00000000000E+00  0.00000000000E+00 -0.84516112398E+03  0.28328002594E+04  0.27037862312E+04 0.  0.
        2    1    3    3  502    0  0.96017460564E+02 -0.12103711433E+04  0.20025763499E+03  0.12305774163E+04  0.25500000920E-02 0. -1.
       -2    1    3    3    0  502 -0.96017460564E+02  0.12103711433E+04 -0.10454187590E+04  0.16022228431E+04  0.25500000920E-02 0.  1.
</event>
<event>
 5   0  0.2516518E-05  0.2733299E+04  0.7818609E-02  0.8324281E-01
       -2   -1    0    0    0  501  0.00000000000E+00  0.00000000000E+00  0.10714030652E+04  0.10714030652E+04  0.25500000920E-02 0. -1.
        2   -1    0    0  501    0  0.00000000000E+00  0.00000000000E+00 -0.17432566192E+04  0.17432566192E+04  0.25500000920E-02 0.  1.
    10030    2    1    2    0    0  0.00000000000E+00  0.00000000000E+00 -0.67185355406E+03  0.28146596844E+04  0.27332987288E+04 0.  0.
        4    1    3    3  502    0 -0.91370391286E+03  0.89125601712E+03 -0.83886707711E+03  0.15273806711E+04  0.12699999809E+01 0. -1.
       -4    1    3    3    0  502  0.91370391286E+03 -0.89125601712E+03  0.16701352305E+03  0.12872790134E+04  0.12699999809E+01 0.  1.
</event>
<event>
 5   0  0.1036691E-05  0.2634957E+04  0.7818609E-02  0.8356423E-01
       -1   -1    0    0    0  501  0.00000000000E+00  0.00000000000E+00  0.12943453120E+04  0.12943453121E+04  0.50400001928E-02 0.  1.
        1   -1    0    0  501    0  0.00000000000E+00  0.00000000000E+00 -0.13410247030E+04  0.13410247030E+04  0.50400001928E-02 0. -1.
    10030    2    1    2    0    0  0.00000000000E+00  0.00000000000E+00 -0.46679390934E+02  0.26353700151E+04  0.26349565747E+04 0.  0.
        4    1    3    3  502    0 -0.28791467530E+03  0.11739930689E+04 -0.54743798380E+03  0.13269681779E+04  0.12699999809E+01 0. -1.
       -4    1    3    3    0  502  0.28791467530E+03 -0.11739930689E+04  0.50075859287E+03  0.13084018371E+04  0.12699999809E+01 0.  1.
</event>
<event>
 5   0  0.2641216E-05  0.2969072E+04  0.7818609E-02  0.8252618E-01
        2   -1    0    0  501    0  0.00000000000E+00  0.00000000000E+00  0.12564926668E+04  0.12564926668E+04  0.25500000920E-02 0. -1.
       -2   -1    0    0    0  501  0.00000000000E+00  0.00000000000E+00 -0.17539671834E+04  0.17539671834E+04  0.25500000920E-02 0.  1.
    10030    2    1    2    0    0  0.00000000000E+00  0.00000000000E+00 -0.49747451657E+03  0.30104598502E+04  0.29690718441E+04 0.  0.
        5    1    3    3  502    0  0.14195274536E+03  0.20070437438E+03 -0.17331782352E+04  0.17505318372E+04  0.46999998093E+01 0.  1.
       -5    1    3    3    0  502 -0.14195274536E+03 -0.20070437438E+03  0.12357037187E+04  0.12599280131E+04  0.46999998093E+01 0. -1.
</event>
<event>
 5   0  0.2615843E-05  0.2562547E+04  0.7818609E-02  0.8381036E-01
       -2   -1    0    0    0  501  0.00000000000E+00  0.00000000000E+00  0.82975969138E+03  0.82975969138E+03  0.25500000920E-02 0. -1.
        2   -1    0    0  501    0  0.00000000000E+00  0.00000000000E+00 -0.19784786305E+04  0.19784786305E+04  0.25500000920E-02 0.  1.
    10030    2    1    2    0    0  0.00000000000E+00  0.00000000000E+00 -0.11487189391E+04  0.28082383219E+04  0.25625470281E+04 0.  0.
        3    1    3    3  502    0  0.50681187031E+02  0.12245808446E+04 -0.16505978808E+03  0.12366938067E+04  0.10100000352E+00 0.  1.
       -3    1    3    3    0  502 -0.50681187031E+02 -0.12245808446E+04 -0.98365915103E+03  0.15715445152E+04  0.10100000352E+00 0. -1.
</event>
<event>
 5   0  0.2516518E-05  0.2714747E+04  0.7818609E-02  0.8330236E-01
       -2   -1    0    0    0  501  0.00000000000E+00  0.00000000000E+00  0.15238851721E+04  0.15238851721E+04  0.25500000920E-02 0.  1.
        2   -1    0    0  501    0  0.00000000000E+00  0.00000000000E+00 -0.12090561475E+04  0.12090561475E+04  0.25500000920E-02 0. -1.
    10030    2    1    2    0    0  0.00000000000E+00  0.00000000000E+00  0.31482902465E+03  0.27329413196E+04  0.27147469388E+04 0.  0.
        4    1    3    3  502    0  0.38610936398E+03 -0.36007041976E+03  0.14162872696E+04  0.15114901227E+04  0.12699999809E+01 0.  1.
       -4    1    3    3    0  502 -0.38610936398E+03  0.36007041976E+03 -0.11014582449E+04  0.12214511969E+04  0.12699999809E+01 0. -1.
</event>
<event>
 5   0  0.9971923E-06  0.1853475E+04  0.7818609E-02  0.8678368E-01
       -1   -1    0    0    0  501  0.00000000000E+00  0.00000000000E+00  0.49883695604E+03  0.49883695607E+03  0.50400001928E-02 0. -1.
        1   -1    0    0  501    0  0.00000000000E+00  0.00000000000E+00 -0.17216894012E+04  0.17216894012E+04  0.50400001928E-02 0.  1.
    10030    2    1    2    0    0  0.00000000000E+00  0.00000000000E+00 -0.12228524452E+04  0.22205263573E+04  0.18534748989E+04 0.  0.
        2    1    3    3  502    0  0.39841951246E+02  0.92221768411E+03 -0.51285587041E+03  0.10559801048E+04  0.25500000920E-02 0.  1.
       -2    1    3    3    0  502 -0.39841951246E+02 -0.92221768411E+03 -0.70999657478E+03  0.11645462525E+04  0.25500000920E-02 0. -1.
</event>
<event>
 5   0  0.2615843E-05  0.2712087E+04  0.7818609E-02  0.8331094E-01
       -2   -1    0    0    0  501  0.00000000000E+00  0.00000000000E+00  0.10535907999E+04  0.10535907999E+04  0.25500000920E-02 0. -1.
        2   -1    0    0  501    0  0.00000000000E+00  0.00000000000E+00 -0.17453214514E+04  0.17453214514E+04  0.25500000920E-02 0.  1.
    10030    2    1    2    0    0  0.00000000000E+00  0.00000000000E+00 -0.69173065147E+03  0.27989122513E+04  0.27120874795E+04 0.  0.
        3    1    3    3  502    0 -0.11533675426E+04 -0.66633624344E+03 -0.83575487700E+02  0.13346331144E+04  0.10100000352E+00 0. -1.
       -3    1    3    3    0  502  0.11533675426E+04  0.66633624344E+03 -0.60815516377E+03  0.14642791370E+04  0.10100000352E+00 0.  1.
</event>
<event>
 5   0  0.1005265E-05  0.2687105E+04  0.7818609E-02  0.8339201E-01
        1   -1    0    0  501    0  0.00000000000E+00  0.00000000000E+00  0.24809167271E+04  0.24809167271E+04  0.50400001928E-02 0. -1.
       -1   -1    0    0    0  501  0.00000000000E+00  0.00000000000E+00 -0.72760755157E+03  0.72760755159E+03  0.50400001928E-02 0.  1.
    10030    2    1    2    0    0  0.00000000000E+00  0.00000000000E+00  0.17533091755E+04  0.32085242787E+04  0.26871053165E+04 0.  0.
        3    1    3    3  502    0 -0.11870672170E+04  0.38286287500E+03  0.28032370187E+03  0.12783950668E+04  0.10100000352E+00 0. -1.
       -3    1    3    3    0  502  0.11870672170E+04 -0.38286287500E+03  0.14729854736E+04  0.19301292119E+04  0.10100000352E+00 0.  1.
</event>
<event>
 5   0  0.2516518E-05  0.2695005E+04  0.7818609E-02  0.8336627E-01
        2   -1    0    0  501    0  0.00000000000E+00  0.00000000000E+00  0.27560259983E+04  0.27560259983E+04  0.25500000920E-02 0.  1.
       -2   -1    0    0    0  501  0.00000000000E+00  0.00000000000E+00 -0.65883387799E+03  0.65883387800E+03  0.25500000920E-02 0. -1.
    10030    2    1    2    0    0  0.00000000000E+00  0.00000000000E+00  0.20971921203E+04  0.34148598763E+04  0.26950052292E+04 0.  0.
        4    1    3    3  502    0  0.57433147004E+03 -0.50527819974E+02 -0.49465073650E+03  0.75966483537E+03  0.12699999809E+01 0. -1.
       -4    1    3    3    0  502 -0.57433147004E+03  0.50527819974E+02  0.25918428568E+04  0.26551950409E+04  0.12699999809E+01 0.  1.
</event>
<event>
 5   0  0.1096672E-05  0.2634050E+04  0.7818609E-02  0.8356726E-01
        1   -1    0    0  501    0  0.00000000000E+00  0.00000000000E+00  0.14966386365E+04  0.14966386365E+04  0.50400001928E-02 0.  1.
       -1   -1    0    0    0  501  0.00000000000E+00  0.00000000000E+00 -0.11589667955E+04  0.11589667955E+04  0.50400001928E-02 0. -1.
    10030    2    1    2    0    0  0.00000000000E+00  0.00000000000E+00  0.33767184100E+03  0.26556054321E+04  0.26340497221E+04 0.  0.
        1    1    3    3  502    0  0.10880985647E+04 -0.19773628699E+03  0.88987840219E+03  0.14194864200E+04  0.50400001928E-02 0. -1.
       -1    1    3    3    0  502 -0.10880985647E+04  0.19773628699E+03 -0.55220656119E+03  0.12361190121E+04  0.50400001928E-02 0.  1.
</event>
<event>
 5   0  0.2641216E-05  0.2745471E+04  0.7818609E-02  0.8320400E-01
        2   -1    0    0  501    0  0.00000000000E+00  0.00000000000E+00  0.22253879198E+04  0.22253879198E+04  0.25500000920E-02 0. -1.
       -2   -1    0    0    0  501  0.00000000000E+00  0.00000000000E+00 -0.84677477601E+03  0.84677477601E+03  0.25500000920E-02 0.  1.
    10030    2    1    2    0    0  0.00000000000E+00  0.00000000000E+00  0.13786131438E+04  0.30721626958E+04  0.27454707118E+04 0.  0.
        5    1    3    3  502    0 -0.11913267102E+04 -0.54697517529E+03  0.11451353647E+04  0.17406315711E+04  0.46999998093E+01 0.  1.
       -5    1    3    3    0  502  0.11913267102E+04  0.54697517529E+03  0.23347777904E+03  0.13315311247E+04  0.46999998093E+01 0. -1.
</event>
<event>
 5   0  0.1041909E-05  0.2068487E+04  0.7818609E-02  0.8575253E-01
        1   -1    0    0  501    0  0.00000000000E+00  0.00000000000E+00  0.13148007841E+04  0.13148007841E+04  0.50400001928E-02 0.  1.
       -1   -1    0    0    0  501  0.00000000000E+00  0.00000000000E+00 -0.81355282659E+03  0.81355282660E+03  0.50400001928E-02 0. -1.
    10030    2    1    2    0    0  0.00000000000E+00  0.00000000000E+00  0.50124795754E+03  0.21283536107E+04  0.20684872679E+04 0.  0.
        5    1    3    3  502    0  0.30106517474E+01  0.11317939455E+03 -0.80714608730E+03  0.81506167596E+03  0.46999998093E+01 0. -1.
       -5    1    3    3    0  502 -0.30106517474E+01 -0.11317939455E+03  0.13083940448E+04  0.13132919348E+04  0.46999998093E+01 0.  1.
</event>
<event>
 5   0  0.1041909E-05  0.2339336E+04  0.7818609E-02  0.8462571E-01
       -1   -1    0    0    0  501  0.00000000000E+00  0.00000000000E+00  0.85596277958E+03  0.85596277959E+03  0.50400001928E-02 0. -1.
        1   -1    0    0  501    0  0.00000000000E+00  0.00000000000E+00 -0.15983449413E+04  0.15983449413E+04  0.50400001928E-02 0.  1.
    10030    2    1    2    0    0  0.00000000000E+00  0.00000000000E+00 -0.74238216172E+03  0.24543077209E+04  0.23393364689E+04 0.  0.
        5    1    3    3  502    0 -0.44919821193E+03 -0.82645348049E+03  0.35817154718E+03  0.10065353130E+04  0.46999998093E+01 0. -1.
       -5    1    3    3    0  502  0.44919821193E+03  0.82645348049E+03 -0.11005537089E+04  0.14477724079E+04  0.46999998093E+01 0.  1.
</event>
<event>
 5   0  0.2641216E-05  0.2647003E+04  0.7818609E-02  0.8352408E-01
       -2   -1    0    0    0  501  0.00000000000E+00  0.00000000000E+00  0.15670756829E+04  0.15670756829E+04  0.25500000920E-02 0. -1.
        2   -1    0    0  501    0  0.00000000000E+00  0.00000000000E+00 -0.11177863785E+04  0.11177863785E+04  0.25500000920E-02 0.  1.
    10030    2    1    2    0    0  0.00000000000E+00  0.00000000000E+00  0.44928930434E+03  0.26848620614E+04  0.26470027219E+04 0.  0.
        5    1    3    3  502    0  0.18165146560E+03  0.86188967615E+03  0.12265902601E+04  0.15100982832E+04  0.46999998093E+01 0. -1.
       -5    1    3    3    0  502 -0.18165146560E+03 -0.86188967615E+03 -0.77730095574E+03  0.11747637782E+04  0.46999998093E+01 0.  1.
</event>
<event>
 5   0  0.1036691E-05  0.2891357E+04  0.7818609E-02  0.8275454E-01
       -1   -1    0    0    0  501  0.00000000000E+00  0.00000000000E+00  0.13702427156E+04  0.13702427156E+04  0.50400001928E-02 0.  1.
        1   -1    0    0  501    0  0.00000000000E+00  0.00000000000E+00 -0.15252677552E+04  0.15252677552E+04  0.50400001928E-02 0. -1.
    10030    2    1    2    0    0  0.00000000000E+00  0.00000000000E+00 -0.15502503961E+03  0.28955104708E+04  0.28913574880E+04 0.  0.
        4    1    3    3  502    0  0.54924097463E+03 -0.42837576210E+03 -0.13461446239E+04  0.15156775393E+04  0.12699999809E+01 0. -1.
       -4    1    3    3    0  502 -0.54924097463E+03  0.42837576210E+03  0.11911195843E+04  0.13798329315E+04  0.12699999809E+01 0.  1.
</event>
<event>
 5   0  0.1036691E-05  0.2578350E+04  0.7818609E-02  0.8375593E-01
        1   -1    0    0  501    0  0.00000000000E+00  0.00000000000E+00  0.18298411762E+04  0.18298411762E+04  0.50400001928E-02 0. -1.
       -1   -1    0    0    0  501  0.00000000000E+00  0.00000000000E+00 -0.90826021505E+03  0.90826021506E+03  0.50400001928E-02 0.  1.
    10030    2    1    2    0    0  0.00000000000E+00  0.00000000000E+00  0.92158096115E+03  0.27381013913E+04  0.25783498135E+04 0.  0.
        4    1    3    3  502    0  0.52828733406E+03 -0.11566383881E+04  0.23533869571E+03  0.12931688918E+04  0.12699999809E+01 0.  1.
       -4    1    3    3    0  502 -0.52828733406E+03  0.11566383881E+04  0.68624226543E+03  0.14449324994E+04  0.12699999809E+01 0. -1.
</event>
<event>
 5   0  0.1041909E-05  0.2816123E+04  0.7818609E-02  0.8298280E-01
        1   -1    0    0  501    0  0.00000000000E+00  0.00000000000E+00  0.13354830096E+04  0.13354830096E+04  0.50400001928E-02 0. -1.
       -1   -1    0    0    0  501  0.00000000000E+00  0.00000000000E+00 -0.14845842153E+04  0.14845842154E+04  0.50400001928E-02 0.  1.
    10030    2    1    2    0    0  0.00000000000E+00  0.00000000000E+00 -0.14910120574E+03  0.28200672250E+04  0.28161228638E+04 0.  0.
        5    1    3    3  502    0  0.65520179638E+03  0.10085898869E+04  0.65864424599E+03  0.13712684955E+04  0.46999998093E+01 0. -1.
       -5    1    3    3    0  502 -0.65520179638E+03 -0.10085898869E+04 -0.80774545173E+03  0.14487987295E+04  0.46999998093E+01 0.  1.
</event>
<event>
 5   0  0.1036691E-05  0.2661727E+04  0.7818609E-02  0.8347531E-01
       -1   -1    0    0    0  501  0.00000000000E+00  0.00000000000E+00  0.13550511823E+04  0.13550511823E+04  0.50400001928E-02 0. -1.
        1   -1    0    0  501    0  0.00000000000E+00  0.00000000000E+00 -0.13071074376E+04  0.13071074376E+04  0.50400001928E-02 0.  1.
    10030    2    1    2    0    0  0.00000000000E+00  0.00000000000E+00  0.47943744783E+02  0.26621586199E+04  0.26617268671E+04 0.  0.
        4    1    3    3  502    0 -0.19202222463E+03 -0.86525527481E+03 -0.96899158554E+03  0.13131966841E+04  0.12699999809E+01 0.  1.
       -4    1    3    3    0  502  0.19202222463E+03  0.86525527481E+03  0.10169353303E+04  0.13489619358E+04  0.12699999809E+01 0. -1.
</event>
<event>
 5   0  0.1036691E-05  0.2459858E+04  0.7818609E-02  0.8417428E-01
       -1   -1    0    0    0  501  0.00000000000E+00  0.00000000000E+00  0.12758336658E+04  0.12758336658E+04  0.50400001928E-02 0. -1.
        1   -1    0    0  501    0  0.00000000000E+00  0.00000000000E+00 -0.11856757038E+04  0.11856757038E+04  0.50400001928E-02 0.  1.
    10030    2    1    2    0    0  0.00000000000E+00  0.00000000000E+00  0.90157962056E+02  0.24615093696E+04  0.24598577029E+04 0.  0.
        4    1    3    3  502    0  0.29978638264E+03  0.85465705269E+03 -0.78759320205E+03  0.12002563134E+04  0.12699999809E+01 0.  1.
       -4    1    3    3    0  502 -0.29978638264E+03 -0.85465705269E+03  0.87775116411E+03  0.12612530563E+04  0.12699999809E+01 0. -1.
</event>
<event>
 5   0  0.1036691E-05  0.2704437E+04  0.7818609E-02  0.8333567E-01
        1   -1    0    0  501    0  0.00000000000E+00  0.00000000000E+00  0.10370336079E+04  0.10370336079E+04  0.50400001928E-02 0.  1.
       -1   -1    0    0    0  501  0.00000000000E+00  0.00000000000E+00 -0.17631969155E+04  0.17631969155E+04  0.50400001928E-02 0. -1.
    10030    2    1    2    0    0  0.00000000000E+00  0.00000000000E+00 -0.72616330760E+03  0.28002305235E+04  0.27044366946E+04 0.  0.
        4    1    3    3  502    0  0.83164872351E+03  0.10180628390E+04 -0.69116685304E+03  0.14851951976E+04  0.12699999809E+01 0.  1.
       -4    1    3    3    0  502 -0.83164872351E+03 -0.10180628390E+04 -0.34996454557E+02  0.13150353258E+04  0.12699999809E+01 0. -1.
</event>
<event>
 5   0  0.1096672E-05  0.2856769E+04  0.7818609E-02  0.8285857E-01
        1   -1    0    0  501    0  0.00000000000E+00  0.00000000000E+00  0.16694737584E+04  0.16694737584E+04  0.50400001928E-02 0.  1.
       -1   -1    0    0    0  501  0.00000000000E+00  0.00000000000E+00 -0.12221114354E+04  0.12221114354E+04  0.50400001928E-02 0. -1.
    10030    2    1    2    0    0  0.00000000000E+00  0.00000000000E+00  0.44736232303E+03  0.28915851938E+04  0.28567694840E+04 0.  0.
        1    1    3    3  502    0  0.37175199268E+03 -0.11637364325E+02  0.16195998242E+04  0.16617576727E+04  0.50400001928E-02 0.  1.
       -1    1    3    3    0  502 -0.37175199268E+03  0.11637364325E+02 -0.11722375012E+04  0.12298275210E+04  0.50400001928E-02 0. -1.
</event>
<event>
 5   0  0.2540684E-05  0.2708496E+04  0.7818609E-02  0.8332254E-01
        2   -1    0    0  501    0  0.00000000000E+00  0.00000000000E+00  0.10067751711E+04  0.10067751711E+04  0.25500000920E-02 0.  1.
       -2   -1    0    0    0  501  0.00000000000E+00  0.00000000000E+00 -0.18216457026E+04  0.18216457026E+04  0.25500000920E-02 0. -1.
    10030    2    1    2    0    0  0.00000000000E+00  0.00000000000E+00 -0.81487053151E+03  0.28284208737E+04  0.27084960136E+04 0.  0.
        2    1    3    3  502    0 -0.15412653552E+02  0.78253649835E+03 -0.15615325892E+04  0.17467068868E+04  0.25500000920E-02 0. -1.
       -2    1    3    3    0  502  0.15412653552E+02 -0.78253649835E+03  0.74666205767E+03  0.10817139869E+04  0.25500000920E-02 0.  1.
</event>
<event>
 5   0  0.1096672E-05  0.2615671E+04  0.7818609E-02  0.8362898E-01
       -1   -1    0    0    0  501  0.00000000000E+00  0.00000000000E+00  0.80111949915E+03  0.80111949917E+03  0.50400001928E-02 0.  1.
        1   -1    0    0  501    0  0.00000000000E+00  0.00000000000E+00 -0.21350544850E+04  0.21350544850E+04  0.50400001928E-02 0. -1.
    10030    2    1    2    0    0  0.00000000000E+00  0.00000000000E+00 -0.13339349858E+04  0.29361739842E+04  0.26156710647E+04 0.  0.
        1    1    3    3  502    0  0.95621806822E+03  0.41623466084E+03  0.21892953142E+03  0.10656145770E+04  0.50400001928E-02 0.  1.
       -1    1    3    3    0  502 -0.95621806822E+03 -0.41623466084E+03 -0.15528645172E+04  0.18705594072E+04  0.50400001928E-02 0. -1.
</event>
<event>
 5   0  0.1036691E-05  0.2707811E+04  0.7818609E-02  0.8332475E-01
        1   -1    0    0  501    0  0.00000000000E+00  0.00000000000E+00  0.12442520051E+04  0.12442520051E+04  0.50400001928E-02 0. -1.
       -1   -1    0    0    0  501  0.00000000000E+00  0.00000000000E+00 -0.14732230083E+04  0.14732230083E+04  0.50400001928E-02 0.  1.
    10030    2    1    2    0    0  0.00000000000E+00  0.00000000000E+00 -0.22897100313E+03  0.27174750134E+04  0.27078114277E+04 0.  0.
        4    1    3    3  502    0 -0.92102371949E+03  0.97330127701E+03 -0.30871949572E+03  0.13751034171E+04  0.12699999809E+01 0. -1.
       -4    1    3    3    0  502  0.92102371949E+03 -0.97330127701E+03  0.79748492585E+02  0.13423715963E+04  0.12699999809E+01 0.  1.
</event>
<event>
 5   0  0.2641216E-05  0.2480457E+04  0.7818609E-02  0.8409981E-01
        2   -1    0    0  501    0  0.00000000000E+00  0.00000000000E+00  0.17339541642E+04  0.17339541642E+04  0.25500000920E-02 0. -1.
       -2   -1    0    0    0  501  0.00000000000E+00  0.00000000000E+00 -0.88708628173E+03  0.88708628173E+03  0.25500000920E-02 0.  1.
    10030    2    1    2    0    0  0.00000000000E+00  0.00000000000E+00  0.84686788251E+03  0.26210404460E+04  0.24804571774E+04 0.  0.
        5    1    3    3  502    0  0.10230319950E+03  0.11272400623E+04  0.95912691695E+03  0.14836046089E+04  0.46999998093E+01 0.  1.
       -5    1    3    3    0  502 -0.10230319950E+03 -0.11272400623E+04 -0.11225903444E+03  0.11374358371E+04  0.46999998093E+01 0. -1.
</event>
<event>
 5   0  0.8740500E-06  0.2672431E+04  0.7818609E-02  0.8344006E-01
       -4   -1    0    0    0  501  0.00000000000E+00  0.00000000000E+00  0.99830960995E+03  0.99831041777E+03  0.12699999809E+01 0.  1.
        4   -1    0    0  501    0  0.00000000000E+00  0.00000000000E+00 -0.17884938701E+04  0.17884943210E+04  0.12699999809E+01 0. -1.
    10030    2    1    2    0    0  0.00000000000E+00  0.00000000000E+00 -0.79018426015E+03  0.27868047388E+04  0.26724313812E+04 0.  0.
        4    1    3    3  502    0  0.94881471226E+03  0.50926932770E+03  0.42988272206E+03  0.11594849606E+04  0.12699999809E+01 0.  1.
       -4    1    3    3    0  502 -0.94881471226E+03 -0.50926932770E+03 -0.12200669822E+04  0.16273197781E+04  0.12699999809E+01 0. -1.
</event>
<event>
 5   0  0.1005265E-05  0.2740507E+04  0.7818609E-02  0.8321980E-01
       -1   -1    0    0    0  501  0.00000000000E+00  0.00000000000E+00  0.75977036488E+03  0.75977036489E+03  0.50400001928E-02 0.  1.
        1   -1    0    0  501    0  0.00000000000E+00  0.00000000000E+00 -0.24712664844E+04  0.24712664844E+04  0.50400001928E-02 0. -1.
    10030    2    1    2    0    0  0.00000000000E+00  0.00000000000E+00 -0.17114961195E+04  0.32310368493E+04  0.27405072805E+04 0.  0.
        3    1    3    3  502    0  0.54763868611E+03  0.24287989399E+03  0.59718769710E+03  0.84589120411E+03  0.10100000352E+00 0.  1.
       -3    1    3    3    0  502 -0.54763868611E+03 -0.24287989399E+03 -0.23086838166E+04  0.23851456452E+04  0.10100000352E+00 0. -1.
</event>
<event>
 5   0  0.1036691E-05  0.2688285E+04  0.7818609E-02  0.8338816E-01
        1   -1    0    0  501    0  0.00000000000E+00  0.00000000000E+00  0.19098861837E+04  0.19098861837E+04  0.50400001928E-02 0.  1.
       -1   -1    0    0    0  501  0.00000000000E+00  0.00000000000E+00 -0.94598239310E+03  0.94598239312E+03  0.50400001928E-02 0. -1.
    10030    2    1    2    0    0  0.00000000000E+00  0.00000000000E+00  0.96390379059E+03  0.28558685768E+04  0.26882847339E+04 0.  0.
        4    1    3    3  502    0  0.17414308319E+03 -0.10446930522E+04  0.13611984591E+04  0.17246948265E+04  0.12699999809E+01 0. -1.
       -4    1    3    3    0  502 -0.17414308319E+03  0.10446930522E+04 -0.39729466849E+03  0.11311737503E+04  0.12699999809E+01 0.  1.
</event>
<event>
 5   0  0.1036691E-05  0.1938093E+04  0.7818609E-02  0.8636124E-01
       -1   -1    0    0    0  501  0.00000000000E+00  0.00000000000E+00  0.72062094567E+03  0.72062094569E+03  0.50400001928E-02 0.  1.
        1   -1    0    0  501    0  0.00000000000E+00  0.00000000000E+00 -0.13031136028E+04  0.13031136028E+04  0.50400001928E-02 0. -1.
    10030    2    1    2    0    0  0.00000000000E+00  0.00000000000E+00 -0.58249265711E+03  0.20237345485E+04  0.19380928324E+04 0.  0.
        4    1    3    3  502    0  0.15027137467E+03 -0.24429188240E+03 -0.12577777920E+04  0.12900645708E+04  0.12699999809E+01 0. -1.
       -4    1    3    3    0  502 -0.15027137467E+03  0.24429188240E+03  0.67528513490E+03  0.73366997769E+03  0.12699999809E+01 0.  1.
</event>
<event>
 5   0  0.2516518E-05  0.2713180E+04  0.7818609E-02  0.8330741E-01
       -2   -1    0    0    0  501  0.00000000000E+00  0.00000000000E+00  0.18287459442E+04  0.18287459442E+04  0.25500000920E-02 0. -1.
        2   -1    0    0  501    0  0.00000000000E+00  0.00000000000E+00 -0.10063378207E+04  0.10063378207E+04  0.25500000920E-02 0.  1.
    10030    2    1    2    0    0  0.00000000000E+00  0.00000000000E+00  0.82240812347E+03  0.28350837649E+04  0.27131798379E+04 0.  0.
        4    1    3    3  502    0  0.13308394268E+04 -0.73125963970E+02  0.67525033206E+03  0.14941370788E+04  0.12699999809E+01 0. -1.
       -4    1    3    3    0  502 -0.13308394268E+04  0.73125963970E+02  0.14715779141E+03  0.13409466861E+04  0.12699999809E+01 0.  1.
</event>
<event>
 5   0  0.8740500E-06  0.2755137E+04  0.7818609E-02  0.8317333E-01
       -3   -1    0    0    0  501  0.00000000000E+00  0.00000000000E+00  0.72319258177E+03  0.72319258882E+03  0.10100000352E+00 0. -1.
        3   -1    0    0  501    0  0.00000000000E+00  0.00000000000E+00 -0.26240518846E+04  0.26240518865E+04  0.10100000352E+00 0.  1.
    10030    2    1    2    0    0  0.00000000000E+00  0.00000000000E+00 -0.19008593028E+04  0.33472444753E+04  0.27551369274E+04 0.  0.
        1    1    3    3  502    0  0.64472701564E+03 -0.75407939524E+03 -0.21115345885E+04  0.23329995665E+04  0.50400001928E-02 0.  1.
       -1    1    3    3    0  502 -0.64472701564E+03  0.75407939524E+03  0.21067528568E+03  0.10142449088E+04  0.50400001928E-02 0. -1.
</event>
<event>
 5   0  0.1005265E-05  0.2702872E+04  0.7818609E-02  0.8334074E-01
       -1   -1    0    0    0  501  0.00000000000E+00  0.00000000000E+00  0.96232470795E+03  0.96232470797E+03  0.50400001928E-02 0. -1.
        1   -1    0    0  501    0  0.00000000000E+00  0.00000000000E+00 -0.18978826948E+04  0.18978826948E+04  0.50400001928E-02 0.  1.
    10030    2    1    2    0    0  0.00000000000E+00  0.00000000000E+00 -0.93555798688E+03  0.28602074028E+04  0.27028721095E+04 0.  0.
        3    1    3    3  502    0 -0.12269239229E+04  0.50842352313E+03 -0.73242175762E+03  0.15166668826E+04  0.10100000352E+00 0.  1.
       -3    1    3    3    0  502  0.12269239229E+04 -0.50842352313E+03 -0.20313622926E+03  0.13435405202E+04  0.10100000352E+00 0. -1.
</event>
<event>
 5   0  0.2540684E-05  0.2626995E+04  0.7818609E-02  0.8359089E-01
       -2   -1    0    0    0  501  0.00000000000E+00  0.00000000000E+00  0.72073520079E+03  0.72073520080E+03  0.25500000920E-02 0.  1.
        2   -1    0    0  501    0  0.00000000000E+00  0.00000000000E+00 -0.23937724838E+04  0.23937724838E+04  0.25500000920E-02 0. -1.
    10030    2    1    2    0    0  0.00000000000E+00  0.00000000000E+00 -0.16730372830E+04  0.31145076846E+04  0.26269953116E+04 0.  0.
        2    1    3    3  502    0 -0.39288224969E+03 -0.85228210029E+03 -0.19260478994E+04  0.21425222872E+04  0.25500000920E-02 0. -1.
       -2    1    3    3    0  502  0.39288224969E+03  0.85228210029E+03  0.25301061641E+03  0.97198539732E+03  0.25500000920E-02 0.  1.
</event>
<event>
 5   0  0.2641216E-05  0.2735293E+04  0.7818609E-02  0.8323644E-01
       -2   -1    0    0    0  501  0.00000000000E+00  0.00000000000E+00  0.10928779779E+04  0.10928779779E+04  0.25500000920E-02 0. -1.
        2   -1    0    0  501    0  0.00000000000E+00  0.00000000000E+00 -0.17114965999E+04  0.17114965999E+04  0.25500000920E-02 0.  1.
    10030    2    1    2    0    0  0.00000000000E+00  0.00000000000E+00 -0.61861862204E+03  0.28043745779E+04  0.27352929959E+04 0.  0.
        5    1    3    3  502    0  0.44170190854E+03 -0.12609906997E+04 -0.99825370316E+01  0.13361586215E+04  0.46999998093E+01 0.  1.
       -5    1    3    3    0  502 -0.44170190854E+03  0.12609906997E+04 -0.60863608500E+03  0.14682159564E+04  0.46999998093E+01 0. -1.
</event>
<event>
 5   0  0.2615843E-05  0.2684879E+04  0.7818609E-02  0.8339928E-01
        2   -1    0    0  501    0  0.00000000000E+00  0.00000000000E+00  0.12912293853E+04  0.12912293853E+04  0.25500000920E-02 0. -1.
       -2   -1    0    0    0  501  0.00000000000E+00  0.00000000000E+00 -0.13956805754E+04  0.13956805754E+04  0.25500000920E-02 0.  1.
    10030    2    1    2    0    0  0.00000000000E+00  0.00000000000E+00 -0.10445119009E+03  0.26869099608E+04  0.26848789705E+04 0.  0.
        3    1    3    3  502    0 -0.53021494088E+03 -0.12223837005E+04 -0.21603804489E+03  0.13498230409E+04  0.10100000352E+00 0. -1.
       -3    1    3    3    0  502  0.53021494088E+03  0.12223837005E+04  0.11158685481E+03  0.13370869198E+04  0.10100000352E+00 0.  1.
</event>
<event>
 5   0  0.9971923E-06  0.2696171E+04  0.7818609E-02  0.8336249E-01
        1   -1    0    0  501    0  0.00000000000E+00  0.00000000000E+00  0.15551645539E+04  0.15551645539E+04  0.50400001928E-02 0.  1.
       -1   -1    0    0    0  501  0.00000000000E+00  0.00000000000E+00 -0.11685799523E+04  0.11685799524E+04  0.50400001928E-02 0. -1.
    10030    2    1    2    0    0  0.00000000000E+00  0.00000000000E+00  0.38658460157E+03  0.27237445063E+04  0.26961707070E+04 0.  0.
        2    1    3    3  502    0 -0.58015248028E+03 -0.89288164053E+03  0.10284999562E+04  0.14804143623E+04  0.25500000920E-02 0.  1.
       -2    1    3    3    0  502  0.58015248028E+03  0.89288164053E+03 -0.64191535459E+03  0.12433301439E+04  0.25500000920E-02 0. -1.
</event>
<event>
 5   0  0.2615843E-05  0.2685664E+04  0.7818609E-02  0.8339671E-01
        2   -1    0    0  501    0  0.00000000000E+00  0.00000000000E+00  0.10915349049E+04  0.10915349049E+04  0.25500000920E-02 0.  1.
       -2   -1    0    0    0  501  0.00000000000E+00  0.00000000000E+00 -0.16519838403E+04  0.16519838403E+04  0.25500000920E-02 0. -1.
    10030    2    1    2    0    0  0.00000000000E+00  0.00000000000E+00 -0.56044893546E+03  0.27435187452E+04  0.26856641816E+04 0.  0.
        3    1    3    3  502    0 -0.24254110245E+00 -0.12630343501E+04 -0.74605454580E+03  0.14669196378E+04  0.10100000352E+00 0. -1.
       -3    1    3    3    0  502  0.24254110245E+00  0.12630343501E+04  0.18560561034E+03  0.12765991074E+04  0.10100000352E+00 0.  1.
</event>
<event>
 5   0  0.1041909E-05  0.2284779E+04  0.7818609E-02  0.8483947E-01
        1   -1    0    0  501    0  0.00000000000E+00  0.00000000000E+00  0.16569816822E+04  0.16569816822E+04  0.50400001928E-02 0. -1.
       -1   -1    0    0    0  501  0.00000000000E+00  0.00000000000E+00 -0.78760903538E+03  0.78760903540E+03  0.50400001928E-02 0.  1.
    10030    2    1    2    0    0  0.00000000000E+00  0.00000000000E+00  0.86937264678E+03  0.24445907176E+04  0.22847789778E+04 0.  0.
        5    1    3    3  502    0 -0.10300329361E+04 -0.11953452180E+03  0.94756381265E+03  0.14046905782E+04  0.46999998093E+01 0. -1.
       -5    1    3    3    0  502  0.10300329361E+04  0.11953452180E+03 -0.78191165867E+02  0.10399001394E+04  0.46999998093E+01 0.  1.
</event>
<event>
 5   0  0.1005265E-05  0.2703191E+04  0.7818609E-02  0.8333970E-01
       -1   -1    0    0    0  501  0.00000000000E+00  0.00000000000E+00  0.80304581615E+03  0.80304581617E+03  0.50400001928E-02 0. -1.
        1   -1    0    0  501    0  0.00000000000E+00  0.00000000000E+00 -0.22748528373E+04  0.22748528373E+04  0.50400001928E-02 0.  1.
    10030    2    1    2    0    0  0.00000000000E+00  0.00000000000E+00 -0.14718070211E+04  0.30778986534E+04  0.27031914866E+04 0.  0.
        3    1    3    3  502    0 -0.50778712822E+03 -0.12169610215E+04 -0.10736125586E+04  0.17004369532E+04  0.10100000352E+00 0.  1.
       -3    1    3    3    0  502  0.50778712822E+03  0.12169610215E+04 -0.39819446250E+03  0.13774617003E+04  0.10100000352E+00 0. -1.
</event>
<event>
 5   0  0.1036691E-05  0.2705069E+04  0.7818609E-02  0.8333362E-01
       -1   -1    0    0    0  501  0.00000000000E+00  0.00000000000E+00  0.13563687808E+04  0.13563687808E+04  0.50400001928E-02 0. -1.
        1   -1    0    0  501    0  0.00000000000E+00  0.00000000000E+00 -0.13487107645E+04  0.13487107645E+04  0.50400001928E-02 0.  1.
    10030    2    1    2    0    0  0.00000000000E+00  0.00000000000E+00  0.76580163764E+01  0.27050795453E+04  0.27050687054E+04 0.  0.
        4    1    3    3  502    0  0.12041028412E+03 -0.10422937215E+04 -0.84968054793E+03  0.13501235072E+04  0.12699999809E+01 0.  1.
       -4    1    3    3    0  502 -0.12041028412E+03  0.10422937215E+04  0.85733856430E+03  0.13549560381E+04  0.12699999809E+01 0. -1.
</event>
<event>
 5   0  0.2516518E-05  0.2720876E+04  0.7818609E-02  0.8328263E-01
       -2   -1    0    0    0  501  0.00000000000E+00  0.00000000000E+00  0.93017076487E+03  0.93017076488E+03  0.25500000920E-02 0. -1.
        2   -1    0    0  501    0  0.00000000000E+00  0.00000000000E+00 -0.19897325536E+04  0.19897325536E+04  0.25500000920E-02 0.  1.
    10030    2    1    2    0    0  0.00000000000E+00  0.00000000000E+00 -0.10595617887E+04  0.29199033184E+04  0.27208756320E+04 0.  0.
        4    1    3    3  502    0  0.13210639657E+04 -0.31055009154E+03 -0.63236668267E+03  0.14971775429E+04  0.12699999809E+01 0.  1.
       -4    1    3    3    0  502 -0.13210639657E+04  0.31055009154E+03 -0.42719510602E+03  0.14227257755E+04  0.12699999809E+01 0. -1.
</event>
<event>
 5   0  0.1036691E-05  0.2056260E+04  0.7818609E-02  0.8580760E-01
       -1   -1    0    0    0  501  0.00000000000E+00  0.00000000000E+00  0.75321108571E+03  0.75321108573E+03  0.50400001928E-02 0.  1.
        1   -1    0    0  501    0  0.00000000000E+00  0.00000000000E+00 -0.14033931900E+04  0.14033931900E+04  0.50400001928E-02 0. -1.
    10030    2    1    2    0    0  0.00000000000E+00  0.00000000000E+00 -0.65018210425E+03  0.21566042757E+04  0.20562600111E+04 0.  0.
        4    1    3    3  502    0  0.85025326545E+03 -0.45753016699E+03  0.45396838512E+02  0.96660589434E+03  0.12699999809E+01 0.  1.
       -4    1    3    3    0  502 -0.85025326545E+03  0.45753016699E+03 -0.69557894277E+03  0.11899983814E+04  0.12699999809E+01 0. -1.
</event>
<event>
 5   0  0.2641216E-05  0.2738572E+04  0.7818609E-02  0.8322597E-01
        2   -1    0    0  501    0  0.00000000000E+00  0.00000000000E+00  0.17005214516E+04  0.17005214516E+04  0.25500000920E-02 0. -1.
       -2   -1    0    0    0  501  0.00000000000E+00  0.00000000000E+00 -0.11025701161E+04  0.11025701161E+04  0.25500000920E-02 0.  1.
    10030    2    1    2    0    0  0.00000000000E+00  0.00000000000E+00  0.59795133557E+03  0.28030915677E+04  0.27385719887E+04 0.  0.
        5    1    3    3  502    0 -0.85772112528E+02  0.68846477789E+03  0.15072882557E+04  0.16593012329E+04  0.46999998093E+01 0. -1.
       -5    1    3    3    0  502  0.85772112528E+02 -0.68846477789E+03 -0.90933692013E+03  0.11437903348E+04  0.46999998093E+01 0.  1.
</event>
<event>
 5   0  0.1005265E-05  0.2712490E+04  0.7818609E-02  0.8330964E-01
       -1   -1    0    0    0  501  0.00000000000E+00  0.00000000000E+00  0.77413189194E+03  0.77413189195E+03  0.50400001928E-02 0. -1.
        1   -1    0    0  501    0  0.00000000000E+00  0.00000000000E+00 -0.23760810364E+04  0.23760810364E+04  0.50400001928E-02 0.  1.
    10030    2    1    2    0    0  0.00000000000E+00  0.00000000000E+00 -0.16019491445E+04  0.31502129284E+04  0.27124897110E+04 0.  0.
        3    1    3    3  502    0 -0.33380876651E+02  0.87471604110E+03  0.40213054887E+03  0.96330235338E+03  0.10100000352E+00 0. -1.
       -3    1    3    3    0  502  0.33380876651E+02 -0.87471604110E+03 -0.20040796933E+04  0.21869105750E+04  0.10100000352E+00 0.  1.
</event>
<event>
 5   0  0.2540684E-05  0.2829878E+04  0.7818609E-02  0.8294052E-01
       -2   -1    0    0    0  501  0.00000000000E+00  0.00000000000E+00  0.22237104557E+04  0.22237104557E+04  0.25500000920E-02 0.  1.
        2   -1    0    0  501    0  0.00000000000E+00  0.00000000000E+00 -0.90032067651E+03  0.90032067651E+03  0.25500000920E-02 0. -1.
    10030    2    1    2    0    0  0.00000000000E+00  0.00000000000E+00  0.13233897792E+04  0.31240311322E+04  0.28298780906E+04 0.  0.
        2    1    3    3  502    0  0.43434574881E+03 -0.80047577694E+03  0.18571382827E+04  0.20684245938E+04  0.25500000920E-02 0.  1.
       -2    1    3    3    0  502 -0.43434574881E+03  0.80047577694E+03 -0.53374850353E+03  0.10556065384E+04  0.25500000920E-02 0. -1.
</event>
<event>
 5   0  0.2516518E-05  0.2571054E+04  0.7818609E-02  0.8378100E-01
       -2   -1    0    0    0  501  0.00000000000E+00  0.00000000000E+00  0.69596808656E+03  0.69596808656E+03  0.25500000920E-02 0.  1.
        2   -1    0    0  501    0  0.00000000000E+00  0.00000000000E+00 -0.23745055173E+04  0.23745055173E+04  0.25500000920E-02 0. -1.
    10030    2    1    2    0    0  0.00000000000E+00  0.00000000000E+00 -0.16785374308E+04  0.30704736039E+04  0.25710543062E+04 0.  0.
        4    1    3    3  502    0 -0.89101795069E+03 -0.86570387072E+03 -0.44458453998E+03  0.13194745948E+04  0.12699999809E+01 0.  1.
       -4    1    3    3    0  502  0.89101795069E+03  0.86570387072E+03 -0.12339528908E+04  0.17509990091E+04  0.12699999809E+01 0. -1.
</event>
<event>
 5   0  0.2540684E-05  0.2767771E+04  0.7818609E-02  0.8313345E-01
       -2   -1    0    0    0  501  0.00000000000E+00  0.00000000000E+00  0.94097321162E+03  0.94097321162E+03  0.25500000920E-02 0. -1.
        2   -1    0    0  501    0  0.00000000000E+00  0.00000000000E+00 -0.20352750793E+04  0.20352750793E+04  0.25500000920E-02 0.  1.
    10030    2    1    2    0    0  0.00000000000E+00  0.00000000000E+00 -0.10943018677E+04  0.29762482909E+04  0.27677711812E+04 0.  0.
        2    1    3    3  502    0 -0.31345602637E+03  0.55910683626E+03  0.77172493454E+03  0.10032021279E+04  0.25500000920E-02 0. -1.
       -2    1    3    3    0  502  0.31345602637E+03 -0.55910683626E+03 -0.18660268022E+04  0.19730461630E+04  0.25500000920E-02 0.  1.
</event>
<event>
 5   0  0.1036691E-05  0.2675014E+04  0.7818609E-02  0.8343158E-01
       -1   -1    0    0    0  501  0.00000000000E+00  0.00000000000E+00  0.14139466729E+04  0.14139466729E+04  0.50400001928E-02 0. -1.
        1   -1    0    0  501    0  0.00000000000E+00  0.00000000000E+00 -0.12651993604E+04  0.12651993604E+04  0.50400001928E-02 0.  1.
    10030    2    1    2    0    0  0.00000000000E+00  0.00000000000E+00  0.14874731251E+03  0.26791460333E+04  0.26750135897E+04 0.  0.
        4    1    3    3  502    0  0.65064218817E+03  0.11429797519E+04  0.31802883347E+03  0.13531008544E+04  0.12699999809E+01 0. -1.
       -4    1    3    3    0  502 -0.65064218817E+03 -0.11429797519E+04 -0.16928152096E+03  0.13260451789E+04  0.12699999809E+01 0.  1.
</event>
<event>
 5   0  0.2641216E-05  0.2696189E+04  0.7818609E-02  0.8336243E-01
       -2   -1    0    0    0  501  0.00000000000E+00  0.00000000000E+00  0.18561538870E+04  0.18561538870E+04  0.25500000920E-02 0.  1.
        2   -1    0    0  501    0  0.00000000000E+00  0.00000000000E+00 -0.97909911300E+03  0.97909911300E+03  0.25500000920E-02 0. -1.
    10030    2    1    2    0    0  0.00000000000E+00  0.00000000000E+00  0.87705477395E+03  0.28352530000E+04  0.26961888838E+04 0.  0.
        5    1    3    3  502    0 -0.57977406753E+03 -0.66779613792E+03 -0.63142258240E+03  0.10866490780E+04  0.46999998093E+01 0. -1.
       -5    1    3    3    0  502  0.57977406753E+03  0.66779613792E+03  0.15084773564E+04  0.17486039219E+04  0.46999998093E+01 0.  1.
</event>
<event>
 5   0  0.9971923E-06  0.2651405E+04  0.7818609E-02  0.8350947E-01
       -1   -1    0    0    0  501  0.00000000000E+00  0.00000000000E+00  0.31446958014E+04  0.31446958014E+04  0.50400001928E-02 0. -1.
        1   -1    0    0  501    0  0.00000000000E+00  0.00000000000E+00 -0.55887338753E+03  0.55887338755E+03  0.50400001928E-02 0.  1.
    10030    2    1    2    0    0  0.00000000000E+00  0.00000000000E+00  0.25858224138E+04  0.37035691889E+04  0.26514047562E+04 0.  0.
        2    1    3    3  502    0  0.12234504604E+04 -0.19773141242E+03  0.19503997707E+04  0.23108414065E+04  0.25500000920E-02 0.  1.
       -2    1    3    3    0  502 -0.12234504604E+04  0.19773141242E+03  0.63542264309E+03  0.13927277824E+04  0.25500000920E-02 0. -1.
</event>
<event>
 5   0  0.1096672E-05  0.2641527E+04  0.7818609E-02  0.8354231E-01
       -1   -1    0    0    0  501  0.00000000000E+00  0.00000000000E+00  0.29410420477E+04  0.29410420477E+04  0.50400001928E-02 0. -1.
        1   -1    0    0  501    0  0.00000000000E+00  0.00000000000E+00 -0.59312869213E+03  0.59312869215E+03  0.50400001928E-02 0.  1.
    10030    2    1    2    0    0  0.00000000000E+00  0.00000000000E+00  0.23479133555E+04  0.35341707398E+04  0.26415271517E+04 0.  0.
        1    1    3    3  502    0 -0.77805620708E+03  0.10672371270E+04  0.11645077748E+04  0.17608080259E+04  0.50400001928E-02 0.  1.
       -1    1    3    3    0  502  0.77805620708E+03 -0.10672371270E+04  0.11834055807E+04  0.17733627139E+04  0.50400001928E-02 0. -1.
</event>
<event>
 5   0  0.1041909E-05  0.2670882E+04  0.7818609E-02  0.8344515E-01
       -1   -1    0    0    0  501  0.00000000000E+00  0.00000000000E+00  0.71038842718E+03  0.71038842720E+03  0.50400001928E-02 0. -1.
        1   -1    0    0  501    0  0.00000000000E+00  0.00000000000E+00 -0.25104614745E+04  0.25104614745E+04  0.50400001928E-02 0.  1.
    10030    2    1    2    0    0  0.00000000000E+00  0.00000000000E+00 -0.18000730473E+04  0.32208499017E+04  0.26708820853E+04 0.  0.
        5    1    3    3  502    0  0.31529050785E+03  0.12973252596E+04 -0.86346426253E+03  0.15899853950E+04  0.46999998093E+01 0.  1.
       -5    1    3    3    0  502 -0.31529050785E+03 -0.12973252596E+04 -0.93660878480E+03  0.16308645067E+04  0.46999998093E+01 0. -1.
</event>
<event>
 5   0  0.1036691E-05  0.2714676E+04  0.7818609E-02  0.8330259E-01
        1   -1    0    0  501    0  0.00000000000E+00  0.00000000000E+00  0.14193864763E+04  0.14193864763E+04  0.50400001928E-02 0. -1.
       -1   -1    0    0    0  501  0.00000000000E+00  0.00000000000E+00 -0.12980024055E+04  0.12980024056E+04  0.50400001928E-02 0.  1.
    10030    2    1    2    0    0  0.00000000000E+00  0.00000000000E+00  0.12138407073E+03  0.27173888818E+04  0.27146764526E+04 0.  0.
        4    1    3    3  502    0  0.45341439149E+03  0.11457909524E+04 -0.50903737911E+03  0.13332449824E+04  0.12699999809E+01 0. -1.
       -4    1    3    3    0  502 -0.45341439149E+03 -0.11457909524E+04  0.63042144984E+03  0.13841438994E+04  0.12699999809E+01 0.  1.
</event>
<event>
 5   0  0.2540232E-05  0.2702389E+04  0.7818609E-02  0.8334230E-01
        2   -1    0    0  501    0  0.00000000000E+00  0.00000000000E+00  0.24741538525E+04  0.24741538525E+04  0.25500000920E-02 0. -1.
       -2   -1    0    0    0  501  0.00000000000E+00  0.00000000000E+00 -0.73791968628E+03  0.73791968628E+03  0.25500000920E-02 0.  1.
    10030    2    1    2    0    0  0.00000000000E+00  0.00000000000E+00  0.17362341662E+04  0.32120735387E+04  0.27023891908E+04 0.  0.
        1    1    3    3  502    0  0.39839647631E+03  0.21353493845E+02  0.24025464553E+04  0.24354476373E+04  0.50400001928E-02 0. -1.
       -1    1    3    3    0  502 -0.39839647631E+03 -0.21353493845E+02 -0.66631228917E+03  0.77662590142E+03  0.50400001928E-02 0.  1.
</event>
<event>
 5   0  0.1096672E-05  0.2616785E+04  0.7818609E-02  0.8362522E-01
       -1   -1    0    0    0  501  0.00000000000E+00  0.00000000000E+00  0.94040539780E+03  0.94040539782E+03  0.50400001928E-02 0. -1.
        1   -1    0    0  501    0  0.00000000000E+00  0.00000000000E+00 -0.18203750059E+04  0.18203750059E+04  0.50400001928E-02 0.  1.
    10030    2    1    2    0    0  0.00000000000E+00  0.00000000000E+00 -0.87996960810E+03  0.27607804037E+04  0.26167846542E+04 0.  0.
        1    1    3    3  502    0  0.19406130370E+02 -0.10048544616E+04 -0.13238067974E+04  0.16620991317E+04  0.50400001928E-02 0.  1.
       -1    1    3    3    0  502 -0.19406130370E+02  0.10048544616E+04  0.44383718930E+03  0.10986812720E+04  0.50400001928E-02 0. -1.
</event>
<event>
 5   0  0.2615843E-05  0.2667971E+04  0.7818609E-02  0.8345473E-01
        2   -1    0    0  501    0  0.00000000000E+00  0.00000000000E+00  0.15355671599E+04  0.15355671599E+04  0.25500000920E-02 0. -1.
       -2   -1    0    0    0  501  0.00000000000E+00  0.00000000000E+00 -0.11588661271E+04  0.11588661271E+04  0.25500000920E-02 0.  1.
    10030    2    1    2    0    0  0.00000000000E+00  0.00000000000E+00  0.37670103277E+03  0.26944332870E+04  0.26679705901E+04 0.  0.
        3    1    3    3  502    0  0.53113757789E+03  0.87107408520E+03  0.10563164532E+04  0.14685644855E+04  0.10100000352E+00 0. -1.
       -3    1    3    3    0  502 -0.53113757789E+03 -0.87107408520E+03 -0.67961542042E+03  0.12258688015E+04  0.10100000352E+00 0.  1.
</event>
<event>
 5   0  0.2540232E-05  0.2642118E+04  0.7818609E-02  0.8354034E-01
       -2   -1    0    0    0  501  0.00000000000E+00  0.00000000000E+00  0.12873878260E+04  0.12873878260E+04  0.25500000920E-02 0.  1.
        2   -1    0    0  501    0  0.00000000000E+00  0.00000000000E+00 -0.13556104152E+04  0.13556104152E+04  0.25500000920E-02 0. -1.
    10030    2    1    2    0    0  0.00000000000E+00  0.00000000000E+00 -0.68222589135E+02  0.26429982412E+04  0.26421175941E+04 0.  0.
        1    1    3    3  502    0  0.39757412102E+03  0.53838155313E+03 -0.11734713799E+04  0.13509089377E+04  0.50400001928E-02 0. -1.
       -1    1    3    3    0  502 -0.39757412102E+03 -0.53838155313E+03  0.11052487908E+04  0.12920893034E+04  0.50400001928E-02 0.  1.
</event>
<event>
 5   0  0.2540232E-05  0.2692239E+04  0.7818609E-02  0.8337528E-01
        2   -1    0    0  501    0  0.00000000000E+00  0.00000000000E+00  0.12419363826E+04  0.12419363826E+04  0.25500000920E-02 0. -1.
       -2   -1    0    0    0  501  0.00000000000E+00  0.00000000000E+00 -0.14590418493E+04  0.14590418493E+04  0.25500000920E-02 0.  1.
    10030    2    1    2    0    0  0.00000000000E+00  0.00000000000E+00 -0.21710546662E+03  0.27009782319E+04  0.26922385900E+04 0.  0.
        1    1    3    3  502    0  0.36246348782E+03 -0.12342418808E+04 -0.50645637483E+03  0.13824727339E+04  0.50400001928E-02 0.  1.
       -1    1    3    3    0  502 -0.36246348782E+03  0.12342418808E+04  0.28935090821E+03  0.13185054980E+04  0.50400001928E-02 0. -1.
</event>
<event>
 5   0  0.2641216E-05  0.2858805E+04  0.7818609E-02  0.8285241E-01
        2   -1    0    0  501    0  0.00000000000E+00  0.00000000000E+00  0.23071718962E+04  0.23071718962E+04  0.25500000920E-02 0. -1.
       -2   -1    0    0    0  501  0.00000000000E+00  0.00000000000E+00 -0.88558249626E+03  0.88558249627E+03  0.25500000920E-02 0.  1.
    10030    2    1    2    0    0  0.00000000000E+00  0.00000000000E+00  0.14215894000E+04  0.31927543925E+04  0.28588046783E+04 0.  0.
        5    1    3    3  502    0  0.13074976713E+04  0.21679111162E+03  0.13087030024E+04  0.18625987718E+04  0.46999998093E+01 0. -1.
       -5    1    3    3    0  502 -0.13074976713E+04 -0.21679111162E+03  0.11288639760E+03  0.13301556207E+04  0.46999998093E+01 0.  1.
</event>
<event>
 5   0  0.1041909E-05  0.2690035E+04  0.7818609E-02  0.8338246E-01
        1   -1    0    0  501    0  0.00000000000E+00  0.00000000000E+00  0.11857652512E+04  0.11857652513E+04  0.50400001928E-02 0. -1.
       -1   -1    0    0    0  501  0.00000000000E+00  0.00000000000E+00 -0.15256576383E+04  0.15256576383E+04  0.50400001928E-02 0.  1.
    10030    2    1    2    0    0  0.00000000000E+00  0.00000000000E+00 -0.33989238708E+03  0.27114228896E+04  0.26900348049E+04 0.  0.
        5    1    3    3  502    0  0.10962321399E+04  0.63819159975E+03  0.28086403958E+03  0.12991998004E+04  0.46999998093E+01 0. -1.
       -5    1    3    3    0  502 -0.10962321399E+04 -0.63819159975E+03 -0.62075642665E+03  0.14122230892E+04  0.46999998093E+01 0.  1.
</event>
<event>
 5   0  0.2615843E-05  0.2402516E+04  0.7818609E-02  0.8438562E-01
        2   -1    0    0  501    0  0.00000000000E+00  0.00000000000E+00  0.14572952899E+04  0.14572952899E+04  0.25500000920E-02 0. -1.
       -2   -1    0    0    0  501  0.00000000000E+00  0.00000000000E+00 -0.99020454462E+03  0.99020454463E+03  0.25500000920E-02 0.  1.
    10030    2    1    2    0    0  0.00000000000E+00  0.00000000000E+00  0.46709074527E+03  0.24474998345E+04  0.24025156973E+04 0.  0.
        3    1    3    3  502    0 -0.30153066494E+03  0.12282510631E+03  0.14114885997E+04  0.14485533563E+04  0.10100000352E+00 0. -1.
       -3    1    3    3    0  502  0.30153066494E+03 -0.12282510631E+03 -0.94439785447E+03  0.99894647823E+03  0.10100000352E+00 0.  1.
</event>
<event>
 5   0  0.9971923E-06  0.2766466E+04  0.7818609E-02  0.8313756E-01
        1   -1    0    0  501    0  0.00000000000E+00  0.00000000000E+00  0.14654739504E+04  0.14654739504E+04  0.50400001928E-02 0.  1.
       -1   -1    0    0    0  501  0.00000000000E+00  0.00000000000E+00 -0.13056074706E+04  0.13056074706E+04  0.50400001928E-02 0. -1.
    10030    2    1    2    0    0  0.00000000000E+00  0.00000000000E+00  0.15986647980E+03  0.27710814211E+04  0.27664661485E+04 0.  0.
        2    1    3    3  502    0 -0.24859585164E+03  0.25373587803E+03  0.14190075097E+04  0.14627932547E+04  0.25500000920E-02 0.  1.
       -2    1    3    3    0  502  0.24859585164E+03 -0.25373587803E+03 -0.12591410299E+04  0.13082881664E+04  0.25500000920E-02 0. -1.
</event>
<event>
 5   0  0.1096672E-05  0.2712132E+04  0.7818609E-02  0.8331079E-01
       -1   -1    0    0    0  501  0.00000000000E+00  0.00000000000E+00  0.73549488813E+03  0.73549488814E+03  0.50400001928E-02 0. -1.
        1   -1    0    0  501    0  0.00000000000E+00  0.00000000000E+00 -0.25002421380E+04  0.25002421380E+04  0.50400001928E-02 0.  1.
    10030    2    1    2    0    0  0.00000000000E+00  0.00000000000E+00 -0.17647472498E+04  0.32357370261E+04  0.27121322325E+04 0.  0.
        1    1    3    3  502    0 -0.30842135757E+03 -0.88468933619E+02 -0.24543022369E+04  0.24751868527E+04  0.50400001928E-02 0.  1.
       -1    1    3    3    0  502  0.30842135757E+03  0.88468933619E+02  0.68955498705E+03  0.76055017337E+03  0.50400001928E-02 0. -1.
</event>
<event>
 5   0  0.1005265E-05  0.2436362E+04  0.7818609E-02  0.8426014E-01
        1   -1    0    0  501    0  0.00000000000E+00  0.00000000000E+00  0.13047426643E+04  0.13047426643E+04  0.50400001928E-02 0.  1.
       -1   -1    0    0    0  501  0.00000000000E+00  0.00000000000E+00 -0.11373617377E+04  0.11373617377E+04  0.50400001928E-02 0. -1.
    10030    2    1    2    0    0  0.00000000000E+00  0.00000000000E+00  0.16738092658E+03  0.24421044021E+04  0.24363615364E+04 0.  0.
        3    1    3    3  502    0  0.72947920326E+02 -0.34023646486E+03 -0.10864867566E+04  0.11408486900E+04  0.10100000352E+00 0. -1.
       -3    1    3    3    0  502 -0.72947920326E+02  0.34023646486E+03  0.12538676832E+04  0.13012557121E+04  0.10100000352E+00 0.  1.
</event>
<event>
 5   0  0.1005265E-05  0.2517444E+04  0.7818609E-02  0.8396797E-01
        1   -1    0    0  501    0  0.00000000000E+00  0.00000000000E+00  0.11997070051E+04  0.11997070051E+04  0.50400001928E-02 0.  1.
       -1   -1    0    0    0  501  0.00000000000E+00  0.00000000000E+00 -0.13206399200E+04  0.13206399200E+04  0.50400001928E-02 0. -1.
    10030    2    1    2    0    0  0.00000000000E+00  0.00000000000E+00 -0.12093291494E+03  0.25203469251E+04  0.25174439126E+04 0.  0.
        3    1    3    3  502    0 -0.63212093040E+03  0.80489817680E+03  0.67314248637E+03  0.12249729641E+04  0.10100000352E+00 0.  1.
       -3    1    3    3    0  502  0.63212093040E+03 -0.80489817680E+03 -0.79407540131E+03  0.12953739610E+04  0.10100000352E+00 0. -1.
</event>
<event>
 5   0  0.2540684E-05  0.2624435E+04  0.7818609E-02  0.8359948E-01
        2   -1    0    0  501    0  0.00000000000E+00  0.00000000000E+00  0.13699433511E+04  0.13699433511E+04  0.25500000920E-02 0. -1.
       -2   -1    0    0    0  501  0.00000000000E+00  0.00000000000E+00 -0.12569237202E+04  0.12569237202E+04  0.25500000920E-02 0.  1.
    10030    2    1    2    0    0  0.00000000000E+00  0.00000000000E+00  0.11301963093E+03  0.26268670713E+04  0.26244346388E+04 0.  0.
        2    1    3    3  502    0  0.59692822260E+03  0.44862291482E+03 -0.10235308155E+04  0.12669653322E+04  0.25500000920E-02 0.  1.
       -2    1    3    3    0  502 -0.59692822260E+03 -0.44862291482E+03  0.11365504465E+04  0.13599017391E+04  0.25500000920E-02 0. -1.
</event>
<event>
 5   0  0.1041909E-05  0.2661601E+04  0.7818609E-02  0.8347573E-01
       -1   -1    0    0    0  501  0.00000000000E+00  0.00000000000E+00  0.92319762534E+03  0.92319762535E+03  0.50400001928E-02 0. -1.
        1   -1    0    0  501    0  0.00000000000E+00  0.00000000000E+00 -0.19183652803E+04  0.19183652803E+04  0.50400001928E-02 0.  1.
    10030    2    1    2    0    0  0.00000000000E+00  0.00000000000E+00 -0.99516765498E+03  0.28415629057E+04  0.26616012258E+04 0.  0.
        5    1    3    3  502    0  0.74292350225E+03  0.80708382478E+03  0.30681115811E+03  0.11390675165E+04  0.46999998093E+01 0. -1.
       -5    1    3    3    0  502 -0.74292350225E+03 -0.80708382478E+03 -0.13019788131E+04  0.17024953892E+04  0.46999998093E+01 0.  1.
</event>
<event>
 5   0  0.2641216E-05  0.2711422E+04  0.7818609E-02  0.8331308E-01
        2   -1    0    0  501    0  0.00000000000E+00  0.00000000000E+00  0.13284415543E+04  0.13284415543E+04  0.25500000920E-02 0.  1.
       -2   -1    0    0    0  501  0.00000000000E+00  0.00000000000E+00 -0.13835404072E+04  0.13835404072E+04  0.25500000920E-02 0. -1.
    10030    2    1    2    0    0  0.00000000000E+00  0.00000000000E+00 -0.55098852954E+02  0.27119819615E+04  0.27114221869E+04 0.  0.
        5    1    3    3  502    0  0.10432889834E+04  0.69259116669E+03  0.49197676381E+03  0.13454358600E+04  0.46999998093E+01 0.  1.
       -5    1    3    3    0  502 -0.10432889834E+04 -0.69259116669E+03 -0.54707561677E+03  0.13665461015E+04  0.46999998093E+01 0. -1.
</event>
<event>
 5   0  0.9971923E-06  0.2584819E+04  0.7818609E-02  0.8373376E-01
        1   -1    0    0  501    0  0.00000000000E+00  0.00000000000E+00  0.17662212979E+04  0.17662212979E+04  0.50400001928E-02 0. -1.
       -1   -1    0    0    0  501  0.00000000000E+00  0.00000000000E+00 -0.94570364559E+03  0.94570364560E+03  0.50400001928E-02 0.  1.
    10030    2    1    2    0    0  0.00000000000E+00  0.00000000000E+00  0.82051765228E+03  0.27119249435E+04  0.25848186941E+04 0.  0.
        2    1    3    3  502    0  0.95250375208E+03 -0.82489020686E+03  0.71182051290E+03  0.14472027134E+04  0.25500000920E-02 0. -1.
       -2    1    3    3    0  502 -0.95250375208E+03  0.82489020686E+03  0.10869713938E+03  0.12647222301E+04  0.25500000920E-02 0.  1.
</event>
<event>
 5   0  0.8740500E-06  0.2728775E+04  0.7818609E-02  0.8325728E-01
       -4   -1    0    0    0  501  0.00000000000E+00  0.00000000000E+00  0.21081068908E+04  0.21081072733E+04  0.12699999809E+01 0. -1.
        4   -1    0    0  501    0  0.00000000000E+00  0.00000000000E+00 -0.88304429336E+03  0.88304520662E+03  0.12699999809E+01 0.  1.
    10030    2    1    2    0    0  0.00000000000E+00  0.00000000000E+00  0.12250625974E+04  0.29911524800E+04  0.27287753280E+04 0.  0.
        3    1    3    3  502    0  0.12821903000E+04  0.61813177511E+02  0.11192818413E+04  0.17031220405E+04  0.10100000352E+00 0. -1.
       -3    1    3    3    0  502 -0.12821903000E+04 -0.61813177511E+02  0.10578075612E+03  0.12880304395E+04  0.10100000352E+00 0.  1.
</event>
<event>
 5   0  0.1096672E-05  0.2280433E+04  0.7818609E-02  0.8485676E-01
        1   -1    0    0  501    0  0.00000000000E+00  0.00000000000E+00  0.94315265232E+03  0.94315265233E+03  0.50400001928E-02 0.  1.
       -1   -1    0    0    0  501  0.00000000000E+00  0.00000000000E+00 -0.13784552349E+04  0.13784552349E+04  0.50400001928E-02 0. -1.
    10030    2    1    2    0    0  0.00000000000E+00  0.00000000000E+00 -0.43530258257E+03  0.23216078872E+04  0.22804330386E+04 0.  0.
        1    1    3    3  502    0 -0.61294835589E+03  0.62085707414E+02 -0.11944190567E+04  0.13439483640E+04  0.50400001928E-02 0. -1.
       -1    1    3    3    0  502  0.61294835589E+03 -0.62085707414E+02  0.75911647413E+03  0.97765952323E+03  0.50400001928E-02 0.  1.
</event>
<event>
 5   0  0.9971923E-06  0.2714868E+04  0.7818609E-02  0.8330197E-01
        1   -1    0    0  501    0  0.00000000000E+00  0.00000000000E+00  0.13030850143E+04  0.13030850143E+04  0.50400001928E-02 0.  1.
       -1   -1    0    0    0  501  0.00000000000E+00  0.00000000000E+00 -0.14140502199E+04  0.14140502199E+04  0.50400001928E-02 0. -1.
    10030    2    1    2    0    0  0.00000000000E+00  0.00000000000E+00 -0.11096520559E+03  0.27171352342E+04  0.27148684322E+04 0.  0.
        2    1    3    3  502    0 -0.44044757347E+03  0.88216259682E+03 -0.98922607886E+03  0.13967008081E+04  0.25500000920E-02 0. -1.
       -2    1    3    3    0  502  0.44044757347E+03 -0.88216259682E+03  0.87826087327E+03  0.13204344261E+04  0.25500000920E-02 0.  1.
</event>
<event>
 5   0  0.2540232E-05  0.2474978E+04  0.7818609E-02  0.8411954E-01
       -2   -1    0    0    0  501  0.00000000000E+00  0.00000000000E+00  0.76314497456E+03  0.76314497456E+03  0.25500000920E-02 0.  1.
        2   -1    0    0  501    0  0.00000000000E+00  0.00000000000E+00 -0.20066686302E+04  0.20066686302E+04  0.25500000920E-02 0. -1.
    10030    2    1    2    0    0  0.00000000000E+00  0.00000000000E+00 -0.12435236557E+04  0.27698136048E+04  0.24749780450E+04 0.  0.
        1    1    3    3  502    0 -0.74953309742E+03  0.39611972006E+03  0.38710972294E+03  0.93196815094E+03  0.50400001928E-02 0.  1.
       -1    1    3    3    0  502  0.74953309742E+03 -0.39611972006E+03 -0.16306333786E+04  0.18378454538E+04  0.50400001928E-02 0. -1.
</event>
<event>
 5   0  0.2540232E-05  0.2742658E+04  0.7818609E-02  0.8321295E-01
       -2   -1    0    0    0  501  0.00000000000E+00  0.00000000000E+00  0.15913019664E+04  0.15913019664E+04  0.25500000920E-02 0.  1.
        2   -1    0    0  501    0  0.00000000000E+00  0.00000000000E+00 -0.11817641063E+04  0.11817641063E+04  0.25500000920E-02 0. -1.
    10030    2    1    2    0    0  0.00000000000E+00  0.00000000000E+00  0.40953786018E+03  0.27730660727E+04  0.27426582333E+04 0.  0.
        1    1    3    3  502    0 -0.52720908050E+03 -0.61282297922E+03 -0.91523168534E+03  0.12211267159E+04  0.50400001928E-02 0. -1.
       -1    1    3    3    0  502  0.52720908050E+03  0.61282297922E+03  0.13247695455E+04  0.15519393568E+04  0.50400001928E-02 0.  1.
</event>
<event>
 5   0  0.8740500E-06  0.2706299E+04  0.7818609E-02  0.8332964E-01
       -3   -1    0    0    0  501  0.00000000000E+00  0.00000000000E+00  0.84265921797E+03  0.84265922402E+03  0.10100000352E+00 0. -1.
        3   -1    0    0  501    0  0.00000000000E+00  0.00000000000E+00 -0.21728999799E+04  0.21728999822E+04  0.10100000352E+00 0.  1.
    10030    2    1    2    0    0  0.00000000000E+00  0.00000000000E+00 -0.13302407619E+04  0.30155592062E+04  0.27062994738E+04 0.  0.
        1    1    3    3  502    0 -0.11126374405E+04  0.59993198216E+03 -0.12031356289E+04  0.17451119731E+04  0.50400001928E-02 0.  1.
       -1    1    3    3    0  502  0.11126374405E+04 -0.59993198216E+03 -0.12710513298E+03  0.12704472331E+04  0.50400001928E-02 0. -1.
</event>
<event>
 5   0  0.1036691E-05  0.2677278E+04  0.7818609E-02  0.8342415E-01
        1   -1    0    0  501    0  0.00000000000E+00  0.00000000000E+00  0.14878553812E+04  0.14878553812E+04  0.50400001928E-02 0.  1.
       -1   -1    0    0    0  501  0.00000000000E+00  0.00000000000E+00 -0.12043875517E+04  0.12043875517E+04  0.50400001928E-02 0. -1.
    10030    2    1    2    0    0  0.00000000000E+00  0.00000000000E+00  0.28346782952E+03  0.26922429329E+04  0.26772780953E+04 0.  0.
        4    1    3    3  502    0  0.18092298476E+03 -0.41396800035E+03  0.14088766338E+04  0.14795396628E+04  0.12699999809E+01 0.  1.
       -4    1    3    3    0  502 -0.18092298476E+03  0.41396800035E+03 -0.11254088043E+04  0.12127032701E+04  0.12699999809E+01 0. -1.
</event>
<event>
 5   0  0.2641216E-05  0.2730842E+04  0.7818609E-02  0.8325067E-01
       -2   -1    0    0    0  501  0.00000000000E+00  0.00000000000E+00  0.10944664517E+04  0.10944664517E+04  0.25500000920E-02 0. -1.
        2   -1    0    0  501    0  0.00000000000E+00  0.00000000000E+00 -0.17034555518E+04  0.17034555518E+04  0.25500000920E-02 0.  1.
    10030    2    1    2    0    0  0.00000000000E+00  0.00000000000E+00 -0.60898910003E+03  0.27979220035E+04  0.27308423268E+04 0.  0.
        5    1    3    3  502    0 -0.11710851270E+04  0.34516135853E+03 -0.93088446513E+03  0.15352995524E+04  0.46999998093E+01 0.  1.
       -5    1    3    3    0  502  0.11710851270E+04 -0.34516135853E+03  0.32189536510E+03  0.12626224511E+04  0.46999998093E+01 0. -1.
</event>
<event>
 5   0  0.1041909E-05  0.2685472E+04  0.7818609E-02  0.8339734E-01
       -1   -1    0    0    0  501  0.00000000000E+00  0.00000000000E+00  0.12584766629E+04  0.12584766629E+04  0.50400001928E-02 0. -1.
        1   -1    0    0  501    0  0.00000000000E+00  0.00000000000E+00 -0.14326370230E+04  0.14326370230E+04  0.50400001928E-02 0.  1.
    10030    2    1    2    0    0  0.00000000000E+00  0.00000000000E+00 -0.17416036014E+03  0.26911136859E+04  0.26854722191E+04 0.  0.
        5    1    3    3  502    0  0.37915210522E+03 -0.12859528659E+04 -0.12849756969E+02  0.13407528849E+04  0.46999998093E+01 0.  1.
       -5    1    3    3    0  502 -0.37915210522E+03  0.12859528659E+04 -0.16131060317E+03  0.13503608010E+04  0.46999998093E+01 0. -1.
</event>
<event>
 5   0  0.9971923E-06  0.2815530E+04  0.7818609E-02  0.8298463E-01
       -1   -1    0    0    0  501  0.00000000000E+00  0.00000000000E+00  0.88310344388E+03  0.88310344390E+03  0.50400001928E-02 0.  1.
        1   -1    0    0  501    0  0.00000000000E+00  0.00000000000E+00 -0.22441337202E+04  0.22441337202E+04  0.50400001928E-02 0. -1.
    10030    2    1    2    0    0  0.00000000000E+00  0.00000000000E+00 -0.13610302763E+04  0.31272371641E+04  0.28155299443E+04 0.  0.
        2    1    3    3  502    0 -0.13780922100E+04 -0.15028253250E+03 -0.95276199618E+03  0.16821053475E+04  0.25500000920E-02 0. -1.
       -2    1    3    3    0  502  0.13780922100E+04  0.15028253250E+03 -0.40826828014E+03  0.14451318166E+04  0.25500000920E-02 0.  1.
</event>
<event>
 5   0  0.2641216E-05  0.2736783E+04  0.7818609E-02  0.8323168E-01
        2   -1    0    0  501    0  0.00000000000E+00  0.00000000000E+00  0.18344581667E+04  0.18344581668E+04  0.25500000920E-02 0.  1.
       -2   -1    0    0    0  501  0.00000000000E+00  0.00000000000E+00 -0.10207348280E+04  0.10207348280E+04  0.25500000920E-02 0. -1.
    10030    2    1    2    0    0  0.00000000000E+00  0.00000000000E+00  0.81372333878E+03  0.28551929947E+04  0.27367830321E+04 0.  0.
        5    1    3    3  502    0  0.10909032088E+04 -0.32292854478E+03 -0.38637781095E+03  0.12015250971E+04  0.46999998093E+01 0. -1.
       -5    1    3    3    0  502 -0.10909032088E+04  0.32292854478E+03  0.12001011497E+04  0.16536678976E+04  0.46999998093E+01 0.  1.
</event>
<event>
 5   0  0.2540232E-05  0.2701242E+04  0.7818609E-02  0.8334602E-01
        2   -1    0    0  501    0  0.00000000000E+00  0.00000000000E+00  0.25010342585E+04  0.25010342585E+04  0.25500000920E-02 0. -1.
       -2   -1    0    0    0  501  0.00000000000E+00  0.00000000000E+00 -0.72936897562E+03  0.72936897563E+03  0.25500000920E-02 0.  1.
    10030    2    1    2    0    0  0.00000000000E+00  0.00000000000E+00  0.17716652828E+04  0.32304032341E+04  0.27012417849E+04 0.  0.
        1    1    3    3  502    0 -0.12546019498E+04  0.12378942536E+03  0.30631425553E+03  0.12973736152E+04  0.50400001928E-02 0.  1.
       -1    1    3    3    0  502  0.12546019498E+04 -0.12378942536E+03  0.14653510273E+04  0.19330296189E+04  0.50400001928E-02 0. -1.
</event>
<event>
 5   0  0.9971923E-06  0.2744323E+04  0.7818609E-02  0.8320765E-01
       -1   -1    0    0    0  501  0.00000000000E+00  0.00000000000E+00  0.10395681237E+04  0.10395681237E+04  0.50400001928E-02 0.  1.
        1   -1    0    0  501    0  0.00000000000E+00  0.00000000000E+00 -0.18111634295E+04  0.18111634295E+04  0.50400001928E-02 0. -1.
    10030    2    1    2    0    0  0.00000000000E+00  0.00000000000E+00 -0.77159530581E+03  0.28507315532E+04  0.27443234271E+04 0.  0.
        2    1    3    3  502    0  0.89706589330E+03  0.46665192179E+03  0.57771009816E+03  0.11645772583E+04  0.25500000920E-02 0.  1.
       -2    1    3    3    0  502 -0.89706589330E+03 -0.46665192179E+03 -0.13493054040E+04  0.16861542949E+04  0.25500000920E-02 0. -1.
</event>
<event>
 5   0  0.1041909E-05  0.2699026E+04  0.7818609E-02  0.8335321E-01
        1   -1    0    0  501    0  0.00000000000E+00  0.00000000000E+00  0.16816875765E+04  0.16816875765E+04  0.50400001928E-02 0.  1.
       -1   -1    0    0    0  501  0.00000000000E+00  0.00000000000E+00 -0.10829507743E+04  0.10829507743E+04  0.50400001928E-02 0. -1.
    10030    2    1    2    0    0  0.00000000000E+00  0.00000000000E+00  0.59873680221E+03  0.27646383508E+04  0.26990256487E+04 0.  0.
        5    1    3    3  502    0 -0.11996900547E+04  0.41010432981E+03  0.77290647081E+03  0.14848731567E+04  0.46999998093E+01 0. -1.
       -5    1    3    3    0  502  0.11996900547E+04 -0.41010432981E+03 -0.17416966860E+03  0.12797651942E+04  0.46999998093E+01 0.  1.
</event>
<event>
 5   0  0.1005265E-05  0.2703382E+04  0.7818609E-02  0.8333908E-01
       -1   -1    0    0    0  501  0.00000000000E+00  0.00000000000E+00  0.14356907745E+04  0.14356907745E+04  0.50400001928E-02 0.  1.
        1   -1    0    0  501    0  0.00000000000E+00  0.00000000000E+00 -0.12726061063E+04  0.12726061063E+04  0.50400001928E-02 0. -1.
    10030    2    1    2    0    0  0.00000000000E+00  0.00000000000E+00  0.16308466815E+03  0.27082968808E+04  0.27033822123E+04 0.  0.
        3    1    3    3  502    0  0.29694087431E+03  0.76792438755E+03  0.11554926413E+04  0.14188181709E+04  0.10100000352E+00 0.  1.
       -3    1    3    3    0  502 -0.29694087431E+03 -0.76792438755E+03 -0.99240797319E+03  0.12894787099E+04  0.10100000352E+00 0. -1.
</event>
<event>
 5   0  0.1005265E-05  0.2725468E+04  0.7818609E-02  0.8326788E-01
       -1   -1    0    0    0  501  0.00000000000E+00  0.00000000000E+00  0.12333940793E+04  0.12333940794E+04  0.50400001928E-02 0. -1.
        1   -1    0    0  501    0  0.00000000000E+00  0.00000000000E+00 -0.15056374328E+04  0.15056374328E+04  0.50400001928E-02 0.  1.
    10030    2    1    2    0    0  0.00000000000E+00  0.00000000000E+00 -0.27224335348E+03  0.27390315122E+04  0.27254682499E+04 0.  0.
        3    1    3    3  502    0 -0.10305513293E+04  0.46712161040E+02  0.75871732172E+03  0.12805741106E+04  0.10100000352E+00 0. -1.
       -3    1    3    3    0  502  0.10305513293E+04 -0.46712161040E+02 -0.10309606752E+04  0.14584574016E+04  0.10100000352E+00 0.  1.
</event>
<event>
 5   0  0.1041909E-05  0.2687194E+04  0.7818609E-02  0.8339172E-01
        1   -1    0    0  501    0  0.00000000000E+00  0.00000000000E+00  0.89490605753E+03  0.89490605754E+03  0.50400001928E-02 0. -1.
       -1   -1    0    0    0  501  0.00000000000E+00  0.00000000000E+00 -0.20172544421E+04  0.20172544421E+04  0.50400001928E-02 0.  1.
    10030    2    1    2    0    0  0.00000000000E+00  0.00000000000E+00 -0.11223483845E+04  0.29121604996E+04  0.26871942392E+04 0.  0.
        5    1    3    3  502    0  0.54557139893E+03  0.13350581186E+03 -0.18839135671E+04  0.19658647898E+04  0.46999998093E+01 0.  1.
       -5    1    3    3    0  502 -0.54557139893E+03 -0.13350581186E+03  0.76156518261E+03  0.94629570985E+03  0.46999998093E+01 0. -1.
</event>
<event>
 5   0  0.1036691E-05  0.2176515E+04  0.7818609E-02  0.8528267E-01
        1   -1    0    0  501    0  0.00000000000E+00  0.00000000000E+00  0.93874178148E+03  0.93874178150E+03  0.50400001928E-02 0.  1.
       -1   -1    0    0    0  501  0.00000000000E+00  0.00000000000E+00 -0.12615866880E+04  0.12615866880E+04  0.50400001928E-02 0. -1.
    10030    2    1    2    0    0  0.00000000000E+00  0.00000000000E+00 -0.32284490654E+03  0.22003284695E+04  0.21765147691E+04 0.  0.
        4    1    3    3  502    0 -0.23905661579E+03  0.36704636811E+03  0.84568579368E+03  0.95239549371E+03  0.12699999809E+01 0.  1.
       -4    1    3    3    0  502  0.23905661579E+03 -0.36704636811E+03 -0.11685307002E+04  0.12479329758E+04  0.12699999809E+01 0. -1.
</event>
<event>
 5   0  0.1041909E-05  0.2698679E+04  0.7818609E-02  0.8335434E-01
        1   -1    0    0  501    0  0.00000000000E+00  0.00000000000E+00  0.18371907947E+04  0.18371907947E+04  0.50400001928E-02 0. -1.
       -1   -1    0    0    0  501  0.00000000000E+00  0.00000000000E+00 -0.99103337772E+03  0.99103337773E+03  0.50400001928E-02 0.  1.
    10030    2    1    2    0    0  0.00000000000E+00  0.00000000000E+00  0.84615741702E+03  0.28282241725E+04  0.26986792317E+04 0.  0.
        5    1    3    3  502    0 -0.11345033926E+04  0.58809982084E+03 -0.31005395483E+02  0.12782577094E+04  0.46999998093E+01 0. -1.
       -5    1    3    3    0  502  0.11345033926E+04 -0.58809982084E+03  0.87716281250E+03  0.15499664631E+04  0.46999998093E+01 0.  1.
</event>
<event>
 5   0  0.2516518E-05  0.2702977E+04  0.7818609E-02  0.8334040E-01
        2   -1    0    0  501    0  0.00000000000E+00  0.00000000000E+00  0.22286113620E+04  0.22286113620E+04  0.25500000920E-02 0. -1.
       -2   -1    0    0    0  501  0.00000000000E+00  0.00000000000E+00 -0.81957828165E+03  0.81957828166E+03  0.25500000920E-02 0.  1.
    10030    2    1    2    0    0  0.00000000000E+00  0.00000000000E+00  0.14090330804E+04  0.30481896437E+04  0.27029772256E+04 0.  0.
        4    1    3    3  502    0  0.82354190793E+03  0.98292157347E+03  0.11858328655E+04  0.17465844645E+04  0.12699999809E+01 0. -1.
       -4    1    3    3    0  502 -0.82354190793E+03 -0.98292157347E+03  0.22320021487E+03  0.13016051792E+04  0.12699999809E+01 0.  1.
</event>
<event>
 5   0  0.1041909E-05  0.2788587E+04  0.7818609E-02  0.8306820E-01
       -1   -1    0    0    0  501  0.00000000000E+00  0.00000000000E+00  0.15381974614E+04  0.15381974614E+04  0.50400001928E-02 0. -1.
        1   -1    0    0  501    0  0.00000000000E+00  0.00000000000E+00 -0.12638520655E+04  0.12638520655E+04  0.50400001928E-02 0.  1.
    10030    2    1    2    0    0  0.00000000000E+00  0.00000000000E+00  0.27434539590E+03  0.28020495269E+04  0.27885867666E+04 0.  0.
        5    1    3    3  502    0 -0.31873241826E+03  0.13341811349E+04 -0.11383782059E+03  0.13764486168E+04  0.46999998093E+01 0.  1.
       -5    1    3    3    0  502  0.31873241826E+03 -0.13341811349E+04  0.38818321649E+03  0.14256009101E+04  0.46999998093E+01 0. -1.
</event>
<event>
 5   0  0.2615843E-05  0.2615591E+04  0.7818609E-02  0.8362924E-01
       -2   -1    0    0    0  501  0.00000000000E+00  0.00000000000E+00  0.11197983047E+04  0.11197983047E+04  0.25500000920E-02 0.  1.
        2   -1    0    0  501    0  0.00000000000E+00  0.00000000000E+00 -0.15273547664E+04  0.15273547664E+04  0.25500000920E-02 0. -1.
    10030    2    1    2    0    0  0.00000000000E+00  0.00000000000E+00 -0.40755646168E+03  0.26471530711E+04  0.26155911593E+04 0.  0.
        3    1    3    3  502    0  0.64418272493E+03  0.11267601890E+04 -0.36624368241E+03  0.13485897641E+04  0.10100000352E+00 0.  1.
       -3    1    3    3    0  502 -0.64418272493E+03 -0.11267601890E+04 -0.41312779273E+02  0.12985633071E+04  0.10100000352E+00 0. -1.
</event>
<event>
 5   0  0.2615843E-05  0.2703113E+04  0.7818609E-02  0.8333995E-01
       -2   -1    0    0    0  501  0.00000000000E+00  0.00000000000E+00  0.78452565057E+03  0.78452565057E+03  0.25500000920E-02 0. -1.
        2   -1    0    0  501    0  0.00000000000E+00  0.00000000000E+00 -0.23284203660E+04  0.23284203660E+04  0.25500000920E-02 0.  1.
    10030    2    1    2    0    0  0.00000000000E+00  0.00000000000E+00 -0.15438947154E+04  0.31129460165E+04  0.27031133919E+04 0.  0.
        3    1    3    3  502    0  0.16043455808E+03  0.39250187032E+03 -0.22498372003E+04  0.22894463094E+04  0.10100000352E+00 0.  1.
       -3    1    3    3    0  502 -0.16043455808E+03 -0.39250187032E+03  0.70594248484E+03  0.82349970718E+03  0.10100000352E+00 0. -1.
</event>
<event>
 5   0  0.8740500E-06  0.2750447E+04  0.7818609E-02  0.8318820E-01
        4   -1    0    0  501    0  0.00000000000E+00  0.00000000000E+00  0.18676511184E+04  0.18676515502E+04  0.12699999809E+01 0.  1.
       -4   -1    0    0    0  501  0.00000000000E+00  0.00000000000E+00 -0.10126294711E+04  0.10126302675E+04  0.12699999809E+01 0. -1.
    10030    2    1    2    0    0  0.00000000000E+00  0.00000000000E+00  0.85502164731E+03  0.28802818178E+04  0.27504474786E+04 0.  0.
        5    1    3    3  502    0 -0.10608827683E+03 -0.13655302100E+04  0.29801783635E+03  0.14017004665E+04  0.46999998093E+01 0. -1.
       -5    1    3    3    0  502  0.10608827683E+03  0.13655302100E+04  0.55700381096E+03  0.14785813513E+04  0.46999998093E+01 0.  1.
</event>
<event>
 5   0  0.2641216E-05  0.2205509E+04  0.7818609E-02  0.8516139E-01
       -2   -1    0    0    0  501  0.00000000000E+00  0.00000000000E+00  0.50399715452E+03  0.50399715453E+03  0.25500000920E-02 0. -1.
        2   -1    0    0  501    0  0.00000000000E+00  0.00000000000E+00 -0.24128463774E+04  0.24128463774E+04  0.25500000920E-02 0.  1.
    10030    2    1    2    0    0  0.00000000000E+00  0.00000000000E+00 -0.19088492229E+04  0.29168435319E+04  0.22055092006E+04 0.  0.
        5    1    3    3  502    0 -0.78174602365E+03  0.36040774541E+02  0.73085277806E+02  0.78599575747E+03  0.46999998093E+01 0. -1.
       -5    1    3    3    0  502  0.78174602365E+03 -0.36040774541E+02 -0.19819345007E+04  0.21308477744E+04  0.46999998093E+01 0.  1.
</event>
<event>
 5   0  0.1041909E-05  0.2810159E+04  0.7818609E-02  0.8300121E-01
       -1   -1    0    0    0  501  0.00000000000E+00  0.00000000000E+00  0.61055672204E+03  0.61055672206E+03  0.50400001928E-02 0.  1.
        1   -1    0    0  501    0  0.00000000000E+00  0.00000000000E+00 -0.32335222508E+04  0.32335222508E+04  0.50400001928E-02 0. -1.
    10030    2    1    2    0    0  0.00000000000E+00  0.00000000000E+00 -0.26229655287E+04  0.38440789728E+04  0.28101592454E+04 0.  0.
        5    1    3    3  502    0 -0.32974607470E+03  0.13149885107E+04 -0.18165024887E+04  0.22666342092E+04  0.46999998093E+01 0. -1.
       -5    1    3    3    0  502  0.32974607470E+03 -0.13149885107E+04 -0.80646304005E+03  0.15774447636E+04  0.46999998093E+01 0.  1.
</event>
<event>
 5   0  0.9971923E-06  0.2734132E+04  0.7818609E-02  0.8324014E-01
        1   -1    0    0  501    0  0.00000000000E+00  0.00000000000E+00  0.15435135221E+04  0.15435135221E+04  0.50400001928E-02 0. -1.
       -1   -1    0    0    0  501  0.00000000000E+00  0.00000000000E+00 -0.12107893481E+04  0.12107893481E+04  0.50400001928E-02 0.  1.
    10030    2    1    2    0    0  0.00000000000E+00  0.00000000000E+00  0.33272417399E+03  0.27543028703E+04  0.27341322070E+04 0.  0.
        2    1    3    3  502    0 -0.10052341583E+03  0.11120931587E+04  0.96085882301E+03  0.14731279064E+04  0.25500000920E-02 0. -1.
       -2    1    3    3    0  502  0.10052341583E+03 -0.11120931587E+04 -0.62813464902E+03  0.12811749639E+04  0.25500000920E-02 0.  1.
</event>
<event>
 5   0  0.2641216E-05  0.2713343E+04  0.7818609E-02  0.8330689E-01
        2   -1    0    0  501    0  0.00000000000E+00  0.00000000000E+00  0.15260174169E+04  0.15260174169E+04  0.25500000920E-02 0.  1.
       -2   -1    0    0    0  501  0.00000000000E+00  0.00000000000E+00 -0.12061185651E+04  0.12061185651E+04  0.25500000920E-02 0. -1.
    10030    2    1    2    0    0  0.00000000000E+00  0.00000000000E+00  0.31989885184E+03  0.27321359820E+04  0.27133432788E+04 0.  0.
        5    1    3    3  502    0  0.22394966447E+03  0.12008262266E+04  0.75429067748E+03  0.14356578962E+04  0.46999998093E+01 0.  1.
       -5    1    3    3    0  502 -0.22394966447E+03 -0.12008262266E+04 -0.43439182564E+03  0.12964780858E+04  0.46999998093E+01 0. -1.
</event>
<event>
 5   0  0.2540232E-05  0.2828623E+04  0.7818609E-02  0.8294437E-01
        2   -1    0    0  501    0  0.00000000000E+00  0.00000000000E+00  0.29218918939E+04  0.29218918939E+04  0.25500000920E-02 0.  1.
       -2   -1    0    0    0  501  0.00000000000E+00  0.00000000000E+00 -0.68458304765E+03  0.68458304765E+03  0.25500000920E-02 0. -1.
    10030    2    1    2    0    0  0.00000000000E+00  0.00000000000E+00  0.22373088462E+04  0.36064749415E+04  0.28286234515E+04 0.  0.
        1    1    3    3  502    0 -0.13512538823E+04 -0.41659881943E+03  0.10817891132E+04  0.17803677475E+04  0.50400001928E-02 0. -1.
       -1    1    3    3    0  502  0.13512538823E+04  0.41659881943E+03  0.11555197331E+04  0.18261071941E+04  0.50400001928E-02 0.  1.
</event>
<event>
 5   0  0.9971923E-06  0.2517805E+04  0.7818609E-02  0.8396670E-01
       -1   -1    0    0    0  501  0.00000000000E+00  0.00000000000E+00  0.10069456246E+04  0.10069456246E+04  0.50400001928E-02 0. -1.
        1   -1    0    0  501    0  0.00000000000E+00  0.00000000000E+00 -0.15739041184E+04  0.15739041184E+04  0.50400001928E-02 0.  1.
    10030    2    1    2    0    0  0.00000000000E+00  0.00000000000E+00 -0.56695849375E+03  0.25808497430E+04  0.25178052868E+04 0.  0.
        2    1    3    3  502    0  0.16937568031E+03 -0.52025059814E+03  0.87870352750E+03  0.10351177205E+04  0.25500000920E-02 0. -1.
       -2    1    3    3    0  502 -0.16937568031E+03  0.52025059814E+03 -0.14456620212E+04  0.15457320226E+04  0.25500000920E-02 0.  1.
</event>
<event>
 5   0  0.2540232E-05  0.2758407E+04  0.7818609E-02  0.8316299E-01
       -2   -1    0    0    0  501  0.00000000000E+00  0.00000000000E+00  0.12419434490E+04  0.12419434490E+04  0.25500000920E-02 0. -1.
        2   -1    0    0  501    0  0.00000000000E+00  0.00000000000E+00 -0.15316338630E+04  0.15316338630E+04  0.25500000920E-02 0.  1.
    10030    2    1    2    0    0  0.00000000000E+00  0.00000000000E+00 -0.28969041400E+03  0.27735773120E+04  0.27584072523E+04 0.  0.
        1    1    3    3  502    0  0.76238666636E+03  0.10743424573E+04 -0.55545052997E+03  0.14296749406E+04  0.50400001928E-02 0.  1.
       -1    1    3    3    0  502 -0.76238666636E+03 -0.10743424573E+04  0.26576011598E+03  0.13439023714E+04  0.50400001928E-02 0. -1.
</event>
<event>
 5   0  0.1036691E-05  0.2628352E+04  0.7818609E-02  0.8358634E-01
        1   -1    0    0  501    0  0.00000000000E+00  0.00000000000E+00  0.17010765624E+04  0.17010765624E+04  0.50400001928E-02 0. -1.
       -1   -1    0    0    0  501  0.00000000000E+00  0.00000000000E+00 -0.10152738708E+04  0.10152738708E+04  0.50400001928E-02 0.  1.
    10030    2    1    2    0    0  0.00000000000E+00  0.00000000000E+00  0.68580269163E+03  0.27163504332E+04  0.26283520206E+04 0.  0.
        4    1    3    3  502    0  0.51444337216E+03 -0.86831717739E+02  0.15894626765E+04  0.16728971705E+04  0.12699999809E+01 0. -1.
       -4    1    3    3    0  502 -0.51444337216E+03  0.86831717739E+02 -0.90365998483E+03  0.10434532627E+04  0.12699999809E+01 0.  1.
</event>
<event>
 5   0  0.2615843E-05  0.2702733E+04  0.7818609E-02  0.8334119E-01
       -2   -1    0    0    0  501  0.00000000000E+00  0.00000000000E+00  0.12833307039E+04  0.12833307039E+04  0.25500000920E-02 0. -1.
        2   -1    0    0  501    0  0.00000000000E+00  0.00000000000E+00 -0.14230095424E+04  0.14230095424E+04  0.25500000920E-02 0.  1.
    10030    2    1    2    0    0  0.00000000000E+00  0.00000000000E+00 -0.13967883852E+03  0.27063402463E+04  0.27027333111E+04 0.  0.
        3    1    3    3  502    0 -0.94214189177E+03 -0.94906577921E+03 -0.26461026382E+03  0.13632225788E+04  0.10100000352E+00 0.  1.
       -3    1    3    3    0  502  0.94214189177E+03  0.94906577921E+03  0.12493142530E+03  0.13431176675E+04  0.10100000352E+00 0. -1.
</event>
<event>
 5   0  0.1036691E-05  0.2753464E+04  0.7818609E-02  0.8317863E-01
       -1   -1    0    0    0  501  0.00000000000E+00  0.00000000000E+00  0.16633472259E+04  0.16633472259E+04  0.50400001928E-02 0. -1.
        1   -1    0    0  501    0  0.00000000000E+00  0.00000000000E+00 -0.11395043494E+04  0.11395043494E+04  0.50400001928E-02 0.  1.
    10030    2    1    2    0    0  0.00000000000E+00  0.00000000000E+00  0.52384287653E+03  0.28028515753E+04  0.27534642895E+04 0.  0.
        4    1    3    3  502    0 -0.29567878522E+03 -0.12996952993E+04 -0.88869509974E+02  0.13358642213E+04  0.12699999809E+01 0.  1.
       -4    1    3    3    0  502  0.29567878522E+03  0.12996952993E+04  0.61271238650E+03  0.14669873539E+04  0.12699999809E+01 0. -1.
</event>
<event>
 5   0  0.2615843E-05  0.2660823E+04  0.7818609E-02  0.8347830E-01
        2   -1    0    0  501    0  0.00000000000E+00  0.00000000000E+00  0.22719940421E+04  0.22719940421E+04  0.25500000920E-02 0. -1.
       -2   -1    0    0    0  501  0.00000000000E+00  0.00000000000E+00 -0.77904903403E+03  0.77904903403E+03  0.25500000920E-02 0.  1.
    10030    2    1    2    0    0  0.00000000000E+00  0.00000000000E+00  0.14929450081E+04  0.30510430761E+04  0.26608230034E+04 0.  0.
        3    1    3    3  502    0 -0.81509225701E+03 -0.49953996811E+03  0.18074088356E+04  0.20446618978E+04  0.10100000352E+00 0. -1.
       -3    1    3    3    0  502  0.81509225701E+03  0.49953996811E+03 -0.31446382748E+03  0.10063811784E+04  0.10100000352E+00 0.  1.
</event>
<event>
 5   0  0.2516518E-05  0.2620194E+04  0.7818609E-02  0.8361374E-01
        2   -1    0    0  501    0  0.00000000000E+00  0.00000000000E+00  0.67453518761E+03  0.67453518762E+03  0.25500000920E-02 0. -1.
       -2   -1    0    0    0  501  0.00000000000E+00  0.00000000000E+00 -0.25444992308E+04  0.25444992308E+04  0.25500000920E-02 0.  1.
    10030    2    1    2    0    0  0.00000000000E+00  0.00000000000E+00 -0.18699640432E+04  0.32190344184E+04  0.26201940890E+04 0.  0.
        4    1    3    3  502    0 -0.10193457566E+04 -0.70984431679E+03 -0.42338662066E+03  0.13123271578E+04  0.12699999809E+01 0. -1.
       -4    1    3    3    0  502  0.10193457566E+04  0.70984431679E+03 -0.14465774225E+04  0.19067072607E+04  0.12699999809E+01 0.  1.
</event>
<event>
 5   0  0.2540684E-05  0.2584412E+04  0.7818609E-02  0.8373515E-01
        2   -1    0    0  501    0  0.00000000000E+00  0.00000000000E+00  0.16174502301E+04  0.16174502301E+04  0.25500000920E-02 0. -1.
       -2   -1    0    0    0  501  0.00000000000E+00  0.00000000000E+00 -0.10323634786E+04  0.10323634786E+04  0.25500000920E-02 0.  1.
    10030    2    1    2    0    0  0.00000000000E+00  0.00000000000E+00  0.58508675157E+03  0.26498137087E+04  0.25844121544E+04 0.  0.
        2    1    3    3  502    0 -0.12069718142E+04  0.44824260292E+03  0.40529980849E+03  0.13498038102E+04  0.25500000920E-02 0. -1.
       -2    1    3    3    0  502  0.12069718142E+04 -0.44824260292E+03  0.17978694308E+03  0.13000098985E+04  0.25500000920E-02 0.  1.
</event>
<event>
 5   0  0.2540684E-05  0.2683570E+04  0.7818609E-02  0.8340356E-01
       -2   -1    0    0    0  501  0.00000000000E+00  0.00000000000E+00  0.10317572859E+04  0.10317572859E+04  0.25500000920E-02 0.  1.
        2   -1    0    0  501    0  0.00000000000E+00  0.00000000000E+00 -0.17449714786E+04  0.17449714787E+04  0.25500000920E-02 0. -1.
    10030    2    1    2    0    0  0.00000000000E+00  0.00000000000E+00 -0.71321419277E+03  0.27767287645E+04  0.26835700377E+04 0.  0.
        2    1    3    3  502    0  0.12478733931E+04  0.26018685986E+03  0.76865202426E+02  0.12770252412E+04  0.25500000920E-02 0.  1.
       -2    1    3    3    0  502 -0.12478733931E+04 -0.26018685986E+03 -0.79007939519E+03  0.14997035234E+04  0.25500000920E-02 0. -1.
</event>
<event>
 5   0  0.1036691E-05  0.2725481E+04  0.7818609E-02  0.8326784E-01
        1   -1    0    0  501    0  0.00000000000E+00  0.00000000000E+00  0.18247110754E+04  0.18247110754E+04  0.50400001928E-02 0. -1.
       -1   -1    0    0    0  501  0.00000000000E+00  0.00000000000E+00 -0.10177289108E+04  0.10177289108E+04  0.50400001928E-02 0.  1.
    10030    2    1    2    0    0  0.00000000000E+00  0.00000000000E+00  0.80698216466E+03  0.28424399862E+04  0.27254806661E+04 0.  0.
        4    1    3    3  502    0  0.76652127025E+03  0.86994417332E+03  0.11502504054E+04  0.16332284991E+04  0.12699999809E+01 0. -1.
       -4    1    3    3    0  502 -0.76652127025E+03 -0.86994417332E+03 -0.34326824072E+03  0.12092114871E+04  0.12699999809E+01 0.  1.
</event>
<event>
 5   0  0.2540684E-05  0.2627421E+04  0.7818609E-02  0.8358946E-01
        2   -1    0    0  501    0  0.00000000000E+00  0.00000000000E+00  0.11195364836E+04  0.11195364837E+04  0.25500000920E-02 0.  1.
       -2   -1    0    0    0  501  0.00000000000E+00  0.00000000000E+00 -0.15415625543E+04  0.15415625543E+04  0.25500000920E-02 0. -1.
    10030    2    1    2    0    0  0.00000000000E+00  0.00000000000E+00 -0.42202607065E+03  0.26610990380E+04  0.26274211854E+04 0.  0.
        2    1    3    3  502    0 -0.10003699592E+04  0.78809108458E+03  0.11562332102E+03  0.12787479678E+04  0.25500000920E-02 0.  1.
       -2    1    3    3    0  502  0.10003699592E+04 -0.78809108458E+03 -0.53764939167E+03  0.13823510702E+04  0.25500000920E-02 0. -1.
</event>
<event>
 5   0  0.2641216E-05  0.2715127E+04  0.7818609E-02  0.8330113E-01
       -2   -1    0    0    0  501  0.00000000000E+00  0.00000000000E+00  0.11031128677E+04  0.11031128677E+04  0.25500000920E-02 0. -1.
        2   -1    0    0  501    0  0.00000000000E+00  0.00000000000E+00 -0.16707075040E+04  0.16707075040E+04  0.25500000920E-02 0.  1.
    10030    2    1    2    0    0  0.00000000000E+00  0.00000000000E+00 -0.56759463621E+03  0.27738203717E+04  0.27151272131E+04 0.  0.
        5    1    3    3  502    0  0.55109075816E+03  0.53670586545E+03  0.85895464994E+03  0.11530738877E+04  0.46999998093E+01 0. -1.
       -5    1    3    3    0  502 -0.55109075816E+03 -0.53670586545E+03 -0.14265492861E+04  0.16207464840E+04  0.46999998093E+01 0.  1.
</event>
<event>
 5   0  0.2641216E-05  0.2613893E+04  0.7818609E-02  0.8363497E-01
        2   -1    0    0  501    0  0.00000000000E+00  0.00000000000E+00  0.12579823800E+04  0.12579823800E+04  0.25500000920E-02 0. -1.
       -2   -1    0    0    0  501  0.00000000000E+00  0.00000000000E+00 -0.13578166939E+04  0.13578166939E+04  0.25500000920E-02 0.  1.
    10030    2    1    2    0    0  0.00000000000E+00  0.00000000000E+00 -0.99834313933E+02  0.26157990739E+04  0.26138932466E+04 0.  0.
        5    1    3    3  502    0 -0.59126984805E+03 -0.93551970037E+03  0.64578051292E+03  0.12813476124E+04  0.46999998093E+01 0. -1.
       -5    1    3    3    0  502  0.59126984805E+03  0.93551970037E+03 -0.74561482686E+03  0.13344514615E+04  0.46999998093E+01 0.  1.
</event>
<event>
 5   0  0.2615843E-05  0.2623825E+04  0.7818609E-02  0.8360153E-01
       -2   -1    0    0    0  501  0.00000000000E+00  0.00000000000E+00  0.54520913251E+03  0.54520913251E+03  0.25500000920E-02 0. -1.
        2   -1    0    0  501    0  0.00000000000E+00  0.00000000000E+00 -0.31567974457E+04  0.31567974457E+04  0.25500000920E-02 0.  1.
    10030    2    1    2    0    0  0.00000000000E+00  0.00000000000E+00 -0.26115883132E+04  0.37020065782E+04  0.26238252967E+04 0.  0.
        3    1    3    3  502    0  0.71541729573E+03 -0.80789806013E+03 -0.23584135739E+04  0.25935758671E+04  0.10100000352E+00 0. -1.
       -3    1    3    3    0  502 -0.71541729573E+03  0.80789806013E+03 -0.25317473932E+03  0.11084307112E+04  0.10100000352E+00 0.  1.
</event>
<event>
 5   0  0.1041909E-05  0.2741257E+04  0.7818609E-02  0.8321741E-01
        1   -1    0    0  501    0  0.00000000000E+00  0.00000000000E+00  0.19497942535E+04  0.19497942535E+04  0.50400001928E-02 0. -1.
       -1   -1    0    0    0  501  0.00000000000E+00  0.00000000000E+00 -0.96349812015E+03  0.96349812016E+03  0.50400001928E-02 0.  1.
    10030    2    1    2    0    0  0.00000000000E+00  0.00000000000E+00  0.98629613338E+03  0.29132923737E+04  0.27412574472E+04 0.  0.
        5    1    3    3  502    0 -0.11501775747E+03  0.10300619097E+03 -0.95421771531E+03  0.96664000440E+03  0.46999998093E+01 0.  1.
       -5    1    3    3    0  502  0.11501775747E+03 -0.10300619097E+03  0.19405138487E+04  0.19466523693E+04  0.46999998093E+01 0. -1.
</event>
<event>
 5   0  0.1096672E-05  0.2517265E+04  0.7818609E-02  0.8396861E-01
        1   -1    0    0  501    0  0.00000000000E+00  0.00000000000E+00  0.20252617928E+04  0.20252617928E+04  0.50400001928E-02 0.  1.
       -1   -1    0    0    0  501  0.00000000000E+00  0.00000000000E+00 -0.78219801204E+03  0.78219801206E+03  0.50400001928E-02 0. -1.
    10030    2    1    2    0    0  0.00000000000E+00  0.00000000000E+00  0.12430637808E+04  0.28074598049E+04  0.25172649827E+04 0.  0.
        1    1    3    3  502    0  0.60149248066E+03  0.39377644821E+03  0.17737333129E+04  0.19138920974E+04  0.50400001928E-02 0.  1.
       -1    1    3    3    0  502 -0.60149248066E+03 -0.39377644821E+03 -0.53066953210E+03  0.89356770744E+03  0.50400001928E-02 0. -1.
</event>
<event>
 5   0  0.2615843E-05  0.2202610E+04  0.7818609E-02  0.8517343E-01
       -2   -1    0    0    0  501  0.00000000000E+00  0.00000000000E+00  0.88816873078E+03  0.88816873078E+03  0.25500000920E-02 0. -1.
        2   -1    0    0  501    0  0.00000000000E+00  0.00000000000E+00 -0.13655878970E+04  0.13655878971E+04  0.25500000920E-02 0.  1.
    10030    2    1    2    0    0  0.00000000000E+00  0.00000000000E+00 -0.47741916627E+03  0.22537566278E+04  0.22026097878E+04 0.  0.
        3    1    3    3  502    0  0.30592598319E+02  0.81411108087E+03 -0.99697069209E+03  0.12875027496E+04  0.10100000352E+00 0.  1.
       -3    1    3    3    0  502 -0.30592598319E+02 -0.81411108087E+03  0.51955152582E+03  0.96625387826E+03  0.10100000352E+00 0. -1.
</event>
<event>
 5   0  0.9971923E-06  0.2739499E+04  0.7818609E-02  0.8322302E-01
       -1   -1    0    0    0  501  0.00000000000E+00  0.00000000000E+00  0.13396436843E+04  0.13396436843E+04  0.50400001928E-02 0.  1.
        1   -1    0    0  501    0  0.00000000000E+00  0.00000000000E+00 -0.14005314107E+04  0.14005314107E+04  0.50400001928E-02 0. -1.
    10030    2    1    2    0    0  0.00000000000E+00  0.00000000000E+00 -0.60887726418E+02  0.27401750949E+04  0.27394985373E+04 0.  0.
        2    1    3    3  502    0 -0.24367126080E+03 -0.13476424467E+04 -0.40325782280E+01  0.13695006787E+04  0.25500000920E-02 0.  1.
       -2    1    3    3    0  502  0.24367126080E+03  0.13476424467E+04 -0.56855148190E+02  0.13706744162E+04  0.25500000920E-02 0. -1.
</event>
<event>
 5   0  0.2516518E-05  0.2688032E+04  0.7818609E-02  0.8338899E-01
       -2   -1    0    0    0  501  0.00000000000E+00  0.00000000000E+00  0.91478817407E+03  0.91478817407E+03  0.25500000920E-02 0. -1.
        2   -1    0    0  501    0  0.00000000000E+00  0.00000000000E+00 -0.19746420486E+04  0.19746420486E+04  0.25500000920E-02 0.  1.
    10030    2    1    2    0    0  0.00000000000E+00  0.00000000000E+00 -0.10598538745E+04  0.28894302227E+04  0.26880321383E+04 0.  0.
        4    1    3    3  502    0  0.86123677310E+03  0.80669990615E+03 -0.12214666198E+04  0.16983744682E+04  0.12699999809E+01 0.  1.
       -4    1    3    3    0  502 -0.86123677310E+03 -0.80669990615E+03  0.16161274530E+03  0.11910557545E+04  0.12699999809E+01 0. -1.
</event>
<event>
 5   0  0.1036691E-05  0.2761536E+04  0.7818609E-02  0.8315310E-01
       -1   -1    0    0    0  501  0.00000000000E+00  0.00000000000E+00  0.11189826496E+04  0.11189826496E+04  0.50400001928E-02 0.  1.
        1   -1    0    0  501    0  0.00000000000E+00  0.00000000000E+00 -0.17037978075E+04  0.17037978075E+04  0.50400001928E-02 0. -1.
    10030    2    1    2    0    0  0.00000000000E+00  0.00000000000E+00 -0.58481515792E+03  0.28227804571E+04  0.27615359386E+04 0.  0.
        4    1    3    3  502    0  0.92215170579E+03 -0.91961898360E+03  0.17652108283E+03  0.13142390000E+04  0.12699999809E+01 0.  1.
       -4    1    3    3    0  502 -0.92215170579E+03  0.91961898360E+03 -0.76133624075E+03  0.15085414571E+04  0.12699999809E+01 0. -1.
</event>
<event>
 5   0  0.2516518E-05  0.2712162E+04  0.7818609E-02  0.8331070E-01
       -2   -1    0    0    0  501  0.00000000000E+00  0.00000000000E+00  0.12436699144E+04  0.12436699144E+04  0.25500000920E-02 0.  1.
        2   -1    0    0  501    0  0.00000000000E+00  0.00000000000E+00 -0.14786521097E+04  0.14786521097E+04  0.25500000920E-02 0. -1.
    10030    2    1    2    0    0  0.00000000000E+00  0.00000000000E+00 -0.23498219530E+03  0.27223220242E+04  0.27121616049E+04 0.  0.
        4    1    3    3  502    0  0.43635316247E+03  0.41973152423E+03 -0.13354514050E+04  0.14662914795E+04  0.12699999809E+01 0. -1.
       -4    1    3    3    0  502 -0.43635316247E+03 -0.41973152423E+03  0.11004692097E+04  0.12560305447E+04  0.12699999809E+01 0.  1.
</event>
<event>
 5   0  0.2540232E-05  0.2703836E+04  0.7818609E-02  0.8333762E-01
       -2   -1    0    0    0  501  0.00000000000E+00  0.00000000000E+00  0.83677391265E+03  0.83677391265E+03  0.25500000920E-02 0.  1.
        2   -1    0    0  501    0  0.00000000000E+00  0.00000000000E+00 -0.21842002961E+04  0.21842002961E+04  0.25500000920E-02 0. -1.
    10030    2    1    2    0    0  0.00000000000E+00  0.00000000000E+00 -0.13474263834E+04  0.30209742087E+04  0.27038356664E+04 0.  0.
        1    1    3    3  502    0  0.24775672111E+03  0.61968197673E+03 -0.19873240495E+04  0.20963888053E+04  0.50400001928E-02 0. -1.
       -1    1    3    3    0  502 -0.24775672111E+03 -0.61968197673E+03  0.63989766610E+03  0.92458540343E+03  0.50400001928E-02 0.  1.
</event>
<event>
 5   0  0.2540684E-05  0.2732871E+04  0.7818609E-02  0.8324418E-01
       -2   -1    0    0    0  501  0.00000000000E+00  0.00000000000E+00  0.82737158266E+03  0.82737158267E+03  0.25500000920E-02 0. -1.
        2   -1    0    0  501    0  0.00000000000E+00  0.00000000000E+00 -0.22567202959E+04  0.22567202959E+04  0.25500000920E-02 0.  1.
    10030    2    1    2    0    0  0.00000000000E+00  0.00000000000E+00 -0.14293487133E+04  0.30840918786E+04  0.27328711956E+04 0.  0.
        2    1    3    3  502    0  0.67530061169E+03 -0.99987652631E+03 -0.14384773361E+04  0.18774986100E+04  0.25500000920E-02 0.  1.
       -2    1    3    3    0  502 -0.67530061169E+03  0.99987652631E+03  0.91286228847E+01  0.12065932686E+04  0.25500000920E-02 0. -1.
</event>
<event>
 5   0  0.1005265E-05  0.2763034E+04  0.7818609E-02  0.8314838E-01
        1   -1    0    0  501    0  0.00000000000E+00  0.00000000000E+00  0.18462953525E+04  0.18462953525E+04  0.50400001928E-02 0. -1.
       -1   -1    0    0    0  501  0.00000000000E+00  0.00000000000E+00 -0.10337396345E+04  0.10337396345E+04  0.50400001928E-02 0.  1.
    10030    2    1    2    0    0  0.00000000000E+00  0.00000000000E+00  0.81255571802E+03  0.28800349870E+04  0.27630336102E+04 0.  0.
        3    1    3    3  502    0  0.41104276800E+03 -0.30443924738E+03 -0.93140051374E+03  0.10626129774E+04  0.10100000352E+00 0.  1.
       -3    1    3    3    0  502 -0.41104276800E+03  0.30443924738E+03  0.17439562318E+04  0.18174220096E+04  0.10100000352E+00 0. -1.
</event>
<event>
 5   0  0.1096672E-05  0.2684792E+04  0.7818609E-02  0.8339956E-01
       -1   -1    0    0    0  501  0.00000000000E+00  0.00000000000E+00  0.89880654931E+03  0.89880654932E+03  0.50400001928E-02 0.  1.
        1   -1    0    0  501    0  0.00000000000E+00  0.00000000000E+00 -0.20049102323E+04  0.20049102323E+04  0.50400001928E-02 0. -1.
    10030    2    1    2    0    0  0.00000000000E+00  0.00000000000E+00 -0.11061036830E+04  0.29037167817E+04  0.26847915730E+04 0.  0.
        1    1    3    3  502    0  0.56713049819E+03 -0.11413846631E+04 -0.97222325490E+02  0.12782206898E+04  0.50400001928E-02 0. -1.
       -1    1    3    3    0  502 -0.56713049819E+03  0.11413846631E+04 -0.10088813575E+04  0.16254960919E+04  0.50400001928E-02 0.  1.
</event>
<event>
 5   0  0.9971923E-06  0.2711147E+04  0.7818609E-02  0.8331397E-01
       -1   -1    0    0    0  501  0.00000000000E+00  0.00000000000E+00  0.26642097922E+04  0.26642097922E+04  0.50400001928E-02 0.  1.
        1   -1    0    0  501    0  0.00000000000E+00  0.00000000000E+00 -0.68972770758E+03  0.68972770760E+03  0.50400001928E-02 0. -1.
    10030    2    1    2    0    0  0.00000000000E+00  0.00000000000E+00  0.19744820846E+04  0.33539374998E+04  0.27111468514E+04 0.  0.
        2    1    3    3  502    0 -0.43925432786E+03  0.79338559691E+03 -0.25920137023E+03  0.94318101140E+03  0.25500000920E-02 0. -1.
       -2    1    3    3    0  502  0.43925432786E+03 -0.79338559691E+03  0.22336834548E+04  0.24107564884E+04  0.25500000920E-02 0.  1.
</event>
<event>
 5   0  0.2540684E-05  0.2618646E+04  0.7818609E-02  0.8361895E-01
       -2   -1    0    0    0  501  0.00000000000E+00  0.00000000000E+00  0.80846692700E+03  0.80846692700E+03  0.25500000920E-02 0.  1.
        2   -1    0    0  501    0  0.00000000000E+00  0.00000000000E+00 -0.21204663500E+04  0.21204663500E+04  0.25500000920E-02 0. -1.
    10030    2    1    2    0    0  0.00000000000E+00  0.00000000000E+00 -0.13119994230E+04  0.29289332770E+04  0.26186461493E+04 0.  0.
        2    1    3    3  502    0  0.46975066487E+03  0.78318313554E+03  0.39340838628E+03  0.99439009918E+03  0.25500000920E-02 0.  1.
       -2    1    3    3    0  502 -0.46975066487E+03 -0.78318313554E+03 -0.17054078093E+04  0.19345431779E+04  0.25500000920E-02 0. -1.
</event>
<event>
 5   0  0.2641216E-05  0.2531881E+04  0.7818609E-02  0.8391715E-01
        2   -1    0    0  501    0  0.00000000000E+00  0.00000000000E+00  0.11797093191E+04  0.11797093191E+04  0.25500000920E-02 0.  1.
       -2   -1    0    0    0  501  0.00000000000E+00  0.00000000000E+00 -0.13584744983E+04  0.13584744983E+04  0.25500000920E-02 0. -1.
    10030    2    1    2    0    0  0.00000000000E+00  0.00000000000E+00 -0.17876517923E+03  0.25381838174E+04  0.25318807440E+04 0.  0.
        5    1    3    3  502    0  0.91220536006E+03 -0.10347288419E+03 -0.96319332121E+03  0.13306347060E+04  0.46999998093E+01 0.  1.
       -5    1    3    3    0  502 -0.91220536006E+03  0.10347288419E+03  0.78442814197E+03  0.12075491115E+04  0.46999998093E+01 0. -1.
</event>
<event>
 5   0  0.1096672E-05  0.2643622E+04  0.7818609E-02  0.8353533E-01
        1   -1    0    0  501    0  0.00000000000E+00  0.00000000000E+00  0.18730973216E+04  0.18730973216E+04  0.50400001928E-02 0. -1.
       -1   -1    0    0    0  501  0.00000000000E+00  0.00000000000E+00 -0.93277786534E+03  0.93277786535E+03  0.50400001928E-02 0.  1.
    10030    2    1    2    0    0  0.00000000000E+00  0.00000000000E+00  0.94031945624E+03  0.28058751869E+04  0.26436215472E+04 0.  0.
        1    1    3    3  502    0  0.54684892934E+03  0.79409681710E+03  0.14298393744E+04  0.17245504176E+04  0.50400001928E-02 0. -1.
       -1    1    3    3    0  502 -0.54684892934E+03 -0.79409681710E+03 -0.48951991813E+03  0.10813247693E+04  0.50400001928E-02 0.  1.
</event>
<event>
 5   0  0.2540232E-05  0.2756113E+04  0.7818609E-02  0.8317024E-01
       -2   -1    0    0    0  501  0.00000000000E+00  0.00000000000E+00  0.12356781261E+04  0.12356781261E+04  0.25500000920E-02 0.  1.
        2   -1    0    0  501    0  0.00000000000E+00  0.00000000000E+00 -0.15368405493E+04  0.15368405493E+04  0.25500000920E-02 0. -1.
    10030    2    1    2    0    0  0.00000000000E+00  0.00000000000E+00 -0.30116242324E+03  0.27725186754E+04  0.27561133867E+04 0.  0.
        1    1    3    3  502    0  0.68178348834E+03  0.10047532851E+04  0.50497435774E+03  0.13150501857E+04  0.50400001928E-02 0.  1.
       -1    1    3    3    0  502 -0.68178348834E+03 -0.10047532851E+04 -0.80613678098E+03  0.14574684897E+04  0.50400001928E-02 0. -1.
</event>
<event>
 5   0  0.1096672E-05  0.2704061E+04  0.7818609E-02  0.8333688E-01
        1   -1    0    0  501    0  0.00000000000E+00  0.00000000000E+00  0.18224598243E+04  0.18224598243E+04  0.50400001928E-02 0.  1.
       -1   -1    0    0    0  501  0.00000000000E+00  0.00000000000E+00 -0.10030327911E+04  0.10030327912E+04  0.50400001928E-02 0. -1.
    10030    2    1    2    0    0  0.00000000000E+00  0.00000000000E+00  0.81942703314E+03  0.28254926154E+04  0.27040613634E+04 0.  0.
        1    1    3    3  502    0 -0.19750510847E+03  0.13371923376E+04  0.44097961588E+03  0.14218138547E+04  0.50400001928E-02 0.  1.
       -1    1    3    3    0  502  0.19750510847E+03 -0.13371923376E+04  0.37844741726E+03  0.14036787608E+04  0.50400001928E-02 0. -1.
</event>
<event>
 5   0  0.2641216E-05  0.2647901E+04  0.7818609E-02  0.8352110E-01
       -2   -1    0    0    0  501  0.00000000000E+00  0.00000000000E+00  0.94343068838E+03  0.94343068839E+03  0.25500000920E-02 0. -1.
        2   -1    0    0  501    0  0.00000000000E+00  0.00000000000E+00 -0.18579475679E+04  0.18579475679E+04  0.25500000920E-02 0.  1.
    10030    2    1    2    0    0  0.00000000000E+00  0.00000000000E+00 -0.91451687951E+03  0.28013782563E+04  0.26479008690E+04 0.  0.
        5    1    3    3  502    0  0.13216078315E+04 -0.63708083969E+02 -0.50593253896E+03  0.14165789085E+04  0.46999998093E+01 0.  1.
       -5    1    3    3    0  502 -0.13216078315E+04  0.63708083969E+02 -0.40858434055E+03  0.13847993477E+04  0.46999998093E+01 0. -1.
</event>
<event>
 5   0  0.2516518E-05  0.2811387E+04  0.7818609E-02  0.8299742E-01
        2   -1    0    0  501    0  0.00000000000E+00  0.00000000000E+00  0.96488917675E+03  0.96488917676E+03  0.25500000920E-02 0. -1.
       -2   -1    0    0    0  501  0.00000000000E+00  0.00000000000E+00 -0.20478765110E+04  0.20478765111E+04  0.25500000920E-02 0.  1.
    10030    2    1    2    0    0  0.00000000000E+00  0.00000000000E+00 -0.10829873343E+04  0.30127656878E+04  0.28113867616E+04 0.  0.
        4    1    3    3  502    0 -0.11296093947E+04  0.68805278297E+03 -0.31440401191E+02  0.13230359514E+04  0.12699999809E+01 0.  1.
       -4    1    3    3    0  502  0.11296093947E+04 -0.68805278297E+03 -0.10515469331E+04  0.16897297365E+04  0.12699999809E+01 0. -1.
</event>
<event>
 5   0  0.2641216E-05  0.2665311E+04  0.7818609E-02  0.8346349E-01
       -2   -1    0    0    0  501  0.00000000000E+00  0.00000000000E+00  0.11221607213E+04  0.11221607213E+04  0.25500000920E-02 0.  1.
        2   -1    0    0  501    0  0.00000000000E+00  0.00000000000E+00 -0.15826351186E+04  0.15826351186E+04  0.25500000920E-02 0. -1.
    10030    2    1    2    0    0  0.00000000000E+00  0.00000000000E+00 -0.46047439731E+03  0.27047958400E+04  0.26653112136E+04 0.  0.
        5    1    3    3  502    0 -0.35027016897E+03 -0.17880723174E+03 -0.15223981176E+04  0.15723801499E+04  0.46999998093E+01 0. -1.
       -5    1    3    3    0  502  0.35027016897E+03  0.17880723174E+03  0.10619237203E+04  0.11324156901E+04  0.46999998093E+01 0.  1.
</event>
<event>
 5   0  0.2641216E-05  0.2055268E+04  0.7818609E-02  0.8581208E-01
       -2   -1    0    0    0  501  0.00000000000E+00  0.00000000000E+00  0.92019217997E+03  0.92019217997E+03  0.25500000920E-02 0. -1.
        2   -1    0    0  501    0  0.00000000000E+00  0.00000000000E+00 -0.11476205157E+04  0.11476205157E+04  0.25500000920E-02 0.  1.
    10030    2    1    2    0    0  0.00000000000E+00  0.00000000000E+00 -0.22742833569E+03  0.20678126956E+04  0.20552677919E+04 0.  0.
        5    1    3    3  502    0 -0.69016011287E+03  0.18797170142E+03 -0.85602173190E+03  0.11155490296E+04  0.46999998093E+01 0.  1.
       -5    1    3    3    0  502  0.69016011287E+03 -0.18797170142E+03  0.62859339620E+03  0.95226366605E+03  0.46999998093E+01 0. -1.
</event>
<event>
 5   0  0.8740500E-06  0.2697817E+04  0.7818609E-02  0.8335714E-01
       -4   -1    0    0    0  501  0.00000000000E+00  0.00000000000E+00  0.12078083208E+04  0.12078089885E+04  0.12699999809E+01 0.  1.
        4   -1    0    0  501    0  0.00000000000E+00  0.00000000000E+00 -0.15064909905E+04  0.15064915258E+04  0.12699999809E+01 0. -1.
    10030    2    1    2    0    0  0.00000000000E+00  0.00000000000E+00 -0.29868266969E+03  0.27143005143E+04  0.26978168849E+04 0.  0.
        5    1    3    3  502    0  0.33365499042E+03  0.31948981039E+03 -0.14244175545E+04  0.14974601334E+04  0.46999998093E+01 0. -1.
       -5    1    3    3    0  502 -0.33365499042E+03 -0.31948981039E+03  0.11257348848E+04  0.12168403809E+04  0.46999998093E+01 0.  1.
</event>
<event>
 5   0  0.2540232E-05  0.2702934E+04  0.7818609E-02  0.8334054E-01
        2   -1    0    0  501    0  0.00000000000E+00  0.00000000000E+00  0.13164993738E+04  0.13164993738E+04  0.25500000920E-02 0. -1.
       -2   -1    0    0    0  501  0.00000000000E+00  0.00000000000E+00 -0.13873630630E+04  0.13873630630E+04  0.25500000920E-02 0.  1.
    10030    2    1    2    0    0  0.00000000000E+00  0.00000000000E+00 -0.70863689172E+02  0.27038624368E+04  0.27029336682E+04 0.  0.
        1    1    3    3  502    0  0.52684338721E+02 -0.16855034714E+03 -0.13757719974E+04  0.13870592806E+04  0.50400001928E-02 0.  1.
       -1    1    3    3    0  502 -0.52684338721E+02  0.16855034714E+03  0.13049083082E+04  0.13168031561E+04  0.50400001928E-02 0. -1.
</event>
<event>
 5   0  0.9971923E-06  0.2707127E+04  0.7818609E-02  0.8332696E-01
       -1   -1    0    0    0  501  0.00000000000E+00  0.00000000000E+00  0.99072655819E+03  0.99072655820E+03  0.50400001928E-02 0.  1.
        1   -1    0    0  501    0  0.00000000000E+00  0.00000000000E+00 -0.18492831479E+04  0.18492831479E+04  0.50400001928E-02 0. -1.
    10030    2    1    2    0    0  0.00000000000E+00  0.00000000000E+00 -0.85855658971E+03  0.28400097061E+04  0.27071268373E+04 0.  0.
        2    1    3    3  502    0 -0.20247474042E+03  0.86849098979E+03  0.63896839149E+03  0.10970657342E+04  0.25500000920E-02 0.  1.
       -2    1    3    3    0  502  0.20247474042E+03 -0.86849098979E+03 -0.14975249812E+04  0.17429439719E+04  0.25500000920E-02 0. -1.
</event>
<event>
 5   0  0.2516518E-05  0.2649325E+04  0.7818609E-02  0.8351637E-01
       -2   -1    0    0    0  501  0.00000000000E+00  0.00000000000E+00  0.14127674462E+04  0.14127674462E+04  0.25500000920E-02 0. -1.
        2   -1    0    0  501    0  0.00000000000E+00  0.00000000000E+00 -0.12420516322E+04  0.12420516322E+04  0.25500000920E-02 0.  1.
    10030    2    1    2    0    0  0.00000000000E+00  0.00000000000E+00  0.17071581393E+03  0.26548190784E+04  0.26493245271E+04 0.  0.
        4    1    3    3  502    0  0.35172397976E+02  0.47313440767E+03 -0.11539913456E+04  0.12477142718E+04  0.12699999809E+01 0.  1.
       -4    1    3    3    0  502 -0.35172397976E+02 -0.47313440767E+03  0.13247071596E+04  0.14071048066E+04  0.12699999809E+01 0. -1.
</event>
<event>
 5   0  0.1005265E-05  0.2811587E+04  0.7818609E-02  0.8299680E-01
        1   -1    0    0  501    0  0.00000000000E+00  0.00000000000E+00  0.17959464871E+04  0.17959464871E+04  0.50400001928E-02 0.  1.
       -1   -1    0    0    0  501  0.00000000000E+00  0.00000000000E+00 -0.11003979874E+04  0.11003979874E+04  0.50400001928E-02 0. -1.
    10030    2    1    2    0    0  0.00000000000E+00  0.00000000000E+00  0.69554849971E+03  0.28963444744E+04  0.28115873807E+04 0.  0.
        3    1    3    3  502    0 -0.71572257789E+03 -0.12080454032E+04  0.41781949337E+03  0.14649933938E+04  0.10100000352E+00 0. -1.
       -3    1    3    3    0  502  0.71572257789E+03  0.12080454032E+04  0.27772900634E+03  0.14313510806E+04  0.10100000352E+00 0.  1.
</event>
<event>
 5   0  0.2615843E-05  0.2682649E+04  0.7818609E-02  0.8340657E-01
        2   -1    0    0  501    0  0.00000000000E+00  0.00000000000E+00  0.21503944569E+04  0.21503944569E+04  0.25500000920E-02 0.  1.
       -2   -1    0    0    0  501  0.00000000000E+00  0.00000000000E+00 -0.83666097193E+03  0.83666097194E+03  0.25500000920E-02 0. -1.
    10030    2    1    2    0    0  0.00000000000E+00  0.00000000000E+00  0.13137334850E+04  0.29870554289E+04  0.26826487779E+04 0.  0.
        3    1    3    3  502    0  0.12049153681E+04 -0.57229254866E+03  0.81359090511E+03  0.15624563919E+04  0.10100000352E+00 0.  1.
       -3    1    3    3    0  502 -0.12049153681E+04  0.57229254866E+03  0.50014257991E+03  0.14245990369E+04  0.10100000352E+00 0. -1.
</event>
<event>
 5   0  0.1036691E-05  0.2226583E+04  0.7818609E-02  0.8507444E-01
       -1   -1    0    0    0  501  0.00000000000E+00  0.00000000000E+00  0.84809498678E+03  0.84809498680E+03  0.50400001928E-02 0.  1.
        1   -1    0    0  501    0  0.00000000000E+00  0.00000000000E+00 -0.14614145728E+04  0.14614145728E+04  0.50400001928E-02 0. -1.
    10030    2    1    2    0    0  0.00000000000E+00  0.00000000000E+00 -0.61331958602E+03  0.23095095596E+04  0.22265833673E+04 0.  0.
        4    1    3    3  502    0 -0.11837072777E+03  0.51944357177E+03 -0.13206064934E+04  0.14240211996E+04  0.12699999809E+01 0. -1.
       -4    1    3    3    0  502  0.11837072777E+03 -0.51944357177E+03  0.70728690741E+03  0.88548836003E+03  0.12699999809E+01 0.  1.
</event>
<event>
 5   0  0.2540232E-05  0.2706753E+04  0.7818609E-02  0.8332817E-01
       -2   -1    0    0    0  501  0.00000000000E+00  0.00000000000E+00  0.96537997623E+03  0.96537997624E+03  0.25500000920E-02 0. -1.
        2   -1    0    0  501    0  0.00000000000E+00  0.00000000000E+00 -0.18973128931E+04  0.18973128931E+04  0.25500000920E-02 0.  1.
    10030    2    1    2    0    0  0.00000000000E+00  0.00000000000E+00 -0.93193291686E+03  0.28626928693E+04  0.27067529445E+04 0.  0.
        1    1    3    3  502    0  0.13291059875E+04 -0.25225850221E+03 -0.42540602385E+03  0.14181422225E+04  0.50400001928E-02 0.  1.
       -1    1    3    3    0  502 -0.13291059875E+04  0.25225850221E+03 -0.50652689300E+03  0.14445506469E+04  0.50400001928E-02 0. -1.
</event>
<event>
 5   0  0.1041909E-05  0.2101412E+04  0.7818609E-02  0.8560622E-01
       -1   -1    0    0    0  501  0.00000000000E+00  0.00000000000E+00  0.61388789570E+03  0.61388789572E+03  0.50400001928E-02 0. -1.
        1   -1    0    0  501    0  0.00000000000E+00  0.00000000000E+00 -0.17983457802E+04  0.17983457803E+04  0.50400001928E-02 0.  1.
    10030    2    1    2    0    0  0.00000000000E+00  0.00000000000E+00 -0.11844578845E+04  0.24122336760E+04  0.21014116273E+04 0.  0.
        5    1    3    3  502    0  0.65676740976E+03  0.79865381015E+03 -0.80627443166E+03  0.13112177120E+04  0.46999998093E+01 0. -1.
       -5    1    3    3    0  502 -0.65676740976E+03 -0.79865381015E+03 -0.37818345289E+03  0.11010159640E+04  0.46999998093E+01 0.  1.
</event>
<event>
 5   0  0.1036691E-05  0.1718938E+04  0.7818609E-02  0.8750637E-01
       -1   -1    0    0    0  501  0.00000000000E+00  0.00000000000E+00  0.82478023935E+03  0.82478023937E+03  0.50400001928E-02 0. -1.
        1   -1    0    0  501    0  0.00000000000E+00  0.00000000000E+00 -0.89561649186E+03  0.89561649188E+03  0.50400001928E-02 0.  1.
    10030    2    1    2    0    0  0.00000000000E+00  0.00000000000E+00 -0.70836252509E+02  0.17203967312E+04  0.17189377936E+04 0.  0.
        4    1    3    3  502    0 -0.62109183873E+03  0.33756180286E+03  0.45385477314E+03  0.84005286196E+03  0.12699999809E+01 0. -1.
       -4    1    3    3    0  502  0.62109183873E+03 -0.33756180286E+03 -0.52469102565E+03  0.88034386928E+03  0.12699999809E+01 0.  1.
</event>
<event>
 5   0  0.2615843E-05  0.2751769E+04  0.7818609E-02  0.8318401E-01
       -2   -1    0    0    0  501  0.00000000000E+00  0.00000000000E+00  0.87294718263E+03  0.87294718264E+03  0.25500000920E-02 0.  1.
        2   -1    0    0  501    0  0.00000000000E+00  0.00000000000E+00 -0.21685822860E+04  0.21685822860E+04  0.25500000920E-02 0. -1.
    10030    2    1    2    0    0  0.00000000000E+00  0.00000000000E+00 -0.12956351034E+04  0.30415294687E+04  0.27517687380E+04 0.  0.
        3    1    3    3  502    0 -0.28734582795E+02 -0.24189004335E+03  0.84892381926E+03  0.88318068957E+03  0.10100000352E+00 0.  1.
       -3    1    3    3    0  502  0.28734582795E+02  0.24189004335E+03 -0.21445589226E+04  0.21583487791E+04  0.10100000352E+00 0. -1.
</event>
<event>
 5   0  0.1041909E-05  0.2645518E+04  0.7818609E-02  0.8352902E-01
        1   -1    0    0  501    0  0.00000000000E+00  0.00000000000E+00  0.17038827680E+04  0.17038827680E+04  0.50400001928E-02 0. -1.
       -1   -1    0    0    0  501  0.00000000000E+00  0.00000000000E+00 -0.10268845434E+04  0.10268845434E+04  0.50400001928E-02 0.  1.
    10030    2    1    2    0    0  0.00000000000E+00  0.00000000000E+00  0.67699822468E+03  0.27307673114E+04  0.26455176266E+04 0.  0.
        5    1    3    3  502    0 -0.90682163626E+03 -0.11772703008E+03 -0.64806298509E+03  0.11208000965E+04  0.46999998093E+01 0.  1.
       -5    1    3    3    0  502  0.90682163626E+03  0.11772703008E+03  0.13250612098E+04  0.16099672150E+04  0.46999998093E+01 0. -1.
</event>
<event>
 5   0  0.1005265E-05  0.2689281E+04  0.7818609E-02  0.8338491E-01
       -1   -1    0    0    0  501  0.00000000000E+00  0.00000000000E+00  0.99354328749E+03  0.99354328751E+03  0.50400001928E-02 0.  1.
        1   -1    0    0  501    0  0.00000000000E+00  0.00000000000E+00 -0.18198080287E+04  0.18198080287E+04  0.50400001928E-02 0. -1.
    10030    2    1    2    0    0  0.00000000000E+00  0.00000000000E+00 -0.82626474118E+03  0.28133513162E+04  0.26892809830E+04 0.  0.
        3    1    3    3  502    0  0.27667001174E+03 -0.10179049315E+04  0.45923475211E+03  0.11504665630E+04  0.10100000352E+00 0.  1.
       -3    1    3    3    0  502 -0.27667001174E+03  0.10179049315E+04 -0.12854994933E+04  0.16628847532E+04  0.10100000352E+00 0. -1.
</event>
<event>
 5   0  0.9971923E-06  0.2760910E+04  0.7818609E-02  0.8315508E-01
        1   -1    0    0  501    0  0.00000000000E+00  0.00000000000E+00  0.29199010128E+04  0.29199010128E+04  0.50400001928E-02 0. -1.
       -1   -1    0    0    0  501  0.00000000000E+00  0.00000000000E+00 -0.65264413339E+03  0.65264413341E+03  0.50400001928E-02 0.  1.
    10030    2    1    2    0    0  0.00000000000E+00  0.00000000000E+00  0.22672568794E+04  0.35725451462E+04  0.27609101877E+04 0.  0.
        2    1    3    3  502    0  0.35664985867E+03  0.10766678494E+03  0.28536232292E+04  0.28778389101E+04  0.25500000920E-02 0. -1.
       -2    1    3    3    0  502 -0.35664985867E+03 -0.10766678494E+03 -0.58636634981E+03  0.69470623609E+03  0.25500000920E-02 0.  1.
</event>
<event>
 5   0  0.2540684E-05  0.2663249E+04  0.7818609E-02  0.8347029E-01
        2   -1    0    0  501    0  0.00000000000E+00  0.00000000000E+00  0.24697611375E+04  0.24697611375E+04  0.25500000920E-02 0. -1.
       -2   -1    0    0    0  501  0.00000000000E+00  0.00000000000E+00 -0.71797383263E+03  0.71797383264E+03  0.25500000920E-02 0.  1.
    10030    2    1    2    0    0  0.00000000000E+00  0.00000000000E+00  0.17517873048E+04  0.31877349701E+04  0.26632490455E+04 0.  0.
        2    1    3    3  502    0 -0.12299206254E+03  0.24887224986E+03  0.24347416224E+04  0.24505165194E+04  0.25500000920E-02 0. -1.
       -2    1    3    3    0  502  0.12299206254E+03 -0.24887224986E+03 -0.68295431754E+03  0.73721845070E+03  0.25500000920E-02 0.  1.
</event>
<event>
 5   0  0.9971923E-06  0.2724712E+04  0.7818609E-02  0.8327031E-01
       -1   -1    0    0    0  501  0.00000000000E+00  0.00000000000E+00  0.69132738399E+03  0.69132738401E+03  0.50400001928E-02 0.  1.
        1   -1    0    0  501    0  0.00000000000E+00  0.00000000000E+00 -0.26847097073E+04  0.26847097073E+04  0.50400001928E-02 0. -1.
    10030    2    1    2    0    0  0.00000000000E+00  0.00000000000E+00 -0.19933823233E+04  0.33760370913E+04  0.27247116095E+04 0.  0.
        2    1    3    3  502    0 -0.44966069002E+03 -0.67597114213E+02  0.59452731339E+03  0.74848302076E+03  0.25500000920E-02 0.  1.
       -2    1    3    3    0  502  0.44966069002E+03  0.67597114213E+02 -0.25879096367E+04  0.26275540705E+04  0.25500000920E-02 0. -1.
</event>
<event>
 5   0  0.9971923E-06  0.2713788E+04  0.7818609E-02  0.8330545E-01
        1   -1    0    0  501    0  0.00000000000E+00  0.00000000000E+00  0.20448266044E+04  0.20448266044E+04  0.50400001928E-02 0. -1.
       -1   -1    0    0    0  501  0.00000000000E+00  0.00000000000E+00 -0.90039971196E+03  0.90039971197E+03  0.50400001928E-02 0.  1.
    10030    2    1    2    0    0  0.00000000000E+00  0.00000000000E+00  0.11444268924E+04  0.29452263164E+04  0.27137879693E+04 0.  0.
        2    1    3    3  502    0  0.11057213254E+03  0.79747929980E+03 -0.61316230357E+03  0.10120115813E+04  0.25500000920E-02 0.  1.
       -2    1    3    3    0  502 -0.11057213254E+03 -0.79747929980E+03  0.17575891960E+04  0.19332147351E+04  0.25500000920E-02 0. -1.
</event>
<event>
 5   0  0.1005265E-05  0.2691675E+04  0.7818609E-02  0.8337711E-01
       -1   -1    0    0    0  501  0.00000000000E+00  0.00000000000E+00  0.10264764064E+04  0.10264764064E+04  0.50400001928E-02 0. -1.
        1   -1    0    0  501    0  0.00000000000E+00  0.00000000000E+00 -0.17645592855E+04  0.17645592856E+04  0.50400001928E-02 0.  1.
    10030    2    1    2    0    0  0.00000000000E+00  0.00000000000E+00 -0.73808287913E+03  0.27910356920E+04  0.26916749242E+04 0.  0.
        3    1    3    3  502    0  0.25655101302E+03  0.45927866255E+03  0.91544494251E+03  0.10558384181E+04  0.10100000352E+00 0. -1.
       -3    1    3    3    0  502 -0.25655101302E+03 -0.45927866255E+03 -0.16535278216E+04  0.17351972739E+04  0.10100000352E+00 0.  1.
</event>
<event>
 5   0  0.2540232E-05  0.2686123E+04  0.7818609E-02  0.8339522E-01
       -2   -1    0    0    0  501  0.00000000000E+00  0.00000000000E+00  0.91187408624E+03  0.91187408624E+03  0.25500000920E-02 0. -1.
        2   -1    0    0  501    0  0.00000000000E+00  0.00000000000E+00 -0.19781394378E+04  0.19781394378E+04  0.25500000920E-02 0.  1.
    10030    2    1    2    0    0  0.00000000000E+00  0.00000000000E+00 -0.10662653516E+04  0.28900135241E+04  0.26861229252E+04 0.  0.
        1    1    3    3  502    0  0.47364616646E+03  0.59294001410E+03 -0.17253480083E+04  0.18848724893E+04  0.50400001928E-02 0.  1.
       -1    1    3    3    0  502 -0.47364616646E+03 -0.59294001410E+03  0.65908265670E+03  0.10051410347E+04  0.50400001928E-02 0. -1.
</event>
<event>
 5   0  0.2516518E-05  0.2658136E+04  0.7818609E-02  0.8348717E-01
       -2   -1    0    0    0  501  0.00000000000E+00  0.00000000000E+00  0.12010928503E+04  0.12010928503E+04  0.25500000920E-02 0.  1.
        2   -1    0    0  501    0  0.00000000000E+00  0.00000000000E+00 -0.14706790811E+04  0.14706790811E+04  0.25500000920E-02 0. -1.
    10030    2    1    2    0    0  0.00000000000E+00  0.00000000000E+00 -0.26958623082E+03  0.26717719314E+04  0.26581362865E+04 0.  0.
        4    1    3    3  502    0  0.54049820063E+01  0.56455219310E+03 -0.13441576955E+04  0.14579128629E+04  0.12699999809E+01 0. -1.
       -4    1    3    3    0  502 -0.54049820063E+01 -0.56455219310E+03  0.10745714647E+04  0.12138590685E+04  0.12699999809E+01 0.  1.
</event>
<event>
 5   0  0.1096672E-05  0.2679213E+04  0.7818609E-02  0.8341781E-01
       -1   -1    0    0    0  501  0.00000000000E+00  0.00000000000E+00  0.15467114339E+04  0.15467114339E+04  0.50400001928E-02 0. -1.
        1   -1    0    0  501    0  0.00000000000E+00  0.00000000000E+00 -0.11602329120E+04  0.11602329121E+04  0.50400001928E-02 0.  1.
    10030    2    1    2    0    0  0.00000000000E+00  0.00000000000E+00  0.38647852188E+03  0.27069443460E+04  0.26792129524E+04 0.  0.
        1    1    3    3  502    0 -0.11076874248E+03  0.11977074881E+04 -0.40258715666E+03  0.12684042574E+04  0.50400001928E-02 0.  1.
       -1    1    3    3    0  502  0.11076874248E+03 -0.11977074881E+04  0.78906567854E+03  0.14385400886E+04  0.50400001928E-02 0. -1.
</event>
<event>
 5   0  0.2540232E-05  0.2745073E+04  0.7818609E-02  0.8320527E-01
        2   -1    0    0  501    0  0.00000000000E+00  0.00000000000E+00  0.16835424923E+04  0.16835424923E+04  0.25500000920E-02 0. -1.
       -2   -1    0    0    0  501  0.00000000000E+00  0.00000000000E+00 -0.11189834745E+04  0.11189834745E+04  0.25500000920E-02 0.  1.
    10030    2    1    2    0    0  0.00000000000E+00  0.00000000000E+00  0.56455901776E+03  0.28025259668E+04  0.27450728424E+04 0.  0.
        1    1    3    3  502    0 -0.13501837165E+04  0.18082767493E+03  0.45360569636E+03  0.14357760424E+04  0.50400001928E-02 0. -1.
       -1    1    3    3    0  502  0.13501837165E+04 -0.18082767493E+03  0.11095332141E+03  0.13667499244E+04  0.50400001928E-02 0.  1.
</event>
<event>
 5   0  0.2516518E-05  0.2737275E+04  0.7818609E-02  0.8323011E-01
        2   -1    0    0  501    0  0.00000000000E+00  0.00000000000E+00  0.21031975942E+04  0.21031975942E+04  0.25500000920E-02 0.  1.
       -2   -1    0    0    0  501  0.00000000000E+00  0.00000000000E+00 -0.89062867427E+03  0.89062867428E+03  0.25500000920E-02 0. -1.
    10030    2    1    2    0    0  0.00000000000E+00  0.00000000000E+00  0.12125689199E+04  0.29938262685E+04  0.27372746191E+04 0.  0.
        4    1    3    3  502    0 -0.11973244052E+04 -0.65088482087E+03  0.74432666817E+03  0.15528234230E+04  0.12699999809E+01 0.  1.
       -4    1    3    3    0  502  0.11973244052E+04  0.65088482087E+03  0.46824225175E+03  0.14410028454E+04  0.12699999809E+01 0. -1.
</event>
<event>
 5   0  0.2641216E-05  0.2259582E+04  0.7818609E-02  0.8494030E-01
       -2   -1    0    0    0  501  0.00000000000E+00  0.00000000000E+00  0.12012828559E+04  0.12012828559E+04  0.25500000920E-02 0.  1.
        2   -1    0    0  501    0  0.00000000000E+00  0.00000000000E+00 -0.10625540741E+04  0.10625540741E+04  0.25500000920E-02 0. -1.
    10030    2    1    2    0    0  0.00000000000E+00  0.00000000000E+00  0.13872878186E+03  0.22638369300E+04  0.22595822558E+04 0.  0.
        5    1    3    3  502    0 -0.89181510705E+03 -0.49806714084E+03 -0.41424611708E+03  0.11022826305E+04  0.46999998093E+01 0. -1.
       -5    1    3    3    0  502  0.89181510705E+03  0.49806714084E+03  0.55297489894E+03  0.11615542995E+04  0.46999998093E+01 0.  1.
</event>
<event>
 5   0  0.2540232E-05  0.2710044E+04  0.7818609E-02  0.8331753E-01
        2   -1    0    0  501    0  0.00000000000E+00  0.00000000000E+00  0.64717026652E+03  0.64717026652E+03  0.25500000920E-02 0.  1.
       -2   -1    0    0    0  501  0.00000000000E+00  0.00000000000E+00 -0.28370962299E+04  0.28370962299E+04  0.25500000920E-02 0. -1.
    10030    2    1    2    0    0  0.00000000000E+00  0.00000000000E+00 -0.21899259634E+04  0.34842664964E+04  0.27100437806E+04 0.  0.
        1    1    3    3  502    0  0.11206858878E+04 -0.40679691906E+03 -0.19228728961E+04  0.22624899484E+04  0.50400001928E-02 0. -1.
       -1    1    3    3    0  502 -0.11206858878E+04  0.40679691906E+03 -0.26705306733E+03  0.12217765480E+04  0.50400001928E-02 0.  1.
</event>
<event>
 5   0  0.2641216E-05  0.2198201E+04  0.7818609E-02  0.8519177E-01
        2   -1    0    0  501    0  0.00000000000E+00  0.00000000000E+00  0.14072537258E+04  0.14072537258E+04  0.25500000920E-02 0. -1.
       -2   -1    0    0    0  501  0.00000000000E+00  0.00000000000E+00 -0.85842545982E+03  0.85842545983E+03  0.25500000920E-02 0.  1.
    10030    2    1    2    0    0  0.00000000000E+00  0.00000000000E+00  0.54882826601E+03  0.22656791857E+04  0.21982014709E+04 0.  0.
        5    1    3    3  502    0 -0.50724784585E+03  0.79578232430E+03  0.85511866373E+03  0.12735069312E+04  0.46999998093E+01 0. -1.
       -5    1    3    3    0  502  0.50724784585E+03 -0.79578232430E+03 -0.30629039772E+03  0.99217225446E+03  0.46999998093E+01 0.  1.
</event>
<event>
 5   0  0.2540232E-05  0.2719064E+04  0.7818609E-02  0.8328846E-01
       -2   -1    0    0    0  501  0.00000000000E+00  0.00000000000E+00  0.11409837478E+04  0.11409837478E+04  0.25500000920E-02 0.  1.
        2   -1    0    0  501    0  0.00000000000E+00  0.00000000000E+00 -0.16199421397E+04  0.16199421397E+04  0.25500000920E-02 0. -1.
    10030    2    1    2    0    0  0.00000000000E+00  0.00000000000E+00 -0.47895839195E+03  0.27609258875E+04  0.27190642904E+04 0.  0.
        1    1    3    3  502    0 -0.89421156437E+03  0.47046047602E+03  0.68412916004E+03  0.12202377182E+04  0.50400001928E-02 0.  1.
       -1    1    3    3    0  502  0.89421156437E+03 -0.47046047602E+03 -0.11630875520E+04  0.15406881693E+04  0.50400001928E-02 0. -1.
</event>
<event>
 5   0  0.1036691E-05  0.2650296E+04  0.7818609E-02  0.8351315E-01
        1   -1    0    0  501    0  0.00000000000E+00  0.00000000000E+00  0.16929119281E+04  0.16929119281E+04  0.50400001928E-02 0. -1.
       -1   -1    0    0    0  501  0.00000000000E+00  0.00000000000E+00 -0.10372758360E+04  0.10372758360E+04  0.50400001928E-02 0.  1.
    10030    2    1    2    0    0  0.00000000000E+00  0.00000000000E+00  0.65563609211E+03  0.27301877641E+04  0.26502955575E+04 0.  0.
        4    1    3    3  502    0  0.56980681093E+02 -0.12518449202E+04 -0.11604463515E+03  0.12585032667E+04  0.12699999809E+01 0.  1.
       -4    1    3    3    0  502 -0.56980681093E+02  0.12518449202E+04  0.77168072727E+03  0.14716844974E+04  0.12699999809E+01 0. -1.
</event>
<event>
 5   0  0.1005265E-05  0.2717335E+04  0.7818609E-02  0.8329402E-01
       -1   -1    0    0    0  501  0.00000000000E+00  0.00000000000E+00  0.10153949946E+04  0.10153949946E+04  0.50400001928E-02 0. -1.
        1   -1    0    0  501    0  0.00000000000E+00  0.00000000000E+00 -0.18179897036E+04  0.18179897036E+04  0.50400001928E-02 0.  1.
    10030    2    1    2    0    0  0.00000000000E+00  0.00000000000E+00 -0.80259470901E+03  0.28333846982E+04  0.27173351986E+04 0.  0.
        3    1    3    3  502    0 -0.54175770721E+03  0.48943696431E+03  0.79346830655E+03  0.10782587440E+04  0.10100000352E+00 0. -1.
       -3    1    3    3    0  502  0.54175770721E+03 -0.48943696431E+03 -0.15960630156E+04  0.17551259542E+04  0.10100000352E+00 0.  1.
</event>
<event>
 5   0  0.2540232E-05  0.1815510E+04  0.7818609E-02  0.8698095E-01
        2   -1    0    0  501    0  0.00000000000E+00  0.00000000000E+00  0.66244290903E+03  0.66244290904E+03  0.25500000920E-02 0. -1.
       -2   -1    0    0    0  501  0.00000000000E+00  0.00000000000E+00 -0.12439091264E+04  0.12439091264E+04  0.25500000920E-02 0.  1.
    10030    2    1    2    0    0  0.00000000000E+00  0.00000000000E+00 -0.58146621735E+03  0.19063520354E+04  0.18155096037E+04 0.  0.
        1    1    3    3  502    0  0.22544152949E+03  0.29809085410E+02  0.63204938111E+03  0.67171339497E+03  0.50400001928E-02 0. -1.
       -1    1    3    3    0  502 -0.22544152949E+03 -0.29809085410E+02 -0.12135155985E+04  0.12346386405E+04  0.50400001928E-02 0.  1.
</event>
<event>
 5   0  0.9971923E-06  0.2799195E+04  0.7818609E-02  0.8303518E-01
        1   -1    0    0  501    0  0.00000000000E+00  0.00000000000E+00  0.14735332371E+04  0.14735332371E+04  0.50400001928E-02 0.  1.
       -1   -1    0    0    0  501  0.00000000000E+00  0.00000000000E+00 -0.13293715660E+04  0.13293715660E+04  0.50400001928E-02 0. -1.
    10030    2    1    2    0    0  0.00000000000E+00  0.00000000000E+00  0.14416167107E+03  0.28029048030E+04  0.27991950178E+04 0.  0.
        2    1    3    3  502    0 -0.74650401932E+03  0.10776015626E+04 -0.41885437747E+03  0.13762021538E+04  0.25500000920E-02 0. -1.
       -2    1    3    3    0  502  0.74650401932E+03 -0.10776015626E+04  0.56301604854E+03  0.14267026493E+04  0.25500000920E-02 0.  1.
</event>
<event>
 5   0  0.2540684E-05  0.2718630E+04  0.7818609E-02  0.8328985E-01
       -2   -1    0    0    0  501  0.00000000000E+00  0.00000000000E+00  0.12146455683E+04  0.12146455683E+04  0.25500000920E-02 0. -1.
        2   -1    0    0  501    0  0.00000000000E+00  0.00000000000E+00 -0.15212154501E+04  0.15212154501E+04  0.25500000920E-02 0.  1.
    10030    2    1    2    0    0  0.00000000000E+00  0.00000000000E+00 -0.30656988185E+03  0.27358610184E+04  0.27186302469E+04 0.  0.
        2    1    3    3  502    0  0.12413443820E+04 -0.40441151702E+03  0.22760178134E+03  0.13252498333E+04  0.25500000920E-02 0. -1.
       -2    1    3    3    0  502 -0.12413443820E+04  0.40441151702E+03 -0.53417166319E+03  0.14106111851E+04  0.25500000920E-02 0.  1.
</event>
<event>
 5   0  0.1036691E-05  0.2645569E+04  0.7818609E-02  0.8352885E-01
        1   -1    0    0  501    0  0.00000000000E+00  0.00000000000E+00  0.11793082797E+04  0.11793082797E+04  0.50400001928E-02 0.  1.
       -1   -1    0    0    0  501  0.00000000000E+00  0.00000000000E+00 -0.14837164628E+04  0.14837164628E+04  0.50400001928E-02 0. -1.
    10030    2    1    2    0    0  0.00000000000E+00  0.00000000000E+00 -0.30440818313E+03  0.26630247425E+04  0.26455692085E+04 0.  0.
        4    1    3    3  502    0 -0.79303174554E+03 -0.95396647047E+03  0.30996157767E+03  0.12786825911E+04  0.12699999809E+01 0. -1.
       -4    1    3    3    0  502  0.79303174554E+03  0.95396647047E+03 -0.61436976080E+03  0.13843421514E+04  0.12699999809E+01 0.  1.
</event>
<event>
 5   0  0.2641216E-05  0.2726331E+04  0.7818609E-02  0.8326512E-01
        2   -1    0    0  501    0  0.00000000000E+00  0.00000000000E+00  0.15291282175E+04  0.15291282175E+04  0.25500000920E-02 0.  1.
       -2   -1    0    0    0  501  0.00000000000E+00  0.00000000000E+00 -0.12152156931E+04  0.12152156931E+04  0.25500000920E-02 0. -1.
    10030    2    1    2    0    0  0.00000000000E+00  0.00000000000E+00  0.31391252441E+03  0.27443439106E+04  0.27263313127E+04 0.  0.
        5    1    3    3  502    0  0.86230369196E+03  0.42716595147E+03  0.11288195119E+04  0.14833387974E+04  0.46999998093E+01 0.  1.
       -5    1    3    3    0  502 -0.86230369196E+03 -0.42716595147E+03 -0.81490698754E+03  0.12610051132E+04  0.46999998093E+01 0. -1.
</event>
<event>
 5   0  0.1036691E-05  0.2725096E+04  0.7818609E-02  0.8326908E-01
       -1   -1    0    0    0  501  0.00000000000E+00  0.00000000000E+00  0.20250773890E+04  0.20250773890E+04  0.50400001928E-02 0.  1.
        1   -1    0    0  501    0  0.00000000000E+00  0.00000000000E+00 -0.91677312391E+03  0.91677312393E+03  0.50400001928E-02 0. -1.
    10030    2    1    2    0    0  0.00000000000E+00  0.00000000000E+00  0.11083042650E+04  0.29418505129E+04  0.27250956123E+04 0.  0.
        4    1    3    3  502    0 -0.56089916860E+03  0.81987268275E+03 -0.45262312579E+03  0.10916356536E+04  0.12699999809E+01 0. -1.
       -4    1    3    3    0  502  0.56089916860E+03 -0.81987268275E+03  0.15609273908E+04  0.18502148593E+04  0.12699999809E+01 0.  1.
</event>
<event>
 5   0  0.2540232E-05  0.2395173E+04  0.7818609E-02  0.8441313E-01
        2   -1    0    0  501    0  0.00000000000E+00  0.00000000000E+00  0.19850674961E+04  0.19850674962E+04  0.25500000920E-02 0.  1.
       -2   -1    0    0    0  501  0.00000000000E+00  0.00000000000E+00 -0.72250130134E+03  0.72250130134E+03  0.25500000920E-02 0. -1.
    10030    2    1    2    0    0  0.00000000000E+00  0.00000000000E+00  0.12625661948E+04  0.27075687975E+04  0.23951733542E+04 0.  0.
        1    1    3    3  502    0 -0.33464601980E+03 -0.65577420120E+03  0.16990347994E+04  0.18516876116E+04  0.50400001928E-02 0.  1.
       -1    1    3    3    0  502  0.33464601980E+03  0.65577420120E+03 -0.43646860456E+03  0.85588118587E+03  0.50400001928E-02 0. -1.
</event>
<event>
 5   0  0.9971923E-06  0.2694345E+04  0.7818609E-02  0.8336842E-01
        1   -1    0    0  501    0  0.00000000000E+00  0.00000000000E+00  0.13888086154E+04  0.13888086154E+04  0.50400001928E-02 0. -1.
       -1   -1    0    0    0  501  0.00000000000E+00  0.00000000000E+00 -0.13067844569E+04  0.13067844569E+04  0.50400001928E-02 0.  1.
    10030    2    1    2    0    0  0.00000000000E+00  0.00000000000E+00  0.82024158572E+02  0.26955930723E+04  0.26943448274E+04 0.  0.
        2    1    3    3  502    0 -0.10223156300E+04  0.13409714336E+03  0.90845599109E+03  0.13741919731E+04  0.25500000920E-02 0. -1.
       -2    1    3    3    0  502  0.10223156300E+04 -0.13409714336E+03 -0.82643183252E+03  0.13214010992E+04  0.25500000920E-02 0.  1.
</event>
<event>
 5   0  0.9971923E-06  0.2732865E+04  0.7818609E-02  0.8324419E-01
        1   -1    0    0  501    0  0.00000000000E+00  0.00000000000E+00  0.20988813260E+04  0.20988813260E+04  0.50400001928E-02 0.  1.
       -1   -1    0    0    0  501  0.00000000000E+00  0.00000000000E+00 -0.88958727674E+03  0.88958727675E+03  0.50400001928E-02 0. -1.
    10030    2    1    2    0    0  0.00000000000E+00  0.00000000000E+00  0.12092940492E+04  0.29884686027E+04  0.27328652532E+04 0.  0.
        2    1    3    3  502    0 -0.34564198501E+03  0.81783121609E+03  0.17404561253E+04  0.19538433417E+04  0.25500000920E-02 0.  1.
       -2    1    3    3    0  502  0.34564198501E+03 -0.81783121609E+03 -0.53116207603E+03  0.10346252611E+04  0.25500000920E-02 0. -1.
</event>
<event>
 5   0  0.1005265E-05  0.2679586E+04  0.7818609E-02  0.8341659E-01
       -1   -1    0    0    0  501  0.00000000000E+00  0.00000000000E+00  0.14427832315E+04  0.14427832315E+04  0.50400001928E-02 0. -1.
        1   -1    0    0  501    0  0.00000000000E+00  0.00000000000E+00 -0.12441549632E+04  0.12441549632E+04  0.50400001928E-02 0.  1.
    10030    2    1    2    0    0  0.00000000000E+00  0.00000000000E+00  0.19862826830E+03  0.26869381947E+04  0.26795864743E+04 0.  0.
        3    1    3    3  502    0  0.85425163515E+03  0.24418655235E+02  0.11339899500E+04  0.14199561062E+04  0.10100000352E+00 0. -1.
       -3    1    3    3    0  502 -0.85425163515E+03 -0.24418655235E+02 -0.93536168165E+03  0.12669820885E+04  0.10100000352E+00 0.  1.
</event>
<event>
 5   0  0.1041909E-05  0.2622240E+04  0.7818609E-02  0.8360686E-01
       -1   -1    0    0    0  501  0.00000000000E+00  0.00000000000E+00  0.12651084471E+04  0.12651084471E+04  0.50400001928E-02 0. -1.
        1   -1    0    0  501    0  0.00000000000E+00  0.00000000000E+00 -0.13588051550E+04  0.13588051550E+04  0.50400001928E-02 0.  1.
    10030    2    1    2    0    0  0.00000000000E+00  0.00000000000E+00 -0.93696707843E+02  0.26239136021E+04  0.26222401717E+04 0.  0.
        5    1    3    3  502    0  0.17812193368E+03  0.55941868758E+02  0.12517305271E+04  0.12655861561E+04  0.46999998093E+01 0. -1.
       -5    1    3    3    0  502 -0.17812193368E+03 -0.55941868758E+02 -0.13454272350E+04  0.13583274460E+04  0.46999998093E+01 0.  1.
</event>
<event>
 5   0  0.1036691E-05  0.2671970E+04  0.7818609E-02  0.8344157E-01
       -1   -1    0    0    0  501  0.00000000000E+00  0.00000000000E+00  0.11860763789E+04  0.11860763789E+04  0.50400001928E-02 0.  1.
        1   -1    0    0  501    0  0.00000000000E+00  0.00000000000E+00 -0.15048409027E+04  0.15048409027E+04  0.50400001928E-02 0. -1.
    10030    2    1    2    0    0  0.00000000000E+00  0.00000000000E+00 -0.31876452378E+03  0.26909172816E+04  0.26719702459E+04 0.  0.
        4    1    3    3  502    0  0.10336691168E+04 -0.62044105408E+03  0.42040459663E+03  0.12767774208E+04  0.12699999809E+01 0.  1.
       -4    1    3    3    0  502 -0.10336691168E+04  0.62044105408E+03 -0.73916912041E+03  0.14141398608E+04  0.12699999809E+01 0. -1.
</event>
<event>
 5   0  0.2516518E-05  0.2733576E+04  0.7818609E-02  0.8324192E-01
       -2   -1    0    0    0  501  0.00000000000E+00  0.00000000000E+00  0.12079628120E+04  0.12079628120E+04  0.25500000920E-02 0. -1.
        2   -1    0    0  501    0  0.00000000000E+00  0.00000000000E+00 -0.15464958613E+04  0.15464958613E+04  0.25500000920E-02 0.  1.
    10030    2    1    2    0    0  0.00000000000E+00  0.00000000000E+00 -0.33853304935E+03  0.27544586733E+04  0.27335760383E+04 0.  0.
        4    1    3    3  502    0 -0.22801131321E+03 -0.43328489061E+03  0.11165629337E+04  0.12191961914E+04  0.12699999809E+01 0. -1.
       -4    1    3    3    0  502  0.22801131321E+03  0.43328489061E+03 -0.14550959831E+04  0.15352624819E+04  0.12699999809E+01 0.  1.
</event>
<event>
 5   0  0.2540232E-05  0.2694176E+04  0.7818609E-02  0.8336897E-01
        2   -1    0    0  501    0  0.00000000000E+00  0.00000000000E+00  0.13729522852E+04  0.13729522852E+04  0.25500000920E-02 0.  1.
       -2   -1    0    0    0  501  0.00000000000E+00  0.00000000000E+00 -0.13217111690E+04  0.13217111690E+04  0.25500000920E-02 0. -1.
    10030    2    1    2    0    0  0.00000000000E+00  0.00000000000E+00  0.51241116223E+02  0.26946634541E+04  0.26941762153E+04 0.  0.
        1    1    3    3  502    0 -0.72990990101E+02 -0.12325986549E+04  0.56425229683E+03  0.13575742275E+04  0.50400001928E-02 0.  1.
       -1    1    3    3    0  502  0.72990990101E+02  0.12325986549E+04 -0.51301118061E+03  0.13370892267E+04  0.50400001928E-02 0. -1.
</event>
<event>
 5   0  0.2641216E-05  0.2690871E+04  0.7818609E-02  0.8337973E-01
        2   -1    0    0  501    0  0.00000000000E+00  0.00000000000E+00  0.11594386814E+04  0.11594386814E+04  0.25500000920E-02 0.  1.
       -2   -1    0    0    0  501  0.00000000000E+00  0.00000000000E+00 -0.15612693642E+04  0.15612693642E+04  0.25500000920E-02 0. -1.
    10030    2    1    2    0    0  0.00000000000E+00  0.00000000000E+00 -0.40183068272E+03  0.27207080456E+04  0.26908705602E+04 0.  0.
        5    1    3    3  502    0  0.12027634481E+04  0.56431605533E+01  0.40868146445E+03  0.12703205842E+04  0.46999998093E+01 0.  1.
       -5    1    3    3    0  502 -0.12027634481E+04 -0.56431605533E+01 -0.81051214717E+03  0.14503874614E+04  0.46999998093E+01 0. -1.
</event>
<event>
 5   0  0.2540684E-05  0.2716424E+04  0.7818609E-02  0.8329696E-01
       -2   -1    0    0    0  501  0.00000000000E+00  0.00000000000E+00  0.10432966420E+04  0.10432966420E+04  0.25500000920E-02 0. -1.
        2   -1    0    0  501    0  0.00000000000E+00  0.00000000000E+00 -0.17681829538E+04  0.17681829538E+04  0.25500000920E-02 0.  1.
    10030    2    1    2    0    0  0.00000000000E+00  0.00000000000E+00 -0.72488631182E+03  0.28114795958E+04  0.27164236328E+04 0.  0.
        2    1    3    3  502    0 -0.76215316182E+03  0.43646935974E+03  0.70983981692E+03  0.11292721150E+04  0.25500000920E-02 0. -1.
       -2    1    3    3    0  502  0.76215316182E+03 -0.43646935974E+03 -0.14347261287E+04  0.16822074808E+04  0.25500000920E-02 0.  1.
</event>
<event>
 5   0  0.9971923E-06  0.2638161E+04  0.7818609E-02  0.8355353E-01
        1   -1    0    0  501    0  0.00000000000E+00  0.00000000000E+00  0.12872590345E+04  0.12872590345E+04  0.50400001928E-02 0.  1.
       -1   -1    0    0    0  501  0.00000000000E+00  0.00000000000E+00 -0.13516884843E+04  0.13516884844E+04  0.50400001928E-02 0. -1.
    10030    2    1    2    0    0  0.00000000000E+00  0.00000000000E+00 -0.64429449882E+02  0.26389475188E+04  0.26381608846E+04 0.  0.
        2    1    3    3  502    0 -0.12137997287E+04 -0.31620691270E+03 -0.44059693906E+03  0.13294443409E+04  0.25500000920E-02 0. -1.
       -2    1    3    3    0  502  0.12137997287E+04  0.31620691270E+03  0.37616748918E+03  0.13095031779E+04  0.25500000920E-02 0.  1.
</event>
<event>
 5   0  0.1096672E-05  0.2689340E+04  0.7818609E-02  0.8338472E-01
       -1   -1    0    0    0  501  0.00000000000E+00  0.00000000000E+00  0.83655163670E+03  0.83655163672E+03  0.50400001928E-02 0. -1.
        1   -1    0    0  501    0  0.00000000000E+00  0.00000000000E+00 -0.21614183325E+04  0.21614183325E+04  0.50400001928E-02 0.  1.
    10030    2    1    2    0    0  0.00000000000E+00  0.00000000000E+00 -0.13248666958E+04  0.29979699692E+04  0.26893404720E+04 0.  0.
        1    1    3    3  502    0  0.64434943114E+03 -0.36861002476E+03 -0.19122971503E+04  0.20513263833E+04  0.50400001928E-02 0.  1.
       -1    1    3    3    0  502 -0.64434943114E+03  0.36861002476E+03  0.58743045453E+03  0.94664358589E+03  0.50400001928E-02 0. -1.
</event>
<event>
 5   0  0.2641216E-05  0.2887647E+04  0.7818609E-02  0.8276562E-01
        2   -1    0    0  501    0  0.00000000000E+00  0.00000000000E+00  0.14310723020E+04  0.14310723020E+04  0.25500000920E-02 0. -1.
       -2   -1    0    0    0  501  0.00000000000E+00  0.00000000000E+00 -0.14566882137E+04  0.14566882137E+04  0.25500000920E-02 0.  1.
    10030    2    1    2    0    0  0.00000000000E+00  0.00000000000E+00 -0.25615911768E+02  0.28877605157E+04  0.28876469003E+04 0.  0.
        5    1    3    3  502    0  0.16652640157E+03 -0.14341278974E+04 -0.25063920249E+02  0.14439889745E+04  0.46999998093E+01 0. -1.
       -5    1    3    3    0  502 -0.16652640157E+03  0.14341278974E+04 -0.55199151857E+00  0.14437715412E+04  0.46999998093E+01 0.  1.
</event>
<event>
 5   0  0.2540232E-05  0.2621226E+04  0.7818609E-02  0.8361027E-01
       -2   -1    0    0    0  501  0.00000000000E+00  0.00000000000E+00  0.89368621143E+03  0.89368621143E+03  0.25500000920E-02 0.  1.
        2   -1    0    0  501    0  0.00000000000E+00  0.00000000000E+00 -0.19220466174E+04  0.19220466174E+04  0.25500000920E-02 0. -1.
    10030    2    1    2    0    0  0.00000000000E+00  0.00000000000E+00 -0.10283604060E+04  0.28157328288E+04  0.26212260946E+04 0.  0.
        1    1    3    3  502    0  0.25325551113E+03 -0.64220343786E+03  0.68255444232E+03  0.97079564084E+03  0.50400001928E-02 0.  1.
       -1    1    3    3    0  502 -0.25325551113E+03  0.64220343786E+03 -0.17109148483E+04  0.18449371880E+04  0.50400001928E-02 0. -1.
</event>
<event>
 5   0  0.1041909E-05  0.2996537E+04  0.7818609E-02  0.8244720E-01
        1   -1    0    0  501    0  0.00000000000E+00  0.00000000000E+00  0.16058875497E+04  0.16058875497E+04  0.50400001928E-02 0.  1.
       -1   -1    0    0    0  501  0.00000000000E+00  0.00000000000E+00 -0.13978619930E+04  0.13978619930E+04  0.50400001928E-02 0. -1.
    10030    2    1    2    0    0  0.00000000000E+00  0.00000000000E+00  0.20802555664E+03  0.30037495427E+04  0.29965374490E+04 0.  0.
        5    1    3    3  502    0  0.76972274187E+03 -0.66909584431E+03  0.12042083583E+04  0.15780691393E+04  0.46999998093E+01 0.  1.
       -5    1    3    3    0  502 -0.76972274187E+03  0.66909584431E+03 -0.99618280169E+03  0.14256804034E+04  0.46999998093E+01 0. -1.
</event>
<event>
 5   0  0.1005265E-05  0.2696657E+04  0.7818609E-02  0.8336091E-01
        1   -1    0    0  501    0  0.00000000000E+00  0.00000000000E+00  0.11309837373E+04  0.11309837373E+04  0.50400001928E-02 0. -1.
       -1   -1    0    0    0  501  0.00000000000E+00  0.00000000000E+00 -0.16074405558E+04  0.16074405559E+04  0.50400001928E-02 0.  1.
    10030    2    1    2    0    0  0.00000000000E+00  0.00000000000E+00 -0.47645681856E+03  0.27384242932E+04  0.26966565427E+04 0.  0.
        3    1    3    3  502    0 -0.17613442509E+03 -0.11270374908E+04  0.49176056632E+03  0.12422017977E+04  0.10100000352E+00 0. -1.
       -3    1    3    3    0  502  0.17613442509E+03  0.11270374908E+04 -0.96821738488E+03  0.14962224955E+04  0.10100000352E+00 0.  1.
</event>
<event>
 5   0  0.2641216E-05  0.2718314E+04  0.7818609E-02  0.8329087E-01
       -2   -1    0    0    0  501  0.00000000000E+00  0.00000000000E+00  0.22399921140E+04  0.22399921140E+04  0.25500000920E-02 0. -1.
        2   -1    0    0  501    0  0.00000000000E+00  0.00000000000E+00 -0.82469367078E+03  0.82469367078E+03  0.25500000920E-02 0.  1.
    10030    2    1    2    0    0  0.00000000000E+00  0.00000000000E+00  0.14152984432E+04  0.30646857847E+04  0.27183136824E+04 0.  0.
        5    1    3    3  502    0  0.69009986967E+03  0.24015681084E+03 -0.58440362376E+03  0.93566169600E+03  0.46999998093E+01 0.  1.
       -5    1    3    3    0  502 -0.69009986967E+03 -0.24015681084E+03  0.19997020669E+04  0.21290240887E+04  0.46999998093E+01 0. -1.
</event>
<event>
 5   0  0.1005265E-05  0.2624543E+04  0.7818609E-02  0.8359912E-01
       -1   -1    0    0    0  501  0.00000000000E+00  0.00000000000E+00  0.85095615879E+03  0.85095615880E+03  0.50400001928E-02 0.  1.
        1   -1    0    0  501    0  0.00000000000E+00  0.00000000000E+00 -0.20236728057E+04  0.20236728057E+04  0.50400001928E-02 0. -1.
    10030    2    1    2    0    0  0.00000000000E+00  0.00000000000E+00 -0.11727166469E+04  0.28746289645E+04  0.26245432650E+04 0.  0.
        3    1    3    3  502    0  0.12400281416E+04 -0.35877051518E+03 -0.32792910929E+03  0.13318872270E+04  0.10100000352E+00 0.  1.
       -3    1    3    3    0  502 -0.12400281416E+04  0.35877051518E+03 -0.84478753761E+03  0.15427417375E+04  0.10100000352E+00 0. -1.
</event>
<event>
 5   0  0.2615843E-05  0.2868921E+04  0.7818609E-02  0.8282185E-01
       -2   -1    0    0    0  501  0.00000000000E+00  0.00000000000E+00  0.11074512842E+04  0.11074512842E+04  0.25500000920E-02 0.  1.
        2   -1    0    0  501    0  0.00000000000E+00  0.00000000000E+00 -0.18580295521E+04  0.18580295522E+04  0.25500000920E-02 0. -1.
    10030    2    1    2    0    0  0.00000000000E+00  0.00000000000E+00 -0.75057826794E+03  0.29654808364E+04  0.28689212005E+04 0.  0.
        3    1    3    3  502    0  0.37570760727E+03 -0.16864546767E+03 -0.17956106428E+04  0.18422310090E+04  0.10100000352E+00 0. -1.
       -3    1    3    3    0  502 -0.37570760727E+03  0.16864546767E+03  0.10450323749E+04  0.11232498273E+04  0.10100000352E+00 0.  1.
</event>
<event>
 5   0  0.9971923E-06  0.2595960E+04  0.7818609E-02  0.8369575E-01
       -1   -1    0    0    0  501  0.00000000000E+00  0.00000000000E+00  0.10853782569E+04  0.10853782569E+04  0.50400001928E-02 0.  1.
        1   -1    0    0  501    0  0.00000000000E+00  0.00000000000E+00 -0.15522262412E+04  0.15522262412E+04  0.50400001928E-02 0. -1.
    10030    2    1    2    0    0  0.00000000000E+00  0.00000000000E+00 -0.46684798430E+03  0.26376044981E+04  0.25959604095E+04 0.  0.
        2    1    3    3  502    0 -0.19913839425E+03  0.12747220701E+04 -0.89088257590E+02  0.12932552624E+04  0.25500000920E-02 0. -1.
       -2    1    3    3    0  502  0.19913839425E+03 -0.12747220701E+04 -0.37775972671E+03  0.13443492356E+04  0.25500000920E-02 0.  1.
</event>
<event>
 5   0  0.2540232E-05  0.2690809E+04  0.7818609E-02  0.8337993E-01
        2   -1    0    0  501    0  0.00000000000E+00  0.00000000000E+00  0.13652547284E+04  0.13652547284E+04  0.25500000920E-02 0. -1.
       -2   -1    0    0    0  501  0.00000000000E+00  0.00000000000E+00 -0.13258425756E+04  0.13258425756E+04  0.25500000920E-02 0.  1.
    10030    2    1    2    0    0  0.00000000000E+00  0.00000000000E+00  0.39412152839E+02  0.26910973039E+04  0.26908086854E+04 0.  0.
        1    1    3    3  502    0  0.70944520402E+03  0.88300882613E+03  0.74579755854E+03  0.13561825404E+04  0.50400001928E-02 0. -1.
       -1    1    3    3    0  502 -0.70944520402E+03 -0.88300882613E+03 -0.70638540570E+03  0.13349147635E+04  0.50400001928E-02 0.  1.
</event>
<event>
 5   0  0.9971923E-06  0.2684452E+04  0.7818609E-02  0.8340068E-01
        1   -1    0    0  501    0  0.00000000000E+00  0.00000000000E+00  0.17252483348E+04  0.17252483348E+04  0.50400001928E-02 0. -1.
       -1   -1    0    0    0  501  0.00000000000E+00  0.00000000000E+00 -0.10442381625E+04  0.10442381625E+04  0.50400001928E-02 0.  1.
    10030    2    1    2    0    0  0.00000000000E+00  0.00000000000E+00  0.68101017229E+03  0.27694864973E+04  0.26844516394E+04 0.  0.
        2    1    3    3  502    0 -0.12555641626E+04 -0.12089828767E+03  0.81385521229E+03  0.15011389239E+04  0.25500000920E-02 0.  1.
       -2    1    3    3    0  502  0.12555641626E+04  0.12089828767E+03 -0.13284504001E+03  0.12683475734E+04  0.25500000920E-02 0. -1.
</event>
<event>
 5   0  0.2516518E-05  0.2676387E+04  0.7818609E-02  0.8342708E-01
       -2   -1    0    0    0  501  0.00000000000E+00  0.00000000000E+00  0.10436471751E+04  0.10436471751E+04  0.25500000920E-02 0.  1.
        2   -1    0    0  501    0  0.00000000000E+00  0.00000000000E+00 -0.17158684854E+04  0.17158684854E+04  0.25500000920E-02 0. -1.
    10030    2    1    2    0    0  0.00000000000E+00  0.00000000000E+00 -0.67222131030E+03  0.27595156605E+04  0.26763865921E+04 0.  0.
        4    1    3    3  502    0  0.40292552414E+03 -0.15727131733E+03 -0.16418076120E+04  0.16978271682E+04  0.12699999809E+01 0. -1.
       -4    1    3    3    0  502 -0.40292552414E+03  0.15727131733E+03  0.96958630174E+03  0.10616884923E+04  0.12699999809E+01 0.  1.
</event>
<event>
 5   0  0.1036691E-05  0.2273958E+04  0.7818609E-02  0.8488260E-01
       -1   -1    0    0    0  501  0.00000000000E+00  0.00000000000E+00  0.11897811046E+04  0.11897811046E+04  0.50400001928E-02 0.  1.
        1   -1    0    0  501    0  0.00000000000E+00  0.00000000000E+00 -0.10865206205E+04  0.10865206205E+04  0.50400001928E-02 0. -1.
    10030    2    1    2    0    0  0.00000000000E+00  0.00000000000E+00  0.10326048407E+03  0.22763017251E+04  0.22739584024E+04 0.  0.
        4    1    3    3  502    0  0.96721725724E+03 -0.55086912395E+03 -0.18045793368E+03  0.11276225845E+04  0.12699999809E+01 0.  1.
       -4    1    3    3    0  502 -0.96721725724E+03  0.55086912395E+03  0.28371841775E+03  0.11486791405E+04  0.12699999809E+01 0. -1.
</event>
<event>
 5   0  0.9971923E-06  0.2603373E+04  0.7818609E-02  0.8367056E-01
        1   -1    0    0  501    0  0.00000000000E+00  0.00000000000E+00  0.13500505125E+04  0.13500505125E+04  0.50400001928E-02 0.  1.
       -1   -1    0    0    0  501  0.00000000000E+00  0.00000000000E+00 -0.12550547736E+04  0.12550547737E+04  0.50400001928E-02 0. -1.
    10030    2    1    2    0    0  0.00000000000E+00  0.00000000000E+00  0.94995738879E+02  0.26051052862E+04  0.26033726897E+04 0.  0.
        2    1    3    3  502    0 -0.85884271540E+03 -0.97642145063E+03  0.10565437117E+03  0.13046733328E+04  0.25500000920E-02 0.  1.
       -2    1    3    3    0  502  0.85884271540E+03  0.97642145063E+03 -0.10658632290E+02  0.13004319534E+04  0.25500000920E-02 0. -1.
</event>
<event>
 5   0  0.1041909E-05  0.2701530E+04  0.7818609E-02  0.8334509E-01
       -1   -1    0    0    0  501  0.00000000000E+00  0.00000000000E+00  0.12201175944E+04  0.12201175944E+04  0.50400001928E-02 0. -1.
        1   -1    0    0  501    0  0.00000000000E+00  0.00000000000E+00 -0.14954016716E+04  0.14954016716E+04  0.50400001928E-02 0.  1.
    10030    2    1    2    0    0  0.00000000000E+00  0.00000000000E+00 -0.27528407722E+03  0.27155192660E+04  0.27015298556E+04 0.  0.
        5    1    3    3  502    0  0.83470449780E+03 -0.84460769966E+02  0.92646092432E+03  0.12498868567E+04  0.46999998093E+01 0. -1.
       -5    1    3    3    0  502 -0.83470449780E+03  0.84460769966E+02 -0.12017450015E+04  0.14656324092E+04  0.46999998093E+01 0.  1.
</event>
<event>
 5   0  0.9971923E-06  0.2938308E+04  0.7818609E-02  0.8261570E-01
       -1   -1    0    0    0  501  0.00000000000E+00  0.00000000000E+00  0.12421402600E+04  0.12421402600E+04  0.50400001928E-02 0. -1.
        1   -1    0    0  501    0  0.00000000000E+00  0.00000000000E+00 -0.17376572371E+04  0.17376572371E+04  0.50400001928E-02 0.  1.
    10030    2    1    2    0    0  0.00000000000E+00  0.00000000000E+00 -0.49551697710E+03  0.29797974970E+04  0.29383083652E+04 0.  0.
        2    1    3    3  502    0 -0.81092762693E+03  0.19635068144E+03  0.97855415288E+03  0.12859725644E+04  0.25500000920E-02 0. -1.
       -2    1    3    3    0  502  0.81092762693E+03 -0.19635068144E+03 -0.14740711300E+04  0.16938249326E+04  0.25500000920E-02 0.  1.
</event>
<event>
 5   0  0.1005265E-05  0.2570414E+04  0.7818609E-02  0.8378321E-01
       -1   -1    0    0    0  501  0.00000000000E+00  0.00000000000E+00  0.12295963918E+04  0.12295963918E+04  0.50400001928E-02 0.  1.
        1   -1    0    0  501    0  0.00000000000E+00  0.00000000000E+00 -0.13433328995E+04  0.13433328995E+04  0.50400001928E-02 0. -1.
    10030    2    1    2    0    0  0.00000000000E+00  0.00000000000E+00 -0.11373650770E+03  0.25729292912E+04  0.25704141971E+04 0.  0.
        3    1    3    3  502    0 -0.31158725053E+02  0.99638938157E+03  0.75509412628E+03  0.12505717955E+04  0.10100000352E+00 0.  1.
       -3    1    3    3    0  502  0.31158725053E+02 -0.99638938157E+03 -0.86883063399E+03  0.13223574958E+04  0.10100000352E+00 0. -1.
</event>
<event>
 5   0  0.1041909E-05  0.2689651E+04  0.7818609E-02  0.8338371E-01
       -1   -1    0    0    0  501  0.00000000000E+00  0.00000000000E+00  0.13969334073E+04  0.13969334073E+04  0.50400001928E-02 0. -1.
        1   -1    0    0  501    0  0.00000000000E+00  0.00000000000E+00 -0.12946617829E+04  0.12946617829E+04  0.50400001928E-02 0.  1.
    10030    2    1    2    0    0  0.00000000000E+00  0.00000000000E+00  0.10227162446E+03  0.26915951902E+04  0.26896514984E+04 0.  0.
        5    1    3    3  502    0 -0.38106926369E+03 -0.45354437208E+03  0.12593267729E+04  0.13917048150E+04  0.46999998093E+01 0. -1.
       -5    1    3    3    0  502  0.38106926369E+03  0.45354437208E+03 -0.11570551484E+04  0.12998903752E+04  0.46999998093E+01 0.  1.
</event>
<event>
 5   0  0.1041909E-05  0.2749397E+04  0.7818609E-02  0.8319153E-01
        1   -1    0    0  501    0  0.00000000000E+00  0.00000000000E+00  0.13048417570E+04  0.13048417570E+04  0.50400001928E-02 0.  1.
       -1   -1    0    0    0  501  0.00000000000E+00  0.00000000000E+00 -0.14482956489E+04  0.14482956489E+04  0.50400001928E-02 0. -1.
    10030    2    1    2    0    0  0.00000000000E+00  0.00000000000E+00 -0.14345389183E+03  0.27531374059E+04  0.27493974898E+04 0.  0.
        5    1    3    3  502    0  0.19507331771E+03 -0.42528090762E+03 -0.13661016276E+04  0.14440128796E+04  0.46999998093E+01 0. -1.
       -5    1    3    3    0  502 -0.19507331771E+03  0.42528090762E+03  0.12226477357E+04  0.13091245263E+04  0.46999998093E+01 0.  1.
</event>
<event>
 5   0  0.1041909E-05  0.2659748E+04  0.7818609E-02  0.8348185E-01
        1   -1    0    0  501    0  0.00000000000E+00  0.00000000000E+00  0.24174359348E+04  0.24174359348E+04  0.50400001928E-02 0.  1.
       -1   -1    0    0    0  501  0.00000000000E+00  0.00000000000E+00 -0.73158712867E+03  0.73158712869E+03  0.50400001928E-02 0. -1.
    10030    2    1    2    0    0  0.00000000000E+00  0.00000000000E+00  0.16858488062E+04  0.31490230635E+04  0.26597481192E+04 0.  0.
        5    1    3    3  502    0  0.13735358340E+03 -0.32128197761E+03 -0.67625910923E+03  0.76120732316E+03  0.46999998093E+01 0. -1.
       -5    1    3    3    0  502 -0.13735358340E+03  0.32128197761E+03  0.23621079154E+04  0.23878157404E+04  0.46999998093E+01 0.  1.
</event>
<event>
 5   0  0.2516518E-05  0.2722415E+04  0.7818609E-02  0.8327768E-01
       -2   -1    0    0    0  501  0.00000000000E+00  0.00000000000E+00  0.13029624683E+04  0.13029624683E+04  0.25500000920E-02 0. -1.
        2   -1    0    0  501    0  0.00000000000E+00  0.00000000000E+00 -0.14220564613E+04  0.14220564613E+04  0.25500000920E-02 0.  1.
    10030    2    1    2    0    0  0.00000000000E+00  0.00000000000E+00 -0.11909399300E+03  0.27250189296E+04  0.27224152489E+04 0.  0.
        4    1    3    3  502    0 -0.11457233340E+04 -0.56734311424E+03  0.40815186096E+03  0.13420691941E+04  0.12699999809E+01 0. -1.
       -4    1    3    3    0  502  0.11457233340E+04  0.56734311424E+03 -0.52724585396E+03  0.13829497355E+04  0.12699999809E+01 0.  1.
</event>
<event>
 5   0  0.1036691E-05  0.2680972E+04  0.7818609E-02  0.8341205E-01
        1   -1    0    0  501    0  0.00000000000E+00  0.00000000000E+00  0.19557056305E+04  0.19557056305E+04  0.50400001928E-02 0.  1.
       -1   -1    0    0    0  501  0.00000000000E+00  0.00000000000E+00 -0.91880003669E+03  0.91880003670E+03  0.50400001928E-02 0. -1.
    10030    2    1    2    0    0  0.00000000000E+00  0.00000000000E+00  0.10369055938E+04  0.28745056672E+04  0.26809717679E+04 0.  0.
        4    1    3    3  502    0 -0.10459365695E+04 -0.70155933286E+03  0.10106466207E+04  0.16147993714E+04  0.12699999809E+01 0.  1.
       -4    1    3    3    0  502  0.10459365695E+04  0.70155933286E+03  0.26258973023E+02  0.12597062958E+04  0.12699999809E+01 0. -1.
</event>
<event>
 5   0  0.2615843E-05  0.2691287E+04  0.7818609E-02  0.8337838E-01
       -2   -1    0    0    0  501  0.00000000000E+00  0.00000000000E+00  0.76870900736E+03  0.76870900737E+03  0.25500000920E-02 0. -1.
        2   -1    0    0  501    0  0.00000000000E+00  0.00000000000E+00 -0.23555807533E+04  0.23555807533E+04  0.25500000920E-02 0.  1.
    10030    2    1    2    0    0  0.00000000000E+00  0.00000000000E+00 -0.15868717459E+04  0.31242897607E+04  0.26912867871E+04 0.  0.
        3    1    3    3  502    0  0.20189395764E+02 -0.83131530499E+03 -0.20216030158E+04  0.21859486526E+04  0.10100000352E+00 0.  1.
       -3    1    3    3    0  502 -0.20189395764E+02  0.83131530499E+03  0.43473126983E+03  0.93834110812E+03  0.10100000352E+00 0. -1.
</event>
<event>
 5   0  0.2540232E-05  0.1744260E+04  0.7818609E-02  0.8736516E-01
        2   -1    0    0  501    0  0.00000000000E+00  0.00000000000E+00  0.90716356307E+03  0.90716356307E+03  0.25500000920E-02 0.  1.
       -2   -1    0    0    0  501  0.00000000000E+00  0.00000000000E+00 -0.83844914658E+03  0.83844914658E+03  0.25500000920E-02 0. -1.
    10030    2    1    2    0    0  0.00000000000E+00  0.00000000000E+00  0.68714416491E+02  0.17456127097E+04  0.17442597459E+04 0.  0.
        1    1    3    3  502    0 -0.37531169108E+03  0.64081654719E+03  0.49199278505E+03  0.89082075255E+03  0.50400001928E-02 0.  1.
       -1    1    3    3    0  502  0.37531169108E+03 -0.64081654719E+03 -0.42327836855E+03  0.85479195710E+03  0.50400001928E-02 0. -1.
</event>
<event>
 5   0  0.1036691E-05  0.2755178E+04  0.7818609E-02  0.8317321E-01
       -1   -1    0    0    0  501  0.00000000000E+00  0.00000000000E+00  0.13045895617E+04  0.13045895617E+04  0.50400001928E-02 0. -1.
        1   -1    0    0  501    0  0.00000000000E+00  0.00000000000E+00 -0.14546727679E+04  0.14546727679E+04  0.50400001928E-02 0.  1.
    10030    2    1    2    0    0  0.00000000000E+00  0.00000000000E+00 -0.15008320617E+03  0.27592623297E+04  0.27551776050E+04 0.  0.
        4    1    3    3  502    0 -0.54479097150E+03 -0.82986813317E+03  0.88150320952E+03  0.13276022907E+04  0.12699999809E+01 0. -1.
       -4    1    3    3    0  502  0.54479097150E+03  0.82986813317E+03 -0.10315864157E+04  0.14316600389E+04  0.12699999809E+01 0.  1.
</event>
<event>
 5   0  0.2540232E-05  0.2671610E+04  0.7818609E-02  0.8344276E-01
       -2   -1    0    0    0  501  0.00000000000E+00  0.00000000000E+00  0.21140051694E+04  0.21140051694E+04  0.25500000920E-02 0. -1.
        2   -1    0    0  501    0  0.00000000000E+00  0.00000000000E+00 -0.84407294980E+03  0.84407294981E+03  0.25500000920E-02 0.  1.
    10030    2    1    2    0    0  0.00000000000E+00  0.00000000000E+00  0.12699322196E+04  0.29580781192E+04  0.26716096865E+04 0.  0.
        1    1    3    3  502    0  0.54286942969E+03 -0.10233945946E+04  0.13713601279E+04  0.17951803014E+04  0.50400001928E-02 0. -1.
       -1    1    3    3    0  502 -0.54286942969E+03  0.10233945946E+04 -0.10142790836E+03  0.11628978178E+04  0.50400001928E-02 0.  1.
</event>
<event>
 5   0  0.2540232E-05  0.2691062E+04  0.7818609E-02  0.8337911E-01
       -2   -1    0    0    0  501  0.00000000000E+00  0.00000000000E+00  0.15785162704E+04  0.15785162704E+04  0.25500000920E-02 0. -1.
        2   -1    0    0  501    0  0.00000000000E+00  0.00000000000E+00 -0.11469336537E+04  0.11469336537E+04  0.25500000920E-02 0.  1.
    10030    2    1    2    0    0  0.00000000000E+00  0.00000000000E+00  0.43158261674E+03  0.27254499241E+04  0.26910618227E+04 0.  0.
        1    1    3    3  502    0 -0.43868040007E+03  0.12700742897E+04  0.28686094293E+03  0.13739790374E+04  0.50400001928E-02 0. -1.
       -1    1    3    3    0  502  0.43868040007E+03 -0.12700742897E+04  0.14472167381E+03  0.13514708867E+04  0.50400001928E-02 0.  1.
</event>
<event>
 5   0  0.9971923E-06  0.2620807E+04  0.7818609E-02  0.8361168E-01
        1   -1    0    0  501    0  0.00000000000E+00  0.00000000000E+00  0.17334914973E+04  0.17334914974E+04  0.50400001928E-02 0.  1.
       -1   -1    0    0    0  501  0.00000000000E+00  0.00000000000E+00 -0.99057724449E+03  0.99057724450E+03  0.50400001928E-02 0. -1.
    10030    2    1    2    0    0  0.00000000000E+00  0.00000000000E+00  0.74291425285E+03  0.27240687419E+04  0.26208069222E+04 0.  0.
        2    1    3    3  502    0  0.11671878088E+04 -0.12887111533E+03 -0.23302576991E+03  0.11971784140E+04  0.25500000920E-02 0. -1.
       -2    1    3    3    0  502 -0.11671878088E+04  0.12887111533E+03  0.97594002276E+03  0.15268903279E+04  0.25500000920E-02 0.  1.
</event>
<event>
 5   0  0.2540232E-05  0.2658628E+04  0.7818609E-02  0.8348555E-01
        2   -1    0    0  501    0  0.00000000000E+00  0.00000000000E+00  0.17149438565E+04  0.17149438565E+04  0.25500000920E-02 0.  1.
       -2   -1    0    0    0  501  0.00000000000E+00  0.00000000000E+00 -0.10303982027E+04  0.10303982027E+04  0.25500000920E-02 0. -1.
    10030    2    1    2    0    0  0.00000000000E+00  0.00000000000E+00  0.68454565382E+03  0.27453420591E+04  0.26586275161E+04 0.  0.
        1    1    3    3  502    0  0.21502834868E+03  0.13022043973E+04  0.17867047810E+03  0.13318771050E+04  0.50400001928E-02 0. -1.
       -1    1    3    3    0  502 -0.21502834868E+03 -0.13022043973E+04  0.50587517573E+03  0.14134649541E+04  0.50400001928E-02 0.  1.
</event>
<event>
 5   0  0.1036691E-05  0.1859044E+04  0.7818609E-02  0.8675516E-01
       -1   -1    0    0    0  501  0.00000000000E+00  0.00000000000E+00  0.12728224436E+04  0.12728224436E+04  0.50400001928E-02 0.  1.
        1   -1    0    0  501    0  0.00000000000E+00  0.00000000000E+00 -0.67881537144E+03  0.67881537146E+03  0.50400001928E-02 0. -1.
    10030    2    1    2    0    0  0.00000000000E+00  0.00000000000E+00  0.59400707216E+03  0.19516378151E+04  0.18590443135E+04 0.  0.
        4    1    3    3  502    0 -0.25608636341E+03 -0.80418786823E+03 -0.11189795701E+03  0.85136426905E+03  0.12699999809E+01 0.  1.
       -4    1    3    3    0  502  0.25608636341E+03  0.80418786823E+03  0.70590502918E+03  0.11002735460E+04  0.12699999809E+01 0. -1.
</event>
<event>
 5   0  0.9971923E-06  0.2734137E+04  0.7818609E-02  0.8324013E-01
        1   -1    0    0  501    0  0.00000000000E+00  0.00000000000E+00  0.23949733340E+04  0.23949733340E+04  0.50400001928E-02 0.  1.
       -1   -1    0    0    0  501  0.00000000000E+00  0.00000000000E+00 -0.78033308806E+03  0.78033308807E+03  0.50400001928E-02 0. -1.
    10030    2    1    2    0    0  0.00000000000E+00  0.00000000000E+00  0.16146402459E+04  0.31753064221E+04  0.27341374783E+04 0.  0.
        2    1    3    3  502    0 -0.36751483039E+03  0.12420700504E+04  0.29967108796E+03  0.13295141675E+04  0.25500000920E-02 0. -1.
       -2    1    3    3    0  502  0.36751483039E+03 -0.12420700504E+04  0.13149691580E+04  0.18457922546E+04  0.25500000920E-02 0.  1.
</event>
<event>
 5   0  0.1036691E-05  0.2646799E+04  0.7818609E-02  0.8352476E-01
        1   -1    0    0  501    0  0.00000000000E+00  0.00000000000E+00  0.77710886822E+03  0.77710886824E+03  0.50400001928E-02 0. -1.
       -1   -1    0    0    0  501  0.00000000000E+00  0.00000000000E+00 -0.22537206510E+04  0.22537206510E+04  0.50400001928E-02 0.  1.
    10030    2    1    2    0    0  0.00000000000E+00  0.00000000000E+00 -0.14766117827E+04  0.30308295192E+04  0.26467990512E+04 0.  0.
        4    1    3    3  502    0  0.94766350518E+02  0.61088329063E+03 -0.20782233598E+04  0.21682188547E+04  0.12699999809E+01 0.  1.
       -4    1    3    3    0  502 -0.94766350518E+02 -0.61088329063E+03  0.60161157703E+03  0.86261066448E+03  0.12699999809E+01 0. -1.
</event>
<event>
 5   0  0.2540232E-05  0.2685514E+04  0.7818609E-02  0.8339721E-01
       -2   -1    0    0    0  501  0.00000000000E+00  0.00000000000E+00  0.17739397680E+04  0.17739397680E+04  0.25500000920E-02 0.  1.
        2   -1    0    0  501    0  0.00000000000E+00  0.00000000000E+00 -0.10163796197E+04  0.10163796197E+04  0.25500000920E-02 0. -1.
    10030    2    1    2    0    0  0.00000000000E+00  0.00000000000E+00  0.75756014833E+03  0.27903193877E+04  0.26855139000E+04 0.  0.
        1    1    3    3  502    0  0.32068134683E+02  0.41344212891E+03 -0.94818028237E+03  0.10348954571E+04  0.50400001928E-02 0. -1.
       -1    1    3    3    0  502 -0.32068134683E+02 -0.41344212891E+03  0.17057404307E+04  0.17554239306E+04  0.50400001928E-02 0.  1.
</event>
<event>
 5   0  0.1096672E-05  0.2694971E+04  0.7818609E-02  0.8336639E-01
        1   -1    0    0  501    0  0.00000000000E+00  0.00000000000E+00  0.15090039793E+04  0.15090039793E+04  0.50400001928E-02 0. -1.
       -1   -1    0    0    0  501  0.00000000000E+00  0.00000000000E+00 -0.12032554845E+04  0.12032554845E+04  0.50400001928E-02 0.  1.
    10030    2    1    2    0    0  0.00000000000E+00  0.00000000000E+00  0.30574849482E+03  0.27122594639E+04  0.26949711051E+04 0.  0.
        1    1    3    3  502    0 -0.10261785566E+04 -0.80654142757E+03  0.48993436538E+03  0.13941259580E+04  0.50400001928E-02 0. -1.
       -1    1    3    3    0  502  0.10261785566E+04  0.80654142757E+03 -0.18418587056E+03  0.13181335059E+04  0.50400001928E-02 0.  1.
</event>
<event>
 5   0  0.1036691E-05  0.2708447E+04  0.7818609E-02  0.8332269E-01
       -1   -1    0    0    0  501  0.00000000000E+00  0.00000000000E+00  0.60818015286E+03  0.60818015288E+03  0.50400001928E-02 0.  1.
        1   -1    0    0  501    0  0.00000000000E+00  0.00000000000E+00 -0.30154247356E+04  0.30154247356E+04  0.50400001928E-02 0. -1.
    10030    2    1    2    0    0  0.00000000000E+00  0.00000000000E+00 -0.24072445827E+04  0.36236048884E+04  0.27084471393E+04 0.  0.
        4    1    3    3  502    0 -0.20644774510E+02  0.74659533962E+02 -0.30124575675E+04  0.30134535772E+04  0.12699999809E+01 0. -1.
       -4    1    3    3    0  502  0.20644774510E+02 -0.74659533962E+02  0.60521298483E+03  0.61015131126E+03  0.12699999809E+01 0.  1.
</event>
<event>
 5   0  0.2540684E-05  0.2311877E+04  0.7818609E-02  0.8473253E-01
       -2   -1    0    0    0  501  0.00000000000E+00  0.00000000000E+00  0.72224549476E+03  0.72224549477E+03  0.25500000920E-02 0.  1.
        2   -1    0    0  501    0  0.00000000000E+00  0.00000000000E+00 -0.18500551451E+04  0.18500551451E+04  0.25500000920E-02 0. -1.
    10030    2    1    2    0    0  0.00000000000E+00  0.00000000000E+00 -0.11278096503E+04  0.25723006399E+04  0.23118771538E+04 0.  0.
        2    1    3    3  502    0  0.10874725432E+04  0.21574894208E+02 -0.12850331700E+03  0.10952511633E+04  0.25500000920E-02 0. -1.
       -2    1    3    3    0  502 -0.10874725432E+04 -0.21574894208E+02 -0.99930633333E+03  0.14770494765E+04  0.25500000920E-02 0.  1.
</event>
<event>
 5   0  0.2540684E-05  0.2405834E+04  0.7818609E-02  0.8437323E-01
       -2   -1    0    0    0  501  0.00000000000E+00  0.00000000000E+00  0.13279089454E+04  0.13279089454E+04  0.25500000920E-02 0. -1.
        2   -1    0    0  501    0  0.00000000000E+00  0.00000000000E+00 -0.10896902050E+04  0.10896902050E+04  0.25500000920E-02 0.  1.
    10030    2    1    2    0    0  0.00000000000E+00  0.00000000000E+00  0.23821874039E+03  0.24175991504E+04  0.24058340515E+04 0.  0.
        2    1    3    3  502    0 -0.32099629525E+03  0.47439328055E+03  0.11820732023E+04  0.13135389837E+04  0.25500000920E-02 0. -1.
       -2    1    3    3    0  502  0.32099629525E+03 -0.47439328055E+03 -0.94385446192E+03  0.11040601666E+04  0.25500000920E-02 0.  1.
</event>
<event>
 5   0  0.2641216E-05  0.2734069E+04  0.7818609E-02  0.8324035E-01
        2   -1    0    0  501    0  0.00000000000E+00  0.00000000000E+00  0.24415228854E+04  0.24415228854E+04  0.25500000920E-02 0.  1.
       -2   -1    0    0    0  501  0.00000000000E+00  0.00000000000E+00 -0.76541707683E+03  0.76541707683E+03  0.25500000920E-02 0. -1.
    10030    2    1    2    0    0  0.00000000000E+00  0.00000000000E+00  0.16761058085E+04  0.32069399622E+04  0.27340689896E+04 0.  0.
        5    1    3    3  502    0  0.65149980510E+03 -0.71455937299E+03  0.19714662580E+04  0.21958479888E+04  0.46999998093E+01 0.  1.
       -5    1    3    3    0  502 -0.65149980510E+03  0.71455937299E+03 -0.29536044944E+03  0.10110919734E+04  0.46999998093E+01 0. -1.
</event>
<event>
 5   0  0.2540232E-05  0.2779366E+04  0.7818609E-02  0.8309703E-01
       -2   -1    0    0    0  501  0.00000000000E+00  0.00000000000E+00  0.90634234380E+03  0.90634234381E+03  0.25500000920E-02 0. -1.
        2   -1    0    0  501    0  0.00000000000E+00  0.00000000000E+00 -0.21307827864E+04  0.21307827864E+04  0.25500000920E-02 0.  1.
    10030    2    1    2    0    0  0.00000000000E+00  0.00000000000E+00 -0.12244404426E+04  0.30371251302E+04  0.27793658735E+04 0.  0.
        1    1    3    3  502    0  0.65977369818E+03 -0.21862881927E+03 -0.19271999446E+04  0.20487067921E+04  0.50400001928E-02 0.  1.
       -1    1    3    3    0  502 -0.65977369818E+03  0.21862881927E+03  0.70275950201E+03  0.98841833812E+03  0.50400001928E-02 0. -1.
</event>
<event>
 5   0  0.1005265E-05  0.2644539E+04  0.7818609E-02  0.8353228E-01
       -1   -1    0    0    0  501  0.00000000000E+00  0.00000000000E+00  0.18782260259E+04  0.18782260259E+04  0.50400001928E-02 0. -1.
        1   -1    0    0  501    0  0.00000000000E+00  0.00000000000E+00 -0.93087671086E+03  0.93087671088E+03  0.50400001928E-02 0.  1.
    10030    2    1    2    0    0  0.00000000000E+00  0.00000000000E+00  0.94734931500E+03  0.28091027368E+04  0.26445391774E+04 0.  0.
        3    1    3    3  502    0  0.16389630756E+03 -0.12013048313E+04 -0.86796732119E+02  0.12155364989E+04  0.10100000352E+00 0.  1.
       -3    1    3    3    0  502 -0.16389630756E+03  0.12013048313E+04  0.10341460471E+04  0.15935662378E+04  0.10100000352E+00 0. -1.
</event>
<event>
 5   0  0.2516518E-05  0.2540532E+04  0.7818609E-02  0.8388686E-01
       -2   -1    0    0    0  501  0.00000000000E+00  0.00000000000E+00  0.14710051712E+04  0.14710051712E+04  0.25500000920E-02 0.  1.
        2   -1    0    0  501    0  0.00000000000E+00  0.00000000000E+00 -0.10969204793E+04  0.10969204793E+04  0.25500000920E-02 0. -1.
    10030    2    1    2    0    0  0.00000000000E+00  0.00000000000E+00  0.37408469190E+03  0.25679256505E+04  0.25405319896E+04 0.  0.
        4    1    3    3  502    0  0.97955147206E+02  0.12469145851E+04  0.41120579728E+03  0.13166180213E+04  0.12699999809E+01 0. -1.
       -4    1    3    3    0  502 -0.97955147206E+02 -0.12469145851E+04 -0.37121105383E+02  0.12513076292E+04  0.12699999809E+01 0.  1.
</event>
<event>
 5   0  0.2641216E-05  0.2638560E+04  0.7818609E-02  0.8355220E-01
       -2   -1    0    0    0  501  0.00000000000E+00  0.00000000000E+00  0.17467532724E+04  0.17467532724E+04  0.25500000920E-02 0. -1.
        2   -1    0    0  501    0  0.00000000000E+00  0.00000000000E+00 -0.99642023880E+03  0.99642023880E+03  0.25500000920E-02 0.  1.
    10030    2    1    2    0    0  0.00000000000E+00  0.00000000000E+00  0.75033303358E+03  0.27431735112E+04  0.26385604506E+04 0.  0.
        5    1    3    3  502    0 -0.89883490440E+02 -0.12911372459E+04  0.10936659200E+03  0.12988832015E+04  0.46999998093E+01 0.  1.
       -5    1    3    3    0  502  0.89883490440E+02  0.12911372459E+04  0.64096644159E+03  0.14442903097E+04  0.46999998093E+01 0. -1.
</event>
<event>
 5   0  0.2540232E-05  0.2716657E+04  0.7818609E-02  0.8329621E-01
        2   -1    0    0  501    0  0.00000000000E+00  0.00000000000E+00  0.80100246389E+03  0.80100246390E+03  0.25500000920E-02 0. -1.
       -2   -1    0    0    0  501  0.00000000000E+00  0.00000000000E+00 -0.23034334541E+04  0.23034334541E+04  0.25500000920E-02 0.  1.
    10030    2    1    2    0    0  0.00000000000E+00  0.00000000000E+00 -0.15024309902E+04  0.31044359180E+04  0.27166566748E+04 0.  0.
        1    1    3    3  502    0  0.99801489574E+03 -0.69637948821E+03 -0.61698442653E+02  0.12185174687E+04  0.50400001928E-02 0. -1.
       -1    1    3    3    0  502 -0.99801489574E+03  0.69637948821E+03 -0.14407325475E+04  0.18859184493E+04  0.50400001928E-02 0.  1.
</event>
<event>
 5   0  0.1096672E-05  0.2483984E+04  0.7818609E-02  0.8408713E-01
        1   -1    0    0  501    0  0.00000000000E+00  0.00000000000E+00  0.11847017937E+04  0.11847017937E+04  0.50400001928E-02 0.  1.
       -1   -1    0    0    0  501  0.00000000000E+00  0.00000000000E+00 -0.13020530661E+04  0.13020530661E+04  0.50400001928E-02 0. -1.
    10030    2    1    2    0    0  0.00000000000E+00  0.00000000000E+00 -0.11735127234E+03  0.24867548598E+04  0.24839843823E+04 0.  0.
        1    1    3    3  502    0  0.11391162353E+04  0.29271369648E+03  0.34086533963E+03  0.12245228807E+04  0.50400001928E-02 0.  1.
       -1    1    3    3    0  502 -0.11391162353E+04 -0.29271369648E+03 -0.45821661197E+03  0.12622319791E+04  0.50400001928E-02 0. -1.
</event>
<event>
 5   0  0.9971923E-06  0.2658148E+04  0.7818609E-02  0.8348714E-01
       -1   -1    0    0    0  501  0.00000000000E+00  0.00000000000E+00  0.88336382869E+03  0.88336382871E+03  0.50400001928E-02 0.  1.
        1   -1    0    0  501    0  0.00000000000E+00  0.00000000000E+00 -0.19996718459E+04  0.19996718459E+04  0.50400001928E-02 0. -1.
    10030    2    1    2    0    0  0.00000000000E+00  0.00000000000E+00 -0.11163080172E+04  0.28830356747E+04  0.26581480606E+04 0.  0.
        2    1    3    3  502    0 -0.12404888539E+04 -0.15733147412E+03 -0.10466734949E+04  0.16306720070E+04  0.25500000920E-02 0.  1.
       -2    1    3    3    0  502  0.12404888539E+04  0.15733147412E+03 -0.69634522391E+02  0.12523636677E+04  0.25500000920E-02 0. -1.
</event>
<event>
 5   0  0.9971923E-06  0.2703385E+04  0.7818609E-02  0.8333907E-01
        1   -1    0    0  501    0  0.00000000000E+00  0.00000000000E+00  0.13384255451E+04  0.13384255451E+04  0.50400001928E-02 0. -1.
       -1   -1    0    0    0  501  0.00000000000E+00  0.00000000000E+00 -0.13650911244E+04  0.13650911244E+04  0.50400001928E-02 0.  1.
    10030    2    1    2    0    0  0.00000000000E+00  0.00000000000E+00 -0.26665579239E+02  0.27035166695E+04  0.27033851611E+04 0.  0.
        2    1    3    3  502    0  0.29136530699E+03 -0.10366794176E+04  0.80369830932E+03  0.13436997170E+04  0.25500000920E-02 0. -1.
       -2    1    3    3    0  502 -0.29136530699E+03  0.10366794176E+04 -0.83036388856E+03  0.13598169525E+04  0.25500000920E-02 0.  1.
</event>
<event>
 5   0  0.2540684E-05  0.2790400E+04  0.7818609E-02  0.8306255E-01
        2   -1    0    0  501    0  0.00000000000E+00  0.00000000000E+00  0.16563023900E+04  0.16563023900E+04  0.25500000920E-02 0. -1.
       -2   -1    0    0    0  501  0.00000000000E+00  0.00000000000E+00 -0.11752578246E+04  0.11752578246E+04  0.25500000920E-02 0.  1.
    10030    2    1    2    0    0  0.00000000000E+00  0.00000000000E+00  0.48104456539E+03  0.28315602146E+04  0.27903995009E+04 0.  0.
        2    1    3    3  502    0 -0.28283377328E+03 -0.85110303530E+03 -0.84398529189E+03  0.12315366389E+04  0.25500000920E-02 0.  1.
       -2    1    3    3    0  502  0.28283377328E+03  0.85110303530E+03  0.13250298573E+04  0.16000235757E+04  0.25500000920E-02 0. -1.
</event>
<event>
 5   0  0.2516518E-05  0.2432468E+04  0.7818609E-02  0.8427447E-01
       -2   -1    0    0    0  501  0.00000000000E+00  0.00000000000E+00  0.14671058161E+04  0.14671058161E+04  0.25500000920E-02 0. -1.
        2   -1    0    0  501    0  0.00000000000E+00  0.00000000000E+00 -0.10082609896E+04  0.10082609896E+04  0.25500000920E-02 0.  1.
    10030    2    1    2    0    0  0.00000000000E+00  0.00000000000E+00  0.45884482657E+03  0.24753668057E+04  0.24324683447E+04 0.  0.
        4    1    3    3  502    0  0.11158374163E+04  0.33348967782E+02 -0.26181078797E+03  0.11466262664E+04  0.12699999809E+01 0.  1.
       -4    1    3    3    0  502 -0.11158374163E+04 -0.33348967782E+02  0.72065561454E+03  0.13287405393E+04  0.12699999809E+01 0. -1.
</event>
<event>
 5   0  0.2641216E-05  0.2715184E+04  0.7818609E-02  0.8330095E-01
       -2   -1    0    0    0  501  0.00000000000E+00  0.00000000000E+00  0.76276748624E+03  0.76276748624E+03  0.25500000920E-02 0. -1.
        2   -1    0    0  501    0  0.00000000000E+00  0.00000000000E+00 -0.24162748184E+04  0.24162748184E+04  0.25500000920E-02 0.  1.
    10030    2    1    2    0    0  0.00000000000E+00  0.00000000000E+00 -0.16535073321E+04  0.31790423046E+04  0.27151838754E+04 0.  0.
        5    1    3    3  502    0  0.11739507699E+04 -0.50997954696E+03 -0.29690002805E+03  0.13139297032E+04  0.46999998093E+01 0. -1.
       -5    1    3    3    0  502 -0.11739507699E+04  0.50997954696E+03 -0.13566073041E+04  0.18651126014E+04  0.46999998093E+01 0.  1.
</event>
<event>
 5   0  0.1096672E-05  0.2707598E+04  0.7818609E-02  0.8332544E-01
        1   -1    0    0  501    0  0.00000000000E+00  0.00000000000E+00  0.26597568120E+04  0.26597568120E+04  0.50400001928E-02 0.  1.
       -1   -1    0    0    0  501  0.00000000000E+00  0.00000000000E+00 -0.68907490999E+03  0.68907491000E+03  0.50400001928E-02 0. -1.
    10030    2    1    2    0    0  0.00000000000E+00  0.00000000000E+00  0.19706819020E+04  0.33488317220E+04  0.27075979656E+04 0.  0.
        1    1    3    3  502    0  0.40094297332E+03 -0.95055549483E+03  0.20695673269E+04  0.23124489048E+04  0.50400001928E-02 0.  1.
       -1    1    3    3    0  502 -0.40094297332E+03  0.95055549483E+03 -0.98885424868E+02  0.10363828172E+04  0.50400001928E-02 0. -1.
</event>
<event>
 5   0  0.1036691E-05  0.2933466E+04  0.7818609E-02  0.8262989E-01
       -1   -1    0    0    0  501  0.00000000000E+00  0.00000000000E+00  0.13852580792E+04  0.13852580792E+04  0.50400001928E-02 0.  1.
        1   -1    0    0  501    0  0.00000000000E+00  0.00000000000E+00 -0.15529998899E+04  0.15529998899E+04  0.50400001928E-02 0. -1.
    10030    2    1    2    0    0  0.00000000000E+00  0.00000000000E+00 -0.16774181065E+03  0.29382579691E+04  0.29334659667E+04 0.  0.
        4    1    3    3  502    0 -0.54654087013E+03 -0.41186586877E+03  0.12155391767E+04  0.13949471386E+04  0.12699999809E+01 0. -1.
       -4    1    3    3    0  502  0.54654087013E+03  0.41186586877E+03 -0.13832809874E+04  0.15433108305E+04  0.12699999809E+01 0.  1.
</event>
<event>
 5   0  0.2540684E-05  0.2801067E+04  0.7818609E-02  0.8302937E-01
        2   -1    0    0  501    0  0.00000000000E+00  0.00000000000E+00  0.19301032002E+04  0.19301032002E+04  0.25500000920E-02 0.  1.
       -2   -1    0    0    0  501  0.00000000000E+00  0.00000000000E+00 -0.10162639737E+04  0.10162639737E+04  0.25500000920E-02 0. -1.
    10030    2    1    2    0    0  0.00000000000E+00  0.00000000000E+00  0.91383922648E+03  0.29463671739E+04  0.28010671879E+04 0.  0.
        2    1    3    3  502    0 -0.95578840345E+03  0.73519451132E+03  0.12062283307E+04  0.17055876487E+04  0.25500000920E-02 0.  1.
       -2    1    3    3    0  502  0.95578840345E+03 -0.73519451132E+03 -0.29238910426E+03  0.12407795251E+04  0.25500000920E-02 0. -1.
</event>
<event>
 5   0  0.2540232E-05  0.2598190E+04  0.7818609E-02  0.8368816E-01
       -2   -1    0    0    0  501  0.00000000000E+00  0.00000000000E+00  0.11361495823E+04  0.11361495823E+04  0.25500000920E-02 0.  1.
        2   -1    0    0  501    0  0.00000000000E+00  0.00000000000E+00 -0.14854102758E+04  0.14854102758E+04  0.25500000920E-02 0. -1.
    10030    2    1    2    0    0  0.00000000000E+00  0.00000000000E+00 -0.34926069347E+03  0.26215598581E+04  0.25981903428E+04 0.  0.
        1    1    3    3  502    0 -0.22201284491E+03 -0.87771326014E+03 -0.11146635018E+04  0.14360170586E+04  0.50400001928E-02 0. -1.
       -1    1    3    3    0  502  0.22201284491E+03  0.87771326014E+03  0.76540280832E+03  0.11855427995E+04  0.50400001928E-02 0.  1.
</event>
<event>
 5   0  0.2540232E-05  0.2424804E+04  0.7818609E-02  0.8430275E-01
       -2   -1    0    0    0  501  0.00000000000E+00  0.00000000000E+00  0.13215394485E+04  0.13215394485E+04  0.25500000920E-02 0.  1.
        2   -1    0    0  501    0  0.00000000000E+00  0.00000000000E+00 -0.11122776667E+04  0.11122776667E+04  0.25500000920E-02 0. -1.
    10030    2    1    2    0    0  0.00000000000E+00  0.00000000000E+00  0.20926178179E+03  0.24338171152E+04  0.24248041687E+04 0.  0.
        1    1    3    3  502    0  0.19937198321E+03  0.37425274110E+03 -0.10354186340E+04  0.11188860754E+04  0.50400001928E-02 0. -1.
       -1    1    3    3    0  502 -0.19937198321E+03 -0.37425274110E+03  0.12446804158E+04  0.13149310398E+04  0.50400001928E-02 0.  1.
</event>
<event>
 5   0  0.9971923E-06  0.2518161E+04  0.7818609E-02  0.8396544E-01
        1   -1    0    0  501    0  0.00000000000E+00  0.00000000000E+00  0.14282910867E+04  0.14282910867E+04  0.50400001928E-02 0.  1.
       -1   -1    0    0    0  501  0.00000000000E+00  0.00000000000E+00 -0.11099161133E+04  0.11099161133E+04  0.50400001928E-02 0. -1.
    10030    2    1    2    0    0  0.00000000000E+00  0.00000000000E+00  0.31837497344E+03  0.25382072001E+04  0.25181606713E+04 0.  0.
        2    1    3    3  502    0  0.12316836258E+03 -0.45538922425E+03  0.13358423689E+04  0.14166949656E+04  0.25500000920E-02 0.  1.
       -2    1    3    3    0  502 -0.12316836258E+03  0.45538922425E+03 -0.10174673955E+04  0.11215122344E+04  0.25500000920E-02 0. -1.
</event>
<event>
 5   0  0.2641216E-05  0.2595208E+04  0.7818609E-02  0.8369831E-01
       -2   -1    0    0    0  501  0.00000000000E+00  0.00000000000E+00  0.81089896973E+03  0.81089896974E+03  0.25500000920E-02 0.  1.
        2   -1    0    0  501    0  0.00000000000E+00  0.00000000000E+00 -0.20764318240E+04  0.20764318240E+04  0.25500000920E-02 0. -1.
    10030    2    1    2    0    0  0.00000000000E+00  0.00000000000E+00 -0.12655328543E+04  0.28873307937E+04  0.25952082204E+04 0.  0.
        5    1    3    3  502    0 -0.69314696504E+02 -0.63029574686E+03 -0.18923112980E+04  0.19957307920E+04  0.46999998093E+01 0. -1.
       -5    1    3    3    0  502  0.69314696504E+02  0.63029574686E+03  0.62677844369E+03  0.89160000176E+03  0.46999998093E+01 0.  1.
</event>
<event>
 5   0  0.1036691E-05  0.2725559E+04  0.7818609E-02  0.8326759E-01
       -1   -1    0    0    0  501  0.00000000000E+00  0.00000000000E+00  0.14697612781E+04  0.14697612781E+04  0.50400001928E-02 0. -1.
        1   -1    0    0  501    0  0.00000000000E+00  0.00000000000E+00 -0.12635850478E+04  0.12635850478E+04  0.50400001928E-02 0.  1.
    10030    2    1    2    0    0  0.00000000000E+00  0.00000000000E+00  0.20617623026E+03  0.27333463259E+04  0.27255593003E+04 0.  0.
        4    1    3    3  502    0  0.81222245729E+03  0.85381384765E+03 -0.58331119592E+03  0.13148980838E+04  0.12699999809E+01 0.  1.
       -4    1    3    3    0  502 -0.81222245729E+03 -0.85381384765E+03  0.78948742618E+03  0.14184482421E+04  0.12699999809E+01 0. -1.
</event>
<event>
 5   0  0.1096672E-05  0.2672316E+04  0.7818609E-02  0.8344044E-01
        1   -1    0    0  501    0  0.00000000000E+00  0.00000000000E+00  0.19479580544E+04  0.19479580544E+04  0.50400001928E-02 0.  1.
       -1   -1    0    0    0  501  0.00000000000E+00  0.00000000000E+00 -0.91650770948E+03  0.91650770949E+03  0.50400001928E-02 0. -1.
    10030    2    1    2    0    0  0.00000000000E+00  0.00000000000E+00  0.10314503449E+04  0.28644657639E+04  0.26723162797E+04 0.  0.
        1    1    3    3  502    0 -0.10357672568E+04 -0.81854530834E+03  0.73667347698E+03  0.15117929897E+04  0.50400001928E-02 0. -1.
       -1    1    3    3    0  502  0.10357672568E+04  0.81854530834E+03  0.29477686797E+03  0.13526727742E+04  0.50400001928E-02 0.  1.
</event>
<event>
 5   0  0.1096672E-05  0.2726322E+04  0.7818609E-02  0.8326514E-01
       -1   -1    0    0    0  501  0.00000000000E+00  0.00000000000E+00  0.10251338043E+04  0.10251338043E+04  0.50400001928E-02 0. -1.
        1   -1    0    0  501    0  0.00000000000E+00  0.00000000000E+00 -0.18126497727E+04  0.18126497727E+04  0.50400001928E-02 0.  1.
    10030    2    1    2    0    0  0.00000000000E+00  0.00000000000E+00 -0.78751596845E+03  0.28377835770E+04  0.27263224735E+04 0.  0.
        1    1    3    3  502    0 -0.17160162676E+03  0.12465963975E+04 -0.93936243063E+03  0.15703029875E+04  0.50400001928E-02 0. -1.
       -1    1    3    3    0  502  0.17160162676E+03 -0.12465963975E+04  0.15184646218E+03  0.12674805895E+04  0.50400001928E-02 0.  1.
</event>
<event>
 5   0  0.9971923E-06  0.2689099E+04  0.7818609E-02  0.8338551E-01
        1   -1    0    0  501    0  0.00000000000E+00  0.00000000000E+00  0.88463128636E+03  0.88463128638E+03  0.50400001928E-02 0. -1.
       -1   -1    0    0    0  501  0.00000000000E+00  0.00000000000E+00 -0.20435783794E+04  0.20435783794E+04  0.50400001928E-02 0.  1.
    10030    2    1    2    0    0  0.00000000000E+00  0.00000000000E+00 -0.11589470931E+04  0.29282096658E+04  0.26890990094E+04 0.  0.
        2    1    3    3  502    0 -0.84004090347E+03  0.45111816399E+03 -0.16117298368E+04  0.18726583736E+04  0.25500000920E-02 0.  1.
       -2    1    3    3    0  502  0.84004090347E+03 -0.45111816399E+03  0.45278274376E+03  0.10555512922E+04  0.25500000920E-02 0. -1.
</event>
<event>
 5   0  0.1005265E-05  0.2748345E+04  0.7818609E-02  0.8319487E-01
       -1   -1    0    0    0  501  0.00000000000E+00  0.00000000000E+00  0.15246081243E+04  0.15246081244E+04  0.50400001928E-02 0. -1.
        1   -1    0    0  501    0  0.00000000000E+00  0.00000000000E+00 -0.12385809516E+04  0.12385809517E+04  0.50400001928E-02 0.  1.
    10030    2    1    2    0    0  0.00000000000E+00  0.00000000000E+00  0.28602717270E+03  0.27631890760E+04  0.27483453797E+04 0.  0.
        3    1    3    3  502    0  0.12580417963E+04 -0.37887541038E+03 -0.26182086084E+03  0.13396887367E+04  0.10100000352E+00 0.  1.
       -3    1    3    3    0  502 -0.12580417963E+04  0.37887541038E+03  0.54784803354E+03  0.14235003393E+04  0.10100000352E+00 0. -1.
</event>
<event>
 5   0  0.2540232E-05  0.2671873E+04  0.7818609E-02  0.8344189E-01
        2   -1    0    0  501    0  0.00000000000E+00  0.00000000000E+00  0.13249762703E+04  0.13249762703E+04  0.25500000920E-02 0. -1.
       -2   -1    0    0    0  501  0.00000000000E+00  0.00000000000E+00 -0.13469870266E+04  0.13469870266E+04  0.25500000920E-02 0.  1.
    10030    2    1    2    0    0  0.00000000000E+00  0.00000000000E+00 -0.22010756262E+02  0.26719632969E+04  0.26718726367E+04 0.  0.
        1    1    3    3  502    0 -0.60678892018E+03  0.95360850447E+03  0.70117317484E+03  0.13301149554E+04  0.50400001928E-02 0. -1.
       -1    1    3    3    0  502  0.60678892018E+03 -0.95360850447E+03 -0.72318393110E+03  0.13418483415E+04  0.50400001928E-02 0.  1.
</event>
<event>
 5   0  0.1005265E-05  0.1889921E+04  0.7818609E-02  0.8659890E-01
       -1   -1    0    0    0  501  0.00000000000E+00  0.00000000000E+00  0.95980292885E+03  0.95980292887E+03  0.50400001928E-02 0. -1.
        1   -1    0    0  501    0  0.00000000000E+00  0.00000000000E+00 -0.93034733761E+03  0.93034733762E+03  0.50400001928E-02 0.  1.
    10030    2    1    2    0    0  0.00000000000E+00  0.00000000000E+00  0.29455591250E+02  0.18901502665E+04  0.18899207386E+04 0.  0.
        3    1    3    3  502    0 -0.21835036056E+03  0.52353159200E+03  0.77058931052E+03  0.95685427494E+03  0.10100000352E+00 0. -1.
       -3    1    3    3    0  502  0.21835036056E+03 -0.52353159200E+03 -0.74113371927E+03  0.93329599154E+03  0.10100000352E+00 0.  1.
</event>
<event>
 5   0  0.2516518E-05  0.2666667E+04  0.7818609E-02  0.8345902E-01
        2   -1    0    0  501    0  0.00000000000E+00  0.00000000000E+00  0.19066788169E+04  0.19066788169E+04  0.25500000920E-02 0.  1.
       -2   -1    0    0    0  501  0.00000000000E+00  0.00000000000E+00 -0.93239541194E+03  0.93239541195E+03  0.25500000920E-02 0. -1.
    10030    2    1    2    0    0  0.00000000000E+00  0.00000000000E+00  0.97428340493E+03  0.28390742288E+04  0.26666672690E+04 0.  0.
        4    1    3    3  502    0 -0.14117325987E+03 -0.31582335084E+03  0.18580664903E+04  0.18899965538E+04  0.12699999809E+01 0.  1.
       -4    1    3    3    0  502  0.14117325987E+03  0.31582335084E+03 -0.88378308538E+03  0.94907767498E+03  0.12699999809E+01 0. -1.
</event>
<event>
 5   0  0.2615843E-05  0.2737518E+04  0.7818609E-02  0.8322933E-01
       -2   -1    0    0    0  501  0.00000000000E+00  0.00000000000E+00  0.84196270185E+03  0.84196270185E+03  0.25500000920E-02 0. -1.
        2   -1    0    0  501    0  0.00000000000E+00  0.00000000000E+00 -0.22251590715E+04  0.22251590715E+04  0.25500000920E-02 0.  1.
    10030    2    1    2    0    0  0.00000000000E+00  0.00000000000E+00 -0.13831963696E+04  0.30671217733E+04  0.27375178128E+04 0.  0.
        3    1    3    3  502    0 -0.81773547654E+03 -0.50209705776E+03 -0.17851868739E+04  0.20267424479E+04  0.10100000352E+00 0.  1.
       -3    1    3    3    0  502  0.81773547654E+03  0.50209705776E+03  0.40199050433E+03  0.10403793254E+04  0.10100000352E+00 0. -1.
</event>
<event>
 5   0  0.2540684E-05  0.2801993E+04  0.7818609E-02  0.8302650E-01
        2   -1    0    0  501    0  0.00000000000E+00  0.00000000000E+00  0.20067608588E+04  0.20067608589E+04  0.25500000920E-02 0. -1.
       -2   -1    0    0    0  501  0.00000000000E+00  0.00000000000E+00 -0.97808899412E+03  0.97808899412E+03  0.25500000920E-02 0.  1.
    10030    2    1    2    0    0  0.00000000000E+00  0.00000000000E+00  0.10286718647E+04  0.29848498530E+04  0.28019926551E+04 0.  0.
        2    1    3    3  502    0  0.10819146384E+04 -0.65070125537E+03 -0.13261909562E+03  0.12694641520E+04  0.25500000920E-02 0.  1.
       -2    1    3    3    0  502 -0.10819146384E+04  0.65070125537E+03  0.11612909603E+04  0.17153857010E+04  0.25500000920E-02 0. -1.
</event>
<event>
 5   0  0.1041909E-05  0.3154823E+04  0.7818609E-02  0.8200851E-01
       -1   -1    0    0    0  501  0.00000000000E+00  0.00000000000E+00  0.12196831574E+04  0.12196831574E+04  0.50400001928E-02 0. -1.
        1   -1    0    0  501    0  0.00000000000E+00  0.00000000000E+00 -0.20400597099E+04  0.20400597099E+04  0.50400001928E-02 0.  1.
    10030    2    1    2    0    0  0.00000000000E+00  0.00000000000E+00 -0.82037655258E+03  0.32597428673E+04  0.31548226373E+04 0.  0.
        5    1    3    3  502    0 -0.15196440147E+04 -0.15580694878E+03 -0.39058042788E+01  0.15276226897E+04  0.46999998093E+01 0. -1.
       -5    1    3    3    0  502  0.15196440147E+04  0.15580694878E+03 -0.81647074830E+03  0.17321201776E+04  0.46999998093E+01 0.  1.
</event>
<event>
 5   0  0.1096672E-05  0.2439231E+04  0.7818609E-02  0.8424961E-01
       -1   -1    0    0    0  501  0.00000000000E+00  0.00000000000E+00  0.18068706994E+04  0.18068706995E+04  0.50400001928E-02 0.  1.
        1   -1    0    0  501    0  0.00000000000E+00  0.00000000000E+00 -0.82322521714E+03  0.82322521716E+03  0.50400001928E-02 0. -1.
    10030    2    1    2    0    0  0.00000000000E+00  0.00000000000E+00  0.98364548231E+03  0.26300959166E+04  0.24392306360E+04 0.  0.
        1    1    3    3  502    0 -0.53860540224E+03 -0.10879504216E+04  0.36548065235E+03  0.12677965162E+04  0.50400001928E-02 0. -1.
       -1    1    3    3    0  502  0.53860540224E+03  0.10879504216E+04  0.61816482995E+03  0.13622994004E+04  0.50400001928E-02 0.  1.
</event>
<event>
 5   0  0.2516518E-05  0.2671207E+04  0.7818609E-02  0.8344408E-01
       -2   -1    0    0    0  501  0.00000000000E+00  0.00000000000E+00  0.63455907844E+03  0.63455907844E+03  0.25500000920E-02 0. -1.
        2   -1    0    0  501    0  0.00000000000E+00  0.00000000000E+00 -0.28111435831E+04  0.28111435831E+04  0.25500000920E-02 0.  1.
    10030    2    1    2    0    0  0.00000000000E+00  0.00000000000E+00 -0.21765845047E+04  0.34457026616E+04  0.26712069792E+04 0.  0.
        4    1    3    3  502    0 -0.88015685950E+03 -0.64646656820E+03 -0.20801562861E+04  0.23493928808E+04  0.12699999809E+01 0. -1.
       -4    1    3    3    0  502  0.88015685950E+03  0.64646656820E+03 -0.96428218636E+02  0.10963097808E+04  0.12699999809E+01 0.  1.
</event>
<event>
 5   0  0.2516518E-05  0.2677070E+04  0.7818609E-02  0.8342484E-01
        2   -1    0    0  501    0  0.00000000000E+00  0.00000000000E+00  0.24462117684E+04  0.24462117684E+04  0.25500000920E-02 0. -1.
       -2   -1    0    0    0  501  0.00000000000E+00  0.00000000000E+00 -0.73242857010E+03  0.73242857011E+03  0.25500000920E-02 0.  1.
    10030    2    1    2    0    0  0.00000000000E+00  0.00000000000E+00  0.17137831983E+04  0.31786403385E+04  0.26770695827E+04 0.  0.
        4    1    3    3  502    0  0.66006862305E+03  0.21542825317E+03  0.22156640376E+04  0.23219105624E+04  0.12699999809E+01 0. -1.
       -4    1    3    3    0  502 -0.66006862305E+03 -0.21542825317E+03 -0.50188083934E+03  0.85672977607E+03  0.12699999809E+01 0.  1.
</event>
<event>
 5   0  0.2641216E-05  0.2643320E+04  0.7818609E-02  0.8353634E-01
        2   -1    0    0  501    0  0.00000000000E+00  0.00000000000E+00  0.16349038261E+04  0.16349038261E+04  0.25500000920E-02 0.  1.
       -2   -1    0    0    0  501  0.00000000000E+00  0.00000000000E+00 -0.10684327836E+04  0.10684327836E+04  0.25500000920E-02 0. -1.
    10030    2    1    2    0    0  0.00000000000E+00  0.00000000000E+00  0.56647104247E+03  0.27033366098E+04  0.26433197657E+04 0.  0.
        5    1    3    3  502    0 -0.75263025549E+03  0.35622403627E+02 -0.82725528668E+03  0.11189703555E+04  0.46999998093E+01 0. -1.
       -5    1    3    3    0  502  0.75263025549E+03 -0.35622403627E+02  0.13937263291E+04  0.15843662543E+04  0.46999998093E+01 0.  1.
</event>
<event>
 5   0  0.2615843E-05  0.2686679E+04  0.7818609E-02  0.8339340E-01
       -2   -1    0    0    0  501  0.00000000000E+00  0.00000000000E+00  0.14136383151E+04  0.14136383151E+04  0.25500000920E-02 0. -1.
        2   -1    0    0  501    0  0.00000000000E+00  0.00000000000E+00 -0.12765369631E+04  0.12765369631E+04  0.25500000920E-02 0.  1.
    10030    2    1    2    0    0  0.00000000000E+00  0.00000000000E+00  0.13710135196E+03  0.26901752782E+04  0.26866794090E+04 0.  0.
        3    1    3    3  502    0  0.12765317985E+04  0.33890551853E+03 -0.17706662361E+03  0.13325700667E+04  0.10100000352E+00 0. -1.
       -3    1    3    3    0  502 -0.12765317985E+04 -0.33890551853E+03  0.31416797557E+03  0.13576052115E+04  0.10100000352E+00 0.  1.
</event>
<event>
 5   0  0.2516518E-05  0.2708770E+04  0.7818609E-02  0.8332165E-01
       -2   -1    0    0    0  501  0.00000000000E+00  0.00000000000E+00  0.14171257947E+04  0.14171257947E+04  0.25500000920E-02 0. -1.
        2   -1    0    0  501    0  0.00000000000E+00  0.00000000000E+00 -0.12944214830E+04  0.12944214830E+04  0.25500000920E-02 0.  1.
    10030    2    1    2    0    0  0.00000000000E+00  0.00000000000E+00  0.12270431169E+03  0.27115472777E+04  0.27087695161E+04 0.  0.
        4    1    3    3  502    0 -0.51501358144E+03 -0.19918626704E+03 -0.11766222802E+04  0.12997521922E+04  0.12699999809E+01 0.  1.
       -4    1    3    3    0  502  0.51501358144E+03  0.19918626704E+03  0.12993265919E+04  0.14117950855E+04  0.12699999809E+01 0. -1.
</event>
<event>
 5   0  0.1041909E-05  0.2696109E+04  0.7818609E-02  0.8336268E-01
        1   -1    0    0  501    0  0.00000000000E+00  0.00000000000E+00  0.16089941118E+04  0.16089941118E+04  0.50400001928E-02 0.  1.
       -1   -1    0    0    0  501  0.00000000000E+00  0.00000000000E+00 -0.11294332161E+04  0.11294332161E+04  0.50400001928E-02 0. -1.
    10030    2    1    2    0    0  0.00000000000E+00  0.00000000000E+00  0.47956089566E+03  0.27384273279E+04  0.26961093408E+04 0.  0.
        5    1    3    3  502    0  0.10366509973E+04 -0.75856982521E+03 -0.17548374923E+03  0.12964914601E+04  0.46999998093E+01 0. -1.
       -5    1    3    3    0  502 -0.10366509973E+04  0.75856982521E+03  0.65504464489E+03  0.14419358678E+04  0.46999998093E+01 0.  1.
</event>
<event>
 5   0  0.9971923E-06  0.2820604E+04  0.7818609E-02  0.8296900E-01
        1   -1    0    0  501    0  0.00000000000E+00  0.00000000000E+00  0.19916004941E+04  0.19916004941E+04  0.50400001928E-02 0. -1.
       -1   -1    0    0    0  501  0.00000000000E+00  0.00000000000E+00 -0.99867012724E+03  0.99867012726E+03  0.50400001928E-02 0.  1.
    10030    2    1    2    0    0  0.00000000000E+00  0.00000000000E+00  0.99293036689E+03  0.29902706214E+04  0.28206041331E+04 0.  0.
        2    1    3    3  502    0 -0.98312202626E+03  0.35181643893E+03  0.15014585817E+04  0.18288470679E+04  0.25500000920E-02 0. -1.
       -2    1    3    3    0  502  0.98312202626E+03 -0.35181643893E+03 -0.50852821485E+03  0.11614235535E+04  0.25500000920E-02 0.  1.
</event>
<event>
 5   0  0.2516518E-05  0.2664081E+04  0.7818609E-02  0.8346754E-01
        2   -1    0    0  501    0  0.00000000000E+00  0.00000000000E+00  0.14061149334E+04  0.14061149334E+04  0.25500000920E-02 0.  1.
       -2   -1    0    0    0  501  0.00000000000E+00  0.00000000000E+00 -0.12618687374E+04  0.12618687374E+04  0.25500000920E-02 0. -1.
    10030    2    1    2    0    0  0.00000000000E+00  0.00000000000E+00  0.14424619601E+03  0.26679836708E+04  0.26640814369E+04 0.  0.
        4    1    3    3  502    0 -0.43063654521E+03 -0.75851030350E+03  0.10803475368E+04  0.13885021166E+04  0.12699999809E+01 0.  1.
       -4    1    3    3    0  502  0.43063654521E+03  0.75851030350E+03 -0.93610134076E+03  0.12794815542E+04  0.12699999809E+01 0. -1.
</event>
<event>
 5   0  0.2615843E-05  0.2591181E+04  0.7818609E-02  0.8371203E-01
       -2   -1    0    0    0  501  0.00000000000E+00  0.00000000000E+00  0.78162011853E+03  0.78162011854E+03  0.25500000920E-02 0. -1.
        2   -1    0    0  501    0  0.00000000000E+00  0.00000000000E+00 -0.21475333612E+04  0.21475333612E+04  0.25500000920E-02 0.  1.
    10030    2    1    2    0    0  0.00000000000E+00  0.00000000000E+00 -0.13659132427E+04  0.29291534797E+04  0.25911814142E+04 0.  0.
        3    1    3    3  502    0 -0.82389244223E+02 -0.11328152616E+04  0.21635962795E+02  0.11360134372E+04  0.10100000352E+00 0.  1.
       -3    1    3    3    0  502  0.82389244223E+02  0.11328152616E+04 -0.13875492055E+04  0.17931400425E+04  0.10100000352E+00 0. -1.
</event>
<event>
 5   0  0.8740500E-06  0.2643882E+04  0.7818609E-02  0.8353447E-01
        3   -1    0    0  501    0  0.00000000000E+00  0.00000000000E+00  0.12228745645E+04  0.12228745687E+04  0.10100000352E+00 0.  1.
       -3   -1    0    0    0  501  0.00000000000E+00  0.00000000000E+00 -0.14290323938E+04  0.14290323974E+04  0.10100000352E+00 0. -1.
    10030    2    1    2    0    0  0.00000000000E+00  0.00000000000E+00 -0.20615782935E+03  0.26519069661E+04  0.26438815227E+04 0.  0.
        4    1    3    3  502    0 -0.92418298360E+03  0.36070712453E+03 -0.97940245765E+03  0.13940784066E+04  0.12699999809E+01 0. -1.
       -4    1    3    3    0  502  0.92418298360E+03 -0.36070712453E+03  0.77324462830E+03  0.12578285595E+04  0.12699999809E+01 0.  1.
</event>
<event>
 5   0  0.2540684E-05  0.2678648E+04  0.7818609E-02  0.8341966E-01
        2   -1    0    0  501    0  0.00000000000E+00  0.00000000000E+00  0.19028845163E+04  0.19028845163E+04  0.25500000920E-02 0.  1.
       -2   -1    0    0    0  501  0.00000000000E+00  0.00000000000E+00 -0.94266790526E+03  0.94266790526E+03  0.25500000920E-02 0. -1.
    10030    2    1    2    0    0  0.00000000000E+00  0.00000000000E+00  0.96021661104E+03  0.28455524216E+04  0.26786475400E+04 0.  0.
        2    1    3    3  502    0 -0.12929064615E+03  0.89589391337E+03 -0.56854021479E+03  0.10689153152E+04  0.25500000920E-02 0. -1.
       -2    1    3    3    0  502  0.12929064615E+03 -0.89589391337E+03  0.15287568258E+04  0.17766371064E+04  0.25500000920E-02 0.  1.
</event>
<event>
 5   0  0.2516518E-05  0.2773850E+04  0.7818609E-02  0.8311433E-01
        2   -1    0    0  501    0  0.00000000000E+00  0.00000000000E+00  0.23143898524E+04  0.23143898524E+04  0.25500000920E-02 0.  1.
       -2   -1    0    0    0  501  0.00000000000E+00  0.00000000000E+00 -0.83113105223E+03  0.83113105223E+03  0.25500000920E-02 0. -1.
    10030    2    1    2    0    0  0.00000000000E+00  0.00000000000E+00  0.14832588002E+04  0.31455209046E+04  0.27738502290E+04 0.  0.
        4    1    3    3  502    0 -0.68498754856E+03 -0.24319733955E+03 -0.59782784465E+03  0.94114432070E+03  0.12699999809E+01 0. -1.
       -4    1    3    3    0  502  0.68498754856E+03  0.24319733955E+03  0.20810866448E+04  0.22043765839E+04  0.12699999809E+01 0.  1.
</event>
<event>
 5   0  0.1096672E-05  0.2605341E+04  0.7818609E-02  0.8366389E-01
        1   -1    0    0  501    0  0.00000000000E+00  0.00000000000E+00  0.11063337918E+04  0.11063337918E+04  0.50400001928E-02 0. -1.
       -1   -1    0    0    0  501  0.00000000000E+00  0.00000000000E+00 -0.15338500886E+04  0.15338500886E+04  0.50400001928E-02 0.  1.
    10030    2    1    2    0    0  0.00000000000E+00  0.00000000000E+00 -0.42751629682E+03  0.26401838804E+04  0.26053408104E+04 0.  0.
        1    1    3    3  502    0  0.33188858920E+03 -0.71890519575E+03 -0.12619880475E+04  0.14898283620E+04  0.50400001928E-02 0.  1.
       -1    1    3    3    0  502 -0.33188858920E+03  0.71890519575E+03  0.83447175069E+03  0.11503555185E+04  0.50400001928E-02 0. -1.
</event>
<event>
 5   0  0.2540684E-05  0.2690717E+04  0.7818609E-02  0.8338023E-01
       -2   -1    0    0    0  501  0.00000000000E+00  0.00000000000E+00  0.14588105824E+04  0.14588105824E+04  0.25500000920E-02 0. -1.
        2   -1    0    0  501    0  0.00000000000E+00  0.00000000000E+00 -0.12407292015E+04  0.12407292015E+04  0.25500000920E-02 0.  1.
    10030    2    1    2    0    0  0.00000000000E+00  0.00000000000E+00  0.21808138087E+03  0.26995397840E+04  0.26907165508E+04 0.  0.
        2    1    3    3  502    0  0.52365455433E+03 -0.80533595138E+03  0.10540469888E+04  0.14261118965E+04  0.25500000920E-02 0. -1.
       -2    1    3    3    0  502 -0.52365455433E+03  0.80533595138E+03 -0.83596560792E+03  0.12734278874E+04  0.25500000920E-02 0.  1.
</event>
<event>
 5   0  0.1041909E-05  0.1739955E+04  0.7818609E-02  0.8738899E-01
        1   -1    0    0  501    0  0.00000000000E+00  0.00000000000E+00  0.15519929540E+04  0.15519929540E+04  0.50400001928E-02 0.  1.
       -1   -1    0    0    0  501  0.00000000000E+00  0.00000000000E+00 -0.48767029177E+03  0.48767029180E+03  0.50400001928E-02 0. -1.
    10030    2    1    2    0    0  0.00000000000E+00  0.00000000000E+00  0.10643226622E+04  0.20396632458E+04  0.17399550071E+04 0.  0.
        5    1    3    3  502    0  0.37054315700E+03 -0.44165098573E+03  0.12959083890E+04  0.14183647159E+04  0.46999998093E+01 0.  1.
       -5    1    3    3    0  502 -0.37054315700E+03  0.44165098573E+03 -0.23158572685E+03  0.62129852992E+03  0.46999998093E+01 0. -1.
</event>
<event>
 5   0  0.1005265E-05  0.2715173E+04  0.7818609E-02  0.8330099E-01
       -1   -1    0    0    0  501  0.00000000000E+00  0.00000000000E+00  0.10712738457E+04  0.10712738457E+04  0.50400001928E-02 0. -1.
        1   -1    0    0  501    0  0.00000000000E+00  0.00000000000E+00 -0.17204200501E+04  0.17204200501E+04  0.50400001928E-02 0.  1.
    10030    2    1    2    0    0  0.00000000000E+00  0.00000000000E+00 -0.64914620436E+03  0.27916938958E+04  0.27151729251E+04 0.  0.
        3    1    3    3  502    0  0.82012563459E+03  0.26318216401E+03 -0.14035136258E+04  0.16467305232E+04  0.10100000352E+00 0.  1.
       -3    1    3    3    0  502 -0.82012563459E+03 -0.26318216401E+03  0.75436742143E+03  0.11449633726E+04  0.10100000352E+00 0. -1.
</event>
<event>
 5   0  0.2641216E-05  0.2631320E+04  0.7818609E-02  0.8357640E-01
        2   -1    0    0  501    0  0.00000000000E+00  0.00000000000E+00  0.20004987516E+04  0.20004987516E+04  0.25500000920E-02 0. -1.
       -2   -1    0    0    0  501  0.00000000000E+00  0.00000000000E+00 -0.86526455339E+03  0.86526455340E+03  0.25500000920E-02 0.  1.
    10030    2    1    2    0    0  0.00000000000E+00  0.00000000000E+00  0.11352341982E+04  0.28657633050E+04  0.26313195616E+04 0.  0.
        5    1    3    3  502    0  0.76482658362E+03 -0.54375093598E+03  0.15719006120E+04  0.18307152721E+04  0.46999998093E+01 0. -1.
       -5    1    3    3    0  502 -0.76482658362E+03  0.54375093598E+03 -0.43666641385E+03  0.10350480329E+04  0.46999998093E+01 0.  1.
</event>
<event>
 5   0  0.1041909E-05  0.1912854E+04  0.7818609E-02  0.8648485E-01
        1   -1    0    0  501    0  0.00000000000E+00  0.00000000000E+00  0.10027094561E+04  0.10027094561E+04  0.50400001928E-02 0. -1.
       -1   -1    0    0    0  501  0.00000000000E+00  0.00000000000E+00 -0.91228052311E+03  0.91228052313E+03  0.50400001928E-02 0.  1.
    10030    2    1    2    0    0  0.00000000000E+00  0.00000000000E+00  0.90428932978E+02  0.19149899792E+04  0.19128536872E+04 0.  0.
        5    1    3    3  502    0 -0.94975442233E+03  0.10851582203E+03  0.75597508826E+02  0.95892972616E+03  0.46999998093E+01 0. -1.
       -5    1    3    3    0  502  0.94975442233E+03 -0.10851582203E+03  0.14831424152E+02  0.95606025308E+03  0.46999998093E+01 0.  1.
</event>
<event>
 5   0  0.2615843E-05  0.2672157E+04  0.7818609E-02  0.8344096E-01
        2   -1    0    0  501    0  0.00000000000E+00  0.00000000000E+00  0.19620313360E+04  0.19620313360E+04  0.25500000920E-02 0.  1.
       -2   -1    0    0    0  501  0.00000000000E+00  0.00000000000E+00 -0.90982501189E+03  0.90982501189E+03  0.25500000920E-02 0. -1.
    10030    2    1    2    0    0  0.00000000000E+00  0.00000000000E+00  0.10522063241E+04  0.28718563479E+04  0.26721565699E+04 0.  0.
        3    1    3    3  502    0 -0.22492141007E+03 -0.12119329394E+04  0.10801218846E+04  0.16389125621E+04  0.10100000352E+00 0.  1.
       -3    1    3    3    0  502  0.22492141007E+03  0.12119329394E+04 -0.27915560522E+02  0.12329437858E+04  0.10100000352E+00 0. -1.
</event>
<event>
 5   0  0.1096672E-05  0.2118017E+04  0.7818609E-02  0.8553348E-01
       -1   -1    0    0    0  501  0.00000000000E+00  0.00000000000E+00  0.57567678599E+03  0.57567678601E+03  0.50400001928E-02 0.  1.
        1   -1    0    0  501    0  0.00000000000E+00  0.00000000000E+00 -0.19481401580E+04  0.19481401580E+04  0.50400001928E-02 0. -1.
    10030    2    1    2    0    0  0.00000000000E+00  0.00000000000E+00 -0.13724633720E+04  0.25238169440E+04  0.21180170583E+04 0.  0.
        1    1    3    3  502    0  0.64217003408E+03  0.18623103734E+03  0.29235286615E+03  0.72974964907E+03  0.50400001928E-02 0.  1.
       -1    1    3    3    0  502 -0.64217003408E+03 -0.18623103734E+03 -0.16648162381E+04  0.17940672949E+04  0.50400001928E-02 0. -1.
</event>
<event>
 5   0  0.1041909E-05  0.2927138E+04  0.7818609E-02  0.8264849E-01
        1   -1    0    0  501    0  0.00000000000E+00  0.00000000000E+00  0.18954458836E+04  0.18954458836E+04  0.50400001928E-02 0. -1.
       -1   -1    0    0    0  501  0.00000000000E+00  0.00000000000E+00 -0.11300954798E+04  0.11300954798E+04  0.50400001928E-02 0.  1.
    10030    2    1    2    0    0  0.00000000000E+00  0.00000000000E+00  0.76535040374E+03  0.30255413634E+04  0.29271384151E+04 0.  0.
        5    1    3    3  502    0  0.13693466053E+04 -0.30864213371E+03  0.81090061027E+03  0.16210959200E+04  0.46999998093E+01 0. -1.
       -5    1    3    3    0  502 -0.13693466053E+04  0.30864213371E+03 -0.45550206528E+02  0.14044454434E+04  0.46999998093E+01 0.  1.
</event>
<event>
 5   0  0.2615843E-05  0.2724238E+04  0.7818609E-02  0.8327183E-01
        2   -1    0    0  501    0  0.00000000000E+00  0.00000000000E+00  0.13748679333E+04  0.13748679333E+04  0.25500000920E-02 0.  1.
       -2   -1    0    0    0  501  0.00000000000E+00  0.00000000000E+00 -0.13494885039E+04  0.13494885039E+04  0.25500000920E-02 0. -1.
    10030    2    1    2    0    0  0.00000000000E+00  0.00000000000E+00  0.25379429336E+02  0.27243564372E+04  0.27242382204E+04 0.  0.
        3    1    3    3  502    0 -0.81776905713E+03 -0.91399845017E+03 -0.57998181821E+03  0.13566570375E+04  0.10100000352E+00 0. -1.
       -3    1    3    3    0  502  0.81776905713E+03  0.91399845017E+03  0.60536124754E+03  0.13676993997E+04  0.10100000352E+00 0.  1.
</event>
<event>
 5   0  0.2641216E-05  0.2540078E+04  0.7818609E-02  0.8388845E-01
        2   -1    0    0  501    0  0.00000000000E+00  0.00000000000E+00  0.16881618515E+04  0.16881618515E+04  0.25500000920E-02 0.  1.
       -2   -1    0    0    0  501  0.00000000000E+00  0.00000000000E+00 -0.95547663885E+03  0.95547663885E+03  0.25500000920E-02 0. -1.
    10030    2    1    2    0    0  0.00000000000E+00  0.00000000000E+00  0.73268521269E+03  0.26436384904E+04  0.25400781183E+04 0.  0.
        5    1    3    3  502    0  0.28520494765E+03  0.48520763357E+03  0.15512720140E+04  0.16502227914E+04  0.46999998093E+01 0.  1.
       -5    1    3    3    0  502 -0.28520494765E+03 -0.48520763357E+03 -0.81858680128E+03  0.99341569902E+03  0.46999998093E+01 0. -1.
</event>
<event>
 5   0  0.2641216E-05  0.2654605E+04  0.7818609E-02  0.8349886E-01
        2   -1    0    0  501    0  0.00000000000E+00  0.00000000000E+00  0.22443647595E+04  0.22443647595E+04  0.25500000920E-02 0. -1.
       -2   -1    0    0    0  501  0.00000000000E+00  0.00000000000E+00 -0.78495802002E+03  0.78495802002E+03  0.25500000920E-02 0.  1.
    10030    2    1    2    0    0  0.00000000000E+00  0.00000000000E+00  0.14594067395E+04  0.30293227795E+04  0.26546051441E+04 0.  0.
        5    1    3    3  502    0  0.88814865384E+03 -0.32599297989E+03  0.17920411388E+04  0.20264533025E+04  0.46999998093E+01 0. -1.
       -5    1    3    3    0  502 -0.88814865384E+03  0.32599297989E+03 -0.33263439931E+03  0.10028694770E+04  0.46999998093E+01 0.  1.
</event>
<event>
 5   0  0.1036691E-05  0.1709242E+04  0.7818609E-02  0.8756111E-01
        1   -1    0    0  501    0  0.00000000000E+00  0.00000000000E+00  0.11175435001E+04  0.11175435001E+04  0.50400001928E-02 0. -1.
       -1   -1    0    0    0  501  0.00000000000E+00  0.00000000000E+00 -0.65355590746E+03  0.65355590748E+03  0.50400001928E-02 0.  1.
    10030    2    1    2    0    0  0.00000000000E+00  0.00000000000E+00  0.46398759261E+03  0.17710994076E+04  0.17092421202E+04 0.  0.
        4    1    3    3  502    0  0.82361694101E+02 -0.36279415609E+02 -0.64863100619E+03  0.65484611913E+03  0.12699999809E+01 0.  1.
       -4    1    3    3    0  502 -0.82361694101E+02  0.36279415609E+02  0.11126185988E+04  0.11162532884E+04  0.12699999809E+01 0. -1.
</event>
<event>
 5   0  0.1041909E-05  0.2901413E+04  0.7818609E-02  0.8272457E-01
       -1   -1    0    0    0  501  0.00000000000E+00  0.00000000000E+00  0.15341084146E+04  0.15341084146E+04  0.50400001928E-02 0. -1.
        1   -1    0    0  501    0  0.00000000000E+00  0.00000000000E+00 -0.13718386497E+04  0.13718386498E+04  0.50400001928E-02 0.  1.
    10030    2    1    2    0    0  0.00000000000E+00  0.00000000000E+00  0.16226976485E+03  0.29059470644E+04  0.29014129083E+04 0.  0.
        5    1    3    3  502    0  0.12910185256E+04  0.65704349182E+03  0.15930903551E+03  0.14573388221E+04  0.46999998093E+01 0. -1.
       -5    1    3    3    0  502 -0.12910185256E+04 -0.65704349182E+03  0.29607293440E+01  0.14486082423E+04  0.46999998093E+01 0.  1.
</event>
<event>
 5   0  0.1036691E-05  0.2717510E+04  0.7818609E-02  0.8329346E-01
       -1   -1    0    0    0  501  0.00000000000E+00  0.00000000000E+00  0.24423096691E+04  0.24423096691E+04  0.50400001928E-02 0. -1.
        1   -1    0    0  501    0  0.00000000000E+00  0.00000000000E+00 -0.75593005899E+03  0.75593005901E+03  0.50400001928E-02 0.  1.
    10030    2    1    2    0    0  0.00000000000E+00  0.00000000000E+00  0.16863796101E+04  0.31982397281E+04  0.27175101047E+04 0.  0.
        4    1    3    3  502    0  0.43398428010E+01 -0.48873144644E+03  0.23352736855E+04  0.23858713419E+04  0.12699999809E+01 0. -1.
       -4    1    3    3    0  502 -0.43398428010E+01  0.48873144644E+03 -0.64889407538E+03  0.81236838623E+03  0.12699999809E+01 0.  1.
</event>
<event>
 5   0  0.1005265E-05  0.2715656E+04  0.7818609E-02  0.8329943E-01
       -1   -1    0    0    0  501  0.00000000000E+00  0.00000000000E+00  0.18042366152E+04  0.18042366153E+04  0.50400001928E-02 0. -1.
        1   -1    0    0  501    0  0.00000000000E+00  0.00000000000E+00 -0.10218712180E+04  0.10218712181E+04  0.50400001928E-02 0.  1.
    10030    2    1    2    0    0  0.00000000000E+00  0.00000000000E+00  0.78236539720E+03  0.28261078333E+04  0.27156564346E+04 0.  0.
        3    1    3    3  502    0  0.13225848482E+04 -0.27056170522E+03  0.54293231687E+03  0.14550635134E+04  0.10100000352E+00 0. -1.
       -3    1    3    3    0  502 -0.13225848482E+04  0.27056170522E+03  0.23943308032E+03  0.13710443199E+04  0.10100000352E+00 0.  1.
</event>
<event>
 5   0  0.1036691E-05  0.2642406E+04  0.7818609E-02  0.8353938E-01
        1   -1    0    0  501    0  0.00000000000E+00  0.00000000000E+00  0.18081267557E+04  0.18081267557E+04  0.50400001928E-02 0. -1.
       -1   -1    0    0    0  501  0.00000000000E+00  0.00000000000E+00 -0.96540623481E+03  0.96540623482E+03  0.50400001928E-02 0.  1.
    10030    2    1    2    0    0  0.00000000000E+00  0.00000000000E+00  0.84272052086E+03  0.27735329905E+04  0.26424056034E+04 0.  0.
        4    1    3    3  502    0  0.11654695647E+04 -0.60815897516E+03  0.28291094307E+03  0.13446995427E+04  0.12699999809E+01 0.  1.
       -4    1    3    3    0  502 -0.11654695647E+04  0.60815897516E+03  0.55980957779E+03  0.14288334478E+04  0.12699999809E+01 0. -1.
</event>
<event>
 5   0  0.2615843E-05  0.2047935E+04  0.7818609E-02  0.8584532E-01
       -2   -1    0    0    0  501  0.00000000000E+00  0.00000000000E+00  0.66467713979E+03  0.66467713979E+03  0.25500000920E-02 0.  1.
        2   -1    0    0  501    0  0.00000000000E+00  0.00000000000E+00 -0.15774714744E+04  0.15774714744E+04  0.25500000920E-02 0. -1.
    10030    2    1    2    0    0  0.00000000000E+00  0.00000000000E+00 -0.91279433459E+03  0.22421486142E+04  0.20479347916E+04 0.  0.
        3    1    3    3  502    0  0.60420309545E+03 -0.47723688238E+03 -0.11954650878E+04  0.14219540108E+04  0.10100000352E+00 0. -1.
       -3    1    3    3    0  502 -0.60420309545E+03  0.47723688238E+03  0.28267075324E+03  0.82019460336E+03  0.10100000352E+00 0.  1.
</event>
<event>
 5   0  0.2641216E-05  0.2700115E+04  0.7818609E-02  0.8334968E-01
        2   -1    0    0  501    0  0.00000000000E+00  0.00000000000E+00  0.13750784924E+04  0.13750784924E+04  0.25500000920E-02 0.  1.
       -2   -1    0    0    0  501  0.00000000000E+00  0.00000000000E+00 -0.13254916692E+04  0.13254916692E+04  0.25500000920E-02 0. -1.
    10030    2    1    2    0    0  0.00000000000E+00  0.00000000000E+00  0.49586823208E+02  0.27005701616E+04  0.27001148762E+04 0.  0.
        5    1    3    3  502    0 -0.86223539632E+03  0.91200091827E+03 -0.47272130576E+03  0.13411499083E+04  0.46999998093E+01 0. -1.
       -5    1    3    3    0  502  0.86223539632E+03 -0.91200091827E+03  0.52230812897E+03  0.13594202533E+04  0.46999998093E+01 0.  1.
</event>
<event>
 5   0  0.2641216E-05  0.2676523E+04  0.7818609E-02  0.8342663E-01
        2   -1    0    0  501    0  0.00000000000E+00  0.00000000000E+00  0.18251192657E+04  0.18251192657E+04  0.25500000920E-02 0. -1.
       -2   -1    0    0    0  501  0.00000000000E+00  0.00000000000E+00 -0.98127477473E+03  0.98127477474E+03  0.25500000920E-02 0.  1.
    10030    2    1    2    0    0  0.00000000000E+00  0.00000000000E+00  0.84384449094E+03  0.28063940404E+04  0.26765227414E+04 0.  0.
        5    1    3    3  502    0  0.12527053243E+04 -0.39725915005E+03  0.68683956736E+03  0.14828540532E+04  0.46999998093E+01 0. -1.
       -5    1    3    3    0  502 -0.12527053243E+04  0.39725915005E+03  0.15700492357E+03  0.13235399872E+04  0.46999998093E+01 0.  1.
</event>
<event>
 5   0  0.1096672E-05  0.2639547E+04  0.7818609E-02  0.8354891E-01
        1   -1    0    0  501    0  0.00000000000E+00  0.00000000000E+00  0.10775837384E+04  0.10775837384E+04  0.50400001928E-02 0. -1.
       -1   -1    0    0    0  501  0.00000000000E+00  0.00000000000E+00 -0.16163963391E+04  0.16163963391E+04  0.50400001928E-02 0.  1.
    10030    2    1    2    0    0  0.00000000000E+00  0.00000000000E+00 -0.53881260073E+03  0.26939800775E+04  0.26395472414E+04 0.  0.
        1    1    3    3  502    0 -0.76304086807E+03 -0.10526275182E+04 -0.37686094548E+02  0.13006445710E+04  0.50400001928E-02 0. -1.
       -1    1    3    3    0  502  0.76304086807E+03  0.10526275182E+04 -0.50112650618E+03  0.13933355065E+04  0.50400001928E-02 0.  1.
</event>
<event>
 5   0  0.2540232E-05  0.2748179E+04  0.7818609E-02  0.8319540E-01
       -2   -1    0    0    0  501  0.00000000000E+00  0.00000000000E+00  0.14055477039E+04  0.14055477039E+04  0.25500000920E-02 0.  1.
        2   -1    0    0  501    0  0.00000000000E+00  0.00000000000E+00 -0.13433349293E+04  0.13433349293E+04  0.25500000920E-02 0. -1.
    10030    2    1    2    0    0  0.00000000000E+00  0.00000000000E+00  0.62212774580E+02  0.27488826332E+04  0.27481785426E+04 0.  0.
        1    1    3    3  502    0  0.18145753526E+03  0.11521089883E+04  0.75781807000E+03  0.13908882720E+04  0.50400001928E-02 0.  1.
       -1    1    3    3    0  502 -0.18145753526E+03 -0.11521089883E+04 -0.69560529542E+03  0.13579943612E+04  0.50400001928E-02 0. -1.
</event>
<event>
 5   0  0.2540232E-05  0.2295875E+04  0.7818609E-02  0.8479549E-01
        2   -1    0    0  501    0  0.00000000000E+00  0.00000000000E+00  0.23987164647E+04  0.23987164647E+04  0.25500000920E-02 0.  1.
       -2   -1    0    0    0  501  0.00000000000E+00  0.00000000000E+00 -0.54936056618E+03  0.54936056618E+03  0.25500000920E-02 0. -1.
    10030    2    1    2    0    0  0.00000000000E+00  0.00000000000E+00  0.18493558985E+04  0.29480770308E+04  0.22958747659E+04 0.  0.
        1    1    3    3  502    0  0.44806987218E+03  0.83983124037E+03  0.17485674979E+04  0.19908720244E+04  0.50400001928E-02 0.  1.
       -1    1    3    3    0  502 -0.44806987218E+03 -0.83983124037E+03  0.10078840055E+03  0.95720500645E+03  0.50400001928E-02 0. -1.
</event>
<event>
 5   0  0.1005265E-05  0.1890876E+04  0.7818609E-02  0.8659411E-01
        1   -1    0    0  501    0  0.00000000000E+00  0.00000000000E+00  0.81240518513E+03  0.81240518514E+03  0.50400001928E-02 0.  1.
       -1   -1    0    0    0  501  0.00000000000E+00  0.00000000000E+00 -0.11002549813E+04  0.11002549814E+04  0.50400001928E-02 0. -1.
    10030    2    1    2    0    0  0.00000000000E+00  0.00000000000E+00 -0.28784979622E+03  0.19126601665E+04  0.18908758308E+04 0.  0.
        3    1    3    3  502    0 -0.18787972878E+03 -0.43884108706E+03 -0.96939807690E+03  0.10805613976E+04  0.10100000352E+00 0. -1.
       -3    1    3    3    0  502  0.18787972878E+03  0.43884108706E+03  0.68154828069E+03  0.83209876895E+03  0.10100000352E+00 0.  1.
</event>
<event>
 5   0  0.2516518E-05  0.2709223E+04  0.7818609E-02  0.8332019E-01
        2   -1    0    0  501    0  0.00000000000E+00  0.00000000000E+00  0.84673054455E+03  0.84673054456E+03  0.25500000920E-02 0. -1.
       -2   -1    0    0    0  501  0.00000000000E+00  0.00000000000E+00 -0.21671270606E+04  0.21671270606E+04  0.25500000920E-02 0.  1.
    10030    2    1    2    0    0  0.00000000000E+00  0.00000000000E+00 -0.13203965161E+04  0.30138576052E+04  0.27092232659E+04 0.  0.
        4    1    3    3  502    0 -0.72018944671E+03 -0.70558445997E+03  0.34620883621E+03  0.10660133397E+04  0.12699999809E+01 0. -1.
       -4    1    3    3    0  502  0.72018944671E+03  0.70558445997E+03 -0.16666053523E+04  0.19478442655E+04  0.12699999809E+01 0.  1.
</event>
<event>
 5   0  0.9971923E-06  0.2690100E+04  0.7818609E-02  0.8338224E-01
       -1   -1    0    0    0  501  0.00000000000E+00  0.00000000000E+00  0.16165580102E+04  0.16165580102E+04  0.50400001928E-02 0. -1.
        1   -1    0    0  501    0  0.00000000000E+00  0.00000000000E+00 -0.11191429032E+04  0.11191429032E+04  0.50400001928E-02 0.  1.
    10030    2    1    2    0    0  0.00000000000E+00  0.00000000000E+00  0.49741510699E+03  0.27357009135E+04  0.26900999422E+04 0.  0.
        2    1    3    3  502    0  0.19579948355E+03  0.89364076170E+03  0.12514382309E+04  0.15501706017E+04  0.25500000920E-02 0. -1.
       -2    1    3    3    0  502 -0.19579948355E+03 -0.89364076170E+03 -0.75402312388E+03  0.11855303118E+04  0.25500000920E-02 0.  1.
</event>
<event>
 5   0  0.2540684E-05  0.2691020E+04  0.7818609E-02  0.8337924E-01
        2   -1    0    0  501    0  0.00000000000E+00  0.00000000000E+00  0.16138587799E+04  0.16138587799E+04  0.25500000920E-02 0. -1.
       -2   -1    0    0    0  501  0.00000000000E+00  0.00000000000E+00 -0.11217818117E+04  0.11217818117E+04  0.25500000920E-02 0.  1.
    10030    2    1    2    0    0  0.00000000000E+00  0.00000000000E+00  0.49207696825E+03  0.27356405916E+04  0.26910201976E+04 0.  0.
        2    1    3    3  502    0  0.70464070981E+03 -0.91120300883E+03 -0.46089707487E+03  0.12406593275E+04  0.25500000920E-02 0.  1.
       -2    1    3    3    0  502 -0.70464070981E+03  0.91120300883E+03  0.95297404312E+03  0.14949812641E+04  0.25500000920E-02 0. -1.
</event>
<event>
 5   0  0.1096672E-05  0.2730336E+04  0.7818609E-02  0.8325229E-01
        1   -1    0    0  501    0  0.00000000000E+00  0.00000000000E+00  0.18161929835E+04  0.18161929835E+04  0.50400001928E-02 0. -1.
       -1   -1    0    0    0  501  0.00000000000E+00  0.00000000000E+00 -0.10261482601E+04  0.10261482601E+04  0.50400001928E-02 0.  1.
    10030    2    1    2    0    0  0.00000000000E+00  0.00000000000E+00  0.79004472339E+03  0.28423412436E+04  0.27303357083E+04 0.  0.
        1    1    3    3  502    0 -0.94309798694E+03 -0.26412240180E+03 -0.59503821583E+03  0.11459777199E+04  0.50400001928E-02 0.  1.
       -1    1    3    3    0  502  0.94309798694E+03  0.26412240180E+03  0.13850829392E+04  0.16963635237E+04  0.50400001928E-02 0. -1.
</event>
<event>
 5   0  0.2540684E-05  0.2707908E+04  0.7818609E-02  0.8332444E-01
       -2   -1    0    0    0  501  0.00000000000E+00  0.00000000000E+00  0.11427233602E+04  0.11427233602E+04  0.25500000920E-02 0.  1.
        2   -1    0    0  501    0  0.00000000000E+00  0.00000000000E+00 -0.16042302619E+04  0.16042302619E+04  0.25500000920E-02 0. -1.
    10030    2    1    2    0    0  0.00000000000E+00  0.00000000000E+00 -0.46150690172E+03  0.27469536221E+04  0.27079079714E+04 0.  0.
        2    1    3    3  502    0 -0.13010564847E+04  0.24569090167E+03  0.56309953782E+02  0.13252482056E+04  0.25500000920E-02 0. -1.
       -2    1    3    3    0  502  0.13010564847E+04 -0.24569090167E+03 -0.51781685551E+03  0.14217054165E+04  0.25500000920E-02 0.  1.
</event>
<event>
 5   0  0.2641216E-05  0.2699621E+04  0.7818609E-02  0.8335128E-01
       -2   -1    0    0    0  501  0.00000000000E+00  0.00000000000E+00  0.65198583968E+03  0.65198583968E+03  0.25500000920E-02 0. -1.
        2   -1    0    0  501    0  0.00000000000E+00  0.00000000000E+00 -0.27945214668E+04  0.27945214668E+04  0.25500000920E-02 0.  1.
    10030    2    1    2    0    0  0.00000000000E+00  0.00000000000E+00 -0.21425356271E+04  0.34465073064E+04  0.26996210290E+04 0.  0.
        5    1    3    3  502    0 -0.62321136476E+02 -0.92180212702E+03  0.18503852403E+03  0.94226558401E+03  0.46999998093E+01 0. -1.
       -5    1    3    3    0  502  0.62321136476E+02  0.92180212702E+03 -0.23275741511E+04  0.25042417224E+04  0.46999998093E+01 0.  1.
</event>
<event>
 5   0  0.2641216E-05  0.2472434E+04  0.7818609E-02  0.8412872E-01
        2   -1    0    0  501    0  0.00000000000E+00  0.00000000000E+00  0.18001241430E+04  0.18001241430E+04  0.25500000920E-02 0.  1.
       -2   -1    0    0    0  501  0.00000000000E+00  0.00000000000E+00 -0.84895939299E+03  0.84895939299E+03  0.25500000920E-02 0. -1.
    10030    2    1    2    0    0  0.00000000000E+00  0.00000000000E+00  0.95116475001E+03  0.26490835360E+04  0.24724338614E+04 0.  0.
        5    1    3    3  502    0  0.87847580847E+03  0.77657197194E+03  0.55899673177E+02  0.11738529027E+04  0.46999998093E+01 0. -1.
       -5    1    3    3    0  502 -0.87847580847E+03 -0.77657197194E+03  0.89526507684E+03  0.14752306333E+04  0.46999998093E+01 0.  1.
</event>
<event>
 5   0  0.2641216E-05  0.2699675E+04  0.7818609E-02  0.8335111E-01
        2   -1    0    0  501    0  0.00000000000E+00  0.00000000000E+00  0.15304634116E+04  0.15304634116E+04  0.25500000920E-02 0.  1.
       -2   -1    0    0    0  501  0.00000000000E+00  0.00000000000E+00 -0.11905287002E+04  0.11905287002E+04  0.25500000920E-02 0. -1.
    10030    2    1    2    0    0  0.00000000000E+00  0.00000000000E+00  0.33993471140E+03  0.27209921117E+04  0.26996745108E+04 0.  0.
        5    1    3    3  502    0 -0.86581109080E+03  0.82915551026E+03 -0.45534345472E+03  0.12823757082E+04  0.46999998093E+01 0. -1.
       -5    1    3    3    0  502  0.86581109080E+03 -0.82915551026E+03  0.79527816612E+03  0.14386164036E+04  0.46999998093E+01 0.  1.
</event>
<event>
 5   0  0.1096672E-05  0.2691730E+04  0.7818609E-02  0.8337693E-01
       -1   -1    0    0    0  501  0.00000000000E+00  0.00000000000E+00  0.23902778518E+04  0.23902778518E+04  0.50400001928E-02 0.  1.
        1   -1    0    0  501    0  0.00000000000E+00  0.00000000000E+00 -0.75780015009E+03  0.75780015011E+03  0.50400001928E-02 0. -1.
    10030    2    1    2    0    0  0.00000000000E+00  0.00000000000E+00  0.16324777017E+04  0.31480780019E+04  0.26917302353E+04 0.  0.
        1    1    3    3  502    0 -0.15868130516E+03 -0.10566297537E+04  0.17733365690E+04  0.20703547474E+04  0.50400001928E-02 0.  1.
       -1    1    3    3    0  502  0.15868130516E+03  0.10566297537E+04 -0.14085886728E+03  0.10777232546E+04  0.50400001928E-02 0. -1.
</event>
<event>
 5   0  0.1005265E-05  0.1989509E+04  0.7818609E-02  0.8611541E-01
       -1   -1    0    0    0  501  0.00000000000E+00  0.00000000000E+00  0.92352540714E+03  0.92352540716E+03  0.50400001928E-02 0. -1.
        1   -1    0    0  501    0  0.00000000000E+00  0.00000000000E+00 -0.10714772020E+04  0.10714772020E+04  0.50400001928E-02 0.  1.
    10030    2    1    2    0    0  0.00000000000E+00  0.00000000000E+00 -0.14795179486E+03  0.19950026092E+04  0.19895089035E+04 0.  0.
        3    1    3    3  502    0 -0.86449776173E+03 -0.44304269547E+03  0.14084263565E+03  0.98157010360E+03  0.10100000352E+00 0. -1.
       -3    1    3    3    0  502  0.86449776173E+03  0.44304269547E+03 -0.28879443051E+03  0.10134325056E+04  0.10100000352E+00 0.  1.
</event>
<event>
 5   0  0.1005265E-05  0.3012843E+04  0.7818609E-02  0.8240073E-01
        1   -1    0    0  501    0  0.00000000000E+00  0.00000000000E+00  0.12809510324E+04  0.12809510324E+04  0.50400001928E-02 0. -1.
       -1   -1    0    0    0  501  0.00000000000E+00  0.00000000000E+00 -0.17715791633E+04  0.17715791633E+04  0.50400001928E-02 0.  1.
    10030    2    1    2    0    0  0.00000000000E+00  0.00000000000E+00 -0.49062813082E+03  0.30525301957E+04  0.30128432805E+04 0.  0.
        3    1    3    3  502    0 -0.40567734956E+03 -0.14507629491E+04 -0.24090918863E+03  0.15255571093E+04  0.10100000352E+00 0.  1.
       -3    1    3    3    0  502  0.40567734956E+03  0.14507629491E+04 -0.24971894220E+03  0.15269730864E+04  0.10100000352E+00 0. -1.
</event>
<event>
 5   0  0.2540232E-05  0.2503241E+04  0.7818609E-02  0.8401832E-01
        2   -1    0    0  501    0  0.00000000000E+00  0.00000000000E+00  0.11228060635E+04  0.11228060635E+04  0.25500000920E-02 0. -1.
       -2   -1    0    0    0  501  0.00000000000E+00  0.00000000000E+00 -0.13952134269E+04  0.13952134269E+04  0.25500000920E-02 0.  1.
    10030    2    1    2    0    0  0.00000000000E+00  0.00000000000E+00 -0.27240736339E+03  0.25180194904E+04  0.25032411755E+04 0.  0.
        1    1    3    3  502    0 -0.71698320724E+02 -0.12426693266E+04 -0.43328519454E+01  0.12447435391E+04  0.50400001928E-02 0.  1.
       -1    1    3    3    0  502  0.71698320724E+02  0.12426693266E+04 -0.26807451144E+03  0.12732759513E+04  0.50400001928E-02 0. -1.
</event>
<event>
 5   0  0.1041909E-05  0.2751887E+04  0.7818609E-02  0.8318363E-01
       -1   -1    0    0    0  501  0.00000000000E+00  0.00000000000E+00  0.16013061001E+04  0.16013061001E+04  0.50400001928E-02 0. -1.
        1   -1    0    0  501    0  0.00000000000E+00  0.00000000000E+00 -0.11822974411E+04  0.11822974411E+04  0.50400001928E-02 0.  1.
    10030    2    1    2    0    0  0.00000000000E+00  0.00000000000E+00  0.41900865900E+03  0.27836035413E+04  0.27518867016E+04 0.  0.
        5    1    3    3  502    0  0.13564709794E+03 -0.13049132971E+04 -0.21000343373E+03  0.13286543494E+04  0.46999998093E+01 0.  1.
       -5    1    3    3    0  502 -0.13564709794E+03  0.13049132971E+04  0.62901209273E+03  0.14549491918E+04  0.46999998093E+01 0. -1.
</event>
<event>
 5   0  0.2540232E-05  0.2320874E+04  0.7818609E-02  0.8469736E-01
       -2   -1    0    0    0  501  0.00000000000E+00  0.00000000000E+00  0.83329855897E+03  0.83329855897E+03  0.25500000920E-02 0.  1.
        2   -1    0    0  501    0  0.00000000000E+00  0.00000000000E+00 -0.16160044022E+04  0.16160044022E+04  0.25500000920E-02 0. -1.
    10030    2    1    2    0    0  0.00000000000E+00  0.00000000000E+00 -0.78270584321E+03  0.24493029611E+04  0.23208740936E+04 0.  0.
        1    1    3    3  502    0 -0.33594065050E+03 -0.10422241099E+04  0.13993711274E+02  0.10951178201E+04  0.50400001928E-02 0.  1.
       -1    1    3    3    0  502  0.33594065050E+03  0.10422241099E+04 -0.79669955448E+03  0.13541851410E+04  0.50400001928E-02 0. -1.
</event>
<event>
 5   0  0.2615843E-05  0.2536648E+04  0.7818609E-02  0.8390044E-01
        2   -1    0    0  501    0  0.00000000000E+00  0.00000000000E+00  0.14754865939E+04  0.14754865939E+04  0.25500000920E-02 0.  1.
       -2   -1    0    0    0  501  0.00000000000E+00  0.00000000000E+00 -0.10902479519E+04  0.10902479519E+04  0.25500000920E-02 0. -1.
    10030    2    1    2    0    0  0.00000000000E+00  0.00000000000E+00  0.38523864194E+03  0.25657345458E+04  0.25366483691E+04 0.  0.
        3    1    3    3  502    0  0.80603530095E+03 -0.78386131159E+03 -0.40106471614E+03  0.11937270957E+04  0.10100000352E+00 0. -1.
       -3    1    3    3    0  502 -0.80603530095E+03  0.78386131159E+03  0.78630335808E+03  0.13720074502E+04  0.10100000352E+00 0.  1.
</event>
<event>
 5   0  0.2540684E-05  0.2672450E+04  0.7818609E-02  0.8344000E-01
        2   -1    0    0  501    0  0.00000000000E+00  0.00000000000E+00  0.99410718273E+03  0.99410718273E+03  0.25500000920E-02 0.  1.
       -2   -1    0    0    0  501  0.00000000000E+00  0.00000000000E+00 -0.17960809164E+04  0.17960809164E+04  0.25500000920E-02 0. -1.
    10030    2    1    2    0    0  0.00000000000E+00  0.00000000000E+00 -0.80197373364E+03  0.27901880991E+04  0.26724497673E+04 0.  0.
        2    1    3    3  502    0 -0.54592657588E+03  0.26482313180E+03 -0.16439532811E+04  0.17523554171E+04  0.25500000920E-02 0. -1.
       -2    1    3    3    0  502  0.54592657588E+03 -0.26482313180E+03  0.84197954748E+03  0.10378326820E+04  0.25500000920E-02 0.  1.
</event>
<event>
 5   0  0.9971923E-06  0.1880835E+04  0.7818609E-02  0.8664455E-01
        1   -1    0    0  501    0  0.00000000000E+00  0.00000000000E+00  0.14907544158E+04  0.14907544158E+04  0.50400001928E-02 0. -1.
       -1   -1    0    0    0  501  0.00000000000E+00  0.00000000000E+00 -0.59324682793E+03  0.59324682795E+03  0.50400001928E-02 0.  1.
    10030    2    1    2    0    0  0.00000000000E+00  0.00000000000E+00  0.89750758787E+03  0.20840012438E+04  0.18808352702E+04 0.  0.
        2    1    3    3  502    0 -0.80046621770E+03 -0.71438339358E+02  0.98991160404E+03  0.12750586598E+04  0.25500000920E-02 0. -1.
       -2    1    3    3    0  502  0.80046621770E+03  0.71438339358E+02 -0.92404016170E+02  0.80894258400E+03  0.25500000920E-02 0.  1.
</event>
<event>
 5   0  0.2641216E-05  0.2821837E+04  0.7818609E-02  0.8296521E-01
        2   -1    0    0  501    0  0.00000000000E+00  0.00000000000E+00  0.12942290472E+04  0.12942290472E+04  0.25500000920E-02 0. -1.
       -2   -1    0    0    0  501  0.00000000000E+00  0.00000000000E+00 -0.15381293188E+04  0.15381293188E+04  0.25500000920E-02 0.  1.
    10030    2    1    2    0    0  0.00000000000E+00  0.00000000000E+00 -0.24390027166E+03  0.28323583660E+04  0.28218374459E+04 0.  0.
        5    1    3    3  502    0  0.99619138791E+03 -0.98173276733E+03 -0.30831156499E+03  0.14322271534E+04  0.46999998093E+01 0.  1.
       -5    1    3    3    0  502 -0.99619138791E+03  0.98173276733E+03  0.64411293331E+02  0.14001312126E+04  0.46999998093E+01 0. -1.
</event>
<event>
 5   0  0.8740500E-06  0.2494861E+04  0.7818609E-02  0.8404818E-01
        3   -1    0    0  501    0  0.00000000000E+00  0.00000000000E+00  0.12416429237E+04  0.12416429278E+04  0.10100000352E+00 0. -1.
       -3   -1    0    0    0  501  0.00000000000E+00  0.00000000000E+00 -0.12532454908E+04  0.12532454949E+04  0.10100000352E+00 0.  1.
    10030    2    1    2    0    0  0.00000000000E+00  0.00000000000E+00 -0.11602567143E+02  0.24948884227E+04  0.24948614435E+04 0.  0.
        3    1    3    3  502    0 -0.10319263038E+04 -0.17454108124E+03 -0.68459202804E+03  0.12506009518E+04  0.10100000352E+00 0.  1.
       -3    1    3    3    0  502  0.10319263038E+04  0.17454108124E+03  0.67298946090E+03  0.12442874709E+04  0.10100000352E+00 0. -1.
</event>
<event>
 5   0  0.2641216E-05  0.2652923E+04  0.7818609E-02  0.8350443E-01
        2   -1    0    0  501    0  0.00000000000E+00  0.00000000000E+00  0.18538587183E+04  0.18538587183E+04  0.25500000920E-02 0.  1.
       -2   -1    0    0    0  501  0.00000000000E+00  0.00000000000E+00 -0.94910142514E+03  0.94910142514E+03  0.25500000920E-02 0. -1.
    10030    2    1    2    0    0  0.00000000000E+00  0.00000000000E+00  0.90475729311E+03  0.28029601434E+04  0.26529228798E+04 0.  0.
        5    1    3    3  502    0 -0.60997708875E+03  0.39334654626E+03  0.16254332569E+04  0.17801260958E+04  0.46999998093E+01 0.  1.
       -5    1    3    3    0  502  0.60997708875E+03 -0.39334654626E+03 -0.72067596376E+03  0.10228340476E+04  0.46999998093E+01 0. -1.
</event>
<event>
 5   0  0.2540232E-05  0.2229704E+04  0.7818609E-02  0.8506165E-01
        2   -1    0    0  501    0  0.00000000000E+00  0.00000000000E+00  0.13963045772E+04  0.13963045772E+04  0.25500000920E-02 0. -1.
       -2   -1    0    0    0  501  0.00000000000E+00  0.00000000000E+00 -0.89013174113E+03  0.89013174113E+03  0.25500000920E-02 0.  1.
    10030    2    1    2    0    0  0.00000000000E+00  0.00000000000E+00  0.50617283611E+03  0.22864363184E+04  0.22297040382E+04 0.  0.
        1    1    3    3  502    0  0.66495464299E+03 -0.27442949599E+03  0.11264725517E+04  0.13365689789E+04  0.50400001928E-02 0. -1.
       -1    1    3    3    0  502 -0.66495464299E+03  0.27442949599E+03 -0.62029971558E+03  0.94986733952E+03  0.50400001928E-02 0.  1.
</event>
<event>
 5   0  0.2516518E-05  0.2736852E+04  0.7818609E-02  0.8323146E-01
       -2   -1    0    0    0  501  0.00000000000E+00  0.00000000000E+00  0.12098970601E+04  0.12098970601E+04  0.25500000920E-02 0.  1.
        2   -1    0    0  501    0  0.00000000000E+00  0.00000000000E+00 -0.15477265090E+04  0.15477265090E+04  0.25500000920E-02 0. -1.
    10030    2    1    2    0    0  0.00000000000E+00  0.00000000000E+00 -0.33782944888E+03  0.27576235692E+04  0.27368520261E+04 0.  0.
        4    1    3    3  502    0  0.50642640814E+03 -0.12492336308E+04  0.68534120074E+02  0.13497225306E+04  0.12699999809E+01 0. -1.
       -4    1    3    3    0  502 -0.50642640814E+03  0.12492336308E+04 -0.40636356895E+03  0.14079010385E+04  0.12699999809E+01 0.  1.
</event>
<event>
 5   0  0.9971923E-06  0.2758095E+04  0.7818609E-02  0.8316398E-01
        1   -1    0    0  501    0  0.00000000000E+00  0.00000000000E+00  0.27107011238E+04  0.27107011238E+04  0.50400001928E-02 0. -1.
       -1   -1    0    0    0  501  0.00000000000E+00  0.00000000000E+00 -0.70157915990E+03  0.70157915992E+03  0.50400001928E-02 0.  1.
    10030    2    1    2    0    0  0.00000000000E+00  0.00000000000E+00  0.20091219639E+04  0.34122802837E+04  0.27580945721E+04 0.  0.
        2    1    3    3  502    0 -0.29302505783E+03  0.10984945142E+04  0.19702154198E+04  0.22747093623E+04  0.25500000920E-02 0.  1.
       -2    1    3    3    0  502  0.29302505783E+03 -0.10984945142E+04  0.38906544111E+02  0.11375709215E+04  0.25500000920E-02 0. -1.
</event>
<event>
 5   0  0.9971923E-06  0.2735335E+04  0.7818609E-02  0.8323630E-01
        1   -1    0    0  501    0  0.00000000000E+00  0.00000000000E+00  0.16282263319E+04  0.16282263319E+04  0.50400001928E-02 0.  1.
       -1   -1    0    0    0  501  0.00000000000E+00  0.00000000000E+00 -0.11488045200E+04  0.11488045200E+04  0.50400001928E-02 0. -1.
    10030    2    1    2    0    0  0.00000000000E+00  0.00000000000E+00  0.47942181191E+03  0.27770308519E+04  0.27353345460E+04 0.  0.
        2    1    3    3  502    0 -0.84072157833E+02 -0.11022189290E+04 -0.57789689091E+03  0.12473650274E+04  0.25500000920E-02 0. -1.
       -2    1    3    3    0  502  0.84072157833E+02  0.11022189290E+04  0.10573187028E+04  0.15296658245E+04  0.25500000920E-02 0.  1.
</event>
<event>
 5   0  0.2641216E-05  0.3202296E+04  0.7818609E-02  0.8188211E-01
        2   -1    0    0  501    0  0.00000000000E+00  0.00000000000E+00  0.17221843778E+04  0.17221843778E+04  0.25500000920E-02 0. -1.
       -2   -1    0    0    0  501  0.00000000000E+00  0.00000000000E+00 -0.14886184317E+04  0.14886184317E+04  0.25500000920E-02 0.  1.
    10030    2    1    2    0    0  0.00000000000E+00  0.00000000000E+00  0.23356594610E+03  0.32108028095E+04  0.32022963058E+04 0.  0.
        5    1    3    3  502    0  0.15833747808E+04  0.22951124311E+03  0.17941658588E+03  0.16099576108E+04  0.46999998093E+01 0.  1.
       -5    1    3    3    0  502 -0.15833747808E+04 -0.22951124311E+03  0.54149360220E+02  0.16008451988E+04  0.46999998093E+01 0. -1.
</event>
<event>
 5   0  0.2615843E-05  0.2623031E+04  0.7818609E-02  0.8360420E-01
       -2   -1    0    0    0  501  0.00000000000E+00  0.00000000000E+00  0.16347887052E+04  0.16347887052E+04  0.25500000920E-02 0. -1.
        2   -1    0    0  501    0  0.00000000000E+00  0.00000000000E+00 -0.10521684189E+04  0.10521684189E+04  0.25500000920E-02 0.  1.
    10030    2    1    2    0    0  0.00000000000E+00  0.00000000000E+00  0.58262028626E+03  0.26869571241E+04  0.26230311071E+04 0.  0.
        3    1    3    3  502    0 -0.10952916270E+04 -0.47990811215E+03 -0.26042326655E+03  0.12238446929E+04  0.10100000352E+00 0.  1.
       -3    1    3    3    0  502  0.10952916270E+04  0.47990811215E+03  0.84304355281E+03  0.14631124312E+04  0.10100000352E+00 0. -1.
</event>
<event>
 5   0  0.9971923E-06  0.2665000E+04  0.7818609E-02  0.8346451E-01
       -1   -1    0    0    0  501  0.00000000000E+00  0.00000000000E+00  0.17259845921E+04  0.17259845921E+04  0.50400001928E-02 0. -1.
        1   -1    0    0  501    0  0.00000000000E+00  0.00000000000E+00 -0.10287205319E+04  0.10287205320E+04  0.50400001928E-02 0.  1.
    10030    2    1    2    0    0  0.00000000000E+00  0.00000000000E+00  0.69726406019E+03  0.27547051241E+04  0.26649996531E+04 0.  0.
        2    1    3    3  502    0  0.63056872969E+03  0.21855345977E+03 -0.84352115924E+03  0.10755977332E+04  0.25500000920E-02 0.  1.
       -2    1    3    3    0  502 -0.63056872969E+03 -0.21855345977E+03  0.15407852194E+04  0.16791073909E+04  0.25500000920E-02 0. -1.
</event>
<event>
 5   0  0.2516518E-05  0.2628112E+04  0.7818609E-02  0.8358715E-01
       -2   -1    0    0    0  501  0.00000000000E+00  0.00000000000E+00  0.93651712970E+03  0.93651712971E+03  0.25500000920E-02 0. -1.
        2   -1    0    0  501    0  0.00000000000E+00  0.00000000000E+00 -0.18437920137E+04  0.18437920137E+04  0.25500000920E-02 0.  1.
    10030    2    1    2    0    0  0.00000000000E+00  0.00000000000E+00 -0.90727488398E+03  0.27803091434E+04  0.26281117209E+04 0.  0.
        4    1    3    3  502    0  0.29349829439E+03 -0.12607387317E+04 -0.21440489960E+03  0.13120878295E+04  0.12699999809E+01 0. -1.
       -4    1    3    3    0  502 -0.29349829439E+03  0.12607387317E+04 -0.69286998438E+03  0.14682213139E+04  0.12699999809E+01 0.  1.
</event>
<event>
 5   0  0.1036691E-05  0.2756700E+04  0.7818609E-02  0.8316839E-01
        1   -1    0    0  501    0  0.00000000000E+00  0.00000000000E+00  0.11627582650E+04  0.11627582650E+04  0.50400001928E-02 0.  1.
       -1   -1    0    0    0  501  0.00000000000E+00  0.00000000000E+00 -0.16339156576E+04  0.16339156576E+04  0.50400001928E-02 0. -1.
    10030    2    1    2    0    0  0.00000000000E+00  0.00000000000E+00 -0.47115739266E+03  0.27966739226E+04  0.27567001543E+04 0.  0.
        4    1    3    3  502    0  0.40453262099E+03  0.10869328699E+04 -0.99121317800E+03  0.15256391717E+04  0.12699999809E+01 0. -1.
       -4    1    3    3    0  502 -0.40453262099E+03 -0.10869328699E+04  0.52005578535E+03  0.12710347509E+04  0.12699999809E+01 0.  1.
</event>
<event>
 5   0  0.1005265E-05  0.2700934E+04  0.7818609E-02  0.8334702E-01
        1   -1    0    0  501    0  0.00000000000E+00  0.00000000000E+00  0.15216077610E+04  0.15216077610E+04  0.50400001928E-02 0. -1.
       -1   -1    0    0    0  501  0.00000000000E+00  0.00000000000E+00 -0.11985751994E+04  0.11985751994E+04  0.50400001928E-02 0.  1.
    10030    2    1    2    0    0  0.00000000000E+00  0.00000000000E+00  0.32303256161E+03  0.27201829604E+04  0.27009341537E+04 0.  0.
        3    1    3    3  502    0  0.29680354864E+03  0.65413744420E+03  0.13132453577E+04  0.14968638957E+04  0.10100000352E+00 0. -1.
       -3    1    3    3    0  502 -0.29680354864E+03 -0.65413744420E+03 -0.99021279613E+03  0.12233190648E+04  0.10100000352E+00 0.  1.
</event>
<event>
 5   0  0.2540232E-05  0.2591755E+04  0.7818609E-02  0.8371007E-01
        2   -1    0    0  501    0  0.00000000000E+00  0.00000000000E+00  0.29465488198E+04  0.29465488198E+04  0.25500000920E-02 0. -1.
       -2   -1    0    0    0  501  0.00000000000E+00  0.00000000000E+00 -0.56992065971E+03  0.56992065971E+03  0.25500000920E-02 0.  1.
    10030    2    1    2    0    0  0.00000000000E+00  0.00000000000E+00  0.23766281601E+04  0.35164694795E+04  0.25917554261E+04 0.  0.
        1    1    3    3  502    0 -0.24473166822E+03  0.11102200911E+03  0.29083262754E+04  0.29207158712E+04  0.50400001928E-02 0. -1.
       -1    1    3    3    0  502  0.24473166822E+03 -0.11102200911E+03 -0.53169811533E+03  0.59575360831E+03  0.50400001928E-02 0.  1.
</event>
<event>
 5   0  0.9971923E-06  0.2663631E+04  0.7818609E-02  0.8346903E-01
       -1   -1    0    0    0  501  0.00000000000E+00  0.00000000000E+00  0.16463717408E+04  0.16463717408E+04  0.50400001928E-02 0.  1.
        1   -1    0    0  501    0  0.00000000000E+00  0.00000000000E+00 -0.10773581351E+04  0.10773581351E+04  0.50400001928E-02 0. -1.
    10030    2    1    2    0    0  0.00000000000E+00  0.00000000000E+00  0.56901360566E+03  0.27237298759E+04  0.26636305963E+04 0.  0.
        2    1    3    3  502    0  0.39737591346E+03 -0.58298957064E+03 -0.87055825956E+03  0.11205606362E+04  0.25500000920E-02 0. -1.
       -2    1    3    3    0  502 -0.39737591346E+03  0.58298957064E+03  0.14395718652E+04  0.16031692397E+04  0.25500000920E-02 0.  1.
</event>
<event>
 5   0  0.2540232E-05  0.2666277E+04  0.7818609E-02  0.8346031E-01
       -2   -1    0    0    0  501  0.00000000000E+00  0.00000000000E+00  0.15675848368E+04  0.15675848368E+04  0.25500000920E-02 0.  1.
        2   -1    0    0  501    0  0.00000000000E+00  0.00000000000E+00 -0.11337553554E+04  0.11337553554E+04  0.25500000920E-02 0. -1.
    10030    2    1    2    0    0  0.00000000000E+00  0.00000000000E+00  0.43382948133E+03  0.27013401922E+04  0.26662765826E+04 0.  0.
        1    1    3    3  502    0 -0.55480991562E+03 -0.10537601285E+04  0.82398844110E+03  0.14481648394E+04  0.50400001928E-02 0.  1.
       -1    1    3    3    0  502  0.55480991562E+03  0.10537601285E+04 -0.39015895977E+03  0.12531753528E+04  0.50400001928E-02 0. -1.
</event>
<event>
 5   0  0.2615843E-05  0.2480398E+04  0.7818609E-02  0.8410002E-01
        2   -1    0    0  501    0  0.00000000000E+00  0.00000000000E+00  0.20445400249E+04  0.20445400249E+04  0.25500000920E-02 0.  1.
       -2   -1    0    0    0  501  0.00000000000E+00  0.00000000000E+00 -0.75229314875E+03  0.75229314876E+03  0.25500000920E-02 0. -1.
    10030    2    1    2    0    0  0.00000000000E+00  0.00000000000E+00  0.12922468762E+04  0.27968331737E+04  0.24803979141E+04 0.  0.
        3    1    3    3  502    0  0.22678573335E+03 -0.66699465843E+03 -0.50476485078E+03  0.86666095332E+03  0.10100000352E+00 0. -1.
       -3    1    3    3    0  502 -0.22678573335E+03  0.66699465843E+03  0.17970117270E+04  0.19301722204E+04  0.10100000352E+00 0.  1.
</event>
<event>
 5   0  0.1096672E-05  0.2869169E+04  0.7818609E-02  0.8282110E-01
       -1   -1    0    0    0  501  0.00000000000E+00  0.00000000000E+00  0.11932496878E+04  0.11932496878E+04  0.50400001928E-02 0.  1.
        1   -1    0    0  501    0  0.00000000000E+00  0.00000000000E+00 -0.17247289502E+04  0.17247289502E+04  0.50400001928E-02 0. -1.
    10030    2    1    2    0    0  0.00000000000E+00  0.00000000000E+00 -0.53147926241E+03  0.29179786381E+04  0.28691687169E+04 0.  0.
        1    1    3    3  502    0  0.14136978247E+04 -0.21849441100E+03 -0.15549378892E+03  0.14389091930E+04  0.50400001928E-02 0. -1.
       -1    1    3    3    0  502 -0.14136978247E+04  0.21849441100E+03 -0.37598547349E+03  0.14790694451E+04  0.50400001928E-02 0.  1.
</event>
<event>
 5   0  0.1096672E-05  0.1881978E+04  0.7818609E-02  0.8663880E-01
        1   -1    0    0  501    0  0.00000000000E+00  0.00000000000E+00  0.14381495330E+04  0.14381495330E+04  0.50400001928E-02 0.  1.
       -1   -1    0    0    0  501  0.00000000000E+00  0.00000000000E+00 -0.61569408492E+03  0.61569408494E+03  0.50400001928E-02 0. -1.
    10030    2    1    2    0    0  0.00000000000E+00  0.00000000000E+00  0.82245544808E+03  0.20538436180E+04  0.18819778540E+04 0.  0.
        1    1    3    3  502    0 -0.96452248110E+02 -0.84371390788E+03  0.85358878175E+03  0.12040639530E+04  0.50400001928E-02 0.  1.
       -1    1    3    3    0  502  0.96452248110E+02  0.84371390788E+03 -0.31133333670E+02  0.84977966498E+03  0.50400001928E-02 0. -1.
</event>
<event>
 5   0  0.2540232E-05  0.2713094E+04  0.7818609E-02  0.8330769E-01
        2   -1    0    0  501    0  0.00000000000E+00  0.00000000000E+00  0.16141636462E+04  0.16141636462E+04  0.25500000920E-02 0. -1.
       -2   -1    0    0    0  501  0.00000000000E+00  0.00000000000E+00 -0.11400450686E+04  0.11400450687E+04  0.25500000920E-02 0.  1.
    10030    2    1    2    0    0  0.00000000000E+00  0.00000000000E+00  0.47411857754E+03  0.27542087148E+04  0.27130936621E+04 0.  0.
        1    1    3    3  502    0  0.92674967789E+03 -0.98971931548E+03  0.19387027790E+03  0.13696696586E+04  0.50400001928E-02 0. -1.
       -1    1    3    3    0  502 -0.92674967789E+03  0.98971931548E+03  0.28024829965E+03  0.13845390563E+04  0.50400001928E-02 0.  1.
</event>
<event>
 5   0  0.9971923E-06  0.2481489E+04  0.7818609E-02  0.8409610E-01
        1   -1    0    0  501    0  0.00000000000E+00  0.00000000000E+00  0.15543992690E+04  0.15543992691E+04  0.50400001928E-02 0. -1.
       -1   -1    0    0    0  501  0.00000000000E+00  0.00000000000E+00 -0.99038094185E+03  0.99038094186E+03  0.50400001928E-02 0.  1.
    10030    2    1    2    0    0  0.00000000000E+00  0.00000000000E+00  0.56401832720E+03  0.25447802109E+04  0.24814894012E+04 0.  0.
        2    1    3    3  502    0 -0.73747333939E+03  0.73229290502E+03  0.97703207154E+03  0.14264331368E+04  0.25500000920E-02 0. -1.
       -2    1    3    3    0  502  0.73747333939E+03 -0.73229290502E+03 -0.41301374435E+03  0.11183470741E+04  0.25500000920E-02 0.  1.
</event>
<event>
 5   0  0.1096672E-05  0.1847637E+04  0.7818609E-02  0.8681369E-01
       -1   -1    0    0    0  501  0.00000000000E+00  0.00000000000E+00  0.89904008617E+03  0.89904008619E+03  0.50400001928E-02 0.  1.
        1   -1    0    0  501    0  0.00000000000E+00  0.00000000000E+00 -0.94928034053E+03  0.94928034054E+03  0.50400001928E-02 0. -1.
    10030    2    1    2    0    0  0.00000000000E+00  0.00000000000E+00 -0.50240254353E+02  0.18483204267E+04  0.18476374960E+04 0.  0.
        1    1    3    3  502    0 -0.53959158105E+03  0.53298991301E+03  0.50252507264E+03  0.90981798749E+03  0.50400001928E-02 0.  1.
       -1    1    3    3    0  502  0.53959158105E+03 -0.53298991301E+03 -0.55276532699E+03  0.93850243924E+03  0.50400001928E-02 0. -1.
</event>
<event>
 5   0  0.2615843E-05  0.1963015E+04  0.7818609E-02  0.8624110E-01
       -2   -1    0    0    0  501  0.00000000000E+00  0.00000000000E+00  0.13241365571E+04  0.13241365571E+04  0.25500000920E-02 0. -1.
        2   -1    0    0  501    0  0.00000000000E+00  0.00000000000E+00 -0.72753565395E+03  0.72753565396E+03  0.25500000920E-02 0.  1.
    10030    2    1    2    0    0  0.00000000000E+00  0.00000000000E+00  0.59660090310E+03  0.20516722110E+04  0.19630145756E+04 0.  0.
        3    1    3    3  502    0  0.61288903895E+03  0.16333427419E+03 -0.48455843963E+03  0.79819042265E+03  0.10100000352E+00 0.  1.
       -3    1    3    3    0  502 -0.61288903895E+03 -0.16333427419E+03  0.10811593427E+04  0.12534817884E+04  0.10100000352E+00 0. -1.
</event>
<event>
 5   0  0.1036691E-05  0.2499356E+04  0.7818609E-02  0.8403215E-01
        1   -1    0    0  501    0  0.00000000000E+00  0.00000000000E+00  0.13836755333E+04  0.13836755333E+04  0.50400001928E-02 0. -1.
       -1   -1    0    0    0  501  0.00000000000E+00  0.00000000000E+00 -0.11286565725E+04  0.11286565725E+04  0.50400001928E-02 0.  1.
    10030    2    1    2    0    0  0.00000000000E+00  0.00000000000E+00  0.25501896072E+03  0.25123321058E+04  0.24993555048E+04 0.  0.
        4    1    3    3  502    0 -0.54527910103E+03 -0.10839600734E+04  0.42805033948E+03  0.12866730139E+04  0.12699999809E+01 0. -1.
       -4    1    3    3    0  502  0.54527910103E+03  0.10839600734E+04 -0.17303137876E+03  0.12256590919E+04  0.12699999809E+01 0.  1.
</event>
<event>
 5   0  0.1096672E-05  0.2679942E+04  0.7818609E-02  0.8341543E-01
        1   -1    0    0  501    0  0.00000000000E+00  0.00000000000E+00  0.90032690968E+03  0.90032690970E+03  0.50400001928E-02 0.  1.
       -1   -1    0    0    0  501  0.00000000000E+00  0.00000000000E+00 -0.19942999151E+04  0.19942999151E+04  0.50400001928E-02 0. -1.
    10030    2    1    2    0    0  0.00000000000E+00  0.00000000000E+00 -0.10939730054E+04  0.28946268248E+04  0.26799417005E+04 0.  0.
        1    1    3    3  502    0 -0.90308772158E+02  0.62096815893E+03 -0.18257929095E+04  0.19306156731E+04  0.50400001928E-02 0. -1.
       -1    1    3    3    0  502  0.90308772158E+02 -0.62096815893E+03  0.73181990405E+03  0.96401115176E+03  0.50400001928E-02 0.  1.
</event>
<event>
 5   0  0.1036691E-05  0.2679906E+04  0.7818609E-02  0.8341554E-01
       -1   -1    0    0    0  501  0.00000000000E+00  0.00000000000E+00  0.87251852499E+03  0.87251852501E+03  0.50400001928E-02 0. -1.
        1   -1    0    0  501    0  0.00000000000E+00  0.00000000000E+00 -0.20578065136E+04  0.20578065136E+04  0.50400001928E-02 0.  1.
    10030    2    1    2    0    0  0.00000000000E+00  0.00000000000E+00 -0.11852879886E+04  0.29303250386E+04  0.26799061954E+04 0.  0.
        4    1    3    3  502    0  0.23721155157E+03  0.44502410439E+03 -0.19500808398E+04  0.20142325259E+04  0.12699999809E+01 0.  1.
       -4    1    3    3    0  502 -0.23721155157E+03 -0.44502410439E+03  0.76479285121E+03  0.91609251271E+03  0.12699999809E+01 0. -1.
</event>
<event>
 5   0  0.2540684E-05  0.2662234E+04  0.7818609E-02  0.8347364E-01
       -2   -1    0    0    0  501  0.00000000000E+00  0.00000000000E+00  0.14233921058E+04  0.14233921058E+04  0.25500000920E-02 0.  1.
        2   -1    0    0  501    0  0.00000000000E+00  0.00000000000E+00 -0.12448236482E+04  0.12448236482E+04  0.25500000920E-02 0. -1.
    10030    2    1    2    0    0  0.00000000000E+00  0.00000000000E+00  0.17856845761E+03  0.26682157540E+04  0.26622337643E+04 0.  0.
        2    1    3    3  502    0 -0.54817610691E+03  0.90684982824E+03  0.89669883765E+03  0.13881435303E+04  0.25500000920E-02 0.  1.
       -2    1    3    3    0  502  0.54817610691E+03 -0.90684982824E+03 -0.71813038004E+03  0.12800722237E+04  0.25500000920E-02 0. -1.
</event>
<event>
 5   0  0.2516518E-05  0.2707787E+04  0.7818609E-02  0.8332483E-01
        2   -1    0    0  501    0  0.00000000000E+00  0.00000000000E+00  0.20153313331E+04  0.20153313331E+04  0.25500000920E-02 0. -1.
       -2   -1    0    0    0  501  0.00000000000E+00  0.00000000000E+00 -0.90954138519E+03  0.90954138519E+03  0.25500000920E-02 0.  1.
    10030    2    1    2    0    0  0.00000000000E+00  0.00000000000E+00  0.11057899479E+04  0.29248727182E+04  0.27077867363E+04 0.  0.
        4    1    3    3  502    0 -0.11463972657E+04  0.66747657868E+03  0.84528823759E+03  0.15729798128E+04  0.12699999809E+01 0. -1.
       -4    1    3    3    0  502  0.11463972657E+04 -0.66747657868E+03  0.26050171027E+03  0.13518929055E+04  0.12699999809E+01 0.  1.
</event>
<event>
 5   0  0.2615843E-05  0.2624341E+04  0.7818609E-02  0.8359980E-01
       -2   -1    0    0    0  501  0.00000000000E+00  0.00000000000E+00  0.53982018846E+03  0.53982018846E+03  0.25500000920E-02 0.  1.
        2   -1    0    0  501    0  0.00000000000E+00  0.00000000000E+00 -0.31895635051E+04  0.31895635051E+04  0.25500000920E-02 0. -1.
    10030    2    1    2    0    0  0.00000000000E+00  0.00000000000E+00 -0.26497433167E+04  0.37293836936E+04  0.26243405057E+04 0.  0.
        3    1    3    3  502    0  0.11821059985E+03 -0.25649141467E+03  0.49611732313E+03  0.57087126415E+03  0.10100000352E+00 0.  1.
       -3    1    3    3    0  502 -0.11821059985E+03  0.25649141467E+03 -0.31458606398E+04  0.31585124295E+04  0.10100000352E+00 0. -1.
</event>
<event>
 5   0  0.1005265E-05  0.2718478E+04  0.7818609E-02  0.8329034E-01
        1   -1    0    0  501    0  0.00000000000E+00  0.00000000000E+00  0.14387517229E+04  0.14387517229E+04  0.50400001928E-02 0.  1.
       -1   -1    0    0    0  501  0.00000000000E+00  0.00000000000E+00 -0.12841205384E+04  0.12841205384E+04  0.50400001928E-02 0. -1.
    10030    2    1    2    0    0  0.00000000000E+00  0.00000000000E+00  0.15463118451E+03  0.27228722613E+04  0.27184779838E+04 0.  0.
        3    1    3    3  502    0  0.19116938925E+03 -0.13200575089E+04  0.33933559232E+03  0.13763161761E+04  0.10100000352E+00 0.  1.
       -3    1    3    3    0  502 -0.19116938925E+03  0.13200575089E+04 -0.18470440781E+03  0.13465560852E+04  0.10100000352E+00 0. -1.
</event>
<event>
 5   0  0.2615843E-05  0.2691497E+04  0.7818609E-02  0.8337769E-01
       -2   -1    0    0    0  501  0.00000000000E+00  0.00000000000E+00  0.11418619241E+04  0.11418619241E+04  0.25500000920E-02 0.  1.
        2   -1    0    0  501    0  0.00000000000E+00  0.00000000000E+00 -0.15860397464E+04  0.15860397464E+04  0.25500000920E-02 0. -1.
    10030    2    1    2    0    0  0.00000000000E+00  0.00000000000E+00 -0.44417782223E+03  0.27279016705E+04  0.26914965328E+04 0.  0.
        3    1    3    3  502    0 -0.52080038926E+03 -0.51243998781E+03 -0.13675125564E+04  0.15504574773E+04  0.10100000352E+00 0. -1.
       -3    1    3    3    0  502  0.52080038926E+03  0.51243998781E+03  0.92333473422E+03  0.11774441932E+04  0.10100000352E+00 0.  1.
</event>
<event>
 5   0  0.2540684E-05  0.2711118E+04  0.7818609E-02  0.8331406E-01
       -2   -1    0    0    0  501  0.00000000000E+00  0.00000000000E+00  0.13315881042E+04  0.13315881042E+04  0.25500000920E-02 0.  1.
        2   -1    0    0  501    0  0.00000000000E+00  0.00000000000E+00 -0.13799619020E+04  0.13799619020E+04  0.25500000920E-02 0. -1.
    10030    2    1    2    0    0  0.00000000000E+00  0.00000000000E+00 -0.48373797812E+02  0.27115500062E+04  0.27111184798E+04 0.  0.
        2    1    3    3  502    0 -0.35695191772E+03  0.30548361454E+03  0.12475523333E+04  0.13330872945E+04  0.25500000920E-02 0.  1.
       -2    1    3    3    0  502  0.35695191772E+03 -0.30548361454E+03 -0.12959261311E+04  0.13784627117E+04  0.25500000920E-02 0. -1.
</event>
<event>
 5   0  0.1005265E-05  0.2710442E+04  0.7818609E-02  0.8331625E-01
       -1   -1    0    0    0  501  0.00000000000E+00  0.00000000000E+00  0.80094545283E+03  0.80094545285E+03  0.50400001928E-02 0. -1.
        1   -1    0    0  501    0  0.00000000000E+00  0.00000000000E+00 -0.22930691506E+04  0.22930691506E+04  0.50400001928E-02 0.  1.
    10030    2    1    2    0    0  0.00000000000E+00  0.00000000000E+00 -0.14921236978E+04  0.30940146034E+04  0.27104415207E+04 0.  0.
        3    1    3    3  502    0 -0.30557261189E+03 -0.61003936876E+03  0.59058594349E+03  0.90239371641E+03  0.10100000352E+00 0. -1.
       -3    1    3    3    0  502  0.30557261189E+03  0.61003936876E+03 -0.20827096412E+04  0.21916208870E+04  0.10100000352E+00 0.  1.
</event>
<event>
 5   0  0.2641216E-05  0.2609819E+04  0.7818609E-02  0.8364873E-01
       -2   -1    0    0    0  501  0.00000000000E+00  0.00000000000E+00  0.99894473302E+03  0.99894473302E+03  0.25500000920E-02 0. -1.
        2   -1    0    0  501    0  0.00000000000E+00  0.00000000000E+00 -0.17045878277E+04  0.17045878277E+04  0.25500000920E-02 0.  1.
    10030    2    1    2    0    0  0.00000000000E+00  0.00000000000E+00 -0.70564309463E+03  0.27035325607E+04  0.26098191757E+04 0.  0.
        5    1    3    3  502    0  0.42709772621E+02 -0.12242350982E+04  0.11298153363E+03  0.12301880414E+04  0.46999998093E+01 0.  1.
       -5    1    3    3    0  502 -0.42709772621E+02  0.12242350982E+04 -0.81862462827E+03  0.14733445192E+04  0.46999998093E+01 0. -1.
</event>
<event>
 5   0  0.8740500E-06  0.2687290E+04  0.7818609E-02  0.8339141E-01
       -3   -1    0    0    0  501  0.00000000000E+00  0.00000000000E+00  0.10731753834E+04  0.10731753882E+04  0.10100000352E+00 0. -1.
        3   -1    0    0  501    0  0.00000000000E+00  0.00000000000E+00 -0.16822809807E+04  0.16822809838E+04  0.10100000352E+00 0.  1.
    10030    2    1    2    0    0  0.00000000000E+00  0.00000000000E+00 -0.60910559732E+03  0.27554563719E+04  0.26872904921E+04 0.  0.
        2    1    3    3  502    0 -0.59991972396E+03 -0.89219706391E+03 -0.11308879382E+04  0.15603931571E+04  0.25500000920E-02 0.  1.
       -2    1    3    3    0  502  0.59991972396E+03  0.89219706391E+03  0.52178234088E+03  0.11950632148E+04  0.25500000920E-02 0. -1.
</event>
<event>
 5   0  0.2641216E-05  0.2675975E+04  0.7818609E-02  0.8342843E-01
        2   -1    0    0  501    0  0.00000000000E+00  0.00000000000E+00  0.18673843265E+04  0.18673843265E+04  0.25500000920E-02 0.  1.
       -2   -1    0    0    0  501  0.00000000000E+00  0.00000000000E+00 -0.95867269139E+03  0.95867269139E+03  0.25500000920E-02 0. -1.
    10030    2    1    2    0    0  0.00000000000E+00  0.00000000000E+00  0.90871163515E+03  0.28260570179E+04  0.26759748565E+04 0.  0.
        5    1    3    3  502    0 -0.11784109805E+04 -0.17385504919E+03  0.10978836890E+04  0.16199533023E+04  0.46999998093E+01 0.  1.
       -5    1    3    3    0  502  0.11784109805E+04  0.17385504919E+03 -0.18917205384E+03  0.12061037157E+04  0.46999998093E+01 0. -1.
</event>
<event>
 5   0  0.2540232E-05  0.2674964E+04  0.7818609E-02  0.8343174E-01
        2   -1    0    0  501    0  0.00000000000E+00  0.00000000000E+00  0.17454102341E+04  0.17454102341E+04  0.25500000920E-02 0. -1.
       -2   -1    0    0    0  501  0.00000000000E+00  0.00000000000E+00 -0.10248927142E+04  0.10248927142E+04  0.25500000920E-02 0.  1.
    10030    2    1    2    0    0  0.00000000000E+00  0.00000000000E+00  0.72051751993E+03  0.27703029483E+04  0.26749640986E+04 0.  0.
        1    1    3    3  502    0  0.90133146437E+03  0.40781365396E+03 -0.57190335375E+03  0.11427089879E+04  0.50400001928E-02 0.  1.
       -1    1    3    3    0  502 -0.90133146437E+03 -0.40781365396E+03  0.12924208737E+04  0.16275939604E+04  0.50400001928E-02 0. -1.
</event>
<event>
 5   0  0.2516518E-05  0.2449198E+04  0.7818609E-02  0.8421311E-01
       -2   -1    0    0    0  501  0.00000000000E+00  0.00000000000E+00  0.98766391348E+03  0.98766391349E+03  0.25500000920E-02 0. -1.
        2   -1    0    0  501    0  0.00000000000E+00  0.00000000000E+00 -0.15183733527E+04  0.15183733527E+04  0.25500000920E-02 0.  1.
    10030    2    1    2    0    0  0.00000000000E+00  0.00000000000E+00 -0.53070943922E+03  0.25060372662E+04  0.24491978831E+04 0.  0.
        4    1    3    3  502    0  0.10522980252E+03 -0.67582884824E+03 -0.13047153303E+04  0.14731264879E+04  0.12699999809E+01 0.  1.
       -4    1    3    3    0  502 -0.10522980252E+03  0.67582884824E+03  0.77400589109E+03  0.10329107782E+04  0.12699999809E+01 0. -1.
</event>
<event>
 5   0  0.1005265E-05  0.2687116E+04  0.7818609E-02  0.8339197E-01
       -1   -1    0    0    0  501  0.00000000000E+00  0.00000000000E+00  0.16469689441E+04  0.16469689441E+04  0.50400001928E-02 0. -1.
        1   -1    0    0  501    0  0.00000000000E+00  0.00000000000E+00 -0.10960426304E+04  0.10960426304E+04  0.50400001928E-02 0.  1.
    10030    2    1    2    0    0  0.00000000000E+00  0.00000000000E+00  0.55092631371E+03  0.27430115745E+04  0.26871160553E+04 0.  0.
        3    1    3    3  502    0  0.10462675905E+04  0.10501983764E+03  0.11291870174E+04  0.15429738714E+04  0.10100000352E+00 0.  1.
       -3    1    3    3    0  502 -0.10462675905E+04 -0.10501983764E+03 -0.57826070366E+03  0.12000377031E+04  0.10100000352E+00 0. -1.
</event>
<event>
 5   0  0.1036691E-05  0.2651399E+04  0.7818609E-02  0.8350949E-01
        1   -1    0    0  501    0  0.00000000000E+00  0.00000000000E+00  0.15631816038E+04  0.15631816038E+04  0.50400001928E-02 0. -1.
       -1   -1    0    0    0  501  0.00000000000E+00  0.00000000000E+00 -0.11242962236E+04  0.11242962236E+04  0.50400001928E-02 0.  1.
    10030    2    1    2    0    0  0.00000000000E+00  0.00000000000E+00  0.43888538020E+03  0.26874778274E+04  0.26513990073E+04 0.  0.
        4    1    3    3  502    0 -0.36596984778E+03 -0.10185492247E+04  0.99543259581E+03  0.14704639126E+04  0.12699999809E+01 0. -1.
       -4    1    3    3    0  502  0.36596984778E+03  0.10185492247E+04 -0.55654721561E+03  0.12170139148E+04  0.12699999809E+01 0.  1.
</event>
<event>
 5   0  0.2540232E-05  0.2672715E+04  0.7818609E-02  0.8343913E-01
       -2   -1    0    0    0  501  0.00000000000E+00  0.00000000000E+00  0.92272250281E+03  0.92272250282E+03  0.25500000920E-02 0. -1.
        2   -1    0    0  501    0  0.00000000000E+00  0.00000000000E+00 -0.19354152399E+04  0.19354152399E+04  0.25500000920E-02 0.  1.
    10030    2    1    2    0    0  0.00000000000E+00  0.00000000000E+00 -0.10126927371E+04  0.28581377428E+04  0.26727148701E+04 0.  0.
        1    1    3    3  502    0  0.27728033823E+03 -0.29456642100E+03  0.85567016593E+03  0.94648042517E+03  0.50400001928E-02 0. -1.
       -1    1    3    3    0  502 -0.27728033823E+03  0.29456642100E+03 -0.18683629031E+04  0.19116573176E+04  0.50400001928E-02 0.  1.
</event>
<event>
 5   0  0.1096672E-05  0.2654185E+04  0.7818609E-02  0.8350025E-01
        1   -1    0    0  501    0  0.00000000000E+00  0.00000000000E+00  0.16722285067E+04  0.16722285067E+04  0.50400001928E-02 0. -1.
       -1   -1    0    0    0  501  0.00000000000E+00  0.00000000000E+00 -0.10531899959E+04  0.10531899960E+04  0.50400001928E-02 0.  1.
    10030    2    1    2    0    0  0.00000000000E+00  0.00000000000E+00  0.61903851076E+03  0.27254185027E+04  0.26541848724E+04 0.  0.
        1    1    3    3  502    0  0.78548407619E+03 -0.10654923500E+04  0.40647340802E+03  0.13847309534E+04  0.50400001928E-02 0.  1.
       -1    1    3    3    0  502 -0.78548407619E+03  0.10654923500E+04  0.21256510274E+03  0.13406875493E+04  0.50400001928E-02 0. -1.
</event>
<event>
 5   0  0.2516518E-05  0.2691016E+04  0.7818609E-02  0.8337926E-01
       -2   -1    0    0    0  501  0.00000000000E+00  0.00000000000E+00  0.10781642278E+04  0.10781642278E+04  0.25500000920E-02 0. -1.
        2   -1    0    0  501    0  0.00000000000E+00  0.00000000000E+00 -0.16791433079E+04  0.16791433079E+04  0.25500000920E-02 0.  1.
    10030    2    1    2    0    0  0.00000000000E+00  0.00000000000E+00 -0.60097908014E+03  0.27573075357E+04  0.26910163492E+04 0.  0.
        4    1    3    3  502    0  0.38860336475E+03  0.56961290204E+02  0.10181209874E+04  0.10912511725E+04  0.12699999809E+01 0. -1.
       -4    1    3    3    0  502 -0.38860336475E+03 -0.56961290204E+02 -0.16191000675E+04  0.16660563632E+04  0.12699999809E+01 0.  1.
</event>
<event>
 5   0  0.2641216E-05  0.2635877E+04  0.7818609E-02  0.8356116E-01
        2   -1    0    0  501    0  0.00000000000E+00  0.00000000000E+00  0.19735757572E+04  0.19735757572E+04  0.25500000920E-02 0. -1.
       -2   -1    0    0    0  501  0.00000000000E+00  0.00000000000E+00 -0.88010873388E+03  0.88010873388E+03  0.25500000920E-02 0.  1.
    10030    2    1    2    0    0  0.00000000000E+00  0.00000000000E+00  0.10934670233E+04  0.28536844911E+04  0.26358765228E+04 0.  0.
        5    1    3    3  502    0  0.84208415719E+03  0.25568296212E+03 -0.51538300452E+03  0.10198633420E+04  0.46999998093E+01 0.  1.
       -5    1    3    3    0  502 -0.84208415719E+03 -0.25568296212E+03  0.16088500278E+04  0.18338211491E+04  0.46999998093E+01 0. -1.
</event>
<event>
 5   0  0.2641216E-05  0.2777853E+04  0.7818609E-02  0.8310177E-01
       -2   -1    0    0    0  501  0.00000000000E+00  0.00000000000E+00  0.10858681183E+04  0.10858681183E+04  0.25500000920E-02 0. -1.
        2   -1    0    0  501    0  0.00000000000E+00  0.00000000000E+00 -0.17765659286E+04  0.17765659286E+04  0.25500000920E-02 0.  1.
    10030    2    1    2    0    0  0.00000000000E+00  0.00000000000E+00 -0.69069781036E+03  0.28624340469E+04  0.27778526252E+04 0.  0.
        5    1    3    3  502    0  0.65853838207E+03 -0.32845747795E+02  0.91430538965E+03  0.11272657536E+04  0.46999998093E+01 0. -1.
       -5    1    3    3    0  502 -0.65853838207E+03  0.32845747795E+02 -0.16050032000E+04  0.17351682932E+04  0.46999998093E+01 0.  1.
</event>
<event>
 5   0  0.1036691E-05  0.2701734E+04  0.7818609E-02  0.8334443E-01
       -1   -1    0    0    0  501  0.00000000000E+00  0.00000000000E+00  0.10847517101E+04  0.10847517102E+04  0.50400001928E-02 0. -1.
        1   -1    0    0  501    0  0.00000000000E+00  0.00000000000E+00 -0.16822668107E+04  0.16822668108E+04  0.50400001928E-02 0.  1.
    10030    2    1    2    0    0  0.00000000000E+00  0.00000000000E+00 -0.59751510060E+03  0.27670185209E+04  0.27017341097E+04 0.  0.
        4    1    3    3  502    0 -0.60576617500E+03 -0.43959616313E+03  0.85297963313E+03  0.11348010014E+04  0.12699999809E+01 0. -1.
       -4    1    3    3    0  502  0.60576617500E+03  0.43959616313E+03 -0.14504947337E+04  0.16322175195E+04  0.12699999809E+01 0.  1.
</event>
<event>
 5   0  0.1036691E-05  0.2530948E+04  0.7818609E-02  0.8392043E-01
       -1   -1    0    0    0  501  0.00000000000E+00  0.00000000000E+00  0.15338559818E+04  0.15338559818E+04  0.50400001928E-02 0.  1.
        1   -1    0    0  501    0  0.00000000000E+00  0.00000000000E+00 -0.10440509989E+04  0.10440509989E+04  0.50400001928E-02 0. -1.
    10030    2    1    2    0    0  0.00000000000E+00  0.00000000000E+00  0.48980498298E+03  0.25779069807E+04  0.25309475458E+04 0.  0.
        4    1    3    3  502    0 -0.10973144080E+04 -0.62429628556E+03  0.15623857275E+03  0.12721072544E+04  0.12699999809E+01 0. -1.
       -4    1    3    3    0  502  0.10973144080E+04  0.62429628556E+03  0.33356641023E+03  0.13057997263E+04  0.12699999809E+01 0.  1.
</event>
<event>
 5   0  0.1096672E-05  0.2713560E+04  0.7818609E-02  0.8330619E-01
        1   -1    0    0  501    0  0.00000000000E+00  0.00000000000E+00  0.15628292580E+04  0.15628292580E+04  0.50400001928E-02 0.  1.
       -1   -1    0    0    0  501  0.00000000000E+00  0.00000000000E+00 -0.11778973311E+04  0.11778973311E+04  0.50400001928E-02 0. -1.
    10030    2    1    2    0    0  0.00000000000E+00  0.00000000000E+00  0.38493192694E+03  0.27407265892E+04  0.27135603270E+04 0.  0.
        1    1    3    3  502    0  0.12831708027E+04 -0.41476755465E+03  0.41662858469E+02  0.13491831703E+04  0.50400001928E-02 0. -1.
       -1    1    3    3    0  502 -0.12831708027E+04  0.41476755465E+03  0.34326906848E+03  0.13915434189E+04  0.50400001928E-02 0.  1.
</event>
<event>
 5   0  0.2641216E-05  0.2712932E+04  0.7818609E-02  0.8330821E-01
       -2   -1    0    0    0  501  0.00000000000E+00  0.00000000000E+00  0.73919810542E+03  0.73919810542E+03  0.25500000920E-02 0.  1.
        2   -1    0    0  501    0  0.00000000000E+00  0.00000000000E+00 -0.24891834075E+04  0.24891834075E+04  0.25500000920E-02 0. -1.
    10030    2    1    2    0    0  0.00000000000E+00  0.00000000000E+00 -0.17499853021E+04  0.32283815129E+04  0.27129317418E+04 0.  0.
        5    1    3    3  502    0  0.10604930112E+03 -0.47856866110E+03 -0.23800937919E+04  0.24300499925E+04  0.46999998093E+01 0. -1.
       -5    1    3    3    0  502 -0.10604930112E+03  0.47856866110E+03  0.63010848981E+03  0.79833152047E+03  0.46999998093E+01 0.  1.
</event>
<event>
 5   0  0.2516518E-05  0.2538825E+04  0.7818609E-02  0.8389283E-01
        2   -1    0    0  501    0  0.00000000000E+00  0.00000000000E+00  0.14966401104E+04  0.14966401104E+04  0.25500000920E-02 0.  1.
       -2   -1    0    0    0  501  0.00000000000E+00  0.00000000000E+00 -0.10766834967E+04  0.10766834967E+04  0.25500000920E-02 0. -1.
    10030    2    1    2    0    0  0.00000000000E+00  0.00000000000E+00  0.41995661379E+03  0.25733236071E+04  0.25388246945E+04 0.  0.
        4    1    3    3  502    0  0.12620430965E+04 -0.11740476778E+03  0.28070788832E+03  0.12982046019E+04  0.12699999809E+01 0.  1.
       -4    1    3    3    0  502 -0.12620430965E+04  0.11740476778E+03  0.13924872546E+03  0.12751190052E+04  0.12699999809E+01 0. -1.
</event>
<event>
 5   0  0.2540232E-05  0.2667797E+04  0.7818609E-02  0.8345530E-01
       -2   -1    0    0    0  501  0.00000000000E+00  0.00000000000E+00  0.24896219450E+04  0.24896219450E+04  0.25500000920E-02 0.  1.
        2   -1    0    0  501    0  0.00000000000E+00  0.00000000000E+00 -0.71468103322E+03  0.71468103323E+03  0.25500000920E-02 0. -1.
    10030    2    1    2    0    0  0.00000000000E+00  0.00000000000E+00  0.17749409118E+04  0.32043029783E+04  0.26677972817E+04 0.  0.
        1    1    3    3  502    0 -0.53081687258E+02 -0.23037283072E+03  0.24642585172E+04  0.24755725290E+04  0.50400001928E-02 0.  1.
       -1    1    3    3    0  502  0.53081687258E+02  0.23037283072E+03 -0.68931760536E+03  0.72873044930E+03  0.50400001928E-02 0. -1.
</event>
<event>
 5   0  0.2540232E-05  0.2654371E+04  0.7818609E-02  0.8349964E-01
        2   -1    0    0  501    0  0.00000000000E+00  0.00000000000E+00  0.14322612503E+04  0.14322612503E+04  0.25500000920E-02 0.  1.
       -2   -1    0    0    0  501  0.00000000000E+00  0.00000000000E+00 -0.12298182937E+04  0.12298182937E+04  0.25500000920E-02 0. -1.
    10030    2    1    2    0    0  0.00000000000E+00  0.00000000000E+00  0.20244295660E+03  0.26620795441E+04  0.26543708008E+04 0.  0.
        1    1    3    3  502    0 -0.28421742735E+03 -0.66741883914E+03 -0.10133988499E+04  0.12462763264E+04  0.50400001928E-02 0. -1.
       -1    1    3    3    0  502  0.28421742735E+03  0.66741883914E+03  0.12158418065E+04  0.14158032177E+04  0.50400001928E-02 0.  1.
</event>
<event>
 5   0  0.9971923E-06  0.2658969E+04  0.7818609E-02  0.8348442E-01
        1   -1    0    0  501    0  0.00000000000E+00  0.00000000000E+00  0.15511009988E+04  0.15511009988E+04  0.50400001928E-02 0. -1.
       -1   -1    0    0    0  501  0.00000000000E+00  0.00000000000E+00 -0.11395319424E+04  0.11395319424E+04  0.50400001928E-02 0.  1.
    10030    2    1    2    0    0  0.00000000000E+00  0.00000000000E+00  0.41156905641E+03  0.26906329412E+04  0.26589690739E+04 0.  0.
        2    1    3    3  502    0  0.39813821498E+03 -0.22525211841E+03 -0.10573902350E+04  0.11520966384E+04  0.25500000920E-02 0.  1.
       -2    1    3    3    0  502 -0.39813821498E+03  0.22525211841E+03  0.14689592915E+04  0.15385363028E+04  0.25500000920E-02 0. -1.
</event>
<event>
 5   0  0.1041909E-05  0.2707549E+04  0.7818609E-02  0.8332560E-01
       -1   -1    0    0    0  501  0.00000000000E+00  0.00000000000E+00  0.12677108053E+04  0.12677108053E+04  0.50400001928E-02 0.  1.
        1   -1    0    0  501    0  0.00000000000E+00  0.00000000000E+00 -0.14456809306E+04  0.14456809306E+04  0.50400001928E-02 0. -1.
    10030    2    1    2    0    0  0.00000000000E+00  0.00000000000E+00 -0.17797012529E+03  0.27133917360E+04  0.27075489557E+04 0.  0.
        5    1    3    3  502    0 -0.28996500743E+03  0.90957320614E+03 -0.10508897274E+04  0.14197867558E+04  0.46999998093E+01 0. -1.
       -5    1    3    3    0  502  0.28996500743E+03 -0.90957320614E+03  0.87291960212E+03  0.12936049801E+04  0.46999998093E+01 0.  1.
</event>
<event>
 5   0  0.2641216E-05  0.2706002E+04  0.7818609E-02  0.8333060E-01
        2   -1    0    0  501    0  0.00000000000E+00  0.00000000000E+00  0.13306559576E+04  0.13306559576E+04  0.25500000920E-02 0.  1.
       -2   -1    0    0    0  501  0.00000000000E+00  0.00000000000E+00 -0.13757215674E+04  0.13757215674E+04  0.25500000920E-02 0. -1.
    10030    2    1    2    0    0  0.00000000000E+00  0.00000000000E+00 -0.45065609766E+02  0.27063775250E+04  0.27060022909E+04 0.  0.
        5    1    3    3  502    0  0.31810654471E+03 -0.12398788643E+04  0.41581855767E+03  0.13458894958E+04  0.46999998093E+01 0. -1.
       -5    1    3    3    0  502 -0.31810654471E+03  0.12398788643E+04 -0.46088416743E+03  0.13604880292E+04  0.46999998093E+01 0.  1.
</event>
<event>
 5   0  0.1036691E-05  0.2722070E+04  0.7818609E-02  0.8327880E-01
        1   -1    0    0  501    0  0.00000000000E+00  0.00000000000E+00  0.17460026783E+04  0.17460026783E+04  0.50400001928E-02 0. -1.
       -1   -1    0    0    0  501  0.00000000000E+00  0.00000000000E+00 -0.10609466398E+04  0.10609466398E+04  0.50400001928E-02 0.  1.
    10030    2    1    2    0    0  0.00000000000E+00  0.00000000000E+00  0.68505603847E+03  0.28069493181E+04  0.27220695617E+04 0.  0.
        4    1    3    3  502    0  0.62591076056E+03  0.81759010568E+03  0.12603357880E+04  0.16274722033E+04  0.12699999809E+01 0. -1.
       -4    1    3    3    0  502 -0.62591076056E+03 -0.81759010568E+03 -0.57527974957E+03  0.11794771148E+04  0.12699999809E+01 0.  1.
</event>
<event>
 5   0  0.2540684E-05  0.2785668E+04  0.7818609E-02  0.8307732E-01
        2   -1    0    0  501    0  0.00000000000E+00  0.00000000000E+00  0.22549234732E+04  0.22549234732E+04  0.25500000920E-02 0. -1.
       -2   -1    0    0    0  501  0.00000000000E+00  0.00000000000E+00 -0.86033387753E+03  0.86033387754E+03  0.25500000920E-02 0.  1.
    10030    2    1    2    0    0  0.00000000000E+00  0.00000000000E+00  0.13945895957E+04  0.31152573507E+04  0.27856683616E+04 0.  0.
        2    1    3    3  502    0  0.25904603184E+03 -0.12823049405E+04  0.16263187549E+03  0.13182791563E+04  0.25500000920E-02 0.  1.
       -2    1    3    3    0  502 -0.25904603184E+03  0.12823049405E+04  0.12319577202E+04  0.17969781945E+04  0.25500000920E-02 0. -1.
</event>
<event>
 5   0  0.1096672E-05  0.2656558E+04  0.7818609E-02  0.8349240E-01
        1   -1    0    0  501    0  0.00000000000E+00  0.00000000000E+00  0.17726757762E+04  0.17726757762E+04  0.50400001928E-02 0. -1.
       -1   -1    0    0    0  501  0.00000000000E+00  0.00000000000E+00 -0.99528931337E+03  0.99528931338E+03  0.50400001928E-02 0.  1.
    10030    2    1    2    0    0  0.00000000000E+00  0.00000000000E+00  0.77738646280E+03  0.27679650896E+04  0.26565581162E+04 0.  0.
        1    1    3    3  502    0  0.23607215742E+03  0.45926682653E+02 -0.97241494670E+03  0.10017136079E+04  0.50400001928E-02 0.  1.
       -1    1    3    3    0  502 -0.23607215742E+03 -0.45926682653E+02  0.17498014095E+04  0.17662514816E+04  0.50400001928E-02 0. -1.
</event>
<event>
 5   0  0.2615843E-05  0.2700799E+04  0.7818609E-02  0.8334746E-01
       -2   -1    0    0    0  501  0.00000000000E+00  0.00000000000E+00  0.16877149819E+04  0.16877149819E+04  0.25500000920E-02 0. -1.
        2   -1    0    0  501    0  0.00000000000E+00  0.00000000000E+00 -0.10805019172E+04  0.10805019172E+04  0.25500000920E-02 0.  1.
    10030    2    1    2    0    0  0.00000000000E+00  0.00000000000E+00  0.60721306464E+03  0.27682168991E+04  0.27007993437E+04 0.  0.
        3    1    3    3  502    0 -0.79947395980E+03  0.88008429473E+03  0.95980025688E+03  0.15280456543E+04  0.10100000352E+00 0. -1.
       -3    1    3    3    0  502  0.79947395980E+03 -0.88008429473E+03 -0.35258719225E+03  0.12401712449E+04  0.10100000352E+00 0.  1.
</event>
<event>
 5   0  0.2641216E-05  0.2699132E+04  0.7818609E-02  0.8335287E-01
       -2   -1    0    0    0  501  0.00000000000E+00  0.00000000000E+00  0.11823947058E+04  0.11823947058E+04  0.25500000920E-02 0. -1.
        2   -1    0    0  501    0  0.00000000000E+00  0.00000000000E+00 -0.15403728603E+04  0.15403728603E+04  0.25500000920E-02 0.  1.
    10030    2    1    2    0    0  0.00000000000E+00  0.00000000000E+00 -0.35797815455E+03  0.27227675661E+04  0.26991322421E+04 0.  0.
        5    1    3    3  502    0 -0.12146179987E+03  0.49615998891E+02 -0.15339155712E+04  0.15395238828E+04  0.46999998093E+01 0.  1.
       -5    1    3    3    0  502  0.12146179987E+03 -0.49615998891E+02  0.11759374167E+04  0.11832436833E+04  0.46999998093E+01 0. -1.
</event>
<event>
 5   0  0.1096672E-05  0.2937197E+04  0.7818609E-02  0.8261896E-01
        1   -1    0    0  501    0  0.00000000000E+00  0.00000000000E+00  0.24925510727E+04  0.24925510727E+04  0.50400001928E-02 0. -1.
       -1   -1    0    0    0  501  0.00000000000E+00  0.00000000000E+00 -0.86529053126E+03  0.86529053128E+03  0.50400001928E-02 0.  1.
    10030    2    1    2    0    0  0.00000000000E+00  0.00000000000E+00  0.16272605414E+04  0.33578416039E+04  0.29371965150E+04 0.  0.
        1    1    3    3  502    0 -0.82091230691E+03  0.11345123654E+04  0.13194494603E+04  0.19240483885E+04  0.50400001928E-02 0. -1.
       -1    1    3    3    0  502  0.82091230691E+03 -0.11345123654E+04  0.30781108108E+03  0.14337932154E+04  0.50400001928E-02 0.  1.
</event>
<event>
 5   0  0.1036691E-05  0.2700623E+04  0.7818609E-02  0.8334803E-01
       -1   -1    0    0    0  501  0.00000000000E+00  0.00000000000E+00  0.20019428995E+04  0.20019428995E+04  0.50400001928E-02 0.  1.
        1   -1    0    0  501    0  0.00000000000E+00  0.00000000000E+00 -0.91078593104E+03  0.91078593106E+03  0.50400001928E-02 0. -1.
    10030    2    1    2    0    0  0.00000000000E+00  0.00000000000E+00  0.10911569684E+04  0.29127288305E+04  0.27006232078E+04 0.  0.
        4    1    3    3  502    0  0.46965503673E+03 -0.19805337278E+03 -0.80304399304E+03  0.95114786424E+03  0.12699999809E+01 0. -1.
       -4    1    3    3    0  502 -0.46965503673E+03  0.19805337278E+03  0.18942009615E+04  0.19615809663E+04  0.12699999809E+01 0.  1.
</event>
<event>
 5   0  0.1041909E-05  0.2553020E+04  0.7818609E-02  0.8384336E-01
        1   -1    0    0  501    0  0.00000000000E+00  0.00000000000E+00  0.19521041318E+04  0.19521041318E+04  0.50400001928E-02 0. -1.
       -1   -1    0    0    0  501  0.00000000000E+00  0.00000000000E+00 -0.83472922082E+03  0.83472922084E+03  0.50400001928E-02 0.  1.
    10030    2    1    2    0    0  0.00000000000E+00  0.00000000000E+00  0.11173749110E+04  0.27868333526E+04  0.25530204550E+04 0.  0.
        5    1    3    3  502    0  0.79824402886E+03 -0.89978449272E+03  0.10252042320E+04  0.15804655866E+04  0.46999998093E+01 0. -1.
       -5    1    3    3    0  502 -0.79824402886E+03  0.89978449272E+03  0.92170678924E+02  0.12063677661E+04  0.46999998093E+01 0.  1.
</event>
<event>
 5   0  0.1041909E-05  0.2727290E+04  0.7818609E-02  0.8326204E-01
        1   -1    0    0  501    0  0.00000000000E+00  0.00000000000E+00  0.16593340262E+04  0.16593340262E+04  0.50400001928E-02 0. -1.
       -1   -1    0    0    0  501  0.00000000000E+00  0.00000000000E+00 -0.11206472125E+04  0.11206472125E+04  0.50400001928E-02 0.  1.
    10030    2    1    2    0    0  0.00000000000E+00  0.00000000000E+00  0.53868681376E+03  0.27799812387E+04  0.27272902677E+04 0.  0.
        5    1    3    3  502    0  0.13234458117E+03 -0.13466970607E+04  0.97570916509E+02  0.13567056553E+04  0.46999998093E+01 0.  1.
       -5    1    3    3    0  502 -0.13234458117E+03  0.13466970607E+04  0.44111589726E+03  0.14232755834E+04  0.46999998093E+01 0. -1.
</event>
<event>
 5   0  0.2641216E-05  0.2721295E+04  0.7818609E-02  0.8328128E-01
        2   -1    0    0  501    0  0.00000000000E+00  0.00000000000E+00  0.13603754509E+04  0.13603754509E+04  0.25500000920E-02 0.  1.
       -2   -1    0    0    0  501  0.00000000000E+00  0.00000000000E+00 -0.13609195544E+04  0.13609195544E+04  0.25500000920E-02 0. -1.
    10030    2    1    2    0    0  0.00000000000E+00  0.00000000000E+00 -0.54410354578E+00  0.27212950053E+04  0.27212949509E+04 0.  0.
        5    1    3    3  502    0 -0.99479712334E+03 -0.60297398341E+03 -0.70606277225E+03  0.13607886205E+04  0.46999998093E+01 0. -1.
       -5    1    3    3    0  502  0.99479712334E+03  0.60297398341E+03  0.70551866870E+03  0.13605063848E+04  0.46999998093E+01 0.  1.
</event>
<event>
 5   0  0.2641216E-05  0.2636166E+04  0.7818609E-02  0.8356019E-01
       -2   -1    0    0    0  501  0.00000000000E+00  0.00000000000E+00  0.11223974294E+04  0.11223974294E+04  0.25500000920E-02 0. -1.
        2   -1    0    0  501    0  0.00000000000E+00  0.00000000000E+00 -0.15478853195E+04  0.15478853195E+04  0.25500000920E-02 0.  1.
    10030    2    1    2    0    0  0.00000000000E+00  0.00000000000E+00 -0.42548789011E+03  0.26702827490E+04  0.26361657791E+04 0.  0.
        5    1    3    3  502    0 -0.28076231569E+03  0.29990185038E+03  0.10558831040E+04  0.11329959475E+04  0.46999998093E+01 0. -1.
       -5    1    3    3    0  502  0.28076231569E+03 -0.29990185038E+03 -0.14813709941E+04  0.15372868015E+04  0.46999998093E+01 0.  1.
</event>
<event>
 5   0  0.2615843E-05  0.2636818E+04  0.7818609E-02  0.8355801E-01
       -2   -1    0    0    0  501  0.00000000000E+00  0.00000000000E+00  0.72794858457E+03  0.72794858458E+03  0.25500000920E-02 0. -1.
        2   -1    0    0  501    0  0.00000000000E+00  0.00000000000E+00 -0.23878092330E+04  0.23878092330E+04  0.25500000920E-02 0.  1.
    10030    2    1    2    0    0  0.00000000000E+00  0.00000000000E+00 -0.16598606484E+04  0.31157578176E+04  0.26368180456E+04 0.  0.
        3    1    3    3  502    0  0.50648735702E+02  0.46919969257E+03  0.62472426593E+03  0.78293937478E+03  0.10100000352E+00 0. -1.
       -3    1    3    3    0  502 -0.50648735702E+02 -0.46919969257E+03 -0.22845849143E+04  0.23328184428E+04  0.10100000352E+00 0.  1.
</event>
<event>
 5   0  0.2641216E-05  0.2549970E+04  0.7818609E-02  0.8385397E-01
       -2   -1    0    0    0  501  0.00000000000E+00  0.00000000000E+00  0.10845576454E+04  0.10845576454E+04  0.25500000920E-02 0.  1.
        2   -1    0    0  501    0  0.00000000000E+00  0.00000000000E+00 -0.14988479889E+04  0.14988479889E+04  0.25500000920E-02 0. -1.
    10030    2    1    2    0    0  0.00000000000E+00  0.00000000000E+00 -0.41429034344E+03  0.25834056343E+04  0.25499702318E+04 0.  0.
        5    1    3    3  502    0  0.29996420610E+03 -0.63871571705E+03  0.86867713588E+03  0.11191775322E+04  0.46999998093E+01 0.  1.
       -5    1    3    3    0  502 -0.29996420610E+03  0.63871571705E+03 -0.12829674793E+04  0.14642281021E+04  0.46999998093E+01 0. -1.
</event>
<event>
 5   0  0.9971923E-06  0.2870730E+04  0.7818609E-02  0.8281640E-01
       -1   -1    0    0    0  501  0.00000000000E+00  0.00000000000E+00  0.13719583316E+04  0.13719583316E+04  0.50400001928E-02 0.  1.
        1   -1    0    0  501    0  0.00000000000E+00  0.00000000000E+00 -0.15017024652E+04  0.15017024652E+04  0.50400001928E-02 0. -1.
    10030    2    1    2    0    0  0.00000000000E+00  0.00000000000E+00 -0.12974413357E+03  0.28736607968E+04  0.28707303661E+04 0.  0.
        2    1    3    3  502    0 -0.58354143355E+03  0.13100922469E+04 -0.64094648859E+01  0.14341908455E+04  0.25500000920E-02 0.  1.
       -2    1    3    3    0  502  0.58354143355E+03 -0.13100922469E+04 -0.12333466869E+03  0.14394699513E+04  0.25500000920E-02 0. -1.
</event>
<event>
 5   0  0.2615843E-05  0.2712532E+04  0.7818609E-02  0.8330950E-01
       -2   -1    0    0    0  501  0.00000000000E+00  0.00000000000E+00  0.14583073208E+04  0.14583073208E+04  0.25500000920E-02 0.  1.
        2   -1    0    0  501    0  0.00000000000E+00  0.00000000000E+00 -0.12613649994E+04  0.12613649994E+04  0.25500000920E-02 0. -1.
    10030    2    1    2    0    0  0.00000000000E+00  0.00000000000E+00  0.19694232137E+03  0.27196723202E+04  0.27125322581E+04 0.  0.
        3    1    3    3  502    0 -0.77181887150E+03  0.10432985851E+04 -0.29662382762E+03  0.13312257560E+04  0.10100000352E+00 0. -1.
       -3    1    3    3    0  502  0.77181887150E+03 -0.10432985851E+04  0.49356614899E+03  0.13884465642E+04  0.10100000352E+00 0.  1.
</event>
<event>
 5   0  0.2540684E-05  0.2692012E+04  0.7818609E-02  0.8337601E-01
        2   -1    0    0  501    0  0.00000000000E+00  0.00000000000E+00  0.11383991425E+04  0.11383991425E+04  0.25500000920E-02 0.  1.
       -2   -1    0    0    0  501  0.00000000000E+00  0.00000000000E+00 -0.15914735188E+04  0.15914735188E+04  0.25500000920E-02 0. -1.
    10030    2    1    2    0    0  0.00000000000E+00  0.00000000000E+00 -0.45307437639E+03  0.27298726613E+04  0.26920119532E+04 0.  0.
        2    1    3    3  502    0 -0.11417450533E+04  0.66919841538E+03  0.22526125708E+02  0.13235995287E+04  0.25500000920E-02 0. -1.
       -2    1    3    3    0  502  0.11417450533E+04 -0.66919841538E+03 -0.47560050210E+03  0.14062731326E+04  0.25500000920E-02 0.  1.
</event>
<event>
 5   0  0.2615843E-05  0.2662215E+04  0.7818609E-02  0.8347370E-01
       -2   -1    0    0    0  501  0.00000000000E+00  0.00000000000E+00  0.81821574064E+03  0.81821574064E+03  0.25500000920E-02 0.  1.
        2   -1    0    0  501    0  0.00000000000E+00  0.00000000000E+00 -0.21655015293E+04  0.21655015293E+04  0.25500000920E-02 0. -1.
    10030    2    1    2    0    0  0.00000000000E+00  0.00000000000E+00 -0.13472857887E+04  0.29837172700E+04  0.26622151962E+04 0.  0.
        3    1    3    3  502    0  0.11518195853E+04  0.49355604414E+03 -0.17046876627E+03  0.12646523381E+04  0.10100000352E+00 0.  1.
       -3    1    3    3    0  502 -0.11518195853E+04 -0.49355604414E+03 -0.11768170224E+04  0.17190649319E+04  0.10100000352E+00 0. -1.
</event>
<event>
 5   0  0.9971923E-06  0.2693580E+04  0.7818609E-02  0.8337091E-01
        1   -1    0    0  501    0  0.00000000000E+00  0.00000000000E+00  0.17037550477E+04  0.17037550477E+04  0.50400001928E-02 0.  1.
       -1   -1    0    0    0  501  0.00000000000E+00  0.00000000000E+00 -0.10646151848E+04  0.10646151848E+04  0.50400001928E-02 0. -1.
    10030    2    1    2    0    0  0.00000000000E+00  0.00000000000E+00  0.63913986295E+03  0.27683702325E+04  0.26935801417E+04 0.  0.
        2    1    3    3  502    0  0.53443442671E+03  0.12035621211E+04  0.60965052141E+03  0.14511566746E+04  0.25500000920E-02 0.  1.
       -2    1    3    3    0  502 -0.53443442671E+03 -0.12035621211E+04  0.29489341536E+02  0.13172135579E+04  0.25500000920E-02 0. -1.
</event>
<event>
 5   0  0.2540684E-05  0.2628800E+04  0.7818609E-02  0.8358484E-01
        2   -1    0    0  501    0  0.00000000000E+00  0.00000000000E+00  0.15667879260E+04  0.15667879260E+04  0.25500000920E-02 0.  1.
       -2   -1    0    0    0  501  0.00000000000E+00  0.00000000000E+00 -0.11026684952E+04  0.11026684952E+04  0.25500000920E-02 0. -1.
    10030    2    1    2    0    0  0.00000000000E+00  0.00000000000E+00  0.46411943080E+03  0.26694564211E+04  0.26288002469E+04 0.  0.
        2    1    3    3  502    0 -0.53844130593E+03 -0.59074966771E+03  0.12916257572E+04  0.15189474337E+04  0.25500000920E-02 0.  1.
       -2    1    3    3    0  502  0.53844130593E+03  0.59074966771E+03 -0.82750632638E+03  0.11505089874E+04  0.25500000920E-02 0. -1.
</event>
<event>
 5   0  0.1036691E-05  0.2673735E+04  0.7818609E-02  0.8343578E-01
       -1   -1    0    0    0  501  0.00000000000E+00  0.00000000000E+00  0.13991039841E+04  0.13991039841E+04  0.50400001928E-02 0. -1.
        1   -1    0    0  501    0  0.00000000000E+00  0.00000000000E+00 -0.12773997145E+04  0.12773997146E+04  0.50400001928E-02 0.  1.
    10030    2    1    2    0    0  0.00000000000E+00  0.00000000000E+00  0.12170426955E+03  0.26765036987E+04  0.26737352374E+04 0.  0.
        4    1    3    3  502    0 -0.83140173790E+03  0.56718695206E+03  0.94169706381E+03  0.13783050683E+04  0.12699999809E+01 0. -1.
       -4    1    3    3    0  502  0.83140173790E+03 -0.56718695206E+03 -0.81999279426E+03  0.12981986304E+04  0.12699999809E+01 0.  1.
</event>
<event>
 5   0  0.1036691E-05  0.2728862E+04  0.7818609E-02  0.8325700E-01
        1   -1    0    0  501    0  0.00000000000E+00  0.00000000000E+00  0.13238190604E+04  0.13238190604E+04  0.50400001928E-02 0.  1.
       -1   -1    0    0    0  501  0.00000000000E+00  0.00000000000E+00 -0.14062892043E+04  0.14062892043E+04  0.50400001928E-02 0. -1.
    10030    2    1    2    0    0  0.00000000000E+00  0.00000000000E+00 -0.82470143918E+02  0.27301082647E+04  0.27288623659E+04 0.  0.
        4    1    3    3  502    0 -0.49328677441E+03 -0.35563937795E+03 -0.12632097850E+04  0.14019671118E+04  0.12699999809E+01 0. -1.
       -4    1    3    3    0  502  0.49328677441E+03  0.35563937795E+03  0.11807396411E+04  0.13281411528E+04  0.12699999809E+01 0.  1.
</event>
<event>
 5   0  0.2516518E-05  0.1830024E+04  0.7818609E-02  0.8690494E-01
       -2   -1    0    0    0  501  0.00000000000E+00  0.00000000000E+00  0.34291207955E+03  0.34291207956E+03  0.25500000920E-02 0. -1.
        2   -1    0    0  501    0  0.00000000000E+00  0.00000000000E+00 -0.24415779584E+04  0.24415779584E+04  0.25500000920E-02 0.  1.
    10030    2    1    2    0    0  0.00000000000E+00  0.00000000000E+00 -0.20986658788E+04  0.27844900379E+04  0.18300235792E+04 0.  0.
        4    1    3    3  502    0  0.49310703755E+03 -0.76437019766E+03 -0.89848648984E+03  0.12785522809E+04  0.12699999809E+01 0. -1.
       -4    1    3    3    0  502 -0.49310703755E+03  0.76437019766E+03 -0.12001793890E+04  0.15059377571E+04  0.12699999809E+01 0.  1.
</event>
<event>
 5   0  0.1005265E-05  0.2602789E+04  0.7818609E-02  0.8367254E-01
        1   -1    0    0  501    0  0.00000000000E+00  0.00000000000E+00  0.16143369890E+04  0.16143369890E+04  0.50400001928E-02 0.  1.
       -1   -1    0    0    0  501  0.00000000000E+00  0.00000000000E+00 -0.10491168330E+04  0.10491168330E+04  0.50400001928E-02 0. -1.
    10030    2    1    2    0    0  0.00000000000E+00  0.00000000000E+00  0.56522015603E+03  0.26634538220E+04  0.26027893571E+04 0.  0.
        3    1    3    3  502    0 -0.48879187853E+03 -0.10549896121E+04 -0.31557202544E+03  0.12047847508E+04  0.10100000352E+00 0. -1.
       -3    1    3    3    0  502  0.48879187853E+03  0.10549896121E+04  0.88079218147E+03  0.14586690712E+04  0.10100000352E+00 0.  1.
</event>
<event>
 5   0  0.9971923E-06  0.2551342E+04  0.7818609E-02  0.8384920E-01
       -1   -1    0    0    0  501  0.00000000000E+00  0.00000000000E+00  0.23023709368E+04  0.23023709368E+04  0.50400001928E-02 0. -1.
        1   -1    0    0  501    0  0.00000000000E+00  0.00000000000E+00 -0.70680882613E+03  0.70680882615E+03  0.50400001928E-02 0.  1.
    10030    2    1    2    0    0  0.00000000000E+00  0.00000000000E+00  0.15955621107E+04  0.30091797630E+04  0.25513416856E+04 0.  0.
        2    1    3    3  502    0 -0.79529678900E+03 -0.93752572036E+03  0.11992874311E+04  0.17174812375E+04  0.25500000920E-02 0.  1.
       -2    1    3    3    0  502  0.79529678900E+03  0.93752572036E+03  0.39627467963E+03  0.12916985255E+04  0.25500000920E-02 0. -1.
</event>
<event>
 5   0  0.2540232E-05  0.2713417E+04  0.7818609E-02  0.8330665E-01
       -2   -1    0    0    0  501  0.00000000000E+00  0.00000000000E+00  0.11717163463E+04  0.11717163463E+04  0.25500000920E-02 0. -1.
        2   -1    0    0  501    0  0.00000000000E+00  0.00000000000E+00 -0.15709070730E+04  0.15709070730E+04  0.25500000920E-02 0.  1.
    10030    2    1    2    0    0  0.00000000000E+00  0.00000000000E+00 -0.39919072673E+03  0.27426234193E+04  0.27134166624E+04 0.  0.
        1    1    3    3  502    0 -0.85460205732E+03 -0.76744989198E+03  0.53021075813E+03  0.12650879262E+04  0.50400001928E-02 0. -1.
       -1    1    3    3    0  502  0.85460205732E+03  0.76744989198E+03 -0.92940148485E+03  0.14775354930E+04  0.50400001928E-02 0.  1.
</event>
<event>
 5   0  0.2615843E-05  0.2707464E+04  0.7818609E-02  0.8332587E-01
        2   -1    0    0  501    0  0.00000000000E+00  0.00000000000E+00  0.14464226414E+04  0.14464226414E+04  0.25500000920E-02 0. -1.
       -2   -1    0    0    0  501  0.00000000000E+00  0.00000000000E+00 -0.12669811535E+04  0.12669811535E+04  0.25500000920E-02 0.  1.
    10030    2    1    2    0    0  0.00000000000E+00  0.00000000000E+00  0.17944148788E+03  0.27134037948E+04  0.27074639252E+04 0.  0.
        3    1    3    3  502    0 -0.11092520265E+04  0.75754392657E+03  0.25824839169E+03  0.13678468851E+04  0.10100000352E+00 0. -1.
       -3    1    3    3    0  502  0.11092520265E+04 -0.75754392657E+03 -0.78806903808E+02  0.13455569097E+04  0.10100000352E+00 0.  1.
</event>
<event>
 5   0  0.2540684E-05  0.2560667E+04  0.7818609E-02  0.8381686E-01
        2   -1    0    0  501    0  0.00000000000E+00  0.00000000000E+00  0.19934420712E+04  0.19934420712E+04  0.25500000920E-02 0. -1.
       -2   -1    0    0    0  501  0.00000000000E+00  0.00000000000E+00 -0.82232317580E+03  0.82232317580E+03  0.25500000920E-02 0.  1.
    10030    2    1    2    0    0  0.00000000000E+00  0.00000000000E+00  0.11711188954E+04  0.28157652470E+04  0.25606667997E+04 0.  0.
        2    1    3    3  502    0 -0.25571879341E+03  0.71362126888E+03  0.17201466195E+04  0.18797744038E+04  0.25500000920E-02 0. -1.
       -2    1    3    3    0  502  0.25571879341E+03 -0.71362126888E+03 -0.54902772409E+03  0.93599084318E+03  0.25500000920E-02 0.  1.
</event>
<event>
 5   0  0.1096672E-05  0.2491934E+04  0.7818609E-02  0.8405865E-01
        1   -1    0    0  501    0  0.00000000000E+00  0.00000000000E+00  0.95956337993E+03  0.95956337995E+03  0.50400001928E-02 0.  1.
       -1   -1    0    0    0  501  0.00000000000E+00  0.00000000000E+00 -0.16178547604E+04  0.16178547604E+04  0.50400001928E-02 0. -1.
    10030    2    1    2    0    0  0.00000000000E+00  0.00000000000E+00 -0.65829138043E+03  0.25774181403E+04  0.24919343347E+04 0.  0.
        1    1    3    3  502    0  0.98264136902E+03 -0.75157912570E+03 -0.48248434774E+03  0.13278728810E+04  0.50400001928E-02 0. -1.
       -1    1    3    3    0  502 -0.98264136902E+03  0.75157912570E+03 -0.17580703269E+03  0.12495452593E+04  0.50400001928E-02 0.  1.
</event>
<event>
 5   0  0.2516518E-05  0.2714300E+04  0.7818609E-02  0.8330380E-01
        2   -1    0    0  501    0  0.00000000000E+00  0.00000000000E+00  0.18061536756E+04  0.18061536756E+04  0.25500000920E-02 0.  1.
       -2   -1    0    0    0  501  0.00000000000E+00  0.00000000000E+00 -0.10197673145E+04  0.10197673145E+04  0.25500000920E-02 0. -1.
    10030    2    1    2    0    0  0.00000000000E+00  0.00000000000E+00  0.78638636107E+03  0.28259209901E+04  0.27143002659E+04 0.  0.
        4    1    3    3  502    0  0.92395667821E+03 -0.50460479939E+03 -0.49849278596E+03  0.11648255738E+04  0.12699999809E+01 0. -1.
       -4    1    3    3    0  502 -0.92395667821E+03  0.50460479939E+03  0.12848791470E+04  0.16610954163E+04  0.12699999809E+01 0.  1.
</event>
<event>
 5   0  0.1005265E-05  0.2706682E+04  0.7818609E-02  0.8332840E-01
       -1   -1    0    0    0  501  0.00000000000E+00  0.00000000000E+00  0.85801498756E+03  0.85801498758E+03  0.50400001928E-02 0.  1.
        1   -1    0    0  501    0  0.00000000000E+00  0.00000000000E+00 -0.21346146883E+04  0.21346146883E+04  0.50400001928E-02 0. -1.
    10030    2    1    2    0    0  0.00000000000E+00  0.00000000000E+00 -0.12765997007E+04  0.29926296759E+04  0.27066816549E+04 0.  0.
        3    1    3    3  502    0 -0.58921868089E+03  0.31191636068E+03  0.66385779728E+03  0.94083880404E+03  0.10100000352E+00 0.  1.
       -3    1    3    3    0  502  0.58921868089E+03 -0.31191636068E+03 -0.19404574980E+04  0.20517908719E+04  0.10100000352E+00 0. -1.
</event>
<event>
 5   0  0.2615843E-05  0.2753240E+04  0.7818609E-02  0.8317934E-01
       -2   -1    0    0    0  501  0.00000000000E+00  0.00000000000E+00  0.89985260500E+03  0.89985260500E+03  0.25500000920E-02 0.  1.
        2   -1    0    0  501    0  0.00000000000E+00  0.00000000000E+00 -0.21059928384E+04  0.21059928384E+04  0.25500000920E-02 0. -1.
    10030    2    1    2    0    0  0.00000000000E+00  0.00000000000E+00 -0.12061402334E+04  0.30058454434E+04  0.27532403758E+04 0.  0.
        3    1    3    3  502    0  0.24312370919E+03  0.58912595413E+03  0.72908854399E+03  0.96837422672E+03  0.10100000352E+00 0.  1.
       -3    1    3    3    0  502 -0.24312370919E+03 -0.58912595413E+03 -0.19352287774E+04  0.20374712167E+04  0.10100000352E+00 0. -1.
</event>
<event>
 5   0  0.2615843E-05  0.2693146E+04  0.7818609E-02  0.8337232E-01
       -2   -1    0    0    0  501  0.00000000000E+00  0.00000000000E+00  0.78852438435E+03  0.78852438435E+03  0.25500000920E-02 0. -1.
        2   -1    0    0  501    0  0.00000000000E+00  0.00000000000E+00 -0.22995594396E+04  0.22995594396E+04  0.25500000920E-02 0.  1.
    10030    2    1    2    0    0  0.00000000000E+00  0.00000000000E+00 -0.15110350553E+04  0.30880838240E+04  0.26931458864E+04 0.  0.
        3    1    3    3  502    0  0.50477249785E+02  0.92678000239E+03  0.36314648812E+03  0.99666669835E+03  0.10100000352E+00 0. -1.
       -3    1    3    3    0  502 -0.50477249785E+02 -0.92678000239E+03 -0.18741815434E+04  0.20914171256E+04  0.10100000352E+00 0.  1.
</event>
<event>
 5   0  0.1036691E-05  0.2518496E+04  0.7818609E-02  0.8396426E-01
       -1   -1    0    0    0  501  0.00000000000E+00  0.00000000000E+00  0.10532523135E+04  0.10532523135E+04  0.50400001928E-02 0. -1.
        1   -1    0    0  501    0  0.00000000000E+00  0.00000000000E+00 -0.15055324237E+04  0.15055324237E+04  0.50400001928E-02 0.  1.
    10030    2    1    2    0    0  0.00000000000E+00  0.00000000000E+00 -0.45228011019E+03  0.25587847372E+04  0.25184959863E+04 0.  0.
        4    1    3    3  502    0  0.10501444001E+04 -0.24115396838E+02 -0.93174190478E+03  0.14041116065E+04  0.12699999809E+01 0.  1.
       -4    1    3    3    0  502 -0.10501444001E+04  0.24115396838E+02  0.47946179460E+03  0.11546731307E+04  0.12699999809E+01 0. -1.
</event>
<event>
 5   0  0.1096672E-05  0.1988290E+04  0.7818609E-02  0.8612115E-01
       -1   -1    0    0    0  501  0.00000000000E+00  0.00000000000E+00  0.87557262056E+03  0.87557262058E+03  0.50400001928E-02 0. -1.
        1   -1    0    0  501    0  0.00000000000E+00  0.00000000000E+00 -0.11287750809E+04  0.11287750809E+04  0.50400001928E-02 0.  1.
    10030    2    1    2    0    0  0.00000000000E+00  0.00000000000E+00 -0.25320246036E+03  0.20043477015E+04  0.19882902762E+04 0.  0.
        1    1    3    3  502    0 -0.19625804417E+03 -0.11134008588E+02  0.85578595859E+03  0.87807220261E+03  0.50400001928E-02 0. -1.
       -1    1    3    3    0  502  0.19625804417E+03  0.11134008588E+02 -0.11089884189E+04  0.11262754989E+04  0.50400001928E-02 0.  1.
</event>
<event>
 5   0  0.2540232E-05  0.2628181E+04  0.7818609E-02  0.8358691E-01
       -2   -1    0    0    0  501  0.00000000000E+00  0.00000000000E+00  0.16479713707E+04  0.16479713707E+04  0.25500000920E-02 0. -1.
        2   -1    0    0  501    0  0.00000000000E+00  0.00000000000E+00 -0.10478539632E+04  0.10478539633E+04  0.25500000920E-02 0.  1.
    10030    2    1    2    0    0  0.00000000000E+00  0.00000000000E+00  0.60011740750E+03  0.26958253340E+04  0.26281806119E+04 0.  0.
        1    1    3    3  502    0 -0.44824665696E+03 -0.24218122550E+03  0.15425391630E+04  0.16245011175E+04  0.50400001928E-02 0. -1.
       -1    1    3    3    0  502  0.44824665696E+03  0.24218122550E+03 -0.94242175551E+03  0.10713242165E+04  0.50400001928E-02 0.  1.
</event>
<event>
 5   0  0.1036691E-05  0.2718076E+04  0.7818609E-02  0.8329164E-01
        1   -1    0    0  501    0  0.00000000000E+00  0.00000000000E+00  0.12236624081E+04  0.12236624081E+04  0.50400001928E-02 0.  1.
       -1   -1    0    0    0  501  0.00000000000E+00  0.00000000000E+00 -0.15093903951E+04  0.15093903951E+04  0.50400001928E-02 0. -1.
    10030    2    1    2    0    0  0.00000000000E+00  0.00000000000E+00 -0.28572798697E+03  0.27330528032E+04  0.27180760002E+04 0.  0.
        4    1    3    3  502    0  0.60994388779E+03  0.32882565960E+03 -0.13184187243E+04  0.14894251932E+04  0.12699999809E+01 0. -1.
       -4    1    3    3    0  502 -0.60994388779E+03 -0.32882565960E+03  0.10326907373E+04  0.12436276100E+04  0.12699999809E+01 0.  1.
</event>
<event>
 5   0  0.2641216E-05  0.2613513E+04  0.7818609E-02  0.8363626E-01
        2   -1    0    0  501    0  0.00000000000E+00  0.00000000000E+00  0.10452902418E+04  0.10452902418E+04  0.25500000920E-02 0.  1.
       -2   -1    0    0    0  501  0.00000000000E+00  0.00000000000E+00 -0.16336252799E+04  0.16336252799E+04  0.25500000920E-02 0. -1.
    10030    2    1    2    0    0  0.00000000000E+00  0.00000000000E+00 -0.58833503805E+03  0.26789155217E+04  0.26135130104E+04 0.  0.
        5    1    3    3  502    0 -0.64877279542E+03 -0.72795331266E+03  0.59752643179E+03  0.11436267276E+04  0.46999998093E+01 0.  1.
       -5    1    3    3    0  502  0.64877279542E+03  0.72795331266E+03 -0.11858614698E+04  0.15352887941E+04  0.46999998093E+01 0. -1.
</event>
<event>
 5   0  0.9971923E-06  0.2635793E+04  0.7818609E-02  0.8356144E-01
       -1   -1    0    0    0  501  0.00000000000E+00  0.00000000000E+00  0.71162239669E+03  0.71162239671E+03  0.50400001928E-02 0. -1.
        1   -1    0    0  501    0  0.00000000000E+00  0.00000000000E+00 -0.24406916924E+04  0.24406916924E+04  0.50400001928E-02 0.  1.
    10030    2    1    2    0    0  0.00000000000E+00  0.00000000000E+00 -0.17290692957E+04  0.31523140891E+04  0.26357927625E+04 0.  0.
        2    1    3    3  502    0  0.11430490118E+04 -0.28422800695E+03 -0.15749386683E+03  0.11883395648E+04  0.25500000920E-02 0. -1.
       -2    1    3    3    0  502 -0.11430490118E+04  0.28422800695E+03 -0.15715754288E+04  0.19639745242E+04  0.25500000920E-02 0.  1.
</event>
<event>
 5   0  0.1041909E-05  0.2771178E+04  0.7818609E-02  0.8312273E-01
        1   -1    0    0  501    0  0.00000000000E+00  0.00000000000E+00  0.15840710195E+04  0.15840710195E+04  0.50400001928E-02 0. -1.
       -1   -1    0    0    0  501  0.00000000000E+00  0.00000000000E+00 -0.12119765900E+04  0.12119765900E+04  0.50400001928E-02 0.  1.
    10030    2    1    2    0    0  0.00000000000E+00  0.00000000000E+00  0.37209442950E+03  0.27960476096E+04  0.27711780835E+04 0.  0.
        5    1    3    3  502    0  0.10624698882E+04 -0.33172922199E+03 -0.64655433787E+03  0.12872222581E+04  0.46999998093E+01 0.  1.
       -5    1    3    3    0  502 -0.10624698882E+04  0.33172922199E+03  0.10186487674E+04  0.15088253515E+04  0.46999998093E+01 0. -1.
</event>
<event>
 5   0  0.1096672E-05  0.2673141E+04  0.7818609E-02  0.8343773E-01
       -1   -1    0    0    0  501  0.00000000000E+00  0.00000000000E+00  0.13045705017E+04  0.13045705017E+04  0.50400001928E-02 0.  1.
        1   -1    0    0  501    0  0.00000000000E+00  0.00000000000E+00 -0.13693558024E+04  0.13693558024E+04  0.50400001928E-02 0. -1.
    10030    2    1    2    0    0  0.00000000000E+00  0.00000000000E+00 -0.64785300664E+02  0.26739263041E+04  0.26731413627E+04 0.  0.
        1    1    3    3  502    0 -0.51483290263E+02  0.11201277264E+04 -0.75998821114E+03  0.13545917221E+04  0.50400001928E-02 0. -1.
       -1    1    3    3    0  502  0.51483290263E+02 -0.11201277264E+04  0.69520291047E+03  0.13193345820E+04  0.50400001928E-02 0.  1.
</event>
<event>
 5   0  0.2641216E-05  0.2729317E+04  0.7818609E-02  0.8325555E-01
        2   -1    0    0  501    0  0.00000000000E+00  0.00000000000E+00  0.25501285318E+04  0.25501285318E+04  0.25500000920E-02 0.  1.
       -2   -1    0    0    0  501  0.00000000000E+00  0.00000000000E+00 -0.73027435286E+03  0.73027435286E+03  0.25500000920E-02 0. -1.
    10030    2    1    2    0    0  0.00000000000E+00  0.00000000000E+00  0.18198541790E+04  0.32804028847E+04  0.27293174702E+04 0.  0.
        5    1    3    3  502    0 -0.11425498224E+03 -0.12439047113E+04  0.24951075446E+03  0.12738252778E+04  0.46999998093E+01 0. -1.
       -5    1    3    3    0  502  0.11425498224E+03  0.12439047113E+04  0.15703434245E+04  0.20065776069E+04  0.46999998093E+01 0.  1.
</event>
<event>
 5   0  0.9971923E-06  0.2657716E+04  0.7818609E-02  0.8348856E-01
        1   -1    0    0  501    0  0.00000000000E+00  0.00000000000E+00  0.16461963824E+04  0.16461963824E+04  0.50400001928E-02 0. -1.
       -1   -1    0    0    0  501  0.00000000000E+00  0.00000000000E+00 -0.10726932982E+04  0.10726932982E+04  0.50400001928E-02 0.  1.
    10030    2    1    2    0    0  0.00000000000E+00  0.00000000000E+00  0.57350308428E+03  0.27188896806E+04  0.26577161827E+04 0.  0.
        2    1    3    3  502    0 -0.91903956897E+02  0.10928184849E+04 -0.48096501943E+03  0.11975082163E+04  0.25500000920E-02 0.  1.
       -2    1    3    3    0  502  0.91903956897E+02 -0.10928184849E+04  0.10544681037E+04  0.15213814643E+04  0.25500000920E-02 0. -1.
</event>
<event>
 5   0  0.1005265E-05  0.2620414E+04  0.7818609E-02  0.8361300E-01
       -1   -1    0    0    0  501  0.00000000000E+00  0.00000000000E+00  0.10486193709E+04  0.10486193709E+04  0.50400001928E-02 0. -1.
        1   -1    0    0  501    0  0.00000000000E+00  0.00000000000E+00 -0.16370503994E+04  0.16370503994E+04  0.50400001928E-02 0.  1.
    10030    2    1    2    0    0  0.00000000000E+00  0.00000000000E+00 -0.58843102848E+03  0.26856697703E+04  0.26204142878E+04 0.  0.
        3    1    3    3  502    0 -0.12085281528E+04  0.33206234322E+03  0.97180675370E+02  0.12570798661E+04  0.10100000352E+00 0. -1.
       -3    1    3    3    0  502  0.12085281528E+04 -0.33206234322E+03 -0.68561170385E+03  0.14285899042E+04  0.10100000352E+00 0.  1.
</event>
<event>
 5   0  0.2615843E-05  0.2691458E+04  0.7818609E-02  0.8337782E-01
       -2   -1    0    0    0  501  0.00000000000E+00  0.00000000000E+00  0.90847420517E+03  0.90847420518E+03  0.25500000920E-02 0.  1.
        2   -1    0    0  501    0  0.00000000000E+00  0.00000000000E+00 -0.19934373235E+04  0.19934373235E+04  0.25500000920E-02 0. -1.
    10030    2    1    2    0    0  0.00000000000E+00  0.00000000000E+00 -0.10849631183E+04  0.29019115287E+04  0.26914578860E+04 0.  0.
        3    1    3    3  502    0  0.46997551679E+03  0.69067466814E+03 -0.16800023890E+04  0.18762506552E+04  0.10100000352E+00 0. -1.
       -3    1    3    3    0  502 -0.46997551679E+03 -0.69067466814E+03  0.59503927071E+03  0.10256608735E+04  0.10100000352E+00 0.  1.
</event>
<event>
 5   0  0.2641216E-05  0.2205375E+04  0.7818609E-02  0.8516194E-01
        2   -1    0    0  501    0  0.00000000000E+00  0.00000000000E+00  0.13443331131E+04  0.13443331131E+04  0.25500000920E-02 0.  1.
       -2   -1    0    0    0  501  0.00000000000E+00  0.00000000000E+00 -0.90447805514E+03  0.90447805515E+03  0.25500000920E-02 0. -1.
    10030    2    1    2    0    0  0.00000000000E+00  0.00000000000E+00  0.43985505792E+03  0.22488111682E+04  0.22053750698E+04 0.  0.
        5    1    3    3  502    0 -0.95388132166E+03  0.16036911135E+03 -0.31992387959E+03  0.10188136269E+04  0.46999998093E+01 0.  1.
       -5    1    3    3    0  502  0.95388132166E+03 -0.16036911135E+03  0.75977893751E+03  0.12299975413E+04  0.46999998093E+01 0. -1.
</event>
<event>
 5   0  0.2540232E-05  0.2670344E+04  0.7818609E-02  0.8344692E-01
       -2   -1    0    0    0  501  0.00000000000E+00  0.00000000000E+00  0.10723827711E+04  0.10723827711E+04  0.25500000920E-02 0.  1.
        2   -1    0    0  501    0  0.00000000000E+00  0.00000000000E+00 -0.16623580858E+04  0.16623580858E+04  0.25500000920E-02 0. -1.
    10030    2    1    2    0    0  0.00000000000E+00  0.00000000000E+00 -0.58997531468E+03  0.27347408568E+04  0.26703439258E+04 0.  0.
        1    1    3    3  502    0 -0.43296531764E+03  0.72915789060E+03 -0.13511453017E+04  0.15952190515E+04  0.50400001928E-02 0. -1.
       -1    1    3    3    0  502  0.43296531764E+03 -0.72915789060E+03  0.76116998706E+03  0.11395218054E+04  0.50400001928E-02 0.  1.
</event>
<event>
 5   0  0.1036691E-05  0.2700359E+04  0.7818609E-02  0.8334888E-01
        1   -1    0    0  501    0  0.00000000000E+00  0.00000000000E+00  0.12038368364E+04  0.12038368364E+04  0.50400001928E-02 0.  1.
       -1   -1    0    0    0  501  0.00000000000E+00  0.00000000000E+00 -0.15143125838E+04  0.15143125838E+04  0.50400001928E-02 0. -1.
    10030    2    1    2    0    0  0.00000000000E+00  0.00000000000E+00 -0.31047574738E+03  0.27181494202E+04  0.27003594355E+04 0.  0.
        4    1    3    3  502    0 -0.13406346489E+04  0.36830993807E+02  0.17571809857E+01  0.13411422313E+04  0.12699999809E+01 0. -1.
       -4    1    3    3    0  502  0.13406346489E+04 -0.36830993807E+02 -0.31223292836E+03  0.13770071889E+04  0.12699999809E+01 0.  1.
</event>
<event>
 5   0  0.1005265E-05  0.1720917E+04  0.7818609E-02  0.8749524E-01
       -1   -1    0    0    0  501  0.00000000000E+00  0.00000000000E+00  0.89802784691E+03  0.89802784693E+03  0.50400001928E-02 0. -1.
        1   -1    0    0  501    0  0.00000000000E+00  0.00000000000E+00 -0.82446090329E+03  0.82446090330E+03  0.50400001928E-02 0.  1.
    10030    2    1    2    0    0  0.00000000000E+00  0.00000000000E+00  0.73566943626E+02  0.17224887502E+04  0.17209170228E+04 0.  0.
        3    1    3    3  502    0 -0.48648865952E+03  0.12793254584E+03  0.73552626931E+03  0.89108745652E+03  0.10100000352E+00 0. -1.
       -3    1    3    3    0  502  0.48648865952E+03 -0.12793254584E+03 -0.66195932568E+03  0.83140129371E+03  0.10100000352E+00 0.  1.
</event>
<event>
 5   0  0.1096672E-05  0.2754255E+04  0.7818609E-02  0.8317613E-01
       -1   -1    0    0    0  501  0.00000000000E+00  0.00000000000E+00  0.94420314732E+03  0.94420314734E+03  0.50400001928E-02 0.  1.
        1   -1    0    0  501    0  0.00000000000E+00  0.00000000000E+00 -0.20085514357E+04  0.20085514357E+04  0.50400001928E-02 0. -1.
    10030    2    1    2    0    0  0.00000000000E+00  0.00000000000E+00 -0.10643482883E+04  0.29527545830E+04  0.27542553165E+04 0.  0.
        1    1    3    3  502    0  0.10267138175E+04 -0.64057259793E+03  0.17246713407E+03  0.12223826850E+04  0.50400001928E-02 0.  1.
       -1    1    3    3    0  502 -0.10267138175E+04  0.64057259793E+03 -0.12368154224E+04  0.17303718980E+04  0.50400001928E-02 0. -1.
</event>
<event>
 5   0  0.2540684E-05  0.2756547E+04  0.7818609E-02  0.8316887E-01
        2   -1    0    0  501    0  0.00000000000E+00  0.00000000000E+00  0.15294763461E+04  0.15294763461E+04  0.25500000920E-02 0. -1.
       -2   -1    0    0    0  501  0.00000000000E+00  0.00000000000E+00 -0.12420187954E+04  0.12420187954E+04  0.25500000920E-02 0.  1.
    10030    2    1    2    0    0  0.00000000000E+00  0.00000000000E+00  0.28745755066E+03  0.27714951415E+04  0.27565473833E+04 0.  0.
        2    1    3    3  502    0  0.94570173771E+03 -0.23431412059E+03  0.11238913140E+04  0.14874093483E+04  0.25500000920E-02 0. -1.
       -2    1    3    3    0  502 -0.94570173771E+03  0.23431412059E+03 -0.83643376335E+03  0.12840857932E+04  0.25500000920E-02 0.  1.
</event>
<event>
 5   0  0.1096672E-05  0.2716587E+04  0.7818609E-02  0.8329643E-01
        1   -1    0    0  501    0  0.00000000000E+00  0.00000000000E+00  0.14961312183E+04  0.14961312183E+04  0.50400001928E-02 0.  1.
       -1   -1    0    0    0  501  0.00000000000E+00  0.00000000000E+00 -0.12331544249E+04  0.12331544249E+04  0.50400001928E-02 0. -1.
    10030    2    1    2    0    0  0.00000000000E+00  0.00000000000E+00  0.26297679339E+03  0.27292856431E+04  0.27165867054E+04 0.  0.
        1    1    3    3  502    0  0.44107554637E+03 -0.35670037621E+03 -0.11084518420E+04  0.12451699812E+04  0.50400001928E-02 0. -1.
       -1    1    3    3    0  502 -0.44107554637E+03  0.35670037621E+03  0.13714286354E+04  0.14841156619E+04  0.50400001928E-02 0.  1.
</event>
<event>
 5   0  0.9971923E-06  0.2097872E+04  0.7818609E-02  0.8562181E-01
       -1   -1    0    0    0  501  0.00000000000E+00  0.00000000000E+00  0.52026913807E+03  0.52026913809E+03  0.50400001928E-02 0.  1.
        1   -1    0    0  501    0  0.00000000000E+00  0.00000000000E+00 -0.21148028545E+04  0.21148028545E+04  0.50400001928E-02 0. -1.
    10030    2    1    2    0    0  0.00000000000E+00  0.00000000000E+00 -0.15945337164E+04  0.26350719926E+04  0.20978719297E+04 0.  0.
        2    1    3    3  502    0  0.77044070694E+03  0.47748907425E+03 -0.14603618267E+04  0.17187877600E+04  0.25500000920E-02 0. -1.
       -2    1    3    3    0  502 -0.77044070694E+03 -0.47748907425E+03 -0.13417188972E+03  0.91628423261E+03  0.25500000920E-02 0.  1.
</event>
<event>
 5   0  0.1036691E-05  0.2679574E+04  0.7818609E-02  0.8341663E-01
       -1   -1    0    0    0  501  0.00000000000E+00  0.00000000000E+00  0.97621761486E+03  0.97621761487E+03  0.50400001928E-02 0. -1.
        1   -1    0    0  501    0  0.00000000000E+00  0.00000000000E+00 -0.18387587640E+04  0.18387587640E+04  0.50400001928E-02 0.  1.
    10030    2    1    2    0    0  0.00000000000E+00  0.00000000000E+00 -0.86254114915E+03  0.28149763789E+04  0.26795736190E+04 0.  0.
        4    1    3    3  502    0 -0.11762011424E+04  0.33629583606E+03 -0.10052137676E+04  0.15833509871E+04  0.12699999809E+01 0.  1.
       -4    1    3    3    0  502  0.11762011424E+04 -0.33629583606E+03  0.14267261844E+03  0.12316253918E+04  0.12699999809E+01 0. -1.
</event>
<event>
 5   0  0.2540232E-05  0.2698714E+04  0.7818609E-02  0.8335422E-01
       -2   -1    0    0    0  501  0.00000000000E+00  0.00000000000E+00  0.76939279811E+03  0.76939279812E+03  0.25500000920E-02 0.  1.
        2   -1    0    0  501    0  0.00000000000E+00  0.00000000000E+00 -0.23664954879E+04  0.23664954879E+04  0.25500000920E-02 0. -1.
    10030    2    1    2    0    0  0.00000000000E+00  0.00000000000E+00 -0.15971026898E+04  0.31358882861E+04  0.26987142014E+04 0.  0.
        1    1    3    3  502    0 -0.10581395892E+04  0.18794598505E+03 -0.17466849738E+04  0.20508270237E+04  0.50400001928E-02 0. -1.
       -1    1    3    3    0  502  0.10581395892E+04 -0.18794598505E+03  0.14958228393E+03  0.10850612624E+04  0.50400001928E-02 0.  1.
</event>
<event>
 5   0  0.2615843E-05  0.2173832E+04  0.7818609E-02  0.8529400E-01
       -2   -1    0    0    0  501  0.00000000000E+00  0.00000000000E+00  0.19581479104E+04  0.19581479104E+04  0.25500000920E-02 0. -1.
        2   -1    0    0  501    0  0.00000000000E+00  0.00000000000E+00 -0.60331810686E+03  0.60331810687E+03  0.25500000920E-02 0.  1.
    10030    2    1    2    0    0  0.00000000000E+00  0.00000000000E+00  0.13548298035E+04  0.25614660173E+04  0.21738317233E+04 0.  0.
        3    1    3    3  502    0  0.32931942409E+03  0.17521998142E+03  0.18803578628E+04  0.19170026154E+04  0.10100000352E+00 0. -1.
       -3    1    3    3    0  502 -0.32931942409E+03 -0.17521998142E+03 -0.52552805932E+03  0.64446340184E+03  0.10100000352E+00 0.  1.
</event>
<event>
 5   0  0.9971923E-06  0.2729867E+04  0.7818609E-02  0.8325379E-01
       -1   -1    0    0    0  501  0.00000000000E+00  0.00000000000E+00  0.11814286668E+04  0.11814286668E+04  0.50400001928E-02 0. -1.
        1   -1    0    0  501    0  0.00000000000E+00  0.00000000000E+00 -0.15769415237E+04  0.15769415238E+04  0.50400001928E-02 0.  1.
    10030    2    1    2    0    0  0.00000000000E+00  0.00000000000E+00 -0.39551285691E+03  0.27583701906E+04  0.27298673390E+04 0.  0.
        2    1    3    3  502    0 -0.26020447940E+03 -0.47863313362E+03 -0.14623217142E+04  0.15605065983E+04  0.25500000920E-02 0.  1.
       -2    1    3    3    0  502  0.26020447940E+03  0.47863313362E+03  0.10668088573E+04  0.11978635923E+04  0.25500000920E-02 0. -1.
</event>
<event>
 5   0  0.1041909E-05  0.2724870E+04  0.7818609E-02  0.8326981E-01
       -1   -1    0    0    0  501  0.00000000000E+00  0.00000000000E+00  0.10971074560E+04  0.10971074560E+04  0.50400001928E-02 0. -1.
        1   -1    0    0  501    0  0.00000000000E+00  0.00000000000E+00 -0.16919295452E+04  0.16919295452E+04  0.50400001928E-02 0.  1.
    10030    2    1    2    0    0  0.00000000000E+00  0.00000000000E+00 -0.59482208919E+03  0.27890370011E+04  0.27248695521E+04 0.  0.
        5    1    3    3  502    0 -0.74683868847E+03 -0.11346366758E+04 -0.40494709324E+03  0.14174528744E+04  0.46999998093E+01 0.  1.
       -5    1    3    3    0  502  0.74683868847E+03  0.11346366758E+04 -0.18987499595E+03  0.13715841268E+04  0.46999998093E+01 0. -1.
</event>
<event>
 5   0  0.2641216E-05  0.2651312E+04  0.7818609E-02  0.8350978E-01
       -2   -1    0    0    0  501  0.00000000000E+00  0.00000000000E+00  0.93688193919E+03  0.93688193919E+03  0.25500000920E-02 0. -1.
        2   -1    0    0  501    0  0.00000000000E+00  0.00000000000E+00 -0.18757575617E+04  0.18757575617E+04  0.25500000920E-02 0.  1.
    10030    2    1    2    0    0  0.00000000000E+00  0.00000000000E+00 -0.93887562249E+03  0.28126395009E+04  0.26513116617E+04 0.  0.
        5    1    3    3  502    0 -0.26221551528E+03 -0.78232496402E+03  0.63126680758E+03  0.10388980692E+04  0.46999998093E+01 0. -1.
       -5    1    3    3    0  502  0.26221551528E+03  0.78232496402E+03 -0.15701424301E+04  0.17737414317E+04  0.46999998093E+01 0.  1.
</event>
<event>
 5   0  0.2540232E-05  0.2754048E+04  0.7818609E-02  0.8317678E-01
        2   -1    0    0  501    0  0.00000000000E+00  0.00000000000E+00  0.27769690042E+04  0.27769690042E+04  0.25500000920E-02 0. -1.
       -2   -1    0    0    0  501  0.00000000000E+00  0.00000000000E+00 -0.68282905280E+03  0.68282905281E+03  0.25500000920E-02 0.  1.
    10030    2    1    2    0    0  0.00000000000E+00  0.00000000000E+00  0.20941399514E+04  0.34597980570E+04  0.27540480132E+04 0.  0.
        1    1    3    3  502    0  0.11878496874E+04  0.54428324659E+03  0.15931656791E+04  0.20604387915E+04  0.50400001928E-02 0. -1.
       -1    1    3    3    0  502 -0.11878496874E+04 -0.54428324659E+03  0.50097427229E+03  0.13993592655E+04  0.50400001928E-02 0.  1.
</event>
<event>
 5   0  0.1041909E-05  0.2686090E+04  0.7818609E-02  0.8339532E-01
        1   -1    0    0  501    0  0.00000000000E+00  0.00000000000E+00  0.13798206070E+04  0.13798206071E+04  0.50400001928E-02 0. -1.
       -1   -1    0    0    0  501  0.00000000000E+00  0.00000000000E+00 -0.13072493849E+04  0.13072493849E+04  0.50400001928E-02 0.  1.
    10030    2    1    2    0    0  0.00000000000E+00  0.00000000000E+00  0.72571222155E+02  0.26870699920E+04  0.26860898271E+04 0.  0.
        5    1    3    3  502    0 -0.11064880816E+04 -0.68213426696E+03 -0.30166086551E+03  0.13344078840E+04  0.46999998093E+01 0.  1.
       -5    1    3    3    0  502  0.11064880816E+04  0.68213426696E+03  0.37423208766E+03  0.13526621080E+04  0.46999998093E+01 0. -1.
</event>
<event>
 5   0  0.1036691E-05  0.2640314E+04  0.7818609E-02  0.8354635E-01
       -1   -1    0    0    0  501  0.00000000000E+00  0.00000000000E+00  0.16429067603E+04  0.16429067603E+04  0.50400001928E-02 0. -1.
        1   -1    0    0  501    0  0.00000000000E+00  0.00000000000E+00 -0.10608117270E+04  0.10608117271E+04  0.50400001928E-02 0.  1.
    10030    2    1    2    0    0  0.00000000000E+00  0.00000000000E+00  0.58209503325E+03  0.27037184874E+04  0.26403141918E+04 0.  0.
        4    1    3    3  502    0 -0.84937035302E+03 -0.56016083183E+03 -0.57034419872E+03  0.11664065638E+04  0.12699999809E+01 0.  1.
       -4    1    3    3    0  502  0.84937035302E+03  0.56016083183E+03  0.11524392320E+04  0.15373119236E+04  0.12699999809E+01 0. -1.
</event>
<event>
 5   0  0.2516518E-05  0.2716493E+04  0.7818609E-02  0.8329673E-01
        2   -1    0    0  501    0  0.00000000000E+00  0.00000000000E+00  0.13900905869E+04  0.13900905869E+04  0.25500000920E-02 0. -1.
       -2   -1    0    0    0  501  0.00000000000E+00  0.00000000000E+00 -0.13271314699E+04  0.13271314699E+04  0.25500000920E-02 0.  1.
    10030    2    1    2    0    0  0.00000000000E+00  0.00000000000E+00  0.62959116985E+02  0.27172220569E+04  0.27164925650E+04 0.  0.
        4    1    3    3  502    0 -0.93259054577E+03 -0.98744046713E+03  0.39700578897E+02  0.13588015128E+04  0.12699999809E+01 0.  1.
       -4    1    3    3    0  502  0.93259054577E+03  0.98744046713E+03  0.23258538089E+02  0.13584205441E+04  0.12699999809E+01 0. -1.
</event>
<event>
 5   0  0.2540232E-05  0.2323836E+04  0.7818609E-02  0.8468582E-01
       -2   -1    0    0    0  501  0.00000000000E+00  0.00000000000E+00  0.29258335292E+04  0.29258335292E+04  0.25500000920E-02 0. -1.
        2   -1    0    0  501    0  0.00000000000E+00  0.00000000000E+00 -0.46142528146E+03  0.46142528146E+03  0.25500000920E-02 0.  1.
    10030    2    1    2    0    0  0.00000000000E+00  0.00000000000E+00  0.24644082477E+04  0.33872588106E+04  0.23238361041E+04 0.  0.
        1    1    3    3  502    0 -0.40452210999E+03 -0.74002039073E+03  0.23971890977E+04  0.25412170089E+04  0.50400001928E-02 0. -1.
       -1    1    3    3    0  502  0.40452210999E+03  0.74002039073E+03  0.67219150043E+02  0.84604180176E+03  0.50400001928E-02 0.  1.
</event>
<event>
 5   0  0.2641216E-05  0.2606370E+04  0.7818609E-02  0.8366041E-01
       -2   -1    0    0    0  501  0.00000000000E+00  0.00000000000E+00  0.63194753912E+03  0.63194753912E+03  0.25500000920E-02 0. -1.
        2   -1    0    0  501    0  0.00000000000E+00  0.00000000000E+00 -0.26873919795E+04  0.26873919795E+04  0.25500000920E-02 0.  1.
    10030    2    1    2    0    0  0.00000000000E+00  0.00000000000E+00 -0.20554444404E+04  0.33193395186E+04  0.26063696960E+04 0.  0.
        5    1    3    3  502    0 -0.11169610652E+04 -0.40785870683E+03 -0.17067972631E+04  0.20801754092E+04  0.46999998093E+01 0.  1.
       -5    1    3    3    0  502  0.11169610652E+04  0.40785870683E+03 -0.34864717731E+03  0.12391641094E+04  0.46999998093E+01 0. -1.
</event>
<event>
 5   0  0.2641216E-05  0.2642359E+04  0.7818609E-02  0.8353954E-01
        2   -1    0    0  501    0  0.00000000000E+00  0.00000000000E+00  0.17107781612E+04  0.17107781612E+04  0.25500000920E-02 0.  1.
       -2   -1    0    0    0  501  0.00000000000E+00  0.00000000000E+00 -0.10203046502E+04  0.10203046502E+04  0.25500000920E-02 0. -1.
    10030    2    1    2    0    0  0.00000000000E+00  0.00000000000E+00  0.69047351103E+03  0.27310828114E+04  0.26423587291E+04 0.  0.
        5    1    3    3  502    0  0.80802346288E+03  0.78717880701E+03 -0.36556143505E+03  0.11858371067E+04  0.46999998093E+01 0. -1.
       -5    1    3    3    0  502 -0.80802346288E+03 -0.78717880701E+03  0.10560349461E+04  0.15452457048E+04  0.46999998093E+01 0.  1.
</event>
<event>
 5   0  0.2641216E-05  0.2661276E+04  0.7818609E-02  0.8347680E-01
        2   -1    0    0  501    0  0.00000000000E+00  0.00000000000E+00  0.12935600686E+04  0.12935600686E+04  0.25500000920E-02 0. -1.
       -2   -1    0    0    0  501  0.00000000000E+00  0.00000000000E+00 -0.13687786699E+04  0.13687786699E+04  0.25500000920E-02 0.  1.
    10030    2    1    2    0    0  0.00000000000E+00  0.00000000000E+00 -0.75218601325E+02  0.26623387386E+04  0.26612759573E+04 0.  0.
        5    1    3    3  502    0 -0.23806988887E+03  0.11204056935E+03 -0.13424863506E+04  0.13680358375E+04  0.46999998093E+01 0.  1.
       -5    1    3    3    0  502  0.23806988887E+03 -0.11204056935E+03  0.12672677493E+04  0.12943029010E+04  0.46999998093E+01 0. -1.
</event>
<event>
 5   0  0.1041909E-05  0.2701661E+04  0.7818609E-02  0.8334466E-01
       -1   -1    0    0    0  501  0.00000000000E+00  0.00000000000E+00  0.15905833624E+04  0.15905833624E+04  0.50400001928E-02 0. -1.
        1   -1    0    0  501    0  0.00000000000E+00  0.00000000000E+00 -0.11472163403E+04  0.11472163403E+04  0.50400001928E-02 0.  1.
    10030    2    1    2    0    0  0.00000000000E+00  0.00000000000E+00  0.44336702209E+03  0.27377997027E+04  0.27016611364E+04 0.  0.
        5    1    3    3  502    0 -0.13636604592E+03 -0.11804392158E+04  0.87268514969E+03  0.14743248968E+04  0.46999998093E+01 0. -1.
       -5    1    3    3    0  502  0.13636604592E+03  0.11804392158E+04 -0.42931812760E+03  0.12634748060E+04  0.46999998093E+01 0.  1.
</event>
<event>
 5   0  0.2540232E-05  0.2740004E+04  0.7818609E-02  0.8322141E-01
        2   -1    0    0  501    0  0.00000000000E+00  0.00000000000E+00  0.16550484701E+04  0.16550484701E+04  0.25500000920E-02 0. -1.
       -2   -1    0    0    0  501  0.00000000000E+00  0.00000000000E+00 -0.11340482534E+04  0.11340482534E+04  0.25500000920E-02 0.  1.
    10030    2    1    2    0    0  0.00000000000E+00  0.00000000000E+00  0.52100021669E+03  0.27890967236E+04  0.27400035233E+04 0.  0.
        1    1    3    3  502    0 -0.10614580060E+04 -0.67289191287E+03  0.81564139437E+03  0.14982481467E+04  0.50400001928E-02 0. -1.
       -1    1    3    3    0  502  0.10614580060E+04  0.67289191287E+03 -0.29464117768E+03  0.12908485769E+04  0.50400001928E-02 0.  1.
</event>
<event>
 5   0  0.9971923E-06  0.2517277E+04  0.7818609E-02  0.8396856E-01
        1   -1    0    0  501    0  0.00000000000E+00  0.00000000000E+00  0.79065916831E+03  0.79065916832E+03  0.50400001928E-02 0. -1.
       -1   -1    0    0    0  501  0.00000000000E+00  0.00000000000E+00 -0.20036079378E+04  0.20036079378E+04  0.50400001928E-02 0.  1.
    10030    2    1    2    0    0  0.00000000000E+00  0.00000000000E+00 -0.12129487695E+04  0.27942671061E+04  0.25172770890E+04 0.  0.
        2    1    3    3  502    0  0.47665590912E+03  0.45341776039E+03  0.58462143558E+03  0.88009700833E+03  0.25500000920E-02 0. -1.
       -2    1    3    3    0  502 -0.47665590912E+03 -0.45341776039E+03 -0.17975702051E+04  0.19141700978E+04  0.25500000920E-02 0.  1.
</event>
<event>
 5   0  0.9971923E-06  0.2787156E+04  0.7818609E-02  0.8307267E-01
        1   -1    0    0  501    0  0.00000000000E+00  0.00000000000E+00  0.25621237333E+04  0.25621237333E+04  0.50400001928E-02 0. -1.
       -1   -1    0    0    0  501  0.00000000000E+00  0.00000000000E+00 -0.75798820496E+03  0.75798820498E+03  0.50400001928E-02 0.  1.
    10030    2    1    2    0    0  0.00000000000E+00  0.00000000000E+00  0.18041355283E+04  0.33201119382E+04  0.27871559479E+04 0.  0.
        2    1    3    3  502    0 -0.54191445918E+02  0.72948558555E+03  0.23150426315E+04  0.24278608523E+04  0.25500000920E-02 0. -1.
       -2    1    3    3    0  502  0.54191445918E+02 -0.72948558555E+03 -0.51090710319E+03  0.89225108598E+03  0.25500000920E-02 0.  1.
</event>
<event>
 5   0  0.1005265E-05  0.2676823E+04  0.7818609E-02  0.8342564E-01
        1   -1    0    0  501    0  0.00000000000E+00  0.00000000000E+00  0.11890148781E+04  0.11890148781E+04  0.50400001928E-02 0. -1.
       -1   -1    0    0    0  501  0.00000000000E+00  0.00000000000E+00 -0.15065799238E+04  0.15065799239E+04  0.50400001928E-02 0.  1.
    10030    2    1    2    0    0  0.00000000000E+00  0.00000000000E+00 -0.31756504574E+03  0.26955948020E+04  0.26768234492E+04 0.  0.
        3    1    3    3  502    0  0.29231192406E+03  0.13057893311E+04 -0.13005359700E+03  0.13444128780E+04  0.10100000352E+00 0. -1.
       -3    1    3    3    0  502 -0.29231192406E+03 -0.13057893311E+04 -0.18751144874E+03  0.13511819240E+04  0.10100000352E+00 0.  1.
</event>
<event>
 5   0  0.2540232E-05  0.2596270E+04  0.7818609E-02  0.8369469E-01
        2   -1    0    0  501    0  0.00000000000E+00  0.00000000000E+00  0.11933632507E+04  0.11933632507E+04  0.25500000920E-02 0. -1.
       -2   -1    0    0    0  501  0.00000000000E+00  0.00000000000E+00 -0.14121051673E+04  0.14121051673E+04  0.25500000920E-02 0.  1.
    10030    2    1    2    0    0  0.00000000000E+00  0.00000000000E+00 -0.21874191667E+03  0.26054684180E+04  0.25962699496E+04 0.  0.
        1    1    3    3  502    0 -0.77837697749E+03 -0.79707650005E+03  0.55928749628E+03  0.12465970357E+04  0.50400001928E-02 0. -1.
       -1    1    3    3    0  502  0.77837697749E+03  0.79707650005E+03 -0.77802941294E+03  0.13588713822E+04  0.50400001928E-02 0.  1.
</event>
<event>
 5   0  0.1036691E-05  0.2642524E+04  0.7818609E-02  0.8353899E-01
        1   -1    0    0  501    0  0.00000000000E+00  0.00000000000E+00  0.18273018076E+04  0.18273018076E+04  0.50400001928E-02 0.  1.
       -1   -1    0    0    0  501  0.00000000000E+00  0.00000000000E+00 -0.95536097070E+03  0.95536097071E+03  0.50400001928E-02 0. -1.
    10030    2    1    2    0    0  0.00000000000E+00  0.00000000000E+00  0.87194083692E+03  0.27826627783E+04  0.26425236640E+04 0.  0.
        4    1    3    3  502    0  0.41677305273E+03 -0.90234543975E+03 -0.48071470222E+03  0.11040902626E+04  0.12699999809E+01 0. -1.
       -4    1    3    3    0  502 -0.41677305273E+03  0.90234543975E+03  0.13526555391E+04  0.16785725157E+04  0.12699999809E+01 0.  1.
</event>
<event>
 5   0  0.1036691E-05  0.1834373E+04  0.7818609E-02  0.8688231E-01
        1   -1    0    0  501    0  0.00000000000E+00  0.00000000000E+00  0.92667528705E+03  0.92667528706E+03  0.50400001928E-02 0. -1.
       -1   -1    0    0    0  501  0.00000000000E+00  0.00000000000E+00 -0.90779485348E+03  0.90779485350E+03  0.50400001928E-02 0.  1.
    10030    2    1    2    0    0  0.00000000000E+00  0.00000000000E+00  0.18880433566E+02  0.18344701406E+04  0.18343729789E+04 0.  0.
        4    1    3    3  502    0 -0.35922690034E+03 -0.72189325101E+03  0.44656245561E+03  0.92173394830E+03  0.12699999809E+01 0. -1.
       -4    1    3    3    0  502  0.35922690034E+03  0.72189325101E+03 -0.42768202205E+03  0.91273619226E+03  0.12699999809E+01 0.  1.
</event>
<event>
 5   0  0.1041909E-05  0.2717516E+04  0.7818609E-02  0.8329344E-01
       -1   -1    0    0    0  501  0.00000000000E+00  0.00000000000E+00  0.12257529023E+04  0.12257529023E+04  0.50400001928E-02 0.  1.
        1   -1    0    0  501    0  0.00000000000E+00  0.00000000000E+00 -0.15061954419E+04  0.15061954419E+04  0.50400001928E-02 0. -1.
    10030    2    1    2    0    0  0.00000000000E+00  0.00000000000E+00 -0.28044253961E+03  0.27319483442E+04  0.27175160969E+04 0.  0.
        5    1    3    3  502    0 -0.28802291819E+03 -0.85239179051E+03  0.88335715158E+03  0.12609008340E+04  0.46999998093E+01 0.  1.
       -5    1    3    3    0  502  0.28802291819E+03  0.85239179051E+03 -0.11637996912E+04  0.14710475102E+04  0.46999998093E+01 0. -1.
</event>
<event>
 5   0  0.2540684E-05  0.2695665E+04  0.7818609E-02  0.8336413E-01
        2   -1    0    0  501    0  0.00000000000E+00  0.00000000000E+00  0.18535311726E+04  0.18535311726E+04  0.25500000920E-02 0. -1.
       -2   -1    0    0    0  501  0.00000000000E+00  0.00000000000E+00 -0.98010371219E+03  0.98010371220E+03  0.25500000920E-02 0.  1.
    10030    2    1    2    0    0  0.00000000000E+00  0.00000000000E+00  0.87342746044E+03  0.28336348848E+04  0.26956652485E+04 0.  0.
        2    1    3    3  502    0 -0.73814951976E+03 -0.76960955976E+03 -0.42978754883E+03  0.11497308055E+04  0.25500000920E-02 0.  1.
       -2    1    3    3    0  502  0.73814951976E+03  0.76960955976E+03  0.13032150093E+04  0.16839040793E+04  0.25500000920E-02 0. -1.
</event>
<event>
 5   0  0.2516518E-05  0.2711274E+04  0.7818609E-02  0.8331356E-01
       -2   -1    0    0    0  501  0.00000000000E+00  0.00000000000E+00  0.13862452882E+04  0.13862452882E+04  0.25500000920E-02 0.  1.
        2   -1    0    0  501    0  0.00000000000E+00  0.00000000000E+00 -0.13257047921E+04  0.13257047921E+04  0.25500000920E-02 0. -1.
    10030    2    1    2    0    0  0.00000000000E+00  0.00000000000E+00  0.60540496133E+02  0.27119500803E+04  0.27112742551E+04 0.  0.
        4    1    3    3  502    0  0.57729804076E+03  0.58362595332E+03  0.11093617258E+04  0.13800642496E+04  0.12699999809E+01 0.  1.
       -4    1    3    3    0  502 -0.57729804076E+03 -0.58362595332E+03 -0.10488212297E+04  0.13318858307E+04  0.12699999809E+01 0. -1.
</event>
<event>
 5   0  0.2641216E-05  0.2742456E+04  0.7818609E-02  0.8321360E-01
       -2   -1    0    0    0  501  0.00000000000E+00  0.00000000000E+00  0.99027802270E+03  0.99027802270E+03  0.25500000920E-02 0.  1.
        2   -1    0    0  501    0  0.00000000000E+00  0.00000000000E+00 -0.18987252464E+04  0.18987252464E+04  0.25500000920E-02 0. -1.
    10030    2    1    2    0    0  0.00000000000E+00  0.00000000000E+00 -0.90844722375E+03  0.28890032692E+04  0.27424557482E+04 0.  0.
        5    1    3    3  502    0  0.11806543547E+04 -0.26027796143E+03  0.22730547690E+03  0.12301947782E+04  0.46999998093E+01 0.  1.
       -5    1    3    3    0  502 -0.11806543547E+04  0.26027796143E+03 -0.11357527006E+04  0.16588084909E+04  0.46999998093E+01 0. -1.
</event>
<event>
 5   0  0.2615843E-05  0.2600369E+04  0.7818609E-02  0.8368076E-01
        2   -1    0    0  501    0  0.00000000000E+00  0.00000000000E+00  0.18050263984E+04  0.18050263984E+04  0.25500000920E-02 0. -1.
       -2   -1    0    0    0  501  0.00000000000E+00  0.00000000000E+00 -0.93654030147E+03  0.93654030147E+03  0.25500000920E-02 0.  1.
    10030    2    1    2    0    0  0.00000000000E+00  0.00000000000E+00  0.86848609688E+03  0.27415666998E+04  0.26003691794E+04 0.  0.
        3    1    3    3  502    0 -0.10762840225E+03 -0.11751398184E+04  0.10097227754E+04  0.15530864622E+04  0.10100000352E+00 0. -1.
       -3    1    3    3    0  502  0.10762840225E+03  0.11751398184E+04 -0.14123667850E+03  0.11884802376E+04  0.10100000352E+00 0.  1.
</event>
<event>
 5   0  0.2641216E-05  0.2726237E+04  0.7818609E-02  0.8326542E-01
       -2   -1    0    0    0  501  0.00000000000E+00  0.00000000000E+00  0.16594325624E+04  0.16594325624E+04  0.25500000920E-02 0.  1.
        2   -1    0    0  501    0  0.00000000000E+00  0.00000000000E+00 -0.11197156646E+04  0.11197156646E+04  0.25500000920E-02 0. -1.
    10030    2    1    2    0    0  0.00000000000E+00  0.00000000000E+00  0.53971689779E+03  0.27791482270E+04  0.27262374324E+04 0.  0.
        5    1    3    3  502    0 -0.16433469597E+03  0.10641110720E+04  0.11219837045E+04  0.15550587735E+04  0.46999998093E+01 0.  1.
       -5    1    3    3    0  502  0.16433469597E+03 -0.10641110720E+04 -0.58226680670E+03  0.12240894535E+04  0.46999998093E+01 0. -1.
</event>
<event>
 5   0  0.2540684E-05  0.2744820E+04  0.7818609E-02  0.8320607E-01
       -2   -1    0    0    0  501  0.00000000000E+00  0.00000000000E+00  0.83861149462E+03  0.83861149463E+03  0.25500000920E-02 0. -1.
        2   -1    0    0  501    0  0.00000000000E+00  0.00000000000E+00 -0.22459853995E+04  0.22459853995E+04  0.25500000920E-02 0.  1.
    10030    2    1    2    0    0  0.00000000000E+00  0.00000000000E+00 -0.14073739049E+04  0.30845968942E+04  0.27448199743E+04 0.  0.
        2    1    3    3  502    0 -0.74399608856E+03  0.62947351642E+03  0.38223351371E+03  0.10468378798E+04  0.25500000920E-02 0. -1.
       -2    1    3    3    0  502  0.74399608856E+03 -0.62947351642E+03 -0.17896074186E+04  0.20377590143E+04  0.25500000920E-02 0.  1.
</event>
<event>
 5   0  0.1096672E-05  0.2690566E+04  0.7818609E-02  0.8338072E-01
        1   -1    0    0  501    0  0.00000000000E+00  0.00000000000E+00  0.10392419442E+04  0.10392419442E+04  0.50400001928E-02 0. -1.
       -1   -1    0    0    0  501  0.00000000000E+00  0.00000000000E+00 -0.17414486986E+04  0.17414486986E+04  0.50400001928E-02 0.  1.
    10030    2    1    2    0    0  0.00000000000E+00  0.00000000000E+00 -0.70220675447E+03  0.27806906428E+04  0.26905661347E+04 0.  0.
        1    1    3    3  502    0  0.40966026182E+03  0.16785532053E+03 -0.16640058281E+04  0.17218920799E+04  0.50400001928E-02 0.  1.
       -1    1    3    3    0  502 -0.40966026182E+03 -0.16785532053E+03  0.96179907365E+03  0.10587985629E+04  0.50400001928E-02 0. -1.
</event>
<event>
 5   0  0.1036691E-05  0.2707116E+04  0.7818609E-02  0.8332700E-01
       -1   -1    0    0    0  501  0.00000000000E+00  0.00000000000E+00  0.11395186030E+04  0.11395186030E+04  0.50400001928E-02 0. -1.
        1   -1    0    0  501    0  0.00000000000E+00  0.00000000000E+00 -0.16078015524E+04  0.16078015524E+04  0.50400001928E-02 0.  1.
    10030    2    1    2    0    0  0.00000000000E+00  0.00000000000E+00 -0.46828294945E+03  0.27473201554E+04  0.27071163838E+04 0.  0.
        4    1    3    3  502    0  0.24990859170E+03 -0.12205928009E+03  0.11102070519E+04  0.11445147806E+04  0.12699999809E+01 0. -1.
       -4    1    3    3    0  502 -0.24990859170E+03  0.12205928009E+03 -0.15784900014E+04  0.16028053748E+04  0.12699999809E+01 0.  1.
</event>
<event>
 5   0  0.2516518E-05  0.2666250E+04  0.7818609E-02  0.8346039E-01
       -2   -1    0    0    0  501  0.00000000000E+00  0.00000000000E+00  0.78340186192E+03  0.78340186192E+03  0.25500000920E-02 0.  1.
        2   -1    0    0  501    0  0.00000000000E+00  0.00000000000E+00 -0.22685956326E+04  0.22685956326E+04  0.25500000920E-02 0. -1.
    10030    2    1    2    0    0  0.00000000000E+00  0.00000000000E+00 -0.14851937707E+04  0.30519974946E+04  0.26662498327E+04 0.  0.
        4    1    3    3  502    0 -0.81487050463E+03  0.10451058488E+04 -0.90831943836E+03  0.16066443257E+04  0.12699999809E+01 0. -1.
       -4    1    3    3    0  502  0.81487050463E+03 -0.10451058488E+04 -0.57687433236E+03  0.14453531688E+04  0.12699999809E+01 0.  1.
</event>
<event>
 5   0  0.2516518E-05  0.2668513E+04  0.7818609E-02  0.8345294E-01
       -2   -1    0    0    0  501  0.00000000000E+00  0.00000000000E+00  0.99160814856E+03  0.99160814857E+03  0.25500000920E-02 0. -1.
        2   -1    0    0  501    0  0.00000000000E+00  0.00000000000E+00 -0.17953060488E+04  0.17953060488E+04  0.25500000920E-02 0.  1.
    10030    2    1    2    0    0  0.00000000000E+00  0.00000000000E+00 -0.80369790022E+03  0.27869141974E+04  0.26685127747E+04 0.  0.
        4    1    3    3  502    0  0.39560198266E+03 -0.85319238293E+02  0.92596293060E+03  0.10105390952E+04  0.12699999809E+01 0. -1.
       -4    1    3    3    0  502 -0.39560198266E+03  0.85319238293E+02 -0.17296608308E+04  0.17763751022E+04  0.12699999809E+01 0.  1.
</event>
<event>
 5   0  0.9971923E-06  0.2250531E+04  0.7818609E-02  0.8497685E-01
        1   -1    0    0  501    0  0.00000000000E+00  0.00000000000E+00  0.16063265266E+04  0.16063265266E+04  0.50400001928E-02 0. -1.
       -1   -1    0    0    0  501  0.00000000000E+00  0.00000000000E+00 -0.78827215380E+03  0.78827215382E+03  0.50400001928E-02 0.  1.
    10030    2    1    2    0    0  0.00000000000E+00  0.00000000000E+00  0.81805437282E+03  0.23945986804E+04  0.22505310226E+04 0.  0.
        2    1    3    3  502    0  0.57711300551E+03 -0.86475564450E+03 -0.49068913936E+02  0.10408023367E+04  0.25500000920E-02 0. -1.
       -2    1    3    3    0  502 -0.57711300551E+03  0.86475564450E+03  0.86712328675E+03  0.13537963437E+04  0.25500000920E-02 0.  1.
</event>
<event>
 5   0  0.9971923E-06  0.2720370E+04  0.7818609E-02  0.8328426E-01
        1   -1    0    0  501    0  0.00000000000E+00  0.00000000000E+00  0.17122367181E+04  0.17122367181E+04  0.50400001928E-02 0. -1.
       -1   -1    0    0    0  501  0.00000000000E+00  0.00000000000E+00 -0.10805186547E+04  0.10805186547E+04  0.50400001928E-02 0.  1.
    10030    2    1    2    0    0  0.00000000000E+00  0.00000000000E+00  0.63171806336E+03  0.27927553728E+04  0.27203703536E+04 0.  0.
        2    1    3    3  502    0 -0.56334607146E+03 -0.71681110494E+03 -0.72041913129E+03  0.11619727540E+04  0.25500000920E-02 0.  1.
       -2    1    3    3    0  502  0.56334607146E+03  0.71681110494E+03  0.13521371947E+04  0.16307826187E+04  0.25500000920E-02 0. -1.
</event>
<event>
 5   0  0.2540684E-05  0.2730440E+04  0.7818609E-02  0.8325195E-01
        2   -1    0    0  501    0  0.00000000000E+00  0.00000000000E+00  0.21225146264E+04  0.21225146264E+04  0.25500000920E-02 0. -1.
       -2   -1    0    0    0  501  0.00000000000E+00  0.00000000000E+00 -0.87812157250E+03  0.87812157250E+03  0.25500000920E-02 0.  1.
    10030    2    1    2    0    0  0.00000000000E+00  0.00000000000E+00  0.12443930539E+04  0.30006361989E+04  0.27304401706E+04 0.  0.
        2    1    3    3  502    0  0.10273616515E+04 -0.49293137150E+03  0.14485161206E+04  0.18430008822E+04  0.25500000920E-02 0. -1.
       -2    1    3    3    0  502 -0.10273616515E+04  0.49293137150E+03 -0.20412306678E+03  0.11576353167E+04  0.25500000920E-02 0.  1.
</event>
<event>
 5   0  0.2615843E-05  0.2656636E+04  0.7818609E-02  0.8349214E-01
       -2   -1    0    0    0  501  0.00000000000E+00  0.00000000000E+00  0.11325105715E+04  0.11325105715E+04  0.25500000920E-02 0. -1.
        2   -1    0    0  501    0  0.00000000000E+00  0.00000000000E+00 -0.15579794277E+04  0.15579794277E+04  0.25500000920E-02 0.  1.
    10030    2    1    2    0    0  0.00000000000E+00  0.00000000000E+00 -0.42546885621E+03  0.26904899992E+04  0.26566355957E+04 0.  0.
        3    1    3    3  502    0  0.69495444046E+03 -0.44274805073E+03  0.84238698265E+03  0.11783901516E+04  0.10100000352E+00 0. -1.
       -3    1    3    3    0  502 -0.69495444046E+03  0.44274805073E+03 -0.12678558389E+04  0.15120998476E+04  0.10100000352E+00 0.  1.
</event>
<event>
 5   0  0.2540684E-05  0.2706046E+04  0.7818609E-02  0.8333046E-01
       -2   -1    0    0    0  501  0.00000000000E+00  0.00000000000E+00  0.94390414313E+03  0.94390414313E+03  0.25500000920E-02 0.  1.
        2   -1    0    0  501    0  0.00000000000E+00  0.00000000000E+00 -0.19394675664E+04  0.19394675664E+04  0.25500000920E-02 0. -1.
    10030    2    1    2    0    0  0.00000000000E+00  0.00000000000E+00 -0.99556342327E+03  0.28833717095E+04  0.27060461721E+04 0.  0.
        2    1    3    3  502    0  0.12081895445E+04 -0.45480277517E+03 -0.92942493155E+03  0.15907225538E+04  0.25500000920E-02 0. -1.
       -2    1    3    3    0  502 -0.12081895445E+04  0.45480277517E+03 -0.66138491723E+02  0.12926491557E+04  0.25500000920E-02 0.  1.
</event>
<event>
 5   0  0.2540232E-05  0.2747733E+04  0.7818609E-02  0.8319681E-01
       -2   -1    0    0    0  501  0.00000000000E+00  0.00000000000E+00  0.69615960863E+03  0.69615960864E+03  0.25500000920E-02 0. -1.
        2   -1    0    0  501    0  0.00000000000E+00  0.00000000000E+00 -0.27113171900E+04  0.27113171900E+04  0.25500000920E-02 0.  1.
    10030    2    1    2    0    0  0.00000000000E+00  0.00000000000E+00 -0.20151575814E+04  0.34074767986E+04  0.27477332577E+04 0.  0.
        1    1    3    3  502    0  0.49941031943E+03  0.11521354397E+04 -0.31635778884E+03  0.12949552074E+04  0.50400001928E-02 0. -1.
       -1    1    3    3    0  502 -0.49941031943E+03 -0.11521354397E+04 -0.16987997925E+04  0.21125215913E+04  0.50400001928E-02 0.  1.
</event>
<event>
 5   0  0.1041909E-05  0.2671876E+04  0.7818609E-02  0.8344188E-01
        1   -1    0    0  501    0  0.00000000000E+00  0.00000000000E+00  0.19409882490E+04  0.19409882490E+04  0.50400001928E-02 0.  1.
       -1   -1    0    0    0  501  0.00000000000E+00  0.00000000000E+00 -0.91949549613E+03  0.91949549614E+03  0.50400001928E-02 0. -1.
    10030    2    1    2    0    0  0.00000000000E+00  0.00000000000E+00  0.10214927529E+04  0.28604837452E+04  0.26718757105E+04 0.  0.
        5    1    3    3  502    0 -0.10030361205E+04  0.75289971755E+03  0.18078971793E+02  0.12543079298E+04  0.46999998093E+01 0.  1.
       -5    1    3    3    0  502  0.10030361205E+04 -0.75289971755E+03  0.10034137811E+04  0.16061758153E+04  0.46999998093E+01 0. -1.
</event>
<event>
 5   0  0.2641216E-05  0.2444012E+04  0.7818609E-02  0.8423208E-01
        2   -1    0    0  501    0  0.00000000000E+00  0.00000000000E+00  0.13362631683E+04  0.13362631683E+04  0.25500000920E-02 0. -1.
       -2   -1    0    0    0  501  0.00000000000E+00  0.00000000000E+00 -0.11175184425E+04  0.11175184425E+04  0.25500000920E-02 0.  1.
    10030    2    1    2    0    0  0.00000000000E+00  0.00000000000E+00  0.21874472584E+03  0.24537816108E+04  0.24440120577E+04 0.  0.
        5    1    3    3  502    0 -0.11413673405E+04 -0.22847119914E+03  0.48282448883E+03  0.12601825550E+04  0.46999998093E+01 0. -1.
       -5    1    3    3    0  502  0.11413673405E+04  0.22847119914E+03 -0.26407976299E+03  0.11935990558E+04  0.46999998093E+01 0.  1.
</event>
<event>
 5   0  0.2516518E-05  0.2712568E+04  0.7818609E-02  0.8330939E-01
        2   -1    0    0  501    0  0.00000000000E+00  0.00000000000E+00  0.20807406172E+04  0.20807406172E+04  0.25500000920E-02 0.  1.
       -2   -1    0    0    0  501  0.00000000000E+00  0.00000000000E+00 -0.88406329327E+03  0.88406329327E+03  0.25500000920E-02 0. -1.
    10030    2    1    2    0    0  0.00000000000E+00  0.00000000000E+00  0.11966773239E+04  0.29648039105E+04  0.27125680839E+04 0.  0.
        4    1    3    3  502    0 -0.67063264899E+03 -0.80969287703E+03 -0.33816382917E+03  0.11044035011E+04  0.12699999809E+01 0. -1.
       -4    1    3    3    0  502  0.67063264899E+03  0.80969287703E+03  0.15348411531E+04  0.18604004094E+04  0.12699999809E+01 0.  1.
</event>
<event>
 5   0  0.2540684E-05  0.2774490E+04  0.7818609E-02  0.8311232E-01
       -2   -1    0    0    0  501  0.00000000000E+00  0.00000000000E+00  0.88638828733E+03  0.88638828733E+03  0.25500000920E-02 0. -1.
        2   -1    0    0  501    0  0.00000000000E+00  0.00000000000E+00 -0.21711130917E+04  0.21711130917E+04  0.25500000920E-02 0.  1.
    10030    2    1    2    0    0  0.00000000000E+00  0.00000000000E+00 -0.12847248044E+04  0.30575013790E+04  0.27744903784E+04 0.  0.
        2    1    3    3  502    0  0.12985099400E+04 -0.44891589529E+03 -0.85375111510E+03  0.16175736496E+04  0.25500000920E-02 0.  1.
       -2    1    3    3    0  502 -0.12985099400E+04  0.44891589529E+03 -0.43097368929E+03  0.14399277295E+04  0.25500000920E-02 0. -1.
</event>
<event>
 5   0  0.1005265E-05  0.2317473E+04  0.7818609E-02  0.8471064E-01
        1   -1    0    0  501    0  0.00000000000E+00  0.00000000000E+00  0.90059682616E+03  0.90059682617E+03  0.50400001928E-02 0.  1.
       -1   -1    0    0    0  501  0.00000000000E+00  0.00000000000E+00 -0.14908667802E+04  0.14908667802E+04  0.50400001928E-02 0. -1.
    10030    2    1    2    0    0  0.00000000000E+00  0.00000000000E+00 -0.59026995405E+03  0.23914636064E+04  0.23174726669E+04 0.  0.
        3    1    3    3  502    0 -0.33087812264E+03  0.10153153656E+03  0.84601108419E+03  0.91406988230E+03  0.10100000352E+00 0.  1.
       -3    1    3    3    0  502  0.33087812264E+03 -0.10153153656E+03 -0.14362810382E+04  0.14773937241E+04  0.10100000352E+00 0. -1.
</event>
<event>
 5   0  0.1041909E-05  0.2533614E+04  0.7818609E-02  0.8391107E-01
        1   -1    0    0  501    0  0.00000000000E+00  0.00000000000E+00  0.21743592004E+04  0.21743592004E+04  0.50400001928E-02 0. -1.
       -1   -1    0    0    0  501  0.00000000000E+00  0.00000000000E+00 -0.73805635936E+03  0.73805635937E+03  0.50400001928E-02 0.  1.
    10030    2    1    2    0    0  0.00000000000E+00  0.00000000000E+00  0.14363028411E+04  0.29124155598E+04  0.25336137317E+04 0.  0.
        5    1    3    3  502    0 -0.12248910334E+04 -0.26330099770E+03  0.50281497834E+03  0.13500112783E+04  0.46999998093E+01 0. -1.
       -5    1    3    3    0  502  0.12248910334E+04  0.26330099770E+03  0.93348786271E+03  0.15624042815E+04  0.46999998093E+01 0.  1.
</event>
<event>
 5   0  0.2540232E-05  0.1761580E+04  0.7818609E-02  0.8727002E-01
       -2   -1    0    0    0  501  0.00000000000E+00  0.00000000000E+00  0.14750505795E+04  0.14750505795E+04  0.25500000920E-02 0.  1.
        2   -1    0    0  501    0  0.00000000000E+00  0.00000000000E+00 -0.52594189781E+03  0.52594189782E+03  0.25500000920E-02 0. -1.
    10030    2    1    2    0    0  0.00000000000E+00  0.00000000000E+00  0.94910868167E+03  0.20009924773E+04  0.17615798604E+04 0.  0.
        1    1    3    3  502    0 -0.77717296848E+03 -0.40538627890E+03  0.57263157234E+03  0.10470161296E+04  0.50400001928E-02 0.  1.
       -1    1    3    3    0  502  0.77717296848E+03  0.40538627890E+03  0.37647710934E+03  0.95397634768E+03  0.50400001928E-02 0. -1.
</event>
<event>
 5   0  0.2641216E-05  0.2664320E+04  0.7818609E-02  0.8346676E-01
        2   -1    0    0  501    0  0.00000000000E+00  0.00000000000E+00  0.19598061159E+04  0.19598061159E+04  0.25500000920E-02 0. -1.
       -2   -1    0    0    0  501  0.00000000000E+00  0.00000000000E+00 -0.90552337786E+03  0.90552337786E+03  0.25500000920E-02 0.  1.
    10030    2    1    2    0    0  0.00000000000E+00  0.00000000000E+00  0.10542827380E+04  0.28653294937E+04  0.26643199913E+04 0.  0.
        5    1    3    3  502    0  0.12425298865E+04  0.39116994969E+02  0.12254189692E+02  0.12432147495E+04  0.46999998093E+01 0.  1.
       -5    1    3    3    0  502 -0.12425298865E+04 -0.39116994969E+02  0.10420285483E+04  0.16221147443E+04  0.46999998093E+01 0. -1.
</event>
<event>
 5   0  0.2641216E-05  0.2576788E+04  0.7818609E-02  0.8376129E-01
        2   -1    0    0  501    0  0.00000000000E+00  0.00000000000E+00  0.30000341515E+04  0.30000341515E+04  0.25500000920E-02 0. -1.
       -2   -1    0    0    0  501  0.00000000000E+00  0.00000000000E+00 -0.55331344674E+03  0.55331344674E+03  0.25500000920E-02 0.  1.
    10030    2    1    2    0    0  0.00000000000E+00  0.00000000000E+00  0.24467207048E+04  0.35533475983E+04  0.25767881067E+04 0.  0.
        5    1    3    3  502    0  0.50284566816E+02 -0.32258379170E+03 -0.49531326465E+03  0.59325050398E+03  0.46999998093E+01 0.  1.
       -5    1    3    3    0  502 -0.50284566816E+02  0.32258379170E+03  0.29420339694E+04  0.29600970943E+04  0.46999998093E+01 0. -1.
</event>
<event>
 5   0  0.1036691E-05  0.2660612E+04  0.7818609E-02  0.8347899E-01
        1   -1    0    0  501    0  0.00000000000E+00  0.00000000000E+00  0.15254910103E+04  0.15254910103E+04  0.50400001928E-02 0.  1.
       -1   -1    0    0    0  501  0.00000000000E+00  0.00000000000E+00 -0.11600943452E+04  0.11600943452E+04  0.50400001928E-02 0. -1.
    10030    2    1    2    0    0  0.00000000000E+00  0.00000000000E+00  0.36539666510E+03  0.26855853554E+04  0.26606115798E+04 0.  0.
        4    1    3    3  502    0 -0.20831138295E+03  0.12716727567E+04 -0.15080676264E+03  0.12974164809E+04  0.12699999809E+01 0.  1.
       -4    1    3    3    0  502  0.20831138295E+03 -0.12716727567E+04  0.51620342774E+03  0.13881688745E+04  0.12699999809E+01 0. -1.
</event>
<event>
 5   0  0.1036691E-05  0.2714359E+04  0.7818609E-02  0.8330361E-01
       -1   -1    0    0    0  501  0.00000000000E+00  0.00000000000E+00  0.87716128495E+03  0.87716128496E+03  0.50400001928E-02 0.  1.
        1   -1    0    0  501    0  0.00000000000E+00  0.00000000000E+00 -0.20998832274E+04  0.20998832274E+04  0.50400001928E-02 0. -1.
    10030    2    1    2    0    0  0.00000000000E+00  0.00000000000E+00 -0.12227219424E+04  0.29770445124E+04  0.27143590551E+04 0.  0.
        4    1    3    3  502    0  0.12808586266E+04 -0.21933202858E+03 -0.10406886982E+04  0.16648543298E+04  0.12699999809E+01 0. -1.
       -4    1    3    3    0  502 -0.12808586266E+04  0.21933202858E+03 -0.18203324427E+03  0.13121901825E+04  0.12699999809E+01 0.  1.
</event>
<event>
 5   0  0.9971923E-06  0.2677143E+04  0.7818609E-02  0.8342459E-01
       -1   -1    0    0    0  501  0.00000000000E+00  0.00000000000E+00  0.13832668009E+04  0.13832668010E+04  0.50400001928E-02 0. -1.
        1   -1    0    0  501    0  0.00000000000E+00  0.00000000000E+00 -0.12953206473E+04  0.12953206473E+04  0.50400001928E-02 0.  1.
    10030    2    1    2    0    0  0.00000000000E+00  0.00000000000E+00  0.87946153692E+02  0.26785874482E+04  0.26771432894E+04 0.  0.
        2    1    3    3  502    0  0.56829005001E+03 -0.66455645607E+03 -0.97007509395E+03  0.13059994457E+04  0.25500000920E-02 0.  1.
       -2    1    3    3    0  502 -0.56829005001E+03  0.66455645607E+03  0.10580212476E+04  0.13725880025E+04  0.25500000920E-02 0. -1.
</event>
<event>
 5   0  0.2540232E-05  0.2719804E+04  0.7818609E-02  0.8328608E-01
        2   -1    0    0  501    0  0.00000000000E+00  0.00000000000E+00  0.21635189302E+04  0.21635189302E+04  0.25500000920E-02 0. -1.
       -2   -1    0    0    0  501  0.00000000000E+00  0.00000000000E+00 -0.85478024724E+03  0.85478024725E+03  0.25500000920E-02 0.  1.
    10030    2    1    2    0    0  0.00000000000E+00  0.00000000000E+00  0.13087386830E+04  0.30182991775E+04  0.27198038504E+04 0.  0.
        1    1    3    3  502    0 -0.25133117318E+03 -0.89246388300E+03  0.17583737424E+04  0.19878474184E+04  0.50400001928E-02 0. -1.
       -1    1    3    3    0  502  0.25133117318E+03  0.89246388300E+03 -0.44963505939E+03  0.10304517590E+04  0.50400001928E-02 0.  1.
</event>
<event>
 5   0  0.2641216E-05  0.2697839E+04  0.7818609E-02  0.8335707E-01
       -2   -1    0    0    0  501  0.00000000000E+00  0.00000000000E+00  0.15527270749E+04  0.15527270749E+04  0.25500000920E-02 0. -1.
        2   -1    0    0  501    0  0.00000000000E+00  0.00000000000E+00 -0.11718631607E+04  0.11718631607E+04  0.25500000920E-02 0.  1.
    10030    2    1    2    0    0  0.00000000000E+00  0.00000000000E+00  0.38086391422E+03  0.27245902356E+04  0.26978388816E+04 0.  0.
        5    1    3    3  502    0 -0.10011413543E+04 -0.29498654315E+03 -0.67259446124E+03  0.12416547311E+04  0.46999998093E+01 0.  1.
       -5    1    3    3    0  502  0.10011413543E+04  0.29498654315E+03  0.10534583755E+04  0.14829355046E+04  0.46999998093E+01 0. -1.
</event>
<event>
 5   0  0.2615843E-05  0.1845876E+04  0.7818609E-02  0.8682277E-01
        2   -1    0    0  501    0  0.00000000000E+00  0.00000000000E+00  0.87196121357E+03  0.87196121358E+03  0.25500000920E-02 0.  1.
       -2   -1    0    0    0  501  0.00000000000E+00  0.00000000000E+00 -0.97689475289E+03  0.97689475289E+03  0.25500000920E-02 0. -1.
    10030    2    1    2    0    0  0.00000000000E+00  0.00000000000E+00 -0.10493353931E+03  0.18488559665E+04  0.18458757643E+04 0.  0.
        3    1    3    3  502    0 -0.95397552078E+02 -0.32393593164E+03  0.80786071679E+03  0.87559929687E+03  0.10100000352E+00 0.  1.
       -3    1    3    3    0  502  0.95397552078E+02  0.32393593164E+03 -0.91279425610E+03  0.97325666960E+03  0.10100000352E+00 0. -1.
</event>
<event>
 5   0  0.1036691E-05  0.2729814E+04  0.7818609E-02  0.8325396E-01
       -1   -1    0    0    0  501  0.00000000000E+00  0.00000000000E+00  0.31257418485E+04  0.31257418485E+04  0.50400001928E-02 0. -1.
        1   -1    0    0  501    0  0.00000000000E+00  0.00000000000E+00 -0.59600911204E+03  0.59600911206E+03  0.50400001928E-02 0.  1.
    10030    2    1    2    0    0  0.00000000000E+00  0.00000000000E+00  0.25297327365E+04  0.37217509606E+04  0.27298136373E+04 0.  0.
        4    1    3    3  502    0  0.37066820201E+03  0.10482545301E+04  0.23442027496E+04  0.25945174156E+04  0.12699999809E+01 0. -1.
       -4    1    3    3    0  502 -0.37066820201E+03 -0.10482545301E+04  0.18552998688E+03  0.11272335449E+04  0.12699999809E+01 0.  1.
</event>
<event>
 5   0  0.2540232E-05  0.2608966E+04  0.7818609E-02  0.8365162E-01
       -2   -1    0    0    0  501  0.00000000000E+00  0.00000000000E+00  0.88555716695E+03  0.88555716696E+03  0.25500000920E-02 0. -1.
        2   -1    0    0  501    0  0.00000000000E+00  0.00000000000E+00 -0.19215881887E+04  0.19215881887E+04  0.25500000920E-02 0.  1.
    10030    2    1    2    0    0  0.00000000000E+00  0.00000000000E+00 -0.10360310217E+04  0.28071453557E+04  0.26089662263E+04 0.  0.
        1    1    3    3  502    0 -0.10679737900E+04  0.43470293257E+03 -0.11743882230E+04  0.16458196603E+04  0.50400001928E-02 0. -1.
       -1    1    3    3    0  502  0.10679737900E+04 -0.43470293257E+03  0.13835720129E+03  0.11613256954E+04  0.50400001928E-02 0.  1.
</event>
<event>
 5   0  0.1036691E-05  0.2676171E+04  0.7818609E-02  0.8342778E-01
       -1   -1    0    0    0  501  0.00000000000E+00  0.00000000000E+00  0.11593265031E+04  0.11593265031E+04  0.50400001928E-02 0.  1.
        1   -1    0    0  501    0  0.00000000000E+00  0.00000000000E+00 -0.15444071959E+04  0.15444071959E+04  0.50400001928E-02 0. -1.
    10030    2    1    2    0    0  0.00000000000E+00  0.00000000000E+00 -0.38508069272E+03  0.27037336990E+04  0.26761705430E+04 0.  0.
        4    1    3    3  502    0 -0.84955341015E+03  0.96541586148E+03 -0.56608045640E+03  0.14050684959E+04  0.12699999809E+01 0. -1.
       -4    1    3    3    0  502  0.84955341015E+03 -0.96541586148E+03  0.18099976368E+03  0.12986652031E+04  0.12699999809E+01 0.  1.
</event>
<event>
 5   0  0.2615843E-05  0.2665499E+04  0.7818609E-02  0.8346287E-01
        2   -1    0    0  501    0  0.00000000000E+00  0.00000000000E+00  0.21037112384E+04  0.21037112384E+04  0.25500000920E-02 0. -1.
       -2   -1    0    0    0  501  0.00000000000E+00  0.00000000000E+00 -0.84432770627E+03  0.84432770628E+03  0.25500000920E-02 0.  1.
    10030    2    1    2    0    0  0.00000000000E+00  0.00000000000E+00  0.12593835322E+04  0.29480389447E+04  0.26654993413E+04 0.  0.
        3    1    3    3  502    0  0.24308422336E+03  0.43556849850E+03 -0.73719553931E+03  0.89009388826E+03  0.10100000352E+00 0.  1.
       -3    1    3    3    0  502 -0.24308422336E+03 -0.43556849850E+03  0.19965790715E+04  0.20579450564E+04  0.10100000352E+00 0. -1.
</event>
<event>
 5   0  0.2516518E-05  0.2628504E+04  0.7818609E-02  0.8358583E-01
       -2   -1    0    0    0  501  0.00000000000E+00  0.00000000000E+00  0.13043287021E+04  0.13043287021E+04  0.25500000920E-02 0. -1.
        2   -1    0    0  501    0  0.00000000000E+00  0.00000000000E+00 -0.13242507163E+04  0.13242507163E+04  0.25500000920E-02 0.  1.
    10030    2    1    2    0    0  0.00000000000E+00  0.00000000000E+00 -0.19922014213E+02  0.26285794185E+04  0.26285039229E+04 0.  0.
        4    1    3    3  502    0 -0.21970945358E+03  0.67066647457E+03  0.10987596302E+04  0.13058867110E+04  0.12699999809E+01 0. -1.
       -4    1    3    3    0  502  0.21970945358E+03 -0.67066647457E+03 -0.11186816444E+04  0.13226927075E+04  0.12699999809E+01 0.  1.
</event>
<event>
 5   0  0.1096672E-05  0.2591490E+04  0.7818609E-02  0.8371098E-01
        1   -1    0    0  501    0  0.00000000000E+00  0.00000000000E+00  0.98813175452E+03  0.98813175454E+03  0.50400001928E-02 0.  1.
       -1   -1    0    0    0  501  0.00000000000E+00  0.00000000000E+00 -0.16991208229E+04  0.16991208229E+04  0.50400001928E-02 0. -1.
    10030    2    1    2    0    0  0.00000000000E+00  0.00000000000E+00 -0.71098906835E+03  0.26872525774E+04  0.25914901041E+04 0.  0.
        1    1    3    3  502    0 -0.81122786491E+03 -0.97153910675E+03 -0.67796029375E+02  0.12675074700E+04  0.50400001928E-02 0.  1.
       -1    1    3    3    0  502  0.81122786491E+03  0.97153910675E+03 -0.64319303897E+03  0.14197451075E+04  0.50400001928E-02 0. -1.
</event>
<event>
 5   0  0.2540232E-05  0.2728300E+04  0.7818609E-02  0.8325881E-01
       -2   -1    0    0    0  501  0.00000000000E+00  0.00000000000E+00  0.15035667890E+04  0.15035667890E+04  0.25500000920E-02 0. -1.
        2   -1    0    0  501    0  0.00000000000E+00  0.00000000000E+00 -0.12376604435E+04  0.12376604435E+04  0.25500000920E-02 0.  1.
    10030    2    1    2    0    0  0.00000000000E+00  0.00000000000E+00  0.26590634546E+03  0.27412272325E+04  0.27282999387E+04 0.  0.
        1    1    3    3  502    0  0.57564881230E+03 -0.10380577698E+04  0.80842549887E+03  0.14361362317E+04  0.50400001928E-02 0. -1.
       -1    1    3    3    0  502 -0.57564881230E+03  0.10380577698E+04 -0.54251915341E+03  0.13050910008E+04  0.50400001928E-02 0.  1.
</event>
<event>
 5   0  0.1041909E-05  0.2452562E+04  0.7818609E-02  0.8420083E-01
        1   -1    0    0  501    0  0.00000000000E+00  0.00000000000E+00  0.19929453476E+04  0.19929453476E+04  0.50400001928E-02 0. -1.
       -1   -1    0    0    0  501  0.00000000000E+00  0.00000000000E+00 -0.75454405183E+03  0.75454405185E+03  0.50400001928E-02 0.  1.
    10030    2    1    2    0    0  0.00000000000E+00  0.00000000000E+00  0.12384012958E+04  0.27474893995E+04  0.24525619729E+04 0.  0.
        5    1    3    3  502    0  0.97087301554E+03  0.57009233958E+03  0.11635827404E+04  0.16191190728E+04  0.46999998093E+01 0. -1.
       -5    1    3    3    0  502 -0.97087301554E+03 -0.57009233958E+03  0.74818555343E+02  0.11283703267E+04  0.46999998093E+01 0.  1.
</event>
<event>
 5   0  0.1041909E-05  0.2666465E+04  0.7818609E-02  0.8345969E-01
        1   -1    0    0  501    0  0.00000000000E+00  0.00000000000E+00  0.11318740914E+04  0.11318740915E+04  0.50400001928E-02 0.  1.
       -1   -1    0    0    0  501  0.00000000000E+00  0.00000000000E+00 -0.15704118900E+04  0.15704118900E+04  0.50400001928E-02 0. -1.
    10030    2    1    2    0    0  0.00000000000E+00  0.00000000000E+00 -0.43853779854E+03  0.27022859815E+04  0.26664647241E+04 0.  0.
        5    1    3    3  502    0 -0.12263768069E+04  0.19919301838E+03 -0.70930223269E+03  0.14306675639E+04  0.46999998093E+01 0. -1.
       -5    1    3    3    0  502  0.12263768069E+04 -0.19919301838E+03  0.27076443414E+03  0.12716184176E+04  0.46999998093E+01 0.  1.
</event>
<event>
 5   0  0.1036691E-05  0.2707113E+04  0.7818609E-02  0.8332701E-01
       -1   -1    0    0    0  501  0.00000000000E+00  0.00000000000E+00  0.13946236940E+04  0.13946236940E+04  0.50400001928E-02 0. -1.
        1   -1    0    0  501    0  0.00000000000E+00  0.00000000000E+00 -0.13136985400E+04  0.13136985400E+04  0.50400001928E-02 0.  1.
    10030    2    1    2    0    0  0.00000000000E+00  0.00000000000E+00  0.80925153962E+02  0.27083222340E+04  0.27071129349E+04 0.  0.
        4    1    3    3  502    0 -0.76333852682E+03 -0.71821276045E+03 -0.81642351938E+03  0.13285572068E+04  0.12699999809E+01 0.  1.
       -4    1    3    3    0  502  0.76333852682E+03  0.71821276045E+03  0.89734867334E+03  0.13797650272E+04  0.12699999809E+01 0. -1.
</event>
<event>
 5   0  0.1005265E-05  0.2653755E+04  0.7818609E-02  0.8350168E-01
       -1   -1    0    0    0  501  0.00000000000E+00  0.00000000000E+00  0.91233375190E+03  0.91233375192E+03  0.50400001928E-02 0.  1.
        1   -1    0    0  501    0  0.00000000000E+00  0.00000000000E+00 -0.19297810644E+04  0.19297810644E+04  0.50400001928E-02 0. -1.
    10030    2    1    2    0    0  0.00000000000E+00  0.00000000000E+00 -0.10174473125E+04  0.28421148163E+04  0.26537553760E+04 0.  0.
        3    1    3    3  502    0  0.41568132527E+03  0.13620277874E+03  0.83289315734E+03  0.94077265205E+03  0.10100000352E+00 0.  1.
       -3    1    3    3    0  502 -0.41568132527E+03 -0.13620277874E+03 -0.18503404698E+04  0.19013421643E+04  0.10100000352E+00 0. -1.
</event>
<event>
 5   0  0.1005265E-05  0.2571538E+04  0.7818609E-02  0.8377934E-01
        1   -1    0    0  501    0  0.00000000000E+00  0.00000000000E+00  0.22690640825E+04  0.22690640825E+04  0.50400001928E-02 0.  1.
       -1   -1    0    0    0  501  0.00000000000E+00  0.00000000000E+00 -0.72858332136E+03  0.72858332138E+03  0.50400001928E-02 0. -1.
    10030    2    1    2    0    0  0.00000000000E+00  0.00000000000E+00  0.15404807612E+04  0.29976474039E+04  0.25715382522E+04 0.  0.
        3    1    3    3  502    0  0.25843015593E+03 -0.12475067128E+04  0.56785392056E+03  0.13948179915E+04  0.10100000352E+00 0.  1.
       -3    1    3    3    0  502 -0.25843015593E+03  0.12475067128E+04  0.97262684062E+03  0.16028294124E+04  0.10100000352E+00 0. -1.
</event>
<event>
 5   0  0.1036691E-05  0.2542543E+04  0.7818609E-02  0.8387984E-01
       -1   -1    0    0    0  501  0.00000000000E+00  0.00000000000E+00  0.16024253175E+04  0.16024253175E+04  0.50400001928E-02 0. -1.
        1   -1    0    0  501    0  0.00000000000E+00  0.00000000000E+00 -0.10085534533E+04  0.10085534533E+04  0.50400001928E-02 0.  1.
    10030    2    1    2    0    0  0.00000000000E+00  0.00000000000E+00  0.59387186421E+03  0.26109787709E+04  0.25425432840E+04 0.  0.
        4    1    3    3  502    0  0.28915646616E+03  0.46508836201E+03 -0.88120649999E+03  0.10375187492E+04  0.12699999809E+01 0.  1.
       -4    1    3    3    0  502 -0.28915646616E+03 -0.46508836201E+03  0.14750783642E+04  0.15734600217E+04  0.12699999809E+01 0. -1.
</event>
<event>
 5   0  0.1005265E-05  0.2686451E+04  0.7818609E-02  0.8339415E-01
       -1   -1    0    0    0  501  0.00000000000E+00  0.00000000000E+00  0.11962666916E+04  0.11962666916E+04  0.50400001928E-02 0.  1.
        1   -1    0    0  501    0  0.00000000000E+00  0.00000000000E+00 -0.15082373323E+04  0.15082373323E+04  0.50400001928E-02 0. -1.
    10030    2    1    2    0    0  0.00000000000E+00  0.00000000000E+00 -0.31197064076E+03  0.27045040239E+04  0.26864505085E+04 0.  0.
        3    1    3    3  502    0 -0.74584031763E+03  0.72946150696E+03  0.69578696365E+03  0.12539981573E+04  0.10100000352E+00 0.  1.
       -3    1    3    3    0  502  0.74584031763E+03 -0.72946150696E+03 -0.10077576044E+04  0.14505058666E+04  0.10100000352E+00 0. -1.
</event>
<event>
 5   0  0.1096672E-05  0.2717452E+04  0.7818609E-02  0.8329365E-01
        1   -1    0    0  501    0  0.00000000000E+00  0.00000000000E+00  0.19514977962E+04  0.19514977962E+04  0.50400001928E-02 0.  1.
       -1   -1    0    0    0  501  0.00000000000E+00  0.00000000000E+00 -0.94601003868E+03  0.94601003869E+03  0.50400001928E-02 0. -1.
    10030    2    1    2    0    0  0.00000000000E+00  0.00000000000E+00  0.10054877575E+04  0.28975078349E+04  0.27174521197E+04 0.  0.
        1    1    3    3  502    0  0.74025697922E+03  0.20311985721E+03 -0.69265490820E+03  0.10339288629E+04  0.50400001928E-02 0. -1.
       -1    1    3    3    0  502 -0.74025697922E+03 -0.20311985721E+03  0.16981426657E+04  0.18635789720E+04  0.50400001928E-02 0.  1.
</event>
<event>
 5   0  0.1041909E-05  0.2384543E+04  0.7818609E-02  0.8445313E-01
        1   -1    0    0  501    0  0.00000000000E+00  0.00000000000E+00  0.71468471902E+03  0.71468471903E+03  0.50400001928E-02 0. -1.
       -1   -1    0    0    0  501  0.00000000000E+00  0.00000000000E+00 -0.19890050342E+04  0.19890050342E+04  0.50400001928E-02 0.  1.
    10030    2    1    2    0    0  0.00000000000E+00  0.00000000000E+00 -0.12743203151E+04  0.27036897532E+04  0.23845431462E+04 0.  0.
        5    1    3    3  502    0 -0.41681124496E+03  0.94816098630E+03 -0.13067484811E+04  0.16674395200E+04  0.46999998093E+01 0.  1.
       -5    1    3    3    0  502  0.41681124496E+03 -0.94816098630E+03  0.32428166008E+02  0.10362502332E+04  0.46999998093E+01 0. -1.
</event>
<event>
 5   0  0.2615843E-05  0.2742034E+04  0.7818609E-02  0.8321494E-01
       -2   -1    0    0    0  501  0.00000000000E+00  0.00000000000E+00  0.14047356495E+04  0.14047356496E+04  0.25500000920E-02 0. -1.
        2   -1    0    0  501    0  0.00000000000E+00  0.00000000000E+00 -0.13381076330E+04  0.13381076330E+04  0.25500000920E-02 0.  1.
    10030    2    1    2    0    0  0.00000000000E+00  0.00000000000E+00  0.66628016548E+02  0.27428432826E+04  0.27420339130E+04 0.  0.
        3    1    3    3  502    0 -0.99043276713E+03 -0.80387597280E+02 -0.91156433014E+03  0.13484690468E+04  0.10100000352E+00 0.  1.
       -3    1    3    3    0  502  0.99043276713E+03  0.80387597280E+02  0.97819234669E+03  0.13943742357E+04  0.10100000352E+00 0. -1.
</event>
<event>
 5   0  0.2540684E-05  0.2696389E+04  0.7818609E-02  0.8336178E-01
       -2   -1    0    0    0  501  0.00000000000E+00  0.00000000000E+00  0.60610296333E+03  0.60610296334E+03  0.25500000920E-02 0.  1.
        2   -1    0    0  501    0  0.00000000000E+00  0.00000000000E+00 -0.29988766836E+04  0.29988766836E+04  0.25500000920E-02 0. -1.
    10030    2    1    2    0    0  0.00000000000E+00  0.00000000000E+00 -0.23927737203E+04  0.36049796469E+04  0.26963887291E+04 0.  0.
        2    1    3    3  502    0 -0.10074415965E+04  0.54991353724E+03 -0.21420334717E+04  0.24301544936E+04  0.25500000920E-02 0. -1.
       -2    1    3    3    0  502  0.10074415965E+04 -0.54991353724E+03 -0.25074024859E+03  0.11748251534E+04  0.25500000920E-02 0.  1.
</event>
<event>
 5   0  0.1041909E-05  0.2710452E+04  0.7818609E-02  0.8331622E-01
       -1   -1    0    0    0  501  0.00000000000E+00  0.00000000000E+00  0.19462179654E+04  0.19462179654E+04  0.50400001928E-02 0. -1.
        1   -1    0    0  501    0  0.00000000000E+00  0.00000000000E+00 -0.94369549295E+03  0.94369549297E+03  0.50400001928E-02 0.  1.
    10030    2    1    2    0    0  0.00000000000E+00  0.00000000000E+00  0.10025224725E+04  0.28899134584E+04  0.27104517131E+04 0.  0.
        5    1    3    3  502    0 -0.72889228501E+03 -0.63295143524E+03  0.15153974939E+04  0.17967646304E+04  0.46999998093E+01 0. -1.
       -5    1    3    3    0  502  0.72889228501E+03  0.63295143524E+03 -0.51287502144E+03  0.10931488280E+04  0.46999998093E+01 0.  1.
</event>
<event>
 5   0  0.2615843E-05  0.2700065E+04  0.7818609E-02  0.8334984E-01
        2   -1    0    0  501    0  0.00000000000E+00  0.00000000000E+00  0.21193613136E+04  0.21193613136E+04  0.25500000920E-02 0.  1.
       -2   -1    0    0    0  501  0.00000000000E+00  0.00000000000E+00 -0.85997045491E+03  0.85997045491E+03  0.25500000920E-02 0. -1.
    10030    2    1    2    0    0  0.00000000000E+00  0.00000000000E+00  0.12593908587E+04  0.29793317685E+04  0.27000652681E+04 0.  0.
        3    1    3    3  502    0 -0.55713960097E+03 -0.51934498516E+03 -0.60025207052E+03  0.96975579758E+03  0.10100000352E+00 0. -1.
       -3    1    3    3    0  502  0.55713960097E+03  0.51934498516E+03  0.18596429292E+04  0.20095759709E+04  0.10100000352E+00 0.  1.
</event>
<event>
 5   0  0.2540232E-05  0.2814686E+04  0.7818609E-02  0.8298723E-01
        2   -1    0    0  501    0  0.00000000000E+00  0.00000000000E+00  0.16256074159E+04  0.16256074159E+04  0.25500000920E-02 0.  1.
       -2   -1    0    0    0  501  0.00000000000E+00  0.00000000000E+00 -0.12183840955E+04  0.12183840955E+04  0.25500000920E-02 0. -1.
    10030    2    1    2    0    0  0.00000000000E+00  0.00000000000E+00  0.40722332043E+03  0.28439915114E+04  0.28146859299E+04 0.  0.
        1    1    3    3  502    0  0.86696126362E+03 -0.42320657615E+03 -0.83169726975E+03  0.12737527182E+04  0.50400001928E-02 0. -1.
       -1    1    3    3    0  502 -0.86696126362E+03  0.42320657615E+03  0.12389205902E+04  0.15702387932E+04  0.50400001928E-02 0.  1.
</event>
<event>
 5   0  0.2516518E-05  0.2757122E+04  0.7818609E-02  0.8316705E-01
        2   -1    0    0  501    0  0.00000000000E+00  0.00000000000E+00  0.20897488499E+04  0.20897488499E+04  0.25500000920E-02 0. -1.
       -2   -1    0    0    0  501  0.00000000000E+00  0.00000000000E+00 -0.90940612437E+03  0.90940612438E+03  0.25500000920E-02 0.  1.
    10030    2    1    2    0    0  0.00000000000E+00  0.00000000000E+00  0.11803427255E+04  0.29991549742E+04  0.27571219795E+04 0.  0.
        4    1    3    3  502    0  0.11322358423E+04 -0.30206267179E+03 -0.19967485560E+03  0.11887268488E+04  0.12699999809E+01 0.  1.
       -4    1    3    3    0  502 -0.11322358423E+04  0.30206267179E+03  0.13800175811E+04  0.18104281254E+04  0.12699999809E+01 0. -1.
</event>
<event>
 5   0  0.2540684E-05  0.1690343E+04  0.7818609E-02  0.8766891E-01
        2   -1    0    0  501    0  0.00000000000E+00  0.00000000000E+00  0.10879714548E+04  0.10879714548E+04  0.25500000920E-02 0.  1.
       -2   -1    0    0    0  501  0.00000000000E+00  0.00000000000E+00 -0.65655652389E+03  0.65655652390E+03  0.25500000920E-02 0. -1.
    10030    2    1    2    0    0  0.00000000000E+00  0.00000000000E+00  0.43141493090E+03  0.17445279787E+04  0.16903428723E+04 0.  0.
        2    1    3    3  502    0  0.45452865520E+03 -0.70551291845E+03  0.31875800616E+03  0.89774798413E+03  0.25500000920E-02 0.  1.
       -2    1    3    3    0  502 -0.45452865520E+03  0.70551291845E+03  0.11265692474E+03  0.84677999457E+03  0.25500000920E-02 0. -1.
</event>
<event>
 5   0  0.1041909E-05  0.1676998E+04  0.7818609E-02  0.8774593E-01
       -1   -1    0    0    0  501  0.00000000000E+00  0.00000000000E+00  0.82152161270E+03  0.82152161271E+03  0.50400001928E-02 0.  1.
        1   -1    0    0  501    0  0.00000000000E+00  0.00000000000E+00 -0.85582711890E+03  0.85582711891E+03  0.50400001928E-02 0. -1.
    10030    2    1    2    0    0  0.00000000000E+00  0.00000000000E+00 -0.34305506203E+02  0.16773487316E+04  0.16769978830E+04 0.  0.
        5    1    3    3  502    0 -0.77600811688E+03 -0.28705318861E+03  0.11878099400E+03  0.83589421884E+03  0.46999998093E+01 0.  1.
       -5    1    3    3    0  502  0.77600811688E+03  0.28705318861E+03 -0.15308650020E+03  0.84145451279E+03  0.46999998093E+01 0. -1.
</event>
<event>
 5   0  0.2540684E-05  0.2558214E+04  0.7818609E-02  0.8382535E-01
       -2   -1    0    0    0  501  0.00000000000E+00  0.00000000000E+00  0.57464566524E+03  0.57464566524E+03  0.25500000920E-02 0. -1.
        2   -1    0    0  501    0  0.00000000000E+00  0.00000000000E+00 -0.28471720849E+04  0.28471720849E+04  0.25500000920E-02 0.  1.
    10030    2    1    2    0    0  0.00000000000E+00  0.00000000000E+00 -0.22725264197E+04  0.34218177502E+04  0.25582142966E+04 0.  0.
        2    1    3    3  502    0  0.50102112825E+03 -0.69699079459E+03 -0.24047077022E+04  0.25533189130E+04  0.25500000920E-02 0.  1.
       -2    1    3    3    0  502 -0.50102112825E+03  0.69699079459E+03  0.13218128248E+03  0.86849883715E+03  0.25500000920E-02 0. -1.
</event>
<event>
 5   0  0.1041909E-05  0.2749974E+04  0.7818609E-02  0.8318970E-01
        1   -1    0    0  501    0  0.00000000000E+00  0.00000000000E+00  0.12092879196E+04  0.12092879196E+04  0.50400001928E-02 0. -1.
       -1   -1    0    0    0  501  0.00000000000E+00  0.00000000000E+00 -0.15633905722E+04  0.15633905722E+04  0.50400001928E-02 0.  1.
    10030    2    1    2    0    0  0.00000000000E+00  0.00000000000E+00 -0.35410265263E+03  0.27726784918E+04  0.27499740600E+04 0.  0.
        5    1    3    3  502    0 -0.93667571417E+03  0.62073573863E+03 -0.97599053339E+03  0.14883728908E+04  0.46999998093E+01 0.  1.
       -5    1    3    3    0  502  0.93667571417E+03 -0.62073573863E+03  0.62188788075E+03  0.12843056011E+04  0.46999998093E+01 0. -1.
</event>
<event>
 5   0  0.9971923E-06  0.2753082E+04  0.7818609E-02  0.8317984E-01
        1   -1    0    0  501    0  0.00000000000E+00  0.00000000000E+00  0.16899766194E+04  0.16899766194E+04  0.50400001928E-02 0. -1.
       -1   -1    0    0    0  501  0.00000000000E+00  0.00000000000E+00 -0.11212370991E+04  0.11212370991E+04  0.50400001928E-02 0.  1.
    10030    2    1    2    0    0  0.00000000000E+00  0.00000000000E+00  0.56873952037E+03  0.28112137185E+04  0.27530815333E+04 0.  0.
        2    1    3    3  502    0 -0.60818648956E+03  0.10748029277E+04 -0.33655932391E+03  0.12799860617E+04  0.25500000920E-02 0.  1.
       -2    1    3    3    0  502  0.60818648956E+03 -0.10748029277E+04  0.90529884429E+03  0.15312276568E+04  0.25500000920E-02 0. -1.
</event>
<event>
 5   0  0.9971923E-06  0.1744787E+04  0.7818609E-02  0.8736225E-01
        1   -1    0    0  501    0  0.00000000000E+00  0.00000000000E+00  0.75409235975E+03  0.75409235977E+03  0.50400001928E-02 0. -1.
       -1   -1    0    0    0  501  0.00000000000E+00  0.00000000000E+00 -0.10092532129E+04  0.10092532130E+04  0.50400001928E-02 0.  1.
    10030    2    1    2    0    0  0.00000000000E+00  0.00000000000E+00 -0.25516085319E+03  0.17633455727E+04  0.17447866769E+04 0.  0.
        2    1    3    3  502    0  0.28992732112E+03  0.43414843698E+03 -0.83396233522E+03  0.98388815088E+03  0.25500000920E-02 0.  1.
       -2    1    3    3    0  502 -0.28992732112E+03 -0.43414843698E+03  0.57880148203E+03  0.77945742184E+03  0.25500000920E-02 0. -1.
</event>
<event>
 5   0  0.1036691E-05  0.2537361E+04  0.7818609E-02  0.8389795E-01
        1   -1    0    0  501    0  0.00000000000E+00  0.00000000000E+00  0.14351981286E+04  0.14351981286E+04  0.50400001928E-02 0. -1.
       -1   -1    0    0    0  501  0.00000000000E+00  0.00000000000E+00 -0.11214831090E+04  0.11214831090E+04  0.50400001928E-02 0.  1.
    10030    2    1    2    0    0  0.00000000000E+00  0.00000000000E+00  0.31371501960E+03  0.25566812377E+04  0.25373611957E+04 0.  0.
        4    1    3    3  502    0  0.11467153042E+04 -0.26549630282E+03  0.63385890320E+03  0.13368705987E+04  0.12699999809E+01 0. -1.
       -4    1    3    3    0  502 -0.11467153042E+04  0.26549630282E+03 -0.32014388361E+03  0.12198106389E+04  0.12699999809E+01 0.  1.
</event>
<event>
 5   0  0.2540232E-05  0.2663558E+04  0.7818609E-02  0.8346927E-01
       -2   -1    0    0    0  501  0.00000000000E+00  0.00000000000E+00  0.14040309407E+04  0.14040309407E+04  0.25500000920E-02 0.  1.
        2   -1    0    0  501    0  0.00000000000E+00  0.00000000000E+00 -0.12632451621E+04  0.12632451621E+04  0.25500000920E-02 0. -1.
    10030    2    1    2    0    0  0.00000000000E+00  0.00000000000E+00  0.14078577863E+03  0.26672761029E+04  0.26635579914E+04 0.  0.
        1    1    3    3  502    0  0.75635968724E+02 -0.77713197441E+03 -0.10099923665E+04  0.12766125042E+04  0.50400001928E-02 0. -1.
       -1    1    3    3    0  502 -0.75635968724E+02  0.77713197441E+03  0.11507781451E+04  0.13906635987E+04  0.50400001928E-02 0.  1.
</event>
<event>
 5   0  0.2516518E-05  0.2699542E+04  0.7818609E-02  0.8335154E-01
       -2   -1    0    0    0  501  0.00000000000E+00  0.00000000000E+00  0.99367513532E+03  0.99367513532E+03  0.25500000920E-02 0. -1.
        2   -1    0    0  501    0  0.00000000000E+00  0.00000000000E+00 -0.18334785539E+04  0.18334785539E+04  0.25500000920E-02 0.  1.
    10030    2    1    2    0    0  0.00000000000E+00  0.00000000000E+00 -0.83980341855E+03  0.28271536892E+04  0.26995422206E+04 0.  0.
        4    1    3    3  502    0 -0.53289070652E+02  0.60305819324E+02  0.99115974498E+03  0.99442232973E+03  0.12699999809E+01 0. -1.
       -4    1    3    3    0  502  0.53289070652E+02 -0.60305819324E+02 -0.18309631635E+04  0.18327313595E+04  0.12699999809E+01 0.  1.
</event>
<event>
 5   0  0.1005265E-05  0.2728093E+04  0.7818609E-02  0.8325947E-01
        1   -1    0    0  501    0  0.00000000000E+00  0.00000000000E+00  0.11428008823E+04  0.11428008823E+04  0.50400001928E-02 0.  1.
       -1   -1    0    0    0  501  0.00000000000E+00  0.00000000000E+00 -0.16281253653E+04  0.16281253653E+04  0.50400001928E-02 0. -1.
    10030    2    1    2    0    0  0.00000000000E+00  0.00000000000E+00 -0.48532448302E+03  0.27709262475E+04  0.27280931831E+04 0.  0.
        3    1    3    3  502    0  0.85418829269E+03 -0.73798439022E+02  0.83490923576E+03  0.11967277431E+04  0.10100000352E+00 0.  1.
       -3    1    3    3    0  502 -0.85418829269E+03  0.73798439022E+02 -0.13202337188E+04  0.15741985044E+04  0.10100000352E+00 0. -1.
</event>
<event>
 5   0  0.2615843E-05  0.2514746E+04  0.7818609E-02  0.8397751E-01
       -2   -1    0    0    0  501  0.00000000000E+00  0.00000000000E+00  0.11771527602E+04  0.11771527602E+04  0.25500000920E-02 0. -1.
        2   -1    0    0  501    0  0.00000000000E+00  0.00000000000E+00 -0.13430604078E+04  0.13430604078E+04  0.25500000920E-02 0.  1.
    10030    2    1    2    0    0  0.00000000000E+00  0.00000000000E+00 -0.16590764754E+03  0.25202131680E+04  0.25147463222E+04 0.  0.
        3    1    3    3  502    0 -0.88171989243E+03  0.44380048566E+03  0.69758360024E+03  0.12087231814E+04  0.10100000352E+00 0. -1.
       -3    1    3    3    0  502  0.88171989243E+03 -0.44380048566E+03 -0.86349124778E+03  0.13114899866E+04  0.10100000352E+00 0.  1.
</event>
<event>
 5   0  0.1005265E-05  0.2443286E+04  0.7818609E-02  0.8423473E-01
       -1   -1    0    0    0  501  0.00000000000E+00  0.00000000000E+00  0.76245408731E+03  0.76245408733E+03  0.50400001928E-02 0.  1.
        1   -1    0    0  501    0  0.00000000000E+00  0.00000000000E+00 -0.19573797821E+04  0.19573797821E+04  0.50400001928E-02 0. -1.
    10030    2    1    2    0    0  0.00000000000E+00  0.00000000000E+00 -0.11949256948E+04  0.27198338694E+04  0.24432864877E+04 0.  0.
        3    1    3    3  502    0  0.44158655554E+03  0.89329544839E+03 -0.13841611934E+04  0.17055432166E+04  0.10100000352E+00 0. -1.
       -3    1    3    3    0  502 -0.44158655554E+03 -0.89329544839E+03  0.18923549868E+03  0.10142906528E+04  0.10100000352E+00 0.  1.
</event>
<event>
 5   0  0.9971923E-06  0.2712644E+04  0.7818609E-02  0.8330914E-01
       -1   -1    0    0    0  501  0.00000000000E+00  0.00000000000E+00  0.98986290951E+03  0.98986290952E+03  0.50400001928E-02 0. -1.
        1   -1    0    0  501    0  0.00000000000E+00  0.00000000000E+00 -0.18584482298E+04  0.18584482298E+04  0.50400001928E-02 0.  1.
    10030    2    1    2    0    0  0.00000000000E+00  0.00000000000E+00 -0.86858532025E+03  0.28483111393E+04  0.27126437082E+04 0.  0.
        2    1    3    3  502    0 -0.99587616017E+03  0.86205413684E+03 -0.77405309689E+03  0.15277646606E+04  0.25500000920E-02 0.  1.
       -2    1    3    3    0  502  0.99587616017E+03 -0.86205413684E+03 -0.94532223366E+02  0.13205464787E+04  0.25500000920E-02 0. -1.
</event>
<event>
 5   0  0.2540684E-05  0.2559130E+04  0.7818609E-02  0.8382218E-01
        2   -1    0    0  501    0  0.00000000000E+00  0.00000000000E+00  0.15804601935E+04  0.15804601935E+04  0.25500000920E-02 0.  1.
       -2   -1    0    0    0  501  0.00000000000E+00  0.00000000000E+00 -0.10359559820E+04  0.10359559820E+04  0.25500000920E-02 0. -1.
    10030    2    1    2    0    0  0.00000000000E+00  0.00000000000E+00  0.54450421150E+03  0.26164161755E+04  0.25591304709E+04 0.  0.
        2    1    3    3  502    0  0.85192068525E+03 -0.66877745447E+03  0.96886693897E+03  0.14531810909E+04  0.25500000920E-02 0.  1.
       -2    1    3    3    0  502 -0.85192068525E+03  0.66877745447E+03 -0.42436272746E+03  0.11632350846E+04  0.25500000920E-02 0. -1.
</event>
<event>
 5   0  0.1041909E-05  0.2676539E+04  0.7818609E-02  0.8342658E-01
       -1   -1    0    0    0  501  0.00000000000E+00  0.00000000000E+00  0.13236371725E+04  0.13236371725E+04  0.50400001928E-02 0.  1.
        1   -1    0    0  501    0  0.00000000000E+00  0.00000000000E+00 -0.13530631188E+04  0.13530631188E+04  0.50400001928E-02 0. -1.
    10030    2    1    2    0    0  0.00000000000E+00  0.00000000000E+00 -0.29425946312E+02  0.26767002914E+04  0.26765385414E+04 0.  0.
        5    1    3    3  502    0 -0.51170601029E+03 -0.49303516606E+03 -0.11488078872E+04  0.13508176663E+04  0.46999998093E+01 0. -1.
       -5    1    3    3    0  502  0.51170601029E+03  0.49303516606E+03  0.11193819409E+04  0.13258826251E+04  0.46999998093E+01 0.  1.
</event>
<event>
 5   0  0.1096672E-05  0.2670795E+04  0.7818609E-02  0.8344543E-01
       -1   -1    0    0    0  501  0.00000000000E+00  0.00000000000E+00  0.71758671191E+03  0.71758671193E+03  0.50400001928E-02 0.  1.
        1   -1    0    0  501    0  0.00000000000E+00  0.00000000000E+00 -0.24851170433E+04  0.24851170433E+04  0.50400001928E-02 0. -1.
    10030    2    1    2    0    0  0.00000000000E+00  0.00000000000E+00 -0.17675303314E+04  0.32027037552E+04  0.26707953630E+04 0.  0.
        1    1    3    3  502    0 -0.71648308702E+01  0.96506285432E+03  0.22303124560E+03  0.99052540812E+03  0.50400001928E-02 0.  1.
       -1    1    3    3    0  502  0.71648308702E+01 -0.96506285432E+03 -0.19905615770E+04  0.22121783471E+04  0.50400001928E-02 0. -1.
</event>
<event>
 5   0  0.2516518E-05  0.2815877E+04  0.7818609E-02  0.8298356E-01
        2   -1    0    0  501    0  0.00000000000E+00  0.00000000000E+00  0.20512062651E+04  0.20512062651E+04  0.25500000920E-02 0. -1.
       -2   -1    0    0    0  501  0.00000000000E+00  0.00000000000E+00 -0.96640278218E+03  0.96640278218E+03  0.25500000920E-02 0.  1.
    10030    2    1    2    0    0  0.00000000000E+00  0.00000000000E+00  0.10848034829E+04  0.30176090473E+04  0.28158774415E+04 0.  0.
        4    1    3    3  502    0  0.11590345168E+04 -0.38321989822E+02  0.13980115928E+04  0.18163886183E+04  0.12699999809E+01 0. -1.
       -4    1    3    3    0  502 -0.11590345168E+04  0.38321989822E+02 -0.31320810985E+03  0.12012204290E+04  0.12699999809E+01 0.  1.
</event>
<event>
 5   0  0.1096672E-05  0.2875746E+04  0.7818609E-02  0.8280131E-01
       -1   -1    0    0    0  501  0.00000000000E+00  0.00000000000E+00  0.15506943232E+04  0.15506943232E+04  0.50400001928E-02 0.  1.
        1   -1    0    0  501    0  0.00000000000E+00  0.00000000000E+00 -0.13332597241E+04  0.13332597241E+04  0.50400001928E-02 0. -1.
    10030    2    1    2    0    0  0.00000000000E+00  0.00000000000E+00  0.21743459910E+03  0.28839540473E+04  0.28757456672E+04 0.  0.
        1    1    3    3  502    0 -0.61323163061E+03 -0.12940277162E+04  0.23915593388E+03  0.14518113940E+04  0.50400001928E-02 0.  1.
       -1    1    3    3    0  502  0.61323163061E+03  0.12940277162E+04 -0.21721334780E+02  0.14321426533E+04  0.50400001928E-02 0. -1.
</event>
<event>
 5   0  0.2516518E-05  0.2722705E+04  0.7818609E-02  0.8327676E-01
        2   -1    0    0  501    0  0.00000000000E+00  0.00000000000E+00  0.24666115639E+04  0.24666115639E+04  0.25500000920E-02 0. -1.
       -2   -1    0    0    0  501  0.00000000000E+00  0.00000000000E+00 -0.75134651213E+03  0.75134651214E+03  0.25500000920E-02 0.  1.
    10030    2    1    2    0    0  0.00000000000E+00  0.00000000000E+00  0.17152650518E+04  0.32179580761E+04  0.27227045344E+04 0.  0.
        4    1    3    3  502    0  0.25270928871E+03 -0.12032040662E+04  0.16673639410E+03  0.12407113474E+04  0.12699999809E+01 0.  1.
       -4    1    3    3    0  502 -0.25270928871E+03  0.12032040662E+04  0.15485286577E+04  0.19772467287E+04  0.12699999809E+01 0. -1.
</event>
<event>
 5   0  0.2641216E-05  0.2723929E+04  0.7818609E-02  0.8327282E-01
       -2   -1    0    0    0  501  0.00000000000E+00  0.00000000000E+00  0.10575593502E+04  0.10575593502E+04  0.25500000920E-02 0.  1.
        2   -1    0    0  501    0  0.00000000000E+00  0.00000000000E+00 -0.17539891831E+04  0.17539891831E+04  0.25500000920E-02 0. -1.
    10030    2    1    2    0    0  0.00000000000E+00  0.00000000000E+00 -0.69642983291E+03  0.28115485332E+04  0.27239292653E+04 0.  0.
        5    1    3    3  502    0  0.96644303879E+03  0.85024199232E+02 -0.13348302082E+04  0.16501621243E+04  0.46999998093E+01 0. -1.
       -5    1    3    3    0  502 -0.96644303879E+03 -0.85024199232E+02  0.63840037531E+03  0.11613864089E+04  0.46999998093E+01 0.  1.
</event>
<event>
 5   0  0.1036691E-05  0.2342375E+04  0.7818609E-02  0.8461398E-01
       -1   -1    0    0    0  501  0.00000000000E+00  0.00000000000E+00  0.69710475634E+03  0.69710475636E+03  0.50400001928E-02 0. -1.
        1   -1    0    0  501    0  0.00000000000E+00  0.00000000000E+00 -0.19676818931E+04  0.19676818931E+04  0.50400001928E-02 0.  1.
    10030    2    1    2    0    0  0.00000000000E+00  0.00000000000E+00 -0.12705771367E+04  0.26647866494E+04  0.23423752105E+04 0.  0.
        4    1    3    3  502    0 -0.45341716354E+03 -0.84949742355E+03  0.12314122038E+03  0.97077204836E+03  0.12699999809E+01 0. -1.
       -4    1    3    3    0  502  0.45341716354E+03  0.84949742355E+03 -0.13937183571E+04  0.16940146011E+04  0.12699999809E+01 0.  1.
</event>
<event>
 5   0  0.2641216E-05  0.2219038E+04  0.7818609E-02  0.8510546E-01
        2   -1    0    0  501    0  0.00000000000E+00  0.00000000000E+00  0.10072539839E+04  0.10072539839E+04  0.25500000920E-02 0.  1.
       -2   -1    0    0    0  501  0.00000000000E+00  0.00000000000E+00 -0.12221671587E+04  0.12221671587E+04  0.25500000920E-02 0. -1.
    10030    2    1    2    0    0  0.00000000000E+00  0.00000000000E+00 -0.21491317476E+03  0.22294211426E+04  0.22190382958E+04 0.  0.
        5    1    3    3  502    0  0.48922147691E+03  0.74455162701E+03  0.55693624348E+03  0.10506640034E+04  0.46999998093E+01 0.  1.
       -5    1    3    3    0  502 -0.48922147691E+03 -0.74455162701E+03 -0.77184941824E+03  0.11787571392E+04  0.46999998093E+01 0. -1.
</event>
<event>
 5   0  0.9971923E-06  0.2336047E+04  0.7818609E-02  0.8463842E-01
        1   -1    0    0  501    0  0.00000000000E+00  0.00000000000E+00  0.22966949824E+04  0.22966949824E+04  0.50400001928E-02 0. -1.
       -1   -1    0    0    0  501  0.00000000000E+00  0.00000000000E+00 -0.59401832410E+03  0.59401832413E+03  0.50400001928E-02 0.  1.
    10030    2    1    2    0    0  0.00000000000E+00  0.00000000000E+00  0.17026766583E+04  0.28907133065E+04  0.23360470068E+04 0.  0.
        2    1    3    3  502    0 -0.62124194893E+03  0.81827196768E+02 -0.36842762323E+03  0.72689487741E+03  0.25500000920E-02 0.  1.
       -2    1    3    3    0  502  0.62124194893E+03 -0.81827196768E+02  0.20711042815E+04  0.21638184291E+04  0.25500000920E-02 0. -1.
</event>
<event>
 5   0  0.2540684E-05  0.2738630E+04  0.7818609E-02  0.8322579E-01
        2   -1    0    0  501    0  0.00000000000E+00  0.00000000000E+00  0.12869584036E+04  0.12869584036E+04  0.25500000920E-02 0.  1.
       -2   -1    0    0    0  501  0.00000000000E+00  0.00000000000E+00 -0.14569415349E+04  0.14569415349E+04  0.25500000920E-02 0. -1.
    10030    2    1    2    0    0  0.00000000000E+00  0.00000000000E+00 -0.16998313131E+03  0.27438999385E+04  0.27386296952E+04 0.  0.
        2    1    3    3  502    0 -0.76409924648E+03 -0.83644339551E+03  0.68560356271E+03  0.13242120138E+04  0.25500000920E-02 0.  1.
       -2    1    3    3    0  502  0.76409924648E+03  0.83644339551E+03 -0.85558669401E+03  0.14196879246E+04  0.25500000920E-02 0. -1.
</event>
<event>
 5   0  0.1041909E-05  0.2619580E+04  0.7818609E-02  0.8361581E-01
       -1   -1    0    0    0  501  0.00000000000E+00  0.00000000000E+00  0.95768261763E+03  0.95768261764E+03  0.50400001928E-02 0.  1.
        1   -1    0    0  501    0  0.00000000000E+00  0.00000000000E+00 -0.17913554355E+04  0.17913554355E+04  0.50400001928E-02 0. -1.
    10030    2    1    2    0    0  0.00000000000E+00  0.00000000000E+00 -0.83367281782E+03  0.27490380531E+04  0.26195800904E+04 0.  0.
        5    1    3    3  502    0  0.81583554738E+03  0.76799585943E+03  0.29500926391E+03  0.11586448275E+04  0.46999998093E+01 0.  1.
       -5    1    3    3    0  502 -0.81583554738E+03 -0.76799585943E+03 -0.11286820817E+04  0.15903932256E+04  0.46999998093E+01 0. -1.
</event>
</LesHouchesEvents>
